Built with Packmol
22230
    1LIG      O    1   1.977   1.970   0.066
    1LIG      C    2   2.042   2.020   0.217
    1LIG     C1    3   1.971   1.967   0.377
    1LIG     O1    4   2.035   2.017   0.530
    1LIG     C2    5   1.970   1.968   0.681
    1LIG     C3    6   2.041   2.023   0.838
    1LIG     O2    7   1.977   1.975   0.990
    1LIG     C4    8   2.040   2.025   1.142
    1LIG     C5    9   1.968   1.970   1.300
    1LIG     O3   10   2.031   2.020   1.452
    1LIG     C6   11   1.966   1.971   1.603
    1LIG     C7   12   2.038   2.027   1.760
    1LIG     O4   13   1.974   1.979   1.913
    1LIG     C8   14   2.038   2.029   2.065
    1LIG     C9   15   1.965   1.973   2.221
    1LIG     O5   16   2.029   2.023   2.373
    1LIG    C10   17   1.965   1.974   2.525
    1LIG    C11   18   2.037   2.030   2.682
    1LIG     O6   19   1.973   1.981   2.833
    1LIG    C12   20   2.036   2.030   2.985
    1LIG    C13   21   1.963   1.975   3.142
    1LIG     O7   22   2.027   2.024   3.294
    1LIG    C14   23   1.963   1.975   3.446
    1LIG    C15   24   2.035   2.030   3.604
    1LIG     O8   25   1.971   1.981   3.757
    1LIG    C16   26   2.035   2.031   3.908
    1LIG    C17   27   1.964   1.976   4.066
    1LIG     O9   28   2.027   2.025   4.219
    1LIG    C18   29   1.962   1.976   4.369
    1LIG    C19   30   2.034   2.031   4.526
    1LIG    O10   31   1.971   1.982   4.678
    1LIG    C20   32   2.035   2.032   4.830
    1LIG    C21   33   1.962   1.976   4.986
    1LIG    O11   34   2.026   2.025   5.138
    1LIG    C22   35   1.962   1.976   5.290
    1LIG    C23   36   2.034   2.032   5.447
    1LIG    O12   37   1.970   1.983   5.598
    1LIG    C24   38   2.034   2.032   5.751
    1LIG    C25   39   1.962   1.977   5.909
    1LIG    O13   40   2.025   2.026   6.061
    1LIG    C26   41   1.961   1.977   6.212
    1LIG    C27   42   2.033   2.032   6.369
    1LIG    O14   43   1.969   1.983   6.521
    1LIG    C28   44   2.034   2.032   6.673
    1LIG    C29   45   1.962   1.976   6.831
    1LIG    O15   46   2.026   2.025   6.983
    1LIG    C30   47   1.962   1.976   7.134
    1LIG    C31   48   2.034   2.031   7.291
    1LIG    O16   49   1.970   1.982   7.442
    1LIG    C32   50   2.034   2.031   7.594
    1LIG    C33   51   1.962   1.976   7.752
    1LIG    O17   52   2.026   2.025   7.904
    1LIG    C34   53   1.962   1.975   8.056
    1LIG    C35   54   2.034   2.030   8.213
    1LIG    O18   55   1.970   1.981   8.365
    1LIG    C36   56   2.034   2.030   8.516
    1LIG    C37   57   1.963   1.975   8.674
    1LIG    O19   58   2.027   2.024   8.827
    1LIG    C38   59   1.963   1.974   8.978
    1LIG    C39   60   2.034   2.029   9.136
    1LIG    O20   61   1.971   1.980   9.288
    1LIG    C40   62   2.035   2.029   9.439
    1LIG    C41   63   1.964   1.974   9.597
    1LIG    O21   64   2.027   2.023   9.749
    1LIG    C42   65   1.963   1.973   9.900
    1LIG    C43   66   2.035   2.028  10.057
    1LIG    O22   67   1.972   1.979  10.209
    1LIG    C44   68   2.036   2.028  10.361
    1LIG    C45   69   1.964   1.972  10.518
    1LIG    O23   70   2.028   2.021  10.670
    1LIG    C46   71   1.964   1.972  10.822
    1LIG    C47   72   2.037   2.028  10.979
    1LIG    O24   73   1.973   1.978  11.130
    1LIG    C48   74   2.036   2.027  11.282
    1LIG    C49   75   1.964   1.971  11.439
    1LIG    O25   76   2.028   2.020  11.591
    1LIG    C50   77   1.965   1.971  11.743
    1LIG    C51   78   2.037   2.027  11.900
    1LIG    O26   79   1.974   1.977  12.051
    1LIG    C52   80   2.037   2.026  12.204
    1LIG    C53   81   1.965   1.969  12.360
    1LIG    O27   82   2.029   2.019  12.512
    1LIG    C54   83   1.966   1.969  12.664
    1LIG    C55   84   2.038   2.025  12.822
    1LIG    O28   85   1.974   1.975  12.974
    1LIG    C56   86   2.038   2.024  13.127
    1LIG    C57   87   1.967   1.968  13.285
    1LIG    O29   88   2.031   2.017  13.438
    1LIG    C58   89   1.967   1.967  13.589
    1LIG    C59   90   2.038   2.022  13.747
    1LIG      H   91   2.039   2.130   0.214
    1LIG     H1   92   2.147   1.989   0.215
    1LIG     H2   93   1.974   1.858   0.377
    1LIG     H3   94   1.866   1.998   0.375
    1LIG     H4   95   1.973   1.858   0.683
    1LIG     H5   96   1.865   1.999   0.682
    1LIG     H6   97   2.039   2.133   0.836
    1LIG     H7   98   2.147   1.992   0.837
    1LIG     H8   99   2.038   2.134   1.143
    1LIG     H9  100   2.145   1.994   1.145
    1LIG    H10  101   1.971   1.861   1.299
    1LIG    H11  102   1.863   2.001   1.297
    1LIG    H12  103   1.969   1.862   1.606
    1LIG    H13  104   1.861   2.002   1.604
    1LIG    H14  105   2.035   2.137   1.758
    1LIG    H15  106   2.143   1.996   1.759
    1LIG    H16  107   2.035   2.138   2.066
    1LIG    H17  108   2.143   1.998   2.067
    1LIG    H18  109   1.968   1.864   2.219
    1LIG    H19  110   1.860   2.004   2.219
    1LIG    H20  111   1.967   1.864   2.527
    1LIG    H21  112   1.859   2.005   2.527
    1LIG    H22  113   2.034   2.139   2.679
    1LIG    H23  114   2.142   1.999   2.680
    1LIG    H24  115   2.033   2.139   2.987
    1LIG    H25  116   2.141   1.999   2.988
    1LIG    H26  117   1.966   1.865   3.141
    1LIG    H27  118   1.858   2.006   3.140
    1LIG    H28  119   1.966   1.865   3.448
    1LIG    H29  120   1.858   2.006   3.448
    1LIG    H30  121   2.032   2.140   3.602
    1LIG    H31  122   2.140   1.999   3.603
    1LIG    H32  123   2.032   2.141   3.909
    1LIG    H33  124   2.140   2.000   3.910
    1LIG    H34  125   1.966   1.867   4.064
    1LIG    H35  126   1.858   2.007   4.064
    1LIG    H36  127   1.965   1.866   4.371
    1LIG    H37  128   1.857   2.007   4.371
    1LIG    H38  129   2.031   2.141   4.524
    1LIG    H39  130   2.139   2.000   4.524
    1LIG    H40  131   2.032   2.141   4.832
    1LIG    H41  132   2.140   2.001   4.832
    1LIG    H42  133   1.965   1.867   4.985
    1LIG    H43  134   1.857   2.007   4.984
    1LIG    H44  135   1.965   1.867   5.292
    1LIG    H45  136   1.857   2.007   5.292
    1LIG    H46  137   2.031   2.142   5.445
    1LIG    H47  138   2.140   2.001   5.445
    1LIG    H48  139   2.031   2.141   5.753
    1LIG    H49  140   2.139   2.001   5.753
    1LIG    H50  141   1.965   1.867   5.907
    1LIG    H51  142   1.857   2.008   5.907
    1LIG    H52  143   1.964   1.867   6.214
    1LIG    H53  144   1.856   2.008   6.214
    1LIG    H54  145   2.030   2.142   6.368
    1LIG    H55  146   2.138   2.001   6.367
    1LIG    H56  147   2.031   2.141   6.675
    1LIG    H57  148   2.139   2.001   6.675
    1LIG    H58  149   1.965   1.867   6.829
    1LIG    H59  150   1.857   2.007   6.830
    1LIG    H60  151   1.965   1.866   7.136
    1LIG    H61  152   1.857   2.007   7.136
    1LIG    H62  153   2.031   2.141   7.289
    1LIG    H63  154   2.139   2.000   7.289
    1LIG    H64  155   2.031   2.140   7.596
    1LIG    H65  156   2.139   2.000   7.596
    1LIG    H66  157   1.965   1.866   7.750
    1LIG    H67  158   1.857   2.007   7.751
    1LIG    H68  159   1.965   1.866   8.057
    1LIG    H69  160   1.857   2.006   8.057
    1LIG    H70  161   2.031   2.140   8.212
    1LIG    H71  162   2.139   2.000   8.211
    1LIG    H72  163   2.031   2.140   8.518
    1LIG    H73  164   2.140   2.000   8.518
    1LIG    H74  165   1.966   1.866   8.673
    1LIG    H75  166   1.858   2.006   8.673
    1LIG    H76  167   1.966   1.865   8.979
    1LIG    H77  168   1.858   2.005   8.979
    1LIG    H78  169   2.031   2.138   9.134
    1LIG    H79  170   2.140   1.998   9.134
    1LIG    H80  171   2.032   2.139   9.441
    1LIG    H81  172   2.140   1.999   9.440
    1LIG    H82  173   1.967   1.864   9.595
    1LIG    H83  174   1.858   2.004   9.595
    1LIG    H84  175   1.967   1.863   9.902
    1LIG    H85  176   1.858   2.003   9.902
    1LIG    H86  177   2.032   2.138  10.055
    1LIG    H87  178   2.141   1.998  10.055
    1LIG    H88  179   2.033   2.138  10.363
    1LIG    H89  180   2.141   1.998  10.363
    1LIG    H90  181   1.967   1.863  10.516
    1LIG    H91  182   1.859   2.003  10.516
    1LIG    H92  183   1.968   1.862  10.824
    1LIG    H93  184   1.859   2.002  10.824
    1LIG    H94  185   2.033   2.137  10.977
    1LIG    H95  186   2.142   1.997  10.977
    1LIG    H96  187   2.033   2.136  11.285
    1LIG    H97  188   2.141   1.996  11.284
    1LIG    H98  189   1.968   1.861  11.437
    1LIG    H99  190   1.859   2.001  11.438
    1LIG   H100  191   1.968   1.861  11.745
    1LIG   H101  192   1.860   2.001  11.746
    1LIG   H102  193   2.034   2.136  11.898
    1LIG   H103  194   2.142   1.996  11.898
    1LIG   H104  195   2.034   2.135  12.206
    1LIG   H105  196   2.142   1.995  12.206
    1LIG   H106  197   1.969   1.860  12.358
    1LIG   H107  198   1.860   2.000  12.359
    1LIG   H108  199   1.970   1.860  12.666
    1LIG   H109  200   1.861   2.000  12.666
    1LIG   H110  201   2.034   2.134  12.821
    1LIG   H111  202   2.143   1.994  12.820
    1LIG   H112  203   2.035   2.134  13.128
    1LIG   H113  204   2.144   1.994  13.128
    1LIG   H114  205   1.971   1.859  13.283
    1LIG   H115  206   1.862   1.999  13.284
    1LIG   H116  207   1.971   1.857  13.589
    1LIG   H117  208   1.862   1.999  13.590
    1LIG   H118  209   2.143   1.992  13.747
    1LIG   H119  210   1.991   1.985  13.866
    1MOL     C1  211   1.479   1.547   6.346
    1MOL     H1  212   1.457   1.440   6.336
    1MOL     O1  213   1.433   1.580   6.476
    1MOL     C2  214   1.453   1.718   6.512
    1MOL     H2  215   1.559   1.745   6.498
    1MOL     C3  216   1.422   1.731   6.660
    1MOL     H3  217   1.455   1.830   6.695
    1MOL     H4  218   1.478   1.654   6.715
    1MOL     O2  219   1.282   1.716   6.682
    1MOL     C4  220   1.247   1.733   6.818
    1MOL     C5  221   1.397   1.628   6.243
    1MOL     H5  222   1.294   1.592   6.251
    1MOL     O3  223   1.443   1.613   6.110
    1MOL     C6  224   1.413   1.489   6.050
    1MOL     C7  225   1.396   1.779   6.273
    1MOL     H6  226   1.494   1.821   6.249
    1MOL     O4  227   1.294   1.839   6.195
    1MOL     C8  228   1.341   1.930   6.097
    1MOL     C9  229   1.366   1.807   6.421
    1MOL     H7  230   1.261   1.783   6.440
    1MOL     O5  231   1.391   1.946   6.443
    1MOL    C10  232   1.305   2.015   6.532
    1MOL     H8  233   1.227   1.948   6.567
    1MOL     O6  234   1.374   2.055   6.649
    1MOL    C11  235   1.485   2.143   6.625
    1MOL     H9  236   1.555   2.095   6.555
    1MOL    C12  237   1.558   2.162   6.757
    1MOL    H10  238   1.654   2.210   6.738
    1MOL    H11  239   1.576   2.063   6.802
    1MOL     O7  240   1.480   2.242   6.844
    1MOL    C13  241   1.546   2.270   6.965
    1MOL    C14  242   1.245   2.139   6.463
    1MOL    H12  243   1.170   2.180   6.532
    1MOL     O8  244   1.185   2.111   6.338
    1MOL    C15  245   1.061   2.044   6.345
    1MOL    C16  246   1.349   2.249   6.438
    1MOL    H13  247   1.415   2.216   6.357
    1MOL     O9  248   1.283   2.369   6.404
    1MOL    C17  249   1.297   2.409   6.269
    1MOL    C18  250   1.435   2.275   6.562
    1MOL    H14  251   1.374   2.327   6.636
    1MOL    O10  252   1.544   2.357   6.521
    1MOL    C19  253   1.585   2.462   6.606
    1MOL    H15  254   1.518   2.469   6.692
    1MOL    O11  255   1.713   2.436   6.663
    1MOL    C20  256   1.818   2.422   6.568
    1MOL    H16  257   1.792   2.343   6.495
    1MOL    C21  258   1.941   2.373   6.643
    1MOL    H17  259   2.017   2.341   6.570
    1MOL    H18  260   1.912   2.286   6.703
    1MOL    O12  261   1.991   2.476   6.727
    1MOL    C22  262   2.092   2.430   6.814
    1MOL    C23  263   1.591   2.595   6.528
    1MOL    H19  264   1.613   2.674   6.602
    1MOL    O13  265   1.472   2.625   6.459
    1MOL    C24  266   1.364   2.666   6.542
    1MOL    C25  267   1.705   2.595   6.426
    1MOL    H20  268   1.682   2.523   6.346
    1MOL    O14  269   1.719   2.726   6.371
    1MOL    C26  270   1.663   2.742   6.241
    1MOL    C27  271   1.838   2.554   6.491
    1MOL    H21  272   1.872   2.631   6.561
    1MOL    O15  273   1.938   2.530   6.391
    1MOL    C28  274   2.010   2.644   6.348
    1MOL    H22  275   1.944   2.730   6.344
    1MOL    O16  276   2.113   2.681   6.438
    1MOL    C29  277   2.213   2.581   6.461
    1MOL    H23  278   2.167   2.491   6.504
    1MOL    C30  279   2.307   2.639   6.566
    1MOL    H24  280   2.371   2.559   6.607
    1MOL    H25  281   2.245   2.680   6.647
    1MOL    O17  282   2.388   2.740   6.508
    1MOL    C31  283   2.472   2.802   6.603
    1MOL    C32  284   2.070   2.614   6.210
    1MOL    H26  285   2.119   2.706   6.176
    1MOL    O18  286   1.966   2.577   6.121
    1MOL    C33  287   1.980   2.629   5.990
    1MOL    C34  288   2.178   2.505   6.221
    1MOL    H27  289   2.129   2.411   6.249
    1MOL    O19  290   2.241   2.492   6.094
    1MOL    C35  291   2.256   2.358   6.048
    1MOL    C36  292   2.282   2.542   6.328
    1MOL    H28  293   2.339   2.628   6.291
    1MOL    O20  294   2.369   2.429   6.344
    1MOL    C37  295   2.503   2.455   6.379
    1MOL    H29  296   2.521   2.563   6.381
    1MOL    O21  297   2.532   2.412   6.511
    1MOL    C38  298   2.515   2.271   6.532
    1MOL    H30  299   2.413   2.243   6.503
    1MOL    C39  300   2.528   2.246   6.682
    1MOL    H31  301   2.495   2.144   6.704
    1MOL    H32  302   2.463   2.317   6.736
    1MOL    O22  303   2.663   2.263   6.721
    1MOL    C40  304   2.684   2.230   6.857
    1MOL    C41  305   2.600   2.385   6.281
    1MOL    H33  306   2.701   2.423   6.304
    1MOL    O23  307   2.569   2.410   6.145
    1MOL    C42  308   2.601   2.540   6.098
    1MOL    C43  309   2.604   2.233   6.299
    1MOL    H34  310   2.511   2.190   6.259
    1MOL    O24  311   2.716   2.182   6.229
    1MOL    C44  312   2.685   2.102   6.116
    1MOL    C45  313   2.616   2.194   6.446
    1MOL    H35  314   2.717   2.219   6.481
    1MOL    O25  315   2.595   2.052   6.454
    1MOL    C46  316   2.677   1.979   6.544
    1MOL    H36  317   2.752   2.045   6.588
    1MOL    O26  318   2.603   1.930   6.654
    1MOL    C47  319   2.497   1.840   6.621
    1MOL    H37  320   2.428   1.888   6.550
    1MOL    C48  321   2.419   1.811   6.749
    1MOL    H38  322   2.324   1.763   6.724
    1MOL    H39  323   2.397   1.908   6.798
    1MOL    O27  324   2.496   1.729   6.834
    1MOL    C49  325   2.423   1.689   6.949
    1MOL    C50  326   2.743   1.860   6.471
    1MOL    H40  327   2.816   1.817   6.541
    1MOL    O28  328   2.809   1.897   6.351
    1MOL    C51  329   2.931   1.967   6.369
    1MOL    C52  330   2.643   1.750   6.435
    1MOL    H41  331   2.578   1.786   6.354
    1MOL    O29  332   2.714   1.634   6.394
    1MOL    C53  333   2.709   1.608   6.255
    1MOL    C54  334   2.556   1.714   6.555
    1MOL    H42  335   2.618   1.663   6.630
    1MOL    O30  336   2.453   1.625   6.510
    1MOL    C55  337   2.429   1.508   6.584
    1MOL    H43  338   2.509   1.493   6.657
    1MOL    O31  339   2.311   1.515   6.661
    1MOL    C56  340   2.189   1.534   6.587
    1MOL    H44  341   2.193   1.629   6.532
    1MOL    C57  342   2.078   1.539   6.690
    1MOL    H45  343   2.093   1.457   6.763
    1MOL    H46  344   1.981   1.523   6.642
    1MOL    O32  345   2.081   1.665   6.756
    1MOL    C58  346   1.980   1.676   6.854
    1MOL    C59  347   2.419   1.386   6.489
    1MOL    H47  348   2.408   1.297   6.554
    1MOL    O33  349   2.531   1.369   6.405
    1MOL    C60  350   2.648   1.322   6.470
    1MOL    C61  351   2.294   1.394   6.401
    1MOL    H48  352   2.305   1.478   6.331
    1MOL    O34  353   2.274   1.272   6.331
    1MOL    C62  354   2.326   1.269   6.199
    1MOL    C63  355   2.168   1.419   6.486
    1MOL    H49  356   2.145   1.327   6.541
    1MOL    O35  357   2.058   1.454   6.401
    1MOL    C64  358   1.975   1.347   6.362
    1MOL    H50  359   2.032   1.254   6.363
    1MOL    O36  360   1.869   1.326   6.454
    1MOL    C65  361   1.774   1.432   6.466
    1MOL    H51  362   1.824   1.525   6.495
    1MOL    C66  363   1.679   1.391   6.578
    1MOL    H52  364   1.654   1.284   6.565
    1MOL    H53  365   1.587   1.449   6.575
    1MOL    O37  366   1.746   1.411   6.702
    1MOL    C67  367   1.673   1.359   6.811
    1MOL    C68  368   1.917   1.371   6.222
    1MOL    H54  369   1.867   1.278   6.194
    1MOL    O38  370   2.022   1.400   6.130
    1MOL    C69  371   2.010   1.332   6.006
    1MOL    C70  372   1.812   1.483   6.223
    1MOL    H55  373   1.862   1.578   6.246
    1MOL    O39  374   1.752   1.489   6.094
    1MOL    C71  375   1.759   1.616   6.032
    1MOL    C72  376   1.705   1.456   6.330
    1MOL    H56  377   1.648   1.367   6.301
    1MOL    O40  378   1.617   1.570   6.331
    1MOL    H57  379   1.138   1.719   6.824
    1MOL    H58  380   1.296   1.658   6.882
    1MOL    H59  381   1.273   1.833   6.854
    1MOL    H60  382   1.731   1.380   6.901
    1MOL    H61  383   1.574   1.407   6.821
    1MOL    H62  384   1.658   1.251   6.803
    1MOL    H63  385   1.985   1.778   6.894
    1MOL    H64  386   1.880   1.658   6.811
    1MOL    H65  387   1.996   1.605   6.936
    1MOL    H66  388   2.488   1.622   7.006
    1MOL    H67  389   2.397   1.775   7.012
    1MOL    H68  390   2.332   1.635   6.921
    1MOL    H69  391   2.790   2.246   6.879
    1MOL    H70  392   2.624   2.294   6.924
    1MOL    H71  393   2.658   2.125   6.877
    1MOL    H72  394   2.530   2.878   6.550
    1MOL    H73  395   2.414   2.851   6.683
    1MOL    H74  396   2.541   2.730   6.650
    1MOL    H75  397   2.124   2.516   6.874
    1MOL    H76  398   2.054   2.351   6.881
    1MOL    H77  399   2.179   2.390   6.760
    1MOL    H78  400   1.479   2.332   7.025
    1MOL    H79  401   1.569   2.178   7.021
    1MOL    H80  402   1.640   2.325   6.948
    1MOL    H81  403   1.239   2.501   6.257
    1MOL    H82  404   1.402   2.431   6.245
    1MOL    H83  405   1.258   2.333   6.200
    1MOL    H84  406   1.020   2.043   6.244
    1MOL    H85  407   1.071   1.940   6.379
    1MOL    H86  408   0.990   2.096   6.411
    1MOL    H87  409   1.252   1.968   6.044
    1MOL    H88  410   1.392   2.016   6.143
    1MOL    H89  411   1.407   1.881   6.024
    1MOL    H90  412   1.434   1.499   5.944
    1MOL    H91  413   1.475   1.407   6.090
    1MOL    H92  414   1.307   1.463   6.063
    1MOL    H93  415   1.712   1.606   5.933
    1MOL    H94  416   1.703   1.692   6.089
    1MOL    H95  417   1.863   1.648   6.018
    1MOL    H96  418   2.095   1.365   5.945
    1MOL    H97  419   2.016   1.223   6.019
    1MOL    H98  420   1.917   1.357   5.955
    1MOL    H99  421   2.297   1.173   6.157
    1MOL   H100  422   2.283   1.349   6.138
    1MOL   H101  423   2.435   1.278   6.199
    1MOL   H102  424   2.718   1.294   6.392
    1MOL   H103  425   2.695   1.400   6.532
    1MOL   H104  426   2.626   1.234   6.532
    1MOL   H105  427   2.772   1.519   6.238
    1MOL   H106  428   2.607   1.585   6.222
    1MOL   H107  429   2.750   1.692   6.197
    1MOL   H108  430   2.979   1.973   6.271
    1MOL   H109  431   2.916   2.069   6.407
    1MOL   H110  432   2.998   1.912   6.438
    1MOL   H111  433   2.780   2.072   6.072
    1MOL   H112  434   2.630   2.012   6.145
    1MOL   H113  435   2.627   2.159   6.042
    1MOL   H114  436   2.586   2.539   5.990
    1MOL   H115  437   2.535   2.616   6.141
    1MOL   H116  438   2.706   2.565   6.120
    1MOL   H117  439   2.303   2.364   5.950
    1MOL   H118  440   2.319   2.299   6.115
    1MOL   H119  441   2.158   2.309   6.037
    1MOL   H120  442   1.894   2.593   5.933
    1MOL   H121  443   1.979   2.740   5.990
    1MOL   H122  444   2.073   2.595   5.942
    1MOL   H123  445   1.679   2.847   6.213
    1MOL   H124  446   1.713   2.677   6.168
    1MOL   H125  447   1.555   2.721   6.242
    1MOL   H126  448   1.286   2.702   6.475
    1MOL   H127  449   1.323   2.583   6.601
    1MOL   H128  450   1.394   2.748   6.609
    1MOL     C1  451   1.479   1.547   7.346
    1MOL     H1  452   1.457   1.440   7.336
    1MOL     O1  453   1.433   1.580   7.476
    1MOL     C2  454   1.453   1.718   7.512
    1MOL     H2  455   1.559   1.745   7.498
    1MOL     C3  456   1.422   1.731   7.660
    1MOL     H3  457   1.455   1.830   7.695
    1MOL     H4  458   1.478   1.654   7.715
    1MOL     O2  459   1.282   1.716   7.682
    1MOL     C4  460   1.247   1.733   7.818
    1MOL     C5  461   1.397   1.628   7.243
    1MOL     H5  462   1.294   1.592   7.251
    1MOL     O3  463   1.443   1.613   7.110
    1MOL     C6  464   1.413   1.489   7.050
    1MOL     C7  465   1.396   1.779   7.273
    1MOL     H6  466   1.494   1.821   7.249
    1MOL     O4  467   1.294   1.839   7.195
    1MOL     C8  468   1.341   1.930   7.097
    1MOL     C9  469   1.366   1.807   7.421
    1MOL     H7  470   1.261   1.783   7.440
    1MOL     O5  471   1.391   1.946   7.443
    1MOL    C10  472   1.305   2.015   7.532
    1MOL     H8  473   1.227   1.948   7.567
    1MOL     O6  474   1.374   2.055   7.649
    1MOL    C11  475   1.485   2.143   7.625
    1MOL     H9  476   1.555   2.095   7.555
    1MOL    C12  477   1.558   2.162   7.757
    1MOL    H10  478   1.654   2.210   7.738
    1MOL    H11  479   1.576   2.063   7.802
    1MOL     O7  480   1.480   2.242   7.844
    1MOL    C13  481   1.546   2.270   7.965
    1MOL    C14  482   1.245   2.139   7.463
    1MOL    H12  483   1.170   2.180   7.532
    1MOL     O8  484   1.185   2.111   7.338
    1MOL    C15  485   1.061   2.044   7.345
    1MOL    C16  486   1.349   2.249   7.438
    1MOL    H13  487   1.415   2.216   7.357
    1MOL     O9  488   1.283   2.369   7.404
    1MOL    C17  489   1.297   2.409   7.269
    1MOL    C18  490   1.435   2.275   7.562
    1MOL    H14  491   1.374   2.327   7.636
    1MOL    O10  492   1.544   2.357   7.521
    1MOL    C19  493   1.585   2.462   7.606
    1MOL    H15  494   1.518   2.469   7.692
    1MOL    O11  495   1.713   2.436   7.663
    1MOL    C20  496   1.818   2.422   7.568
    1MOL    H16  497   1.792   2.343   7.495
    1MOL    C21  498   1.941   2.373   7.643
    1MOL    H17  499   2.017   2.341   7.570
    1MOL    H18  500   1.912   2.286   7.703
    1MOL    O12  501   1.991   2.476   7.727
    1MOL    C22  502   2.092   2.430   7.814
    1MOL    C23  503   1.591   2.595   7.528
    1MOL    H19  504   1.613   2.674   7.602
    1MOL    O13  505   1.472   2.625   7.459
    1MOL    C24  506   1.364   2.666   7.542
    1MOL    C25  507   1.705   2.595   7.426
    1MOL    H20  508   1.682   2.523   7.346
    1MOL    O14  509   1.719   2.726   7.371
    1MOL    C26  510   1.663   2.742   7.241
    1MOL    C27  511   1.838   2.554   7.491
    1MOL    H21  512   1.872   2.631   7.561
    1MOL    O15  513   1.938   2.530   7.391
    1MOL    C28  514   2.010   2.644   7.348
    1MOL    H22  515   1.944   2.730   7.344
    1MOL    O16  516   2.113   2.681   7.438
    1MOL    C29  517   2.213   2.581   7.461
    1MOL    H23  518   2.167   2.491   7.504
    1MOL    C30  519   2.307   2.639   7.566
    1MOL    H24  520   2.371   2.559   7.607
    1MOL    H25  521   2.245   2.680   7.647
    1MOL    O17  522   2.388   2.740   7.508
    1MOL    C31  523   2.472   2.802   7.603
    1MOL    C32  524   2.070   2.614   7.210
    1MOL    H26  525   2.119   2.706   7.176
    1MOL    O18  526   1.966   2.577   7.121
    1MOL    C33  527   1.980   2.629   6.990
    1MOL    C34  528   2.178   2.505   7.221
    1MOL    H27  529   2.129   2.411   7.249
    1MOL    O19  530   2.241   2.492   7.094
    1MOL    C35  531   2.256   2.358   7.048
    1MOL    C36  532   2.282   2.542   7.328
    1MOL    H28  533   2.339   2.628   7.291
    1MOL    O20  534   2.369   2.429   7.344
    1MOL    C37  535   2.503   2.455   7.379
    1MOL    H29  536   2.521   2.563   7.381
    1MOL    O21  537   2.532   2.412   7.511
    1MOL    C38  538   2.515   2.271   7.532
    1MOL    H30  539   2.413   2.243   7.503
    1MOL    C39  540   2.528   2.246   7.682
    1MOL    H31  541   2.495   2.144   7.704
    1MOL    H32  542   2.463   2.317   7.736
    1MOL    O22  543   2.663   2.263   7.721
    1MOL    C40  544   2.684   2.230   7.857
    1MOL    C41  545   2.600   2.385   7.281
    1MOL    H33  546   2.701   2.423   7.304
    1MOL    O23  547   2.569   2.410   7.145
    1MOL    C42  548   2.601   2.540   7.098
    1MOL    C43  549   2.604   2.233   7.299
    1MOL    H34  550   2.511   2.190   7.259
    1MOL    O24  551   2.716   2.182   7.229
    1MOL    C44  552   2.685   2.102   7.116
    1MOL    C45  553   2.616   2.194   7.446
    1MOL    H35  554   2.717   2.219   7.481
    1MOL    O25  555   2.595   2.052   7.454
    1MOL    C46  556   2.677   1.979   7.544
    1MOL    H36  557   2.752   2.045   7.588
    1MOL    O26  558   2.603   1.930   7.654
    1MOL    C47  559   2.497   1.840   7.621
    1MOL    H37  560   2.428   1.888   7.550
    1MOL    C48  561   2.419   1.811   7.749
    1MOL    H38  562   2.324   1.763   7.724
    1MOL    H39  563   2.397   1.908   7.798
    1MOL    O27  564   2.496   1.729   7.834
    1MOL    C49  565   2.423   1.689   7.949
    1MOL    C50  566   2.743   1.860   7.471
    1MOL    H40  567   2.816   1.817   7.541
    1MOL    O28  568   2.809   1.897   7.351
    1MOL    C51  569   2.931   1.967   7.369
    1MOL    C52  570   2.643   1.750   7.435
    1MOL    H41  571   2.578   1.786   7.354
    1MOL    O29  572   2.714   1.634   7.394
    1MOL    C53  573   2.709   1.608   7.255
    1MOL    C54  574   2.556   1.714   7.555
    1MOL    H42  575   2.618   1.663   7.630
    1MOL    O30  576   2.453   1.625   7.510
    1MOL    C55  577   2.429   1.508   7.584
    1MOL    H43  578   2.509   1.493   7.657
    1MOL    O31  579   2.311   1.515   7.661
    1MOL    C56  580   2.189   1.534   7.587
    1MOL    H44  581   2.193   1.629   7.532
    1MOL    C57  582   2.078   1.539   7.690
    1MOL    H45  583   2.093   1.457   7.763
    1MOL    H46  584   1.981   1.523   7.642
    1MOL    O32  585   2.081   1.665   7.756
    1MOL    C58  586   1.980   1.676   7.854
    1MOL    C59  587   2.419   1.386   7.489
    1MOL    H47  588   2.408   1.297   7.554
    1MOL    O33  589   2.531   1.369   7.405
    1MOL    C60  590   2.648   1.322   7.470
    1MOL    C61  591   2.294   1.394   7.401
    1MOL    H48  592   2.305   1.478   7.331
    1MOL    O34  593   2.274   1.272   7.331
    1MOL    C62  594   2.326   1.269   7.199
    1MOL    C63  595   2.168   1.419   7.486
    1MOL    H49  596   2.145   1.327   7.541
    1MOL    O35  597   2.058   1.454   7.401
    1MOL    C64  598   1.975   1.347   7.362
    1MOL    H50  599   2.032   1.254   7.363
    1MOL    O36  600   1.869   1.326   7.454
    1MOL    C65  601   1.774   1.432   7.466
    1MOL    H51  602   1.824   1.525   7.495
    1MOL    C66  603   1.679   1.391   7.578
    1MOL    H52  604   1.654   1.284   7.565
    1MOL    H53  605   1.587   1.449   7.575
    1MOL    O37  606   1.746   1.411   7.702
    1MOL    C67  607   1.673   1.359   7.811
    1MOL    C68  608   1.917   1.371   7.222
    1MOL    H54  609   1.867   1.278   7.194
    1MOL    O38  610   2.022   1.400   7.130
    1MOL    C69  611   2.010   1.332   7.006
    1MOL    C70  612   1.812   1.483   7.223
    1MOL    H55  613   1.862   1.578   7.246
    1MOL    O39  614   1.752   1.489   7.094
    1MOL    C71  615   1.759   1.616   7.032
    1MOL    C72  616   1.705   1.456   7.330
    1MOL    H56  617   1.648   1.367   7.301
    1MOL    O40  618   1.617   1.570   7.331
    1MOL    H57  619   1.138   1.719   7.824
    1MOL    H58  620   1.296   1.658   7.882
    1MOL    H59  621   1.273   1.833   7.854
    1MOL    H60  622   1.731   1.380   7.901
    1MOL    H61  623   1.574   1.407   7.821
    1MOL    H62  624   1.658   1.251   7.803
    1MOL    H63  625   1.985   1.778   7.894
    1MOL    H64  626   1.880   1.658   7.811
    1MOL    H65  627   1.996   1.605   7.936
    1MOL    H66  628   2.488   1.622   8.006
    1MOL    H67  629   2.397   1.775   8.012
    1MOL    H68  630   2.332   1.635   7.921
    1MOL    H69  631   2.790   2.246   7.879
    1MOL    H70  632   2.624   2.294   7.924
    1MOL    H71  633   2.658   2.125   7.877
    1MOL    H72  634   2.530   2.878   7.550
    1MOL    H73  635   2.414   2.851   7.683
    1MOL    H74  636   2.541   2.730   7.650
    1MOL    H75  637   2.124   2.516   7.874
    1MOL    H76  638   2.054   2.351   7.881
    1MOL    H77  639   2.179   2.390   7.760
    1MOL    H78  640   1.479   2.332   8.025
    1MOL    H79  641   1.569   2.178   8.021
    1MOL    H80  642   1.640   2.325   7.948
    1MOL    H81  643   1.239   2.501   7.257
    1MOL    H82  644   1.402   2.431   7.245
    1MOL    H83  645   1.258   2.333   7.200
    1MOL    H84  646   1.020   2.043   7.244
    1MOL    H85  647   1.071   1.940   7.379
    1MOL    H86  648   0.990   2.096   7.411
    1MOL    H87  649   1.252   1.968   7.044
    1MOL    H88  650   1.392   2.016   7.143
    1MOL    H89  651   1.407   1.881   7.024
    1MOL    H90  652   1.434   1.499   6.944
    1MOL    H91  653   1.475   1.407   7.090
    1MOL    H92  654   1.307   1.463   7.063
    1MOL    H93  655   1.712   1.606   6.933
    1MOL    H94  656   1.703   1.692   7.089
    1MOL    H95  657   1.863   1.648   7.018
    1MOL    H96  658   2.095   1.365   6.945
    1MOL    H97  659   2.016   1.223   7.019
    1MOL    H98  660   1.917   1.357   6.955
    1MOL    H99  661   2.297   1.173   7.157
    1MOL   H100  662   2.283   1.349   7.138
    1MOL   H101  663   2.435   1.278   7.199
    1MOL   H102  664   2.718   1.294   7.392
    1MOL   H103  665   2.695   1.400   7.532
    1MOL   H104  666   2.626   1.234   7.532
    1MOL   H105  667   2.772   1.519   7.238
    1MOL   H106  668   2.607   1.585   7.222
    1MOL   H107  669   2.750   1.692   7.197
    1MOL   H108  670   2.979   1.973   7.271
    1MOL   H109  671   2.916   2.069   7.407
    1MOL   H110  672   2.998   1.912   7.438
    1MOL   H111  673   2.780   2.072   7.072
    1MOL   H112  674   2.630   2.012   7.145
    1MOL   H113  675   2.627   2.159   7.042
    1MOL   H114  676   2.586   2.539   6.990
    1MOL   H115  677   2.535   2.616   7.141
    1MOL   H116  678   2.706   2.565   7.120
    1MOL   H117  679   2.303   2.364   6.950
    1MOL   H118  680   2.319   2.299   7.115
    1MOL   H119  681   2.158   2.309   7.037
    1MOL   H120  682   1.894   2.593   6.933
    1MOL   H121  683   1.979   2.740   6.990
    1MOL   H122  684   2.073   2.595   6.942
    1MOL   H123  685   1.679   2.847   7.213
    1MOL   H124  686   1.713   2.677   7.168
    1MOL   H125  687   1.555   2.721   7.242
    1MOL   H126  688   1.286   2.702   7.475
    1MOL   H127  689   1.323   2.583   7.601
    1MOL   H128  690   1.394   2.748   7.609
    2SOL     OW  691   0.230   0.628   0.113
    2SOL    HW1  692   0.137   0.626   0.150
    2SOL    HW2  693   0.231   0.589   0.021
    3SOL     OW  694   0.225   0.275   0.996
    3SOL    HW1  695   0.260   0.258   1.088
    3SOL    HW2  696   0.137   0.230   0.984
    4SOL     OW  697   0.019   0.368   0.647
    4SOL    HW1  698  -0.063   0.411   0.686
    4SOL    HW2  699  -0.009   0.295   0.584
    5SOL     OW  700   0.569   1.275   1.165
    5SOL    HW1  701   0.476   1.268   1.128
    5SOL    HW2  702   0.580   1.364   1.209
    6SOL     OW  703   1.555   1.511   0.703
    6SOL    HW1  704   1.498   1.495   0.784
    6SOL    HW2  705   1.496   1.521   0.623
    7SOL     OW  706   1.135   0.703   0.717
    7SOL    HW1  707   1.192   0.781   0.692
    7SOL    HW2  708   1.075   0.729   0.793
    8SOL     OW  709   1.755   0.607   0.231
    8SOL    HW1  710   1.743   0.594   0.132
    8SOL    HW2  711   1.725   0.526   0.280
    9SOL     OW  712   0.768   1.144   1.023
    9SOL    HW1  713   0.690   1.161   1.083
    9SOL    HW2  714   0.802   1.231   0.987
   10SOL     OW  715   0.850   0.798   1.823
   10SOL    HW1  716   0.846   0.874   1.888
   10SOL    HW2  717   0.872   0.834   1.732
   11SOL     OW  718   0.685   1.012   0.665
   11SOL    HW1  719   0.754   0.996   0.735
   11SOL    HW2  720   0.612   1.069   0.703
   12SOL     OW  721   0.686   1.161   1.803
   12SOL    HW1  722   0.746   1.240   1.817
   12SOL    HW2  723   0.600   1.192   1.762
   13SOL     OW  724   0.335   1.435   1.061
   13SOL    HW1  725   0.257   1.404   1.008
   13SOL    HW2  726   0.393   1.493   1.004
   14SOL     OW  727   1.460   1.505   1.339
   14SOL    HW1  728   1.484   1.599   1.365
   14SOL    HW2  729   1.444   1.451   1.421
   15SOL     OW  730   0.438   0.392   1.499
   15SOL    HW1  731   0.520   0.336   1.508
   15SOL    HW2  732   0.357   0.334   1.503
   16SOL     OW  733   1.603   0.447   0.737
   16SOL    HW1  734   1.529   0.493   0.687
   16SOL    HW2  735   1.654   0.515   0.790
   17SOL     OW  736   0.231   1.713   0.483
   17SOL    HW1  737   0.265   1.790   0.537
   17SOL    HW2  738   0.275   1.713   0.393
   18SOL     OW  739   1.127   1.341   1.690
   18SOL    HW1  740   1.174   1.341   1.778
   18SOL    HW2  741   1.079   1.254   1.679
   19SOL     OW  742   0.230   1.434   0.538
   19SOL    HW1  743   0.204   1.530   0.538
   19SOL    HW2  744   0.159   1.380   0.583
   20SOL     OW  745   0.240   1.091   0.886
   20SOL    HW1  746   0.254   1.007   0.938
   20SOL    HW2  747   0.185   1.155   0.941
   21SOL     OW  748   0.620   1.786   1.439
   21SOL    HW1  749   0.528   1.769   1.474
   21SOL    HW2  750   0.648   1.878   1.465
   22SOL     OW  751   0.606   0.964   0.123
   22SOL    HW1  752   0.613   1.048   0.069
   22SOL    HW2  753   0.652   0.977   0.211
   23SOL     OW  754   1.594   0.114   1.480
   23SOL    HW1  755   1.576   0.181   1.408
   23SOL    HW2  756   1.591   0.160   1.569
   24SOL     OW  757   0.122   0.643   0.563
   24SOL    HW1  758   0.077   0.555   0.580
   24SOL    HW2  759   0.121   0.697   0.647
   25SOL     OW  760   0.027   1.596   0.117
   25SOL    HW1  761   0.008   1.500   0.138
   25SOL    HW2  762  -0.006   1.654   0.192
   26SOL     OW  763   1.689   0.922   0.612
   26SOL    HW1  764   1.784   0.893   0.620
   26SOL    HW2  765   1.681   0.987   0.537
   27SOL     OW  766   1.641   1.108   0.432
   27SOL    HW1  767   1.727   1.110   0.380
   27SOL    HW2  768   1.655   1.155   0.520
   28SOL     OW  769   0.113   0.737   1.597
   28SOL    HW1  770   0.201   0.724   1.642
   28SOL    HW2  771   0.100   0.834   1.575
   29SOL     OW  772   0.613   1.365   0.726
   29SOL    HW1  773   0.564   1.278   0.735
   29SOL    HW2  774   0.590   1.408   0.639
   30SOL     OW  775   1.293   1.228   1.423
   30SOL    HW1  776   1.330   1.155   1.365
   30SOL    HW2  777   1.345   1.233   1.508
   31SOL     OW  778   0.809   0.004   0.502
   31SOL    HW1  779   0.849   0.095   0.493
   31SOL    HW2  780   0.709   0.012   0.508
   32SOL     OW  781   0.197   0.976   1.264
   32SOL    HW1  782   0.286   0.931   1.250
   32SOL    HW2  783   0.124   0.911   1.245
   33SOL     OW  784   1.525   0.999   0.190
   33SOL    HW1  785   1.462   0.923   0.203
   33SOL    HW2  786   1.573   1.017   0.276
   34SOL     OW  787   1.187   1.792   1.616
   34SOL    HW1  788   1.211   1.852   1.540
   34SOL    HW2  789   1.194   1.697   1.586
   35SOL     OW  790   0.317   0.251   1.801
   35SOL    HW1  791   0.388   0.322   1.807
   35SOL    HW2  792   0.229   0.290   1.829
   36SOL     OW  793   1.466   1.417   0.953
   36SOL    HW1  794   1.407   1.423   1.033
   36SOL    HW2  795   1.451   1.329   0.907
   37SOL     OW  796   1.667   1.714   0.572
   37SOL    HW1  797   1.626   1.691   0.484
   37SOL    HW2  798   1.649   1.640   0.637
   38SOL     OW  799   0.598   0.729   0.270
   38SOL    HW1  800   0.622   0.798   0.202
   38SOL    HW2  801   0.520   0.762   0.324
   39SOL     OW  802   1.281   0.345   0.944
   39SOL    HW1  803   1.195   0.295   0.931
   39SOL    HW2  804   1.343   0.291   1.000
   40SOL     OW  805   1.576   1.662   0.307
   40SOL    HW1  806   1.665   1.708   0.310
   40SOL    HW2  807   1.555   1.638   0.212
   41SOL     OW  808   0.807   0.605   1.465
   41SOL    HW1  809   0.760   0.602   1.554
   41SOL    HW2  810   0.756   0.550   1.399
   42SOL     OW  811   1.394   0.469   1.674
   42SOL    HW1  812   1.374   0.512   1.762
   42SOL    HW2  813   1.472   0.407   1.683
   43SOL     OW  814   0.973   0.890   1.572
   43SOL    HW1  815   1.019   0.806   1.543
   43SOL    HW2  816   0.917   0.924   1.497
   44SOL     OW  817   0.991   0.410   1.242
   44SOL    HW1  818   0.914   0.444   1.296
   44SOL    HW2  819   0.957   0.359   1.163
   45SOL     OW  820   1.041   0.701   0.429
   45SOL    HW1  821   1.067   0.697   0.525
   45SOL    HW2  822   0.956   0.650   0.415
   46SOL     OW  823   0.076   0.811   0.789
   46SOL    HW1  824   0.175   0.799   0.798
   46SOL    HW2  825   0.052   0.906   0.810
   47SOL     OW  826   0.130   1.821   1.571
   47SOL    HW1  827   0.120   1.806   1.670
   47SOL    HW2  828   0.044   1.857   1.535
   48SOL     OW  829   0.865   0.348   0.195
   48SOL    HW1  830   0.924   0.411   0.146
   48SOL    HW2  831   0.884   0.254   0.166
   49SOL     OW  832   1.719   0.585   1.831
   49SOL    HW1  833   1.693   0.674   1.795
   49SOL    HW2  834   1.717   0.517   1.758
   50SOL     OW  835   1.362   1.144   0.545
   50SOL    HW1  836   1.445   1.115   0.497
   50SOL    HW2  837   1.313   1.211   0.489
   51SOL     OW  838   0.550   0.196   0.885
   51SOL    HW1  839   0.545   0.191   0.985
   51SOL    HW2  840   0.552   0.292   0.856
   52SOL     OW  841   1.008   1.456   0.477
   52SOL    HW1  842   0.962   1.528   0.425
   52SOL    HW2  843   1.004   1.476   0.575
   53SOL     OW  844   0.351   1.801   0.853
   53SOL    HW1  845   0.401   1.715   0.859
   53SOL    HW2  846   0.416   1.878   0.850
   54SOL     OW  847   1.795   1.066   0.873
   54SOL    HW1  848   1.733   1.051   0.797
   54SOL    HW2  849   1.743   1.077   0.958
   55SOL     OW  850   1.227   1.550   1.506
   55SOL    HW1  851   1.233   1.473   1.570
   55SOL    HW2  852   1.175   1.524   1.426
   56SOL     OW  853   0.321   0.943   0.242
   56SOL    HW1  854   0.403   0.982   0.200
   56SOL    HW2  855   0.294   0.861   0.193
   57SOL     OW  856   1.458   0.735   0.728
   57SOL    HW1  857   1.453   0.670   0.803
   57SOL    HW2  858   1.538   0.794   0.741
   58SOL     OW  859   0.461   1.266   1.727
   58SOL    HW1  860   0.411   1.267   1.641
   58SOL    HW2  861   0.398   1.248   1.803
   59SOL     OW  862   1.111   1.776   0.237
   59SOL    HW1  863   1.051   1.714   0.287
   59SOL    HW2  864   1.142   1.732   0.152
   60SOL     OW  865   0.202   0.285   1.498
   60SOL    HW1  866   0.122   0.345   1.485
   60SOL    HW2  867   0.192   0.236   1.584
   61SOL     OW  868   1.632   1.377   0.081
   61SOL    HW1  869   1.600   1.471   0.071
   61SOL    HW2  870   1.556   1.314   0.069
   62SOL     OW  871   0.464   1.743   0.323
   62SOL    HW1  872   0.497   1.782   0.409
   62SOL    HW2  873   0.540   1.736   0.258
   63SOL     OW  874   1.400   0.107   0.426
   63SOL    HW1  875   1.376   0.070   0.336
   63SOL    HW2  876   1.499   0.123   0.430
   64SOL     OW  877   0.249   1.785   1.241
   64SOL    HW1  878   0.306   1.720   1.291
   64SOL    HW2  879   0.233   1.752   1.148
   65SOL     OW  880   0.940   1.698   0.904
   65SOL    HW1  881   1.020   1.641   0.925
   65SOL    HW2  882   0.891   1.658   0.827
   66SOL     OW  883   0.382   0.700   0.480
   66SOL    HW1  884   0.427   0.610   0.477
   66SOL    HW2  885   0.288   0.689   0.513
   67SOL     OW  886   1.547   0.222   1.729
   67SOL    HW1  887   1.542   0.259   1.821
   67SOL    HW2  888   1.475   0.153   1.717
   68SOL     OW  889   0.614   0.122   0.117
   68SOL    HW1  890   0.712   0.100   0.124
   68SOL    HW2  891   0.583   0.105   0.024
   69SOL     OW  892   0.781   0.264   1.749
   69SOL    HW1  893   0.848   0.203   1.792
   69SOL    HW2  894   0.708   0.283   1.814
   70SOL     OW  895   0.888   1.514   1.195
   70SOL    HW1  896   0.865   1.489   1.101
   70SOL    HW2  897   0.949   1.445   1.234
   71SOL     OW  898   1.351   0.590   1.433
   71SOL    HW1  899   1.379   0.547   1.518
   71SOL    HW2  900   1.376   0.686   1.434
   72SOL     OW  901   0.803   1.402   0.924
   72SOL    HW1  902   0.893   1.416   0.882
   72SOL    HW2  903   0.732   1.404   0.853
   73SOL     OW  904   0.922   0.503   0.899
   73SOL    HW1  905   0.897   0.494   0.803
   73SOL    HW2  906   0.970   0.421   0.930
   74SOL     OW  907   0.539   0.064   0.512
   74SOL    HW1  908   0.458   0.065   0.570
   74SOL    HW2  909   0.542   0.147   0.457
   75SOL     OW  910   1.434   1.188   0.041
   75SOL    HW1  911   1.466   1.112   0.098
   75SOL    HW2  912   1.342   1.215   0.071
   76SOL     OW  913   0.297   0.035   0.171
   76SOL    HW1  914   0.346   0.119   0.150
   76SOL    HW2  915   0.359  -0.030   0.216
   77SOL     OW  916   0.935   0.236   0.480
   77SOL    HW1  917   0.887   0.277   0.402
   77SOL    HW2  918   1.034   0.234   0.461
   78SOL     OW  919   1.076   0.683   1.464
   78SOL    HW1  920   0.996   0.622   1.467
   78SOL    HW2  921   1.157   0.630   1.440
   79SOL     OW  922   1.227   1.570   0.793
   79SOL    HW1  923   1.248   1.644   0.728
   79SOL    HW2  924   1.295   1.570   0.866
   80SOL     OW  925   0.459   1.152   0.741
   80SOL    HW1  926   0.388   1.125   0.806
   80SOL    HW2  927   0.433   1.124   0.648
   81SOL     OW  928   1.271   1.797   0.591
   81SOL    HW1  929   1.315   1.861   0.527
   81SOL    HW2  930   1.221   1.849   0.661
   82SOL     OW  931   1.032   0.549   0.016
   82SOL    HW1  932   0.991   0.631  -0.023
   82SOL    HW2  933   1.096   0.575   0.089
   83SOL     OW  934   0.078   0.556   1.386
   83SOL    HW1  935   0.170   0.555   1.345
   83SOL    HW2  936   0.072   0.630   1.453
   84SOL     OW  937   0.561   0.222   1.147
   84SOL    HW1  938   0.599   0.138   1.184
   84SOL    HW2  939   0.473   0.241   1.191
   85SOL     OW  940   0.866   0.454   0.642
   85SOL    HW1  941   0.834   0.526   0.580
   85SOL    HW2  942   0.890   0.373   0.589
   86SOL     OW  943   1.017   0.039   0.753
   86SOL    HW1  944   0.945   0.044   0.684
   86SOL    HW2  945   0.993  -0.030   0.822
   87SOL     OW  946   1.429   1.173   0.867
   87SOL    HW1  947   1.374   1.089   0.860
   87SOL    HW2  948   1.455   1.202   0.775
   88SOL     OW  949   1.466   0.590   0.992
   88SOL    HW1  950   1.436   0.495   0.999
   88SOL    HW2  951   1.539   0.606   1.058
   89SOL     OW  952   1.857   0.833   0.377
   89SOL    HW1  953   1.899   0.769   0.441
   89SOL    HW2  954   1.819   0.782   0.299
   90SOL     OW  955   0.488   1.385   0.174
   90SOL    HW1  956   0.401   1.370   0.221
   90SOL    HW2  957   0.471   1.411   0.079
   91SOL     OW  958   1.664   1.280   0.657
   91SOL    HW1  959   1.763   1.288   0.671
   91SOL    HW2  960   1.619   1.364   0.688
   92SOL     OW  961   1.390   0.575   0.078
   92SOL    HW1  962   1.336   0.554   0.159
   92SOL    HW2  963   1.481   0.534   0.087
   93SOL     OW  964   0.527   0.256   0.328
   93SOL    HW1  965   0.554   0.197   0.253
   93SOL    HW2  966   0.527   0.351   0.297
   94SOL     OW  967   1.754   1.223   1.588
   94SOL    HW1  968   1.845   1.184   1.575
   94SOL    HW2  969   1.762   1.319   1.612
   95SOL     OW  970   1.064   1.347   1.340
   95SOL    HW1  971   0.984   1.324   1.395
   95SOL    HW2  972   1.147   1.321   1.389
   96SOL     OW  973   1.592   1.629   1.625
   96SOL    HW1  974   1.619   1.663   1.535
   96SOL    HW2  975   1.671   1.591   1.671
   97SOL     OW  976   1.111   1.195   1.100
   97SOL    HW1  977   1.071   1.239   1.181
   97SOL    HW2  978   1.070   1.232   1.017
   98SOL     OW  979   1.638   1.099   1.079
   98SOL    HW1  980   1.643   1.180   1.138
   98SOL    HW2  981   1.552   1.101   1.028
   99SOL     OW  982   0.915   0.089   1.402
   99SOL    HW1  983   0.940   0.069   1.307
   99SOL    HW2  984   0.987   0.145   1.444
  100SOL     OW  985   0.980   1.116   1.719
  100SOL    HW1  986   0.881   1.122   1.729
  100SOL    HW2  987   1.003   1.036   1.663
  101SOL     OW  988   0.705   1.050   0.368
  101SOL    HW1  989   0.691   1.057   0.467
  101SOL    HW2  990   0.789   0.999   0.350
  102SOL     OW  991   0.410   0.813   1.251
  102SOL    HW1  992   0.496   0.825   1.301
  102SOL    HW2  993   0.368   0.726   1.278
  103SOL     OW  994   1.274   0.386   1.262
  103SOL    HW1  995   1.295   0.460   1.326
  103SOL    HW2  996   1.185   0.403   1.219
  104SOL     OW  997   0.064   1.564   1.331
  104SOL    HW1  998   0.018   1.646   1.297
  104SOL    HW2  999   0.162   1.583   1.340
  105SOL     OW 1000   0.367   1.100   0.501
  105SOL    HW1 1001   0.360   1.183   0.445
  105SOL    HW2 1002   0.371   1.020   0.441
  106SOL     OW 1003   0.566   0.537   0.865
  106SOL    HW1 1004   0.578   0.603   0.791
  106SOL    HW2 1005   0.612   0.571   0.948
  107SOL     OW 1006   1.252   1.348   0.388
  107SOL    HW1 1007   1.302   1.425   0.428
  107SOL    HW2 1008   1.157   1.350   0.420
  108SOL     OW 1009   1.272   1.445   1.142
  108SOL    HW1 1010   1.319   1.458   1.229
  108SOL    HW2 1011   1.206   1.371   1.151
  109SOL     OW 1012   1.582   0.639   0.472
  109SOL    HW1 1013   1.551   0.700   0.545
  109SOL    HW2 1014   1.632   0.691   0.403
  110SOL     OW 1015   0.354   1.510   1.329
  110SOL    HW1 1016   0.333   1.466   1.242
  110SOL    HW2 1017   0.451   1.536   1.332
  111SOL     OW 1018   0.402   0.751   1.598
  111SOL    HW1 1019   0.470   0.806   1.551
  111SOL    HW2 1020   0.442   0.663   1.625
  112SOL     OW 1021   1.587   0.779   1.670
  112SOL    HW1 1022   1.495   0.817   1.665
  112SOL    HW2 1023   1.647   0.826   1.605
  113SOL     OW 1024   1.013   0.105   1.770
  113SOL    HW1 1025   1.019   0.190   1.718
  113SOL    HW2 1026   1.045   0.029   1.713
  114SOL     OW 1027   0.504   0.050   1.740
  114SOL    HW1 1028   0.462  -0.007   1.670
  114SOL    HW2 1029   0.438   0.119   1.772
  115SOL     OW 1030   0.573   0.870   1.029
  115SOL    HW1 1031   0.617   0.959   1.020
  115SOL    HW2 1032   0.510   0.870   1.106
  116SOL     OW 1033   1.360   0.862   1.045
  116SOL    HW1 1034   1.285   0.862   0.979
  116SOL    HW2 1035   1.397   0.770   1.054
  117SOL     OW 1036   1.209   0.525   0.275
  117SOL    HW1 1037   1.222   0.441   0.329
  117SOL    HW2 1038   1.180   0.599   0.335
  118SOL     OW 1039   0.307   0.213   1.231
  118SOL    HW1 1040   0.284   0.250   1.321
  118SOL    HW2 1041   0.277   0.118   1.225
  119SOL     OW 1042   0.037   1.310   1.282
  119SOL    HW1 1043   0.090   1.261   1.350
  119SOL    HW2 1044   0.059   1.408   1.287
  120SOL     OW 1045   0.732   0.634   1.064
  120SOL    HW1 1046   0.791   0.608   0.988
  120SOL    HW2 1047   0.704   0.730   1.053
  121SOL     OW 1048   1.728   0.935   1.854
  121SOL    HW1 1049   1.682   0.928   1.765
  121SOL    HW2 1050   1.666   0.979   1.920
  122SOL     OW 1051   0.307   0.063   0.618
  122SOL    HW1 1052   0.296   0.157   0.651
  122SOL    HW2 1053   0.302   0.000   0.695
  123SOL     OW 1054   1.622   0.367   0.374
  123SOL    HW1 1055   1.624   0.291   0.438
  123SOL    HW2 1056   1.574   0.444   0.414
  124SOL     OW 1057   1.023   0.766   0.966
  124SOL    HW1 1058   1.038   0.787   1.062
  124SOL    HW2 1059   0.993   0.671   0.957
  125SOL     OW 1060   0.980   1.573   1.700
  125SOL    HW1 1061   0.960   1.617   1.612
  125SOL    HW2 1062   1.019   1.482   1.684
  126SOL     OW 1063   1.859   1.518   1.605
  126SOL    HW1 1064   1.873   1.545   1.510
  126SOL    HW2 1065   1.942   1.540   1.658
  127SOL     OW 1066   0.350   0.898   1.804
  127SOL    HW1 1067   0.426   0.942   1.852
  127SOL    HW2 1068   0.385   0.851   1.722
  128SOL     OW 1069   1.540   0.274   0.125
  128SOL    HW1 1070   1.479   0.199   0.148
  128SOL    HW2 1071   1.562   0.326   0.208
  129SOL     OW 1072   1.303   0.838   0.042
  129SOL    HW1 1073   1.337   0.745   0.057
  129SOL    HW2 1074   1.321   0.865  -0.053
  130SOL     OW 1075   1.068   1.333   0.849
  130SOL    HW1 1076   1.075   1.249   0.794
  130SOL    HW2 1077   1.130   1.402   0.813
  131SOL     OW 1078   0.319   0.810   0.949
  131SOL    HW1 1079   0.412   0.846   0.954
  131SOL    HW2 1080   0.313   0.725   1.001
  132SOL     OW 1081   0.339   0.509   1.006
  132SOL    HW1 1082   0.287   0.426   0.989
  132SOL    HW2 1083   0.416   0.514   0.942
  133SOL     OW 1084   1.138   0.380   1.678
  133SOL    HW1 1085   1.093   0.443   1.742
  133SOL    HW2 1086   1.231   0.411   1.661
  134SOL     OW 1087   1.160   0.207   1.477
  134SOL    HW1 1088   1.160   0.271   1.554
  134SOL    HW2 1089   1.188   0.255   1.394
  135SOL     OW 1090   0.008   1.326   0.200
  135SOL    HW1 1091  -0.085   1.347   0.169
  135SOL    HW2 1092   0.018   1.227   0.213
  136SOL     OW 1093   0.088   1.801   0.927
  136SOL    HW1 1094   0.046   1.715   0.900
  136SOL    HW2 1095   0.182   1.804   0.893
  137SOL     OW 1096   0.504   1.568   0.910
  137SOL    HW1 1097   0.570   1.642   0.919
  137SOL    HW2 1098   0.548   1.489   0.868
  138SOL     OW 1099   1.002   0.796   1.238
  138SOL    HW1 1100   1.043   0.764   1.324
  138SOL    HW2 1101   0.906   0.769   1.235
  139SOL     OW 1102   0.040   0.544   1.114
  139SOL    HW1 1103   0.125   0.511   1.073
  139SOL    HW2 1104   0.053   0.559   1.212
  140SOL     OW 1105   0.189   0.520   1.722
  140SOL    HW1 1106   0.248   0.480   1.652
  140SOL    HW2 1107   0.131   0.591   1.681
  141SOL     OW 1108   1.369   0.950   1.660
  141SOL    HW1 1109   1.408   1.039   1.680
  141SOL    HW2 1110   1.379   0.930   1.563
  142SOL     OW 1111   0.815   0.572   0.325
  142SOL    HW1 1112   0.822   0.483   0.279
  142SOL    HW2 1113   0.721   0.606   0.317
  143SOL     OW 1114   1.657   0.604   1.206
  143SOL    HW1 1115   1.619   0.535   1.268
  143SOL    HW2 1116   1.739   0.568   1.162
  144SOL     OW 1117   0.252   1.564   1.744
  144SOL    HW1 1118   0.222   1.621   1.820
  144SOL    HW2 1119   0.245   1.467   1.770
  145SOL     OW 1120   0.671   0.464   1.269
  145SOL    HW1 1121   0.637   0.375   1.239
  145SOL    HW2 1122   0.697   0.518   1.189
  146SOL     OW 1123   0.930   1.678   1.465
  146SOL    HW1 1124   0.906   1.660   1.370
  146SOL    HW2 1125   0.960   1.772   1.475
  147SOL     OW 1126   0.473   0.500   0.191
  147SOL    HW1 1127   0.534   0.580   0.195
  147SOL    HW2 1128   0.378   0.531   0.198
  148SOL     OW 1129   0.159   1.137   1.466
  148SOL    HW1 1130   0.181   1.076   1.542
  148SOL    HW2 1131   0.169   1.088   1.380
  149SOL     OW 1132   1.347   1.059   1.234
  149SOL    HW1 1133   1.371   0.996   1.160
  149SOL    HW2 1134   1.257   1.099   1.216
  150SOL     OW 1135   1.302   0.855   0.309
  150SOL    HW1 1136   1.216   0.824   0.351
  150SOL    HW2 1137   1.298   0.841   0.210
  151SOL     OW 1138   1.759   1.747   1.154
  151SOL    HW1 1139   1.820   1.777   1.081
  151SOL    HW2 1140   1.721   1.658   1.132
  152SOL     OW 1141   1.252   1.731   1.128
  152SOL    HW1 1142   1.336   1.736   1.074
  152SOL    HW2 1143   1.229   1.635   1.146
  153SOL     OW 1144   0.083   1.258   1.022
  153SOL    HW1 1145   0.078   1.257   1.122
  153SOL    HW2 1146   0.000   1.217   0.984
  154SOL     OW 1147   0.688   1.662   1.716
  154SOL    HW1 1148   0.632   1.743   1.725
  154SOL    HW2 1149   0.740   1.666   1.630
  155SOL     OW 1150   0.903   0.086   0.133
  155SOL    HW1 1151   0.954   0.087   0.047
  155SOL    HW2 1152   0.959   0.044   0.204
  156SOL     OW 1153   1.726   0.135   0.523
  156SOL    HW1 1154   1.799   0.118   0.456
  156SOL    HW2 1155   1.695   0.048   0.561
  157SOL     OW 1156   1.388   1.573   0.477
  157SOL    HW1 1157   1.455   1.585   0.403
  157SOL    HW2 1158   1.348   1.662   0.500
  158SOL     OW 1159   0.130   1.794   1.851
  158SOL    HW1 1160   0.089   1.720   1.904
  158SOL    HW2 1161   0.194   1.845   1.909
  159SOL     OW 1162   1.280   0.927   0.672
  159SOL    HW1 1163   1.340   0.846   0.674
  159SOL    HW2 1164   1.320   0.996   0.612
  160SOL     OW 1165   0.830   1.273   1.422
  160SOL    HW1 1166   0.825   1.306   1.517
  160SOL    HW2 1167   0.744   1.292   1.376
  161SOL     OW 1168   0.672   1.616   0.154
  161SOL    HW1 1169   0.681   1.626   0.055
  161SOL    HW2 1170   0.632   1.527   0.175
  162SOL     OW 1171   1.650   1.720   1.394
  162SOL    HW1 1172   1.703   1.730   1.310
  162SOL    HW2 1173   1.623   1.810   1.428
  163SOL     OW 1174   1.841   0.175   0.963
  163SOL    HW1 1175   1.880   0.090   0.927
  163SOL    HW2 1176   1.743   0.177   0.944
  164SOL     OW 1177   0.263   0.326   0.720
  164SOL    HW1 1178   0.184   0.377   0.686
  164SOL    HW2 1179   0.254   0.311   0.818
  165SOL     OW 1180   1.194   1.612   0.031
  165SOL    HW1 1181   1.200   1.519   0.068
  165SOL    HW2 1182   1.135   1.612  -0.049
  166SOL     OW 1183   0.822   1.002   1.372
  166SOL    HW1 1184   0.862   1.001   1.280
  166SOL    HW2 1185   0.832   1.094   1.412
  167SOL     OW 1186   0.916   0.910   0.291
  167SOL    HW1 1187   0.979   0.948   0.223
  167SOL    HW2 1188   0.956   0.827   0.330
  168SOL     OW 1189   1.504   1.607   0.044
  168SOL    HW1 1190   1.412   1.644   0.051
  168SOL    HW2 1191   1.542   1.627  -0.046
  169SOL     OW 1192   0.372   1.288   1.490
  169SOL    HW1 1193   0.359   1.381   1.456
  169SOL    HW2 1194   0.288   1.236   1.477
  170SOL     OW 1195   1.614   1.292   1.289
  170SOL    HW1 1196   1.674   1.295   1.369
  170SOL    HW2 1197   1.539   1.356   1.302
  171SOL     OW 1198   1.039   1.098   0.696
  171SOL    HW1 1199   0.969   1.051   0.750
  171SOL    HW2 1200   1.098   1.030   0.653
  172SOL     OW 1201   1.014   0.236   0.971
  172SOL    HW1 1202   1.006   0.200   0.878
  172SOL    HW2 1203   1.012   0.160   1.036
  173SOL     OW 1204   0.590   1.487   0.491
  173SOL    HW1 1205   0.632   1.429   0.421
  173SOL    HW2 1206   0.546   1.566   0.447
  174SOL     OW 1207   1.709   0.385   1.381
  174SOL    HW1 1208   1.782   0.454   1.385
  174SOL    HW2 1209   1.737   0.310   1.322
  175SOL     OW 1210   0.255   1.348   0.290
  175SOL    HW1 1211   0.159   1.349   0.263
  175SOL    HW2 1212   0.267   1.401   0.374
  176SOL     OW 1213   0.105   1.013   1.726
  176SOL    HW1 1214   0.028   0.980   1.780
  176SOL    HW2 1215   0.190   0.983   1.768
  177SOL     OW 1216   0.672   0.203   1.489
  177SOL    HW1 1217   0.762   0.187   1.449
  177SOL    HW2 1218   0.680   0.208   1.588
  178SOL     OW 1219   0.075   0.345   0.033
  178SOL    HW1 1220  -0.017   0.317   0.004
  178SOL    HW2 1221   0.106   0.422  -0.023
  179SOL     OW 1222   1.440   0.856   1.398
  179SOL    HW1 1223   1.383   0.908   1.335
  179SOL    HW2 1224   1.536   0.868   1.374
  180SOL     OW 1225   0.072   0.166   0.318
  180SOL    HW1 1226   0.055   0.249   0.264
  180SOL    HW2 1227   0.162   0.129   0.296
  181SOL     OW 1228   1.183   1.335   0.119
  181SOL    HW1 1229   1.084   1.324   0.121
  181SOL    HW2 1230   1.217   1.350   0.212
  182SOL     OW 1231   0.613   0.842   1.431
  182SOL    HW1 1232   0.669   0.923   1.414
  182SOL    HW2 1233   0.672   0.762   1.434
  183SOL     OW 1234   1.493   1.767   0.959
  183SOL    HW1 1235   1.526   1.831   0.890
  183SOL    HW2 1236   1.559   1.761   1.034
  184SOL     OW 1237   0.716   0.565   1.708
  184SOL    HW1 1238   0.735   0.630   1.782
  184SOL    HW2 1239   0.776   0.485   1.717
  185SOL     OW 1240   1.450   1.220   1.633
  185SOL    HW1 1241   1.441   1.210   1.732
  185SOL    HW2 1242   1.546   1.213   1.607
  186SOL     OW 1243   0.390   1.741   1.560
  186SOL    HW1 1244   0.299   1.782   1.558
  186SOL    HW2 1245   0.383   1.647   1.592
  187SOL     OW 1246   1.674   0.883   1.254
  187SOL    HW1 1247   1.647   0.794   1.217
  187SOL    HW2 1248   1.675   0.951   1.181
  188SOL     OW 1249   1.225   0.325   0.449
  188SOL    HW1 1250   1.290   0.251   0.438
  188SOL    HW2 1251   1.245   0.375   0.533
  189SOL     OW 1252   0.594   0.745   0.652
  189SOL    HW1 1253   0.644   0.830   0.633
  189SOL    HW2 1254   0.506   0.747   0.604
  190SOL     OW 1255   1.777   0.342   1.642
  190SOL    HW1 1256   1.760   0.373   1.548
  190SOL    HW2 1257   1.693   0.305   1.680
  191SOL     OW 1258   1.730   0.934   1.517
  191SOL    HW1 1259   1.768   1.025   1.532
  191SOL    HW2 1260   1.722   0.917   1.418
  192SOL     OW 1261   0.859   1.374   0.016
  192SOL    HW1 1262   0.813   1.389   0.104
  192SOL    HW2 1263   0.903   1.459  -0.014
  193SOL     OW 1264   0.661   1.790   0.953
  193SOL    HW1 1265   0.615   1.878   0.940
  193SOL    HW2 1266   0.760   1.802   0.946
  194SOL     OW 1267   0.859   0.956   0.861
  194SOL    HW1 1268   0.913   0.887   0.909
  194SOL    HW2 1269   0.827   1.025   0.927
  195SOL     OW 1270   1.083   0.984   0.087
  195SOL    HW1 1271   1.060   1.037   0.005
  195SOL    HW2 1272   1.164   0.928   0.068
  196SOL     OW 1273   1.861   1.569   0.851
  196SOL    HW1 1274   1.790   1.557   0.781
  196SOL    HW2 1275   1.862   1.490   0.911
  197SOL     OW 1276   0.221   1.314   1.844
  197SOL    HW1 1277   0.156   1.241   1.823
  197SOL    HW2 1278   0.225   1.328   1.942
  198SOL     OW 1279   0.079   1.240   0.653
  198SOL    HW1 1280   0.078   1.193   0.741
  198SOL    HW2 1281   0.161   1.212   0.602
  199SOL     OW 1282   0.672   1.391   1.624
  199SOL    HW1 1283   0.594   1.341   1.662
  199SOL    HW2 1284   0.669   1.486   1.655
  200SOL     OW 1285   1.824   0.192   1.227
  200SOL    HW1 1286   1.820   0.102   1.271
  200SOL    HW2 1287   1.827   0.181   1.128
  201SOL     OW 1288   0.428   0.424   0.520
  201SOL    HW1 1289   0.458   0.352   0.458
  201SOL    HW2 1290   0.389   0.384   0.603
  202SOL     OW 1291   1.705   1.487   1.104
  202SOL    HW1 1292   1.612   1.462   1.077
  202SOL    HW2 1293   1.731   1.437   1.186
  203SOL     OW 1294   0.317   0.547   1.280
  203SOL    HW1 1295   0.355   0.488   1.352
  203SOL    HW2 1296   0.357   0.521   1.192
  204SOL     OW 1297   0.812   1.586   0.687
  204SOL    HW1 1298   0.844   1.596   0.593
  204SOL    HW2 1299   0.733   1.524   0.689
  205SOL     OW 1300   1.424   0.214   1.112
  205SOL    HW1 1301   1.476   0.149   1.167
  205SOL    HW2 1302   1.375   0.277   1.173
  206SOL     OW 1303   1.001   0.034   1.154
  206SOL    HW1 1304   0.938  -0.038   1.123
  206SOL    HW2 1305   1.094  -0.002   1.154
  207SOL     OW 1306   0.770   1.330   0.301
  207SOL    HW1 1307   0.724   1.243   0.318
  207SOL    HW2 1308   0.861   1.327   0.342
  208SOL     OW 1309   0.618   1.567   1.284
  208SOL    HW1 1310   0.613   1.649   1.341
  208SOL    HW2 1311   0.707   1.564   1.239
  209SOL     OW 1312   1.352   0.052   0.168
  209SOL    HW1 1313   1.387   0.011   0.084
  209SOL    HW2 1314   1.262   0.014   0.188
  210SOL     OW 1315   1.300   0.453   0.691
  210SOL    HW1 1316   1.241   0.533   0.695
  210SOL    HW2 1317   1.315   0.418   0.784
  211SOL     OW 1318   1.593   0.221   0.882
  211SOL    HW1 1319   1.509   0.220   0.936
  211SOL    HW2 1320   1.595   0.304   0.826
  212SOL     OW 1321   0.039   1.077   0.300
  212SOL    HW1 1322   0.138   1.066   0.291
  212SOL    HW2 1323  -0.001   0.991   0.332
  213SOL     OW 1324   0.875   1.646   0.337
  213SOL    HW1 1325   0.798   1.611   0.283
  213SOL    HW2 1326   0.843   1.717   0.399
  214SOL     OW 1327   0.230   0.628   1.975
  214SOL    HW1 1328   0.137   0.626   2.012
  214SOL    HW2 1329   0.231   0.589   1.883
  215SOL     OW 1330   0.225   0.275   2.858
  215SOL    HW1 1331   0.260   0.258   2.950
  215SOL    HW2 1332   0.137   0.230   2.846
  216SOL     OW 1333   0.019   0.368   2.509
  216SOL    HW1 1334  -0.063   0.411   2.548
  216SOL    HW2 1335  -0.009   0.295   2.446
  217SOL     OW 1336   0.569   1.275   3.027
  217SOL    HW1 1337   0.476   1.268   2.990
  217SOL    HW2 1338   0.580   1.364   3.071
  218SOL     OW 1339   1.555   1.511   2.565
  218SOL    HW1 1340   1.498   1.495   2.646
  218SOL    HW2 1341   1.496   1.521   2.485
  219SOL     OW 1342   1.135   0.703   2.579
  219SOL    HW1 1343   1.192   0.781   2.554
  219SOL    HW2 1344   1.075   0.729   2.655
  220SOL     OW 1345   1.755   0.607   2.093
  220SOL    HW1 1346   1.743   0.594   1.994
  220SOL    HW2 1347   1.725   0.526   2.142
  221SOL     OW 1348   0.768   1.144   2.885
  221SOL    HW1 1349   0.690   1.161   2.945
  221SOL    HW2 1350   0.802   1.231   2.849
  222SOL     OW 1351   0.850   0.798   3.685
  222SOL    HW1 1352   0.846   0.874   3.750
  222SOL    HW2 1353   0.872   0.834   3.594
  223SOL     OW 1354   0.685   1.012   2.527
  223SOL    HW1 1355   0.754   0.996   2.597
  223SOL    HW2 1356   0.612   1.069   2.565
  224SOL     OW 1357   0.686   1.161   3.665
  224SOL    HW1 1358   0.746   1.240   3.679
  224SOL    HW2 1359   0.600   1.192   3.624
  225SOL     OW 1360   0.335   1.435   2.923
  225SOL    HW1 1361   0.257   1.404   2.870
  225SOL    HW2 1362   0.393   1.493   2.866
  226SOL     OW 1363   1.460   1.505   3.201
  226SOL    HW1 1364   1.484   1.599   3.227
  226SOL    HW2 1365   1.444   1.451   3.283
  227SOL     OW 1366   0.438   0.392   3.361
  227SOL    HW1 1367   0.520   0.336   3.370
  227SOL    HW2 1368   0.357   0.334   3.365
  228SOL     OW 1369   1.603   0.447   2.599
  228SOL    HW1 1370   1.529   0.493   2.549
  228SOL    HW2 1371   1.654   0.515   2.652
  229SOL     OW 1372   0.231   1.713   2.345
  229SOL    HW1 1373   0.265   1.790   2.399
  229SOL    HW2 1374   0.275   1.713   2.255
  230SOL     OW 1375   1.127   1.341   3.552
  230SOL    HW1 1376   1.174   1.341   3.640
  230SOL    HW2 1377   1.079   1.254   3.541
  231SOL     OW 1378   0.230   1.434   2.400
  231SOL    HW1 1379   0.204   1.530   2.400
  231SOL    HW2 1380   0.159   1.380   2.445
  232SOL     OW 1381   0.240   1.091   2.748
  232SOL    HW1 1382   0.254   1.007   2.800
  232SOL    HW2 1383   0.185   1.155   2.803
  233SOL     OW 1384   0.620   1.786   3.301
  233SOL    HW1 1385   0.528   1.769   3.336
  233SOL    HW2 1386   0.648   1.878   3.327
  234SOL     OW 1387   0.606   0.964   1.985
  234SOL    HW1 1388   0.613   1.048   1.931
  234SOL    HW2 1389   0.652   0.977   2.073
  235SOL     OW 1390   1.594   0.114   3.342
  235SOL    HW1 1391   1.576   0.181   3.270
  235SOL    HW2 1392   1.591   0.160   3.431
  236SOL     OW 1393   0.122   0.643   2.425
  236SOL    HW1 1394   0.077   0.555   2.442
  236SOL    HW2 1395   0.121   0.697   2.509
  237SOL     OW 1396   0.027   1.596   1.979
  237SOL    HW1 1397   0.008   1.500   2.000
  237SOL    HW2 1398  -0.006   1.654   2.054
  238SOL     OW 1399   1.689   0.922   2.474
  238SOL    HW1 1400   1.784   0.893   2.482
  238SOL    HW2 1401   1.681   0.987   2.399
  239SOL     OW 1402   1.641   1.108   2.294
  239SOL    HW1 1403   1.727   1.110   2.242
  239SOL    HW2 1404   1.655   1.155   2.382
  240SOL     OW 1405   0.113   0.737   3.459
  240SOL    HW1 1406   0.201   0.724   3.504
  240SOL    HW2 1407   0.100   0.834   3.437
  241SOL     OW 1408   0.613   1.365   2.588
  241SOL    HW1 1409   0.564   1.278   2.597
  241SOL    HW2 1410   0.590   1.408   2.501
  242SOL     OW 1411   1.293   1.228   3.285
  242SOL    HW1 1412   1.330   1.155   3.227
  242SOL    HW2 1413   1.345   1.233   3.370
  243SOL     OW 1414   0.809   0.004   2.364
  243SOL    HW1 1415   0.849   0.095   2.355
  243SOL    HW2 1416   0.709   0.012   2.370
  244SOL     OW 1417   0.197   0.976   3.126
  244SOL    HW1 1418   0.286   0.931   3.112
  244SOL    HW2 1419   0.124   0.911   3.107
  245SOL     OW 1420   1.525   0.999   2.052
  245SOL    HW1 1421   1.462   0.923   2.065
  245SOL    HW2 1422   1.573   1.017   2.138
  246SOL     OW 1423   1.187   1.792   3.478
  246SOL    HW1 1424   1.211   1.852   3.402
  246SOL    HW2 1425   1.194   1.697   3.448
  247SOL     OW 1426   0.317   0.251   3.663
  247SOL    HW1 1427   0.388   0.322   3.669
  247SOL    HW2 1428   0.229   0.290   3.691
  248SOL     OW 1429   1.466   1.417   2.815
  248SOL    HW1 1430   1.407   1.423   2.895
  248SOL    HW2 1431   1.451   1.329   2.769
  249SOL     OW 1432   1.667   1.714   2.434
  249SOL    HW1 1433   1.626   1.691   2.346
  249SOL    HW2 1434   1.649   1.640   2.499
  250SOL     OW 1435   0.598   0.729   2.132
  250SOL    HW1 1436   0.622   0.798   2.064
  250SOL    HW2 1437   0.520   0.762   2.186
  251SOL     OW 1438   1.281   0.345   2.806
  251SOL    HW1 1439   1.195   0.295   2.793
  251SOL    HW2 1440   1.343   0.291   2.862
  252SOL     OW 1441   1.576   1.662   2.169
  252SOL    HW1 1442   1.665   1.708   2.172
  252SOL    HW2 1443   1.555   1.638   2.074
  253SOL     OW 1444   0.807   0.605   3.327
  253SOL    HW1 1445   0.760   0.602   3.416
  253SOL    HW2 1446   0.756   0.550   3.261
  254SOL     OW 1447   1.394   0.469   3.536
  254SOL    HW1 1448   1.374   0.512   3.624
  254SOL    HW2 1449   1.472   0.407   3.545
  255SOL     OW 1450   0.973   0.890   3.434
  255SOL    HW1 1451   1.019   0.806   3.405
  255SOL    HW2 1452   0.917   0.924   3.359
  256SOL     OW 1453   0.991   0.410   3.104
  256SOL    HW1 1454   0.914   0.444   3.158
  256SOL    HW2 1455   0.957   0.359   3.025
  257SOL     OW 1456   1.041   0.701   2.291
  257SOL    HW1 1457   1.067   0.697   2.387
  257SOL    HW2 1458   0.956   0.650   2.277
  258SOL     OW 1459   0.076   0.811   2.651
  258SOL    HW1 1460   0.175   0.799   2.660
  258SOL    HW2 1461   0.052   0.906   2.672
  259SOL     OW 1462   0.130   1.821   3.433
  259SOL    HW1 1463   0.120   1.806   3.532
  259SOL    HW2 1464   0.044   1.857   3.397
  260SOL     OW 1465   0.865   0.348   2.057
  260SOL    HW1 1466   0.924   0.411   2.008
  260SOL    HW2 1467   0.884   0.254   2.028
  261SOL     OW 1468   1.719   0.585   3.693
  261SOL    HW1 1469   1.693   0.674   3.657
  261SOL    HW2 1470   1.717   0.517   3.620
  262SOL     OW 1471   1.362   1.144   2.407
  262SOL    HW1 1472   1.445   1.115   2.359
  262SOL    HW2 1473   1.313   1.211   2.351
  263SOL     OW 1474   0.550   0.196   2.747
  263SOL    HW1 1475   0.545   0.191   2.847
  263SOL    HW2 1476   0.552   0.292   2.718
  264SOL     OW 1477   1.008   1.456   2.339
  264SOL    HW1 1478   0.962   1.528   2.287
  264SOL    HW2 1479   1.004   1.476   2.437
  265SOL     OW 1480   0.351   1.801   2.715
  265SOL    HW1 1481   0.401   1.715   2.721
  265SOL    HW2 1482   0.416   1.878   2.712
  266SOL     OW 1483   1.795   1.066   2.735
  266SOL    HW1 1484   1.733   1.051   2.659
  266SOL    HW2 1485   1.743   1.077   2.820
  267SOL     OW 1486   1.227   1.550   3.368
  267SOL    HW1 1487   1.233   1.473   3.432
  267SOL    HW2 1488   1.175   1.524   3.288
  268SOL     OW 1489   0.321   0.943   2.104
  268SOL    HW1 1490   0.403   0.982   2.062
  268SOL    HW2 1491   0.294   0.861   2.055
  269SOL     OW 1492   1.458   0.735   2.590
  269SOL    HW1 1493   1.453   0.670   2.665
  269SOL    HW2 1494   1.538   0.794   2.603
  270SOL     OW 1495   0.461   1.266   3.589
  270SOL    HW1 1496   0.411   1.267   3.503
  270SOL    HW2 1497   0.398   1.248   3.665
  271SOL     OW 1498   1.111   1.776   2.099
  271SOL    HW1 1499   1.051   1.714   2.149
  271SOL    HW2 1500   1.142   1.732   2.014
  272SOL     OW 1501   0.202   0.285   3.360
  272SOL    HW1 1502   0.122   0.345   3.347
  272SOL    HW2 1503   0.192   0.236   3.446
  273SOL     OW 1504   1.632   1.377   1.943
  273SOL    HW1 1505   1.600   1.471   1.933
  273SOL    HW2 1506   1.556   1.314   1.931
  274SOL     OW 1507   0.464   1.743   2.185
  274SOL    HW1 1508   0.497   1.782   2.271
  274SOL    HW2 1509   0.540   1.736   2.120
  275SOL     OW 1510   1.400   0.107   2.288
  275SOL    HW1 1511   1.376   0.070   2.198
  275SOL    HW2 1512   1.499   0.123   2.292
  276SOL     OW 1513   0.249   1.785   3.103
  276SOL    HW1 1514   0.306   1.720   3.153
  276SOL    HW2 1515   0.233   1.752   3.010
  277SOL     OW 1516   0.940   1.698   2.766
  277SOL    HW1 1517   1.020   1.641   2.787
  277SOL    HW2 1518   0.891   1.658   2.689
  278SOL     OW 1519   0.382   0.700   2.342
  278SOL    HW1 1520   0.427   0.610   2.339
  278SOL    HW2 1521   0.288   0.689   2.375
  279SOL     OW 1522   1.547   0.222   3.591
  279SOL    HW1 1523   1.542   0.259   3.683
  279SOL    HW2 1524   1.475   0.153   3.579
  280SOL     OW 1525   0.614   0.122   1.979
  280SOL    HW1 1526   0.712   0.100   1.986
  280SOL    HW2 1527   0.583   0.105   1.886
  281SOL     OW 1528   0.781   0.264   3.611
  281SOL    HW1 1529   0.848   0.203   3.654
  281SOL    HW2 1530   0.708   0.283   3.676
  282SOL     OW 1531   0.888   1.514   3.057
  282SOL    HW1 1532   0.865   1.489   2.963
  282SOL    HW2 1533   0.949   1.445   3.096
  283SOL     OW 1534   1.351   0.590   3.295
  283SOL    HW1 1535   1.379   0.547   3.380
  283SOL    HW2 1536   1.376   0.686   3.296
  284SOL     OW 1537   0.803   1.402   2.786
  284SOL    HW1 1538   0.893   1.416   2.744
  284SOL    HW2 1539   0.732   1.404   2.715
  285SOL     OW 1540   0.922   0.503   2.761
  285SOL    HW1 1541   0.897   0.494   2.665
  285SOL    HW2 1542   0.970   0.421   2.792
  286SOL     OW 1543   0.539   0.064   2.374
  286SOL    HW1 1544   0.458   0.065   2.432
  286SOL    HW2 1545   0.542   0.147   2.319
  287SOL     OW 1546   1.434   1.188   1.903
  287SOL    HW1 1547   1.466   1.112   1.960
  287SOL    HW2 1548   1.342   1.215   1.933
  288SOL     OW 1549   0.297   0.035   2.033
  288SOL    HW1 1550   0.346   0.119   2.012
  288SOL    HW2 1551   0.359  -0.030   2.078
  289SOL     OW 1552   0.935   0.236   2.342
  289SOL    HW1 1553   0.887   0.277   2.264
  289SOL    HW2 1554   1.034   0.234   2.323
  290SOL     OW 1555   1.076   0.683   3.326
  290SOL    HW1 1556   0.996   0.622   3.329
  290SOL    HW2 1557   1.157   0.630   3.302
  291SOL     OW 1558   1.227   1.570   2.655
  291SOL    HW1 1559   1.248   1.644   2.590
  291SOL    HW2 1560   1.295   1.570   2.728
  292SOL     OW 1561   0.459   1.152   2.603
  292SOL    HW1 1562   0.388   1.125   2.668
  292SOL    HW2 1563   0.433   1.124   2.510
  293SOL     OW 1564   1.271   1.797   2.453
  293SOL    HW1 1565   1.315   1.861   2.389
  293SOL    HW2 1566   1.221   1.849   2.523
  294SOL     OW 1567   1.032   0.549   1.878
  294SOL    HW1 1568   0.991   0.631   1.839
  294SOL    HW2 1569   1.096   0.575   1.951
  295SOL     OW 1570   0.078   0.556   3.248
  295SOL    HW1 1571   0.170   0.555   3.207
  295SOL    HW2 1572   0.072   0.630   3.315
  296SOL     OW 1573   0.561   0.222   3.009
  296SOL    HW1 1574   0.599   0.138   3.046
  296SOL    HW2 1575   0.473   0.241   3.053
  297SOL     OW 1576   0.866   0.454   2.504
  297SOL    HW1 1577   0.834   0.526   2.442
  297SOL    HW2 1578   0.890   0.373   2.451
  298SOL     OW 1579   1.017   0.039   2.615
  298SOL    HW1 1580   0.945   0.044   2.546
  298SOL    HW2 1581   0.993  -0.030   2.684
  299SOL     OW 1582   1.429   1.173   2.729
  299SOL    HW1 1583   1.374   1.089   2.722
  299SOL    HW2 1584   1.455   1.202   2.637
  300SOL     OW 1585   1.466   0.590   2.854
  300SOL    HW1 1586   1.436   0.495   2.861
  300SOL    HW2 1587   1.539   0.606   2.920
  301SOL     OW 1588   1.857   0.833   2.239
  301SOL    HW1 1589   1.899   0.769   2.303
  301SOL    HW2 1590   1.819   0.782   2.161
  302SOL     OW 1591   0.488   1.385   2.036
  302SOL    HW1 1592   0.401   1.370   2.083
  302SOL    HW2 1593   0.471   1.411   1.941
  303SOL     OW 1594   1.664   1.280   2.519
  303SOL    HW1 1595   1.763   1.288   2.533
  303SOL    HW2 1596   1.619   1.364   2.550
  304SOL     OW 1597   1.390   0.575   1.940
  304SOL    HW1 1598   1.336   0.554   2.021
  304SOL    HW2 1599   1.481   0.534   1.949
  305SOL     OW 1600   0.527   0.256   2.190
  305SOL    HW1 1601   0.554   0.197   2.115
  305SOL    HW2 1602   0.527   0.351   2.159
  306SOL     OW 1603   1.754   1.223   3.450
  306SOL    HW1 1604   1.845   1.184   3.437
  306SOL    HW2 1605   1.762   1.319   3.474
  307SOL     OW 1606   1.064   1.347   3.202
  307SOL    HW1 1607   0.984   1.324   3.257
  307SOL    HW2 1608   1.147   1.321   3.251
  308SOL     OW 1609   1.592   1.629   3.487
  308SOL    HW1 1610   1.619   1.663   3.397
  308SOL    HW2 1611   1.671   1.591   3.533
  309SOL     OW 1612   1.111   1.195   2.962
  309SOL    HW1 1613   1.071   1.239   3.043
  309SOL    HW2 1614   1.070   1.232   2.879
  310SOL     OW 1615   1.638   1.099   2.941
  310SOL    HW1 1616   1.643   1.180   3.000
  310SOL    HW2 1617   1.552   1.101   2.890
  311SOL     OW 1618   0.915   0.089   3.264
  311SOL    HW1 1619   0.940   0.069   3.169
  311SOL    HW2 1620   0.987   0.145   3.306
  312SOL     OW 1621   0.980   1.116   3.581
  312SOL    HW1 1622   0.881   1.122   3.591
  312SOL    HW2 1623   1.003   1.036   3.525
  313SOL     OW 1624   0.705   1.050   2.230
  313SOL    HW1 1625   0.691   1.057   2.329
  313SOL    HW2 1626   0.789   0.999   2.212
  314SOL     OW 1627   0.410   0.813   3.113
  314SOL    HW1 1628   0.496   0.825   3.163
  314SOL    HW2 1629   0.368   0.726   3.140
  315SOL     OW 1630   1.274   0.386   3.124
  315SOL    HW1 1631   1.295   0.460   3.188
  315SOL    HW2 1632   1.185   0.403   3.081
  316SOL     OW 1633   0.064   1.564   3.193
  316SOL    HW1 1634   0.018   1.646   3.159
  316SOL    HW2 1635   0.162   1.583   3.202
  317SOL     OW 1636   0.367   1.100   2.363
  317SOL    HW1 1637   0.360   1.183   2.307
  317SOL    HW2 1638   0.371   1.020   2.303
  318SOL     OW 1639   0.566   0.537   2.727
  318SOL    HW1 1640   0.578   0.603   2.653
  318SOL    HW2 1641   0.612   0.571   2.810
  319SOL     OW 1642   1.252   1.348   2.250
  319SOL    HW1 1643   1.302   1.425   2.290
  319SOL    HW2 1644   1.157   1.350   2.282
  320SOL     OW 1645   1.272   1.445   3.004
  320SOL    HW1 1646   1.319   1.458   3.091
  320SOL    HW2 1647   1.206   1.371   3.013
  321SOL     OW 1648   1.582   0.639   2.334
  321SOL    HW1 1649   1.551   0.700   2.407
  321SOL    HW2 1650   1.632   0.691   2.265
  322SOL     OW 1651   0.354   1.510   3.191
  322SOL    HW1 1652   0.333   1.466   3.104
  322SOL    HW2 1653   0.451   1.536   3.194
  323SOL     OW 1654   0.402   0.751   3.460
  323SOL    HW1 1655   0.470   0.806   3.413
  323SOL    HW2 1656   0.442   0.663   3.487
  324SOL     OW 1657   1.587   0.779   3.532
  324SOL    HW1 1658   1.495   0.817   3.527
  324SOL    HW2 1659   1.647   0.826   3.467
  325SOL     OW 1660   1.013   0.105   3.632
  325SOL    HW1 1661   1.019   0.190   3.580
  325SOL    HW2 1662   1.045   0.029   3.575
  326SOL     OW 1663   0.504   0.050   3.602
  326SOL    HW1 1664   0.462  -0.007   3.532
  326SOL    HW2 1665   0.438   0.119   3.634
  327SOL     OW 1666   0.573   0.870   2.891
  327SOL    HW1 1667   0.617   0.959   2.882
  327SOL    HW2 1668   0.510   0.870   2.968
  328SOL     OW 1669   1.360   0.862   2.907
  328SOL    HW1 1670   1.285   0.862   2.841
  328SOL    HW2 1671   1.397   0.770   2.916
  329SOL     OW 1672   1.209   0.525   2.137
  329SOL    HW1 1673   1.222   0.441   2.191
  329SOL    HW2 1674   1.180   0.599   2.197
  330SOL     OW 1675   0.307   0.213   3.093
  330SOL    HW1 1676   0.284   0.250   3.183
  330SOL    HW2 1677   0.277   0.118   3.087
  331SOL     OW 1678   0.037   1.310   3.144
  331SOL    HW1 1679   0.090   1.261   3.212
  331SOL    HW2 1680   0.059   1.408   3.149
  332SOL     OW 1681   0.732   0.634   2.926
  332SOL    HW1 1682   0.791   0.608   2.850
  332SOL    HW2 1683   0.704   0.730   2.915
  333SOL     OW 1684   1.728   0.935   3.716
  333SOL    HW1 1685   1.682   0.928   3.627
  333SOL    HW2 1686   1.666   0.979   3.782
  334SOL     OW 1687   0.307   0.063   2.480
  334SOL    HW1 1688   0.296   0.157   2.513
  334SOL    HW2 1689   0.302   0.000   2.557
  335SOL     OW 1690   1.622   0.367   2.236
  335SOL    HW1 1691   1.624   0.291   2.300
  335SOL    HW2 1692   1.574   0.444   2.276
  336SOL     OW 1693   1.023   0.766   2.828
  336SOL    HW1 1694   1.038   0.787   2.924
  336SOL    HW2 1695   0.993   0.671   2.819
  337SOL     OW 1696   0.980   1.573   3.562
  337SOL    HW1 1697   0.960   1.617   3.474
  337SOL    HW2 1698   1.019   1.482   3.546
  338SOL     OW 1699   1.859   1.518   3.467
  338SOL    HW1 1700   1.873   1.545   3.372
  338SOL    HW2 1701   1.942   1.540   3.520
  339SOL     OW 1702   0.350   0.898   3.666
  339SOL    HW1 1703   0.426   0.942   3.714
  339SOL    HW2 1704   0.385   0.851   3.584
  340SOL     OW 1705   1.540   0.274   1.987
  340SOL    HW1 1706   1.479   0.199   2.010
  340SOL    HW2 1707   1.562   0.326   2.070
  341SOL     OW 1708   1.303   0.838   1.904
  341SOL    HW1 1709   1.337   0.745   1.919
  341SOL    HW2 1710   1.321   0.865   1.809
  342SOL     OW 1711   1.068   1.333   2.711
  342SOL    HW1 1712   1.075   1.249   2.656
  342SOL    HW2 1713   1.130   1.402   2.675
  343SOL     OW 1714   0.319   0.810   2.811
  343SOL    HW1 1715   0.412   0.846   2.816
  343SOL    HW2 1716   0.313   0.725   2.863
  344SOL     OW 1717   0.339   0.509   2.868
  344SOL    HW1 1718   0.287   0.426   2.851
  344SOL    HW2 1719   0.416   0.514   2.804
  345SOL     OW 1720   1.138   0.380   3.540
  345SOL    HW1 1721   1.093   0.443   3.604
  345SOL    HW2 1722   1.231   0.411   3.523
  346SOL     OW 1723   1.160   0.207   3.339
  346SOL    HW1 1724   1.160   0.271   3.416
  346SOL    HW2 1725   1.188   0.255   3.256
  347SOL     OW 1726   0.008   1.326   2.062
  347SOL    HW1 1727  -0.085   1.347   2.031
  347SOL    HW2 1728   0.018   1.227   2.075
  348SOL     OW 1729   0.088   1.801   2.789
  348SOL    HW1 1730   0.046   1.715   2.762
  348SOL    HW2 1731   0.182   1.804   2.755
  349SOL     OW 1732   0.504   1.568   2.772
  349SOL    HW1 1733   0.570   1.642   2.781
  349SOL    HW2 1734   0.548   1.489   2.730
  350SOL     OW 1735   1.002   0.796   3.100
  350SOL    HW1 1736   1.043   0.764   3.186
  350SOL    HW2 1737   0.906   0.769   3.097
  351SOL     OW 1738   0.040   0.544   2.976
  351SOL    HW1 1739   0.125   0.511   2.935
  351SOL    HW2 1740   0.053   0.559   3.074
  352SOL     OW 1741   0.189   0.520   3.584
  352SOL    HW1 1742   0.248   0.480   3.514
  352SOL    HW2 1743   0.131   0.591   3.543
  353SOL     OW 1744   1.369   0.950   3.522
  353SOL    HW1 1745   1.408   1.039   3.542
  353SOL    HW2 1746   1.379   0.930   3.425
  354SOL     OW 1747   0.815   0.572   2.187
  354SOL    HW1 1748   0.822   0.483   2.141
  354SOL    HW2 1749   0.721   0.606   2.179
  355SOL     OW 1750   1.657   0.604   3.068
  355SOL    HW1 1751   1.619   0.535   3.130
  355SOL    HW2 1752   1.739   0.568   3.024
  356SOL     OW 1753   0.252   1.564   3.606
  356SOL    HW1 1754   0.222   1.621   3.682
  356SOL    HW2 1755   0.245   1.467   3.632
  357SOL     OW 1756   0.671   0.464   3.131
  357SOL    HW1 1757   0.637   0.375   3.101
  357SOL    HW2 1758   0.697   0.518   3.051
  358SOL     OW 1759   0.930   1.678   3.327
  358SOL    HW1 1760   0.906   1.660   3.232
  358SOL    HW2 1761   0.960   1.772   3.337
  359SOL     OW 1762   0.473   0.500   2.053
  359SOL    HW1 1763   0.534   0.580   2.057
  359SOL    HW2 1764   0.378   0.531   2.060
  360SOL     OW 1765   0.159   1.137   3.328
  360SOL    HW1 1766   0.181   1.076   3.404
  360SOL    HW2 1767   0.169   1.088   3.242
  361SOL     OW 1768   1.347   1.059   3.096
  361SOL    HW1 1769   1.371   0.996   3.022
  361SOL    HW2 1770   1.257   1.099   3.078
  362SOL     OW 1771   1.302   0.855   2.171
  362SOL    HW1 1772   1.216   0.824   2.213
  362SOL    HW2 1773   1.298   0.841   2.072
  363SOL     OW 1774   1.759   1.747   3.016
  363SOL    HW1 1775   1.820   1.777   2.943
  363SOL    HW2 1776   1.721   1.658   2.994
  364SOL     OW 1777   1.252   1.731   2.990
  364SOL    HW1 1778   1.336   1.736   2.936
  364SOL    HW2 1779   1.229   1.635   3.008
  365SOL     OW 1780   0.083   1.258   2.884
  365SOL    HW1 1781   0.078   1.257   2.984
  365SOL    HW2 1782   0.000   1.217   2.846
  366SOL     OW 1783   0.688   1.662   3.578
  366SOL    HW1 1784   0.632   1.743   3.587
  366SOL    HW2 1785   0.740   1.666   3.492
  367SOL     OW 1786   1.726   0.135   2.385
  367SOL    HW1 1787   1.799   0.118   2.318
  367SOL    HW2 1788   1.695   0.048   2.423
  368SOL     OW 1789   1.388   1.573   2.339
  368SOL    HW1 1790   1.455   1.585   2.265
  368SOL    HW2 1791   1.348   1.662   2.362
  369SOL     OW 1792   0.130   1.794   3.713
  369SOL    HW1 1793   0.089   1.720   3.766
  369SOL    HW2 1794   0.194   1.845   3.771
  370SOL     OW 1795   1.280   0.927   2.534
  370SOL    HW1 1796   1.340   0.846   2.536
  370SOL    HW2 1797   1.320   0.996   2.474
  371SOL     OW 1798   0.830   1.273   3.284
  371SOL    HW1 1799   0.825   1.306   3.379
  371SOL    HW2 1800   0.744   1.292   3.238
  372SOL     OW 1801   0.672   1.616   2.016
  372SOL    HW1 1802   0.681   1.626   1.917
  372SOL    HW2 1803   0.632   1.527   2.037
  373SOL     OW 1804   1.650   1.720   3.256
  373SOL    HW1 1805   1.703   1.730   3.172
  373SOL    HW2 1806   1.623   1.810   3.290
  374SOL     OW 1807   1.841   0.175   2.825
  374SOL    HW1 1808   1.880   0.090   2.789
  374SOL    HW2 1809   1.743   0.177   2.806
  375SOL     OW 1810   0.263   0.326   2.582
  375SOL    HW1 1811   0.184   0.377   2.548
  375SOL    HW2 1812   0.254   0.311   2.680
  376SOL     OW 1813   1.194   1.612   1.893
  376SOL    HW1 1814   1.200   1.519   1.930
  376SOL    HW2 1815   1.135   1.612   1.813
  377SOL     OW 1816   0.822   1.002   3.234
  377SOL    HW1 1817   0.862   1.001   3.142
  377SOL    HW2 1818   0.832   1.094   3.274
  378SOL     OW 1819   0.916   0.910   2.153
  378SOL    HW1 1820   0.979   0.948   2.085
  378SOL    HW2 1821   0.956   0.827   2.192
  379SOL     OW 1822   1.504   1.607   1.906
  379SOL    HW1 1823   1.412   1.644   1.913
  379SOL    HW2 1824   1.542   1.627   1.816
  380SOL     OW 1825   0.372   1.288   3.352
  380SOL    HW1 1826   0.359   1.381   3.318
  380SOL    HW2 1827   0.288   1.236   3.339
  381SOL     OW 1828   1.614   1.292   3.151
  381SOL    HW1 1829   1.674   1.295   3.231
  381SOL    HW2 1830   1.539   1.356   3.164
  382SOL     OW 1831   1.039   1.098   2.558
  382SOL    HW1 1832   0.969   1.051   2.612
  382SOL    HW2 1833   1.098   1.030   2.515
  383SOL     OW 1834   1.014   0.236   2.833
  383SOL    HW1 1835   1.006   0.200   2.740
  383SOL    HW2 1836   1.012   0.160   2.898
  384SOL     OW 1837   0.590   1.487   2.353
  384SOL    HW1 1838   0.632   1.429   2.283
  384SOL    HW2 1839   0.546   1.566   2.309
  385SOL     OW 1840   1.709   0.385   3.243
  385SOL    HW1 1841   1.782   0.454   3.247
  385SOL    HW2 1842   1.737   0.310   3.184
  386SOL     OW 1843   0.255   1.348   2.152
  386SOL    HW1 1844   0.159   1.349   2.125
  386SOL    HW2 1845   0.267   1.401   2.236
  387SOL     OW 1846   0.105   1.013   3.588
  387SOL    HW1 1847   0.028   0.980   3.642
  387SOL    HW2 1848   0.190   0.983   3.630
  388SOL     OW 1849   0.672   0.203   3.351
  388SOL    HW1 1850   0.762   0.187   3.311
  388SOL    HW2 1851   0.680   0.208   3.450
  389SOL     OW 1852   0.075   0.345   1.895
  389SOL    HW1 1853  -0.017   0.317   1.866
  389SOL    HW2 1854   0.106   0.422   1.839
  390SOL     OW 1855   1.440   0.856   3.260
  390SOL    HW1 1856   1.383   0.908   3.197
  390SOL    HW2 1857   1.536   0.868   3.236
  391SOL     OW 1858   0.072   0.166   2.180
  391SOL    HW1 1859   0.055   0.249   2.126
  391SOL    HW2 1860   0.162   0.129   2.158
  392SOL     OW 1861   1.183   1.335   1.981
  392SOL    HW1 1862   1.084   1.324   1.983
  392SOL    HW2 1863   1.217   1.350   2.074
  393SOL     OW 1864   0.613   0.842   3.293
  393SOL    HW1 1865   0.669   0.923   3.276
  393SOL    HW2 1866   0.672   0.762   3.296
  394SOL     OW 1867   1.493   1.767   2.821
  394SOL    HW1 1868   1.526   1.831   2.752
  394SOL    HW2 1869   1.559   1.761   2.896
  395SOL     OW 1870   0.716   0.565   3.570
  395SOL    HW1 1871   0.735   0.630   3.644
  395SOL    HW2 1872   0.776   0.485   3.579
  396SOL     OW 1873   1.450   1.220   3.495
  396SOL    HW1 1874   1.441   1.210   3.594
  396SOL    HW2 1875   1.546   1.213   3.469
  397SOL     OW 1876   0.390   1.741   3.422
  397SOL    HW1 1877   0.299   1.782   3.420
  397SOL    HW2 1878   0.383   1.647   3.454
  398SOL     OW 1879   1.674   0.883   3.116
  398SOL    HW1 1880   1.647   0.794   3.079
  398SOL    HW2 1881   1.675   0.951   3.043
  399SOL     OW 1882   1.225   0.325   2.311
  399SOL    HW1 1883   1.290   0.251   2.300
  399SOL    HW2 1884   1.245   0.375   2.395
  400SOL     OW 1885   0.594   0.745   2.514
  400SOL    HW1 1886   0.644   0.830   2.495
  400SOL    HW2 1887   0.506   0.747   2.466
  401SOL     OW 1888   1.777   0.342   3.504
  401SOL    HW1 1889   1.760   0.373   3.410
  401SOL    HW2 1890   1.693   0.305   3.542
  402SOL     OW 1891   1.730   0.934   3.379
  402SOL    HW1 1892   1.768   1.025   3.394
  402SOL    HW2 1893   1.722   0.917   3.280
  403SOL     OW 1894   0.859   1.374   1.878
  403SOL    HW1 1895   0.813   1.389   1.966
  403SOL    HW2 1896   0.903   1.459   1.848
  404SOL     OW 1897   0.661   1.790   2.815
  404SOL    HW1 1898   0.615   1.878   2.802
  404SOL    HW2 1899   0.760   1.802   2.808
  405SOL     OW 1900   0.859   0.956   2.723
  405SOL    HW1 1901   0.913   0.887   2.771
  405SOL    HW2 1902   0.827   1.025   2.789
  406SOL     OW 1903   1.083   0.984   1.949
  406SOL    HW1 1904   1.060   1.037   1.867
  406SOL    HW2 1905   1.164   0.928   1.930
  407SOL     OW 1906   1.861   1.569   2.713
  407SOL    HW1 1907   1.790   1.557   2.643
  407SOL    HW2 1908   1.862   1.490   2.773
  408SOL     OW 1909   0.221   1.314   3.706
  408SOL    HW1 1910   0.156   1.241   3.685
  408SOL    HW2 1911   0.225   1.328   3.804
  409SOL     OW 1912   0.079   1.240   2.515
  409SOL    HW1 1913   0.078   1.193   2.603
  409SOL    HW2 1914   0.161   1.212   2.464
  410SOL     OW 1915   0.672   1.391   3.486
  410SOL    HW1 1916   0.594   1.341   3.524
  410SOL    HW2 1917   0.669   1.486   3.517
  411SOL     OW 1918   1.824   0.192   3.089
  411SOL    HW1 1919   1.820   0.102   3.133
  411SOL    HW2 1920   1.827   0.181   2.990
  412SOL     OW 1921   0.428   0.424   2.382
  412SOL    HW1 1922   0.458   0.352   2.320
  412SOL    HW2 1923   0.389   0.384   2.465
  413SOL     OW 1924   1.705   1.487   2.966
  413SOL    HW1 1925   1.612   1.462   2.939
  413SOL    HW2 1926   1.731   1.437   3.048
  414SOL     OW 1927   0.317   0.547   3.142
  414SOL    HW1 1928   0.355   0.488   3.214
  414SOL    HW2 1929   0.357   0.521   3.054
  415SOL     OW 1930   0.812   1.586   2.549
  415SOL    HW1 1931   0.844   1.596   2.455
  415SOL    HW2 1932   0.733   1.524   2.551
  416SOL     OW 1933   1.424   0.214   2.974
  416SOL    HW1 1934   1.476   0.149   3.029
  416SOL    HW2 1935   1.375   0.277   3.035
  417SOL     OW 1936   1.001   0.034   3.016
  417SOL    HW1 1937   0.938  -0.038   2.985
  417SOL    HW2 1938   1.094  -0.002   3.016
  418SOL     OW 1939   0.770   1.330   2.163
  418SOL    HW1 1940   0.724   1.243   2.180
  418SOL    HW2 1941   0.861   1.327   2.204
  419SOL     OW 1942   0.618   1.567   3.146
  419SOL    HW1 1943   0.613   1.649   3.203
  419SOL    HW2 1944   0.707   1.564   3.101
  420SOL     OW 1945   1.352   0.052   2.030
  420SOL    HW1 1946   1.387   0.011   1.946
  420SOL    HW2 1947   1.262   0.014   2.050
  421SOL     OW 1948   1.300   0.453   2.553
  421SOL    HW1 1949   1.241   0.533   2.557
  421SOL    HW2 1950   1.315   0.418   2.646
  422SOL     OW 1951   1.593   0.221   2.744
  422SOL    HW1 1952   1.509   0.220   2.798
  422SOL    HW2 1953   1.595   0.304   2.688
  423SOL     OW 1954   0.039   1.077   2.162
  423SOL    HW1 1955   0.138   1.066   2.153
  423SOL    HW2 1956  -0.001   0.991   2.194
  424SOL     OW 1957   0.875   1.646   2.199
  424SOL    HW1 1958   0.798   1.611   2.145
  424SOL    HW2 1959   0.843   1.717   2.261
  425SOL     OW 1960   0.230   0.628   3.837
  425SOL    HW1 1961   0.137   0.626   3.874
  425SOL    HW2 1962   0.231   0.589   3.745
  426SOL     OW 1963   0.225   0.275   4.720
  426SOL    HW1 1964   0.260   0.258   4.812
  426SOL    HW2 1965   0.137   0.230   4.708
  427SOL     OW 1966   0.019   0.368   4.371
  427SOL    HW1 1967  -0.063   0.411   4.410
  427SOL    HW2 1968  -0.009   0.295   4.308
  428SOL     OW 1969   0.569   1.275   4.889
  428SOL    HW1 1970   0.476   1.268   4.852
  428SOL    HW2 1971   0.580   1.364   4.933
  429SOL     OW 1972   1.555   1.511   4.427
  429SOL    HW1 1973   1.498   1.495   4.508
  429SOL    HW2 1974   1.496   1.521   4.347
  430SOL     OW 1975   1.135   0.703   4.441
  430SOL    HW1 1976   1.192   0.781   4.416
  430SOL    HW2 1977   1.075   0.729   4.517
  431SOL     OW 1978   1.755   0.607   3.955
  431SOL    HW1 1979   1.743   0.594   3.856
  431SOL    HW2 1980   1.725   0.526   4.004
  432SOL     OW 1981   0.768   1.144   4.747
  432SOL    HW1 1982   0.690   1.161   4.807
  432SOL    HW2 1983   0.802   1.231   4.711
  433SOL     OW 1984   0.850   0.798   5.547
  433SOL    HW1 1985   0.846   0.874   5.612
  433SOL    HW2 1986   0.872   0.834   5.456
  434SOL     OW 1987   0.685   1.012   4.389
  434SOL    HW1 1988   0.754   0.996   4.459
  434SOL    HW2 1989   0.612   1.069   4.427
  435SOL     OW 1990   0.686   1.161   5.527
  435SOL    HW1 1991   0.746   1.240   5.541
  435SOL    HW2 1992   0.600   1.192   5.486
  436SOL     OW 1993   0.335   1.435   4.785
  436SOL    HW1 1994   0.257   1.404   4.732
  436SOL    HW2 1995   0.393   1.493   4.728
  437SOL     OW 1996   1.460   1.505   5.063
  437SOL    HW1 1997   1.484   1.599   5.089
  437SOL    HW2 1998   1.444   1.451   5.145
  438SOL     OW 1999   0.438   0.392   5.223
  438SOL    HW1 2000   0.520   0.336   5.232
  438SOL    HW2 2001   0.357   0.334   5.227
  439SOL     OW 2002   1.603   0.447   4.461
  439SOL    HW1 2003   1.529   0.493   4.411
  439SOL    HW2 2004   1.654   0.515   4.514
  440SOL     OW 2005   0.231   1.713   4.207
  440SOL    HW1 2006   0.265   1.790   4.261
  440SOL    HW2 2007   0.275   1.713   4.117
  441SOL     OW 2008   1.127   1.341   5.414
  441SOL    HW1 2009   1.174   1.341   5.502
  441SOL    HW2 2010   1.079   1.254   5.403
  442SOL     OW 2011   0.230   1.434   4.262
  442SOL    HW1 2012   0.204   1.530   4.262
  442SOL    HW2 2013   0.159   1.380   4.307
  443SOL     OW 2014   0.240   1.091   4.610
  443SOL    HW1 2015   0.254   1.007   4.662
  443SOL    HW2 2016   0.185   1.155   4.665
  444SOL     OW 2017   0.620   1.786   5.163
  444SOL    HW1 2018   0.528   1.769   5.198
  444SOL    HW2 2019   0.648   1.878   5.189
  445SOL     OW 2020   0.606   0.964   3.847
  445SOL    HW1 2021   0.613   1.048   3.793
  445SOL    HW2 2022   0.652   0.977   3.935
  446SOL     OW 2023   1.594   0.114   5.204
  446SOL    HW1 2024   1.576   0.181   5.132
  446SOL    HW2 2025   1.591   0.160   5.293
  447SOL     OW 2026   0.122   0.643   4.287
  447SOL    HW1 2027   0.077   0.555   4.304
  447SOL    HW2 2028   0.121   0.697   4.371
  448SOL     OW 2029   0.027   1.596   3.841
  448SOL    HW1 2030   0.008   1.500   3.862
  448SOL    HW2 2031  -0.006   1.654   3.916
  449SOL     OW 2032   1.689   0.922   4.336
  449SOL    HW1 2033   1.784   0.893   4.344
  449SOL    HW2 2034   1.681   0.987   4.261
  450SOL     OW 2035   1.641   1.108   4.156
  450SOL    HW1 2036   1.727   1.110   4.104
  450SOL    HW2 2037   1.655   1.155   4.244
  451SOL     OW 2038   0.113   0.737   5.321
  451SOL    HW1 2039   0.201   0.724   5.366
  451SOL    HW2 2040   0.100   0.834   5.299
  452SOL     OW 2041   0.613   1.365   4.450
  452SOL    HW1 2042   0.564   1.278   4.459
  452SOL    HW2 2043   0.590   1.408   4.363
  453SOL     OW 2044   1.293   1.228   5.147
  453SOL    HW1 2045   1.330   1.155   5.089
  453SOL    HW2 2046   1.345   1.233   5.232
  454SOL     OW 2047   0.809   0.004   4.226
  454SOL    HW1 2048   0.849   0.095   4.217
  454SOL    HW2 2049   0.709   0.012   4.232
  455SOL     OW 2050   0.197   0.976   4.988
  455SOL    HW1 2051   0.286   0.931   4.974
  455SOL    HW2 2052   0.124   0.911   4.969
  456SOL     OW 2053   1.525   0.999   3.914
  456SOL    HW1 2054   1.462   0.923   3.927
  456SOL    HW2 2055   1.573   1.017   4.000
  457SOL     OW 2056   1.187   1.792   5.340
  457SOL    HW1 2057   1.211   1.852   5.264
  457SOL    HW2 2058   1.194   1.697   5.310
  458SOL     OW 2059   0.317   0.251   5.525
  458SOL    HW1 2060   0.388   0.322   5.531
  458SOL    HW2 2061   0.229   0.290   5.553
  459SOL     OW 2062   1.466   1.417   4.677
  459SOL    HW1 2063   1.407   1.423   4.757
  459SOL    HW2 2064   1.451   1.329   4.631
  460SOL     OW 2065   1.667   1.714   4.296
  460SOL    HW1 2066   1.626   1.691   4.208
  460SOL    HW2 2067   1.649   1.640   4.361
  461SOL     OW 2068   0.598   0.729   3.994
  461SOL    HW1 2069   0.622   0.798   3.926
  461SOL    HW2 2070   0.520   0.762   4.048
  462SOL     OW 2071   1.281   0.345   4.668
  462SOL    HW1 2072   1.195   0.295   4.655
  462SOL    HW2 2073   1.343   0.291   4.724
  463SOL     OW 2074   1.576   1.662   4.031
  463SOL    HW1 2075   1.665   1.708   4.034
  463SOL    HW2 2076   1.555   1.638   3.936
  464SOL     OW 2077   0.807   0.605   5.189
  464SOL    HW1 2078   0.760   0.602   5.278
  464SOL    HW2 2079   0.756   0.550   5.123
  465SOL     OW 2080   1.394   0.469   5.398
  465SOL    HW1 2081   1.374   0.512   5.486
  465SOL    HW2 2082   1.472   0.407   5.407
  466SOL     OW 2083   0.973   0.890   5.296
  466SOL    HW1 2084   1.019   0.806   5.267
  466SOL    HW2 2085   0.917   0.924   5.221
  467SOL     OW 2086   0.991   0.410   4.966
  467SOL    HW1 2087   0.914   0.444   5.020
  467SOL    HW2 2088   0.957   0.359   4.887
  468SOL     OW 2089   1.041   0.701   4.153
  468SOL    HW1 2090   1.067   0.697   4.249
  468SOL    HW2 2091   0.956   0.650   4.139
  469SOL     OW 2092   0.076   0.811   4.513
  469SOL    HW1 2093   0.175   0.799   4.522
  469SOL    HW2 2094   0.052   0.906   4.534
  470SOL     OW 2095   0.130   1.821   5.295
  470SOL    HW1 2096   0.120   1.806   5.394
  470SOL    HW2 2097   0.044   1.857   5.259
  471SOL     OW 2098   0.865   0.348   3.919
  471SOL    HW1 2099   0.924   0.411   3.870
  471SOL    HW2 2100   0.884   0.254   3.890
  472SOL     OW 2101   1.719   0.585   5.555
  472SOL    HW1 2102   1.693   0.674   5.519
  472SOL    HW2 2103   1.717   0.517   5.482
  473SOL     OW 2104   1.362   1.144   4.269
  473SOL    HW1 2105   1.445   1.115   4.221
  473SOL    HW2 2106   1.313   1.211   4.213
  474SOL     OW 2107   0.550   0.196   4.609
  474SOL    HW1 2108   0.545   0.191   4.709
  474SOL    HW2 2109   0.552   0.292   4.580
  475SOL     OW 2110   1.008   1.456   4.201
  475SOL    HW1 2111   0.962   1.528   4.149
  475SOL    HW2 2112   1.004   1.476   4.299
  476SOL     OW 2113   0.351   1.801   4.577
  476SOL    HW1 2114   0.401   1.715   4.583
  476SOL    HW2 2115   0.416   1.878   4.574
  477SOL     OW 2116   1.795   1.066   4.597
  477SOL    HW1 2117   1.733   1.051   4.521
  477SOL    HW2 2118   1.743   1.077   4.682
  478SOL     OW 2119   1.227   1.550   5.230
  478SOL    HW1 2120   1.233   1.473   5.294
  478SOL    HW2 2121   1.175   1.524   5.150
  479SOL     OW 2122   0.321   0.943   3.966
  479SOL    HW1 2123   0.403   0.982   3.924
  479SOL    HW2 2124   0.294   0.861   3.917
  480SOL     OW 2125   1.458   0.735   4.452
  480SOL    HW1 2126   1.453   0.670   4.527
  480SOL    HW2 2127   1.538   0.794   4.465
  481SOL     OW 2128   0.461   1.266   5.451
  481SOL    HW1 2129   0.411   1.267   5.365
  481SOL    HW2 2130   0.398   1.248   5.527
  482SOL     OW 2131   1.111   1.776   3.961
  482SOL    HW1 2132   1.051   1.714   4.011
  482SOL    HW2 2133   1.142   1.732   3.876
  483SOL     OW 2134   0.202   0.285   5.222
  483SOL    HW1 2135   0.122   0.345   5.209
  483SOL    HW2 2136   0.192   0.236   5.308
  484SOL     OW 2137   1.632   1.377   3.805
  484SOL    HW1 2138   1.600   1.471   3.795
  484SOL    HW2 2139   1.556   1.314   3.793
  485SOL     OW 2140   0.464   1.743   4.047
  485SOL    HW1 2141   0.497   1.782   4.133
  485SOL    HW2 2142   0.540   1.736   3.982
  486SOL     OW 2143   1.400   0.107   4.150
  486SOL    HW1 2144   1.376   0.070   4.060
  486SOL    HW2 2145   1.499   0.123   4.154
  487SOL     OW 2146   0.249   1.785   4.965
  487SOL    HW1 2147   0.306   1.720   5.015
  487SOL    HW2 2148   0.233   1.752   4.872
  488SOL     OW 2149   0.940   1.698   4.628
  488SOL    HW1 2150   1.020   1.641   4.649
  488SOL    HW2 2151   0.891   1.658   4.551
  489SOL     OW 2152   0.382   0.700   4.204
  489SOL    HW1 2153   0.427   0.610   4.201
  489SOL    HW2 2154   0.288   0.689   4.237
  490SOL     OW 2155   1.547   0.222   5.453
  490SOL    HW1 2156   1.542   0.259   5.545
  490SOL    HW2 2157   1.475   0.153   5.441
  491SOL     OW 2158   0.614   0.122   3.841
  491SOL    HW1 2159   0.712   0.100   3.848
  491SOL    HW2 2160   0.583   0.105   3.748
  492SOL     OW 2161   0.781   0.264   5.473
  492SOL    HW1 2162   0.848   0.203   5.516
  492SOL    HW2 2163   0.708   0.283   5.538
  493SOL     OW 2164   0.888   1.514   4.919
  493SOL    HW1 2165   0.865   1.489   4.825
  493SOL    HW2 2166   0.949   1.445   4.958
  494SOL     OW 2167   1.351   0.590   5.157
  494SOL    HW1 2168   1.379   0.547   5.242
  494SOL    HW2 2169   1.376   0.686   5.158
  495SOL     OW 2170   0.803   1.402   4.648
  495SOL    HW1 2171   0.893   1.416   4.606
  495SOL    HW2 2172   0.732   1.404   4.577
  496SOL     OW 2173   0.922   0.503   4.623
  496SOL    HW1 2174   0.897   0.494   4.527
  496SOL    HW2 2175   0.970   0.421   4.654
  497SOL     OW 2176   0.539   0.064   4.236
  497SOL    HW1 2177   0.458   0.065   4.294
  497SOL    HW2 2178   0.542   0.147   4.181
  498SOL     OW 2179   1.434   1.188   3.765
  498SOL    HW1 2180   1.466   1.112   3.822
  498SOL    HW2 2181   1.342   1.215   3.795
  499SOL     OW 2182   0.297   0.035   3.895
  499SOL    HW1 2183   0.346   0.119   3.874
  499SOL    HW2 2184   0.359  -0.030   3.940
  500SOL     OW 2185   0.935   0.236   4.204
  500SOL    HW1 2186   0.887   0.277   4.126
  500SOL    HW2 2187   1.034   0.234   4.185
  501SOL     OW 2188   1.076   0.683   5.188
  501SOL    HW1 2189   0.996   0.622   5.191
  501SOL    HW2 2190   1.157   0.630   5.164
  502SOL     OW 2191   1.227   1.570   4.517
  502SOL    HW1 2192   1.248   1.644   4.452
  502SOL    HW2 2193   1.295   1.570   4.590
  503SOL     OW 2194   0.459   1.152   4.465
  503SOL    HW1 2195   0.388   1.125   4.530
  503SOL    HW2 2196   0.433   1.124   4.372
  504SOL     OW 2197   1.271   1.797   4.315
  504SOL    HW1 2198   1.315   1.861   4.251
  504SOL    HW2 2199   1.221   1.849   4.385
  505SOL     OW 2200   1.032   0.549   3.740
  505SOL    HW1 2201   0.991   0.631   3.701
  505SOL    HW2 2202   1.096   0.575   3.813
  506SOL     OW 2203   0.078   0.556   5.110
  506SOL    HW1 2204   0.170   0.555   5.069
  506SOL    HW2 2205   0.072   0.630   5.177
  507SOL     OW 2206   0.561   0.222   4.871
  507SOL    HW1 2207   0.599   0.138   4.908
  507SOL    HW2 2208   0.473   0.241   4.915
  508SOL     OW 2209   0.866   0.454   4.366
  508SOL    HW1 2210   0.834   0.526   4.304
  508SOL    HW2 2211   0.890   0.373   4.313
  509SOL     OW 2212   1.017   0.039   4.477
  509SOL    HW1 2213   0.945   0.044   4.408
  509SOL    HW2 2214   0.993  -0.030   4.546
  510SOL     OW 2215   1.429   1.173   4.591
  510SOL    HW1 2216   1.374   1.089   4.584
  510SOL    HW2 2217   1.455   1.202   4.499
  511SOL     OW 2218   1.466   0.590   4.716
  511SOL    HW1 2219   1.436   0.495   4.723
  511SOL    HW2 2220   1.539   0.606   4.782
  512SOL     OW 2221   1.857   0.833   4.101
  512SOL    HW1 2222   1.899   0.769   4.165
  512SOL    HW2 2223   1.819   0.782   4.023
  513SOL     OW 2224   0.488   1.385   3.898
  513SOL    HW1 2225   0.401   1.370   3.945
  513SOL    HW2 2226   0.471   1.411   3.803
  514SOL     OW 2227   1.664   1.280   4.381
  514SOL    HW1 2228   1.763   1.288   4.395
  514SOL    HW2 2229   1.619   1.364   4.412
  515SOL     OW 2230   1.390   0.575   3.802
  515SOL    HW1 2231   1.336   0.554   3.883
  515SOL    HW2 2232   1.481   0.534   3.811
  516SOL     OW 2233   0.527   0.256   4.052
  516SOL    HW1 2234   0.554   0.197   3.977
  516SOL    HW2 2235   0.527   0.351   4.021
  517SOL     OW 2236   1.754   1.223   5.312
  517SOL    HW1 2237   1.845   1.184   5.299
  517SOL    HW2 2238   1.762   1.319   5.336
  518SOL     OW 2239   1.064   1.347   5.064
  518SOL    HW1 2240   0.984   1.324   5.119
  518SOL    HW2 2241   1.147   1.321   5.113
  519SOL     OW 2242   1.592   1.629   5.349
  519SOL    HW1 2243   1.619   1.663   5.259
  519SOL    HW2 2244   1.671   1.591   5.395
  520SOL     OW 2245   1.111   1.195   4.824
  520SOL    HW1 2246   1.071   1.239   4.905
  520SOL    HW2 2247   1.070   1.232   4.741
  521SOL     OW 2248   1.638   1.099   4.803
  521SOL    HW1 2249   1.643   1.180   4.862
  521SOL    HW2 2250   1.552   1.101   4.752
  522SOL     OW 2251   0.915   0.089   5.126
  522SOL    HW1 2252   0.940   0.069   5.031
  522SOL    HW2 2253   0.987   0.145   5.168
  523SOL     OW 2254   0.980   1.116   5.443
  523SOL    HW1 2255   0.881   1.122   5.453
  523SOL    HW2 2256   1.003   1.036   5.387
  524SOL     OW 2257   0.705   1.050   4.092
  524SOL    HW1 2258   0.691   1.057   4.191
  524SOL    HW2 2259   0.789   0.999   4.074
  525SOL     OW 2260   0.410   0.813   4.975
  525SOL    HW1 2261   0.496   0.825   5.025
  525SOL    HW2 2262   0.368   0.726   5.002
  526SOL     OW 2263   1.274   0.386   4.986
  526SOL    HW1 2264   1.295   0.460   5.050
  526SOL    HW2 2265   1.185   0.403   4.943
  527SOL     OW 2266   0.064   1.564   5.055
  527SOL    HW1 2267   0.018   1.646   5.021
  527SOL    HW2 2268   0.162   1.583   5.064
  528SOL     OW 2269   0.367   1.100   4.225
  528SOL    HW1 2270   0.360   1.183   4.169
  528SOL    HW2 2271   0.371   1.020   4.165
  529SOL     OW 2272   0.566   0.537   4.589
  529SOL    HW1 2273   0.578   0.603   4.515
  529SOL    HW2 2274   0.612   0.571   4.672
  530SOL     OW 2275   1.252   1.348   4.112
  530SOL    HW1 2276   1.302   1.425   4.152
  530SOL    HW2 2277   1.157   1.350   4.144
  531SOL     OW 2278   1.272   1.445   4.866
  531SOL    HW1 2279   1.319   1.458   4.953
  531SOL    HW2 2280   1.206   1.371   4.875
  532SOL     OW 2281   1.582   0.639   4.196
  532SOL    HW1 2282   1.551   0.700   4.269
  532SOL    HW2 2283   1.632   0.691   4.127
  533SOL     OW 2284   0.354   1.510   5.053
  533SOL    HW1 2285   0.333   1.466   4.966
  533SOL    HW2 2286   0.451   1.536   5.056
  534SOL     OW 2287   0.402   0.751   5.322
  534SOL    HW1 2288   0.470   0.806   5.275
  534SOL    HW2 2289   0.442   0.663   5.349
  535SOL     OW 2290   1.587   0.779   5.394
  535SOL    HW1 2291   1.495   0.817   5.389
  535SOL    HW2 2292   1.647   0.826   5.329
  536SOL     OW 2293   1.013   0.105   5.494
  536SOL    HW1 2294   1.019   0.190   5.442
  536SOL    HW2 2295   1.045   0.029   5.437
  537SOL     OW 2296   0.504   0.050   5.464
  537SOL    HW1 2297   0.462  -0.007   5.394
  537SOL    HW2 2298   0.438   0.119   5.496
  538SOL     OW 2299   0.573   0.870   4.753
  538SOL    HW1 2300   0.617   0.959   4.744
  538SOL    HW2 2301   0.510   0.870   4.830
  539SOL     OW 2302   1.360   0.862   4.769
  539SOL    HW1 2303   1.285   0.862   4.703
  539SOL    HW2 2304   1.397   0.770   4.778
  540SOL     OW 2305   1.209   0.525   3.999
  540SOL    HW1 2306   1.222   0.441   4.053
  540SOL    HW2 2307   1.180   0.599   4.059
  541SOL     OW 2308   0.307   0.213   4.955
  541SOL    HW1 2309   0.284   0.250   5.045
  541SOL    HW2 2310   0.277   0.118   4.949
  542SOL     OW 2311   0.037   1.310   5.006
  542SOL    HW1 2312   0.090   1.261   5.074
  542SOL    HW2 2313   0.059   1.408   5.011
  543SOL     OW 2314   0.732   0.634   4.788
  543SOL    HW1 2315   0.791   0.608   4.712
  543SOL    HW2 2316   0.704   0.730   4.777
  544SOL     OW 2317   1.728   0.935   5.578
  544SOL    HW1 2318   1.682   0.928   5.489
  544SOL    HW2 2319   1.666   0.979   5.644
  545SOL     OW 2320   0.307   0.063   4.342
  545SOL    HW1 2321   0.296   0.157   4.375
  545SOL    HW2 2322   0.302   0.000   4.419
  546SOL     OW 2323   1.622   0.367   4.098
  546SOL    HW1 2324   1.624   0.291   4.162
  546SOL    HW2 2325   1.574   0.444   4.138
  547SOL     OW 2326   1.023   0.766   4.690
  547SOL    HW1 2327   1.038   0.787   4.786
  547SOL    HW2 2328   0.993   0.671   4.681
  548SOL     OW 2329   0.980   1.573   5.424
  548SOL    HW1 2330   0.960   1.617   5.336
  548SOL    HW2 2331   1.019   1.482   5.408
  549SOL     OW 2332   1.859   1.518   5.329
  549SOL    HW1 2333   1.873   1.545   5.234
  549SOL    HW2 2334   1.942   1.540   5.382
  550SOL     OW 2335   0.350   0.898   5.528
  550SOL    HW1 2336   0.426   0.942   5.576
  550SOL    HW2 2337   0.385   0.851   5.446
  551SOL     OW 2338   1.540   0.274   3.849
  551SOL    HW1 2339   1.479   0.199   3.872
  551SOL    HW2 2340   1.562   0.326   3.932
  552SOL     OW 2341   1.303   0.838   3.766
  552SOL    HW1 2342   1.337   0.745   3.781
  552SOL    HW2 2343   1.321   0.865   3.671
  553SOL     OW 2344   1.068   1.333   4.573
  553SOL    HW1 2345   1.075   1.249   4.518
  553SOL    HW2 2346   1.130   1.402   4.537
  554SOL     OW 2347   0.319   0.810   4.673
  554SOL    HW1 2348   0.412   0.846   4.678
  554SOL    HW2 2349   0.313   0.725   4.725
  555SOL     OW 2350   0.339   0.509   4.730
  555SOL    HW1 2351   0.287   0.426   4.713
  555SOL    HW2 2352   0.416   0.514   4.666
  556SOL     OW 2353   1.138   0.380   5.402
  556SOL    HW1 2354   1.093   0.443   5.466
  556SOL    HW2 2355   1.231   0.411   5.385
  557SOL     OW 2356   1.160   0.207   5.201
  557SOL    HW1 2357   1.160   0.271   5.278
  557SOL    HW2 2358   1.188   0.255   5.118
  558SOL     OW 2359   0.008   1.326   3.924
  558SOL    HW1 2360  -0.085   1.347   3.893
  558SOL    HW2 2361   0.018   1.227   3.937
  559SOL     OW 2362   0.088   1.801   4.651
  559SOL    HW1 2363   0.046   1.715   4.624
  559SOL    HW2 2364   0.182   1.804   4.617
  560SOL     OW 2365   0.504   1.568   4.634
  560SOL    HW1 2366   0.570   1.642   4.643
  560SOL    HW2 2367   0.548   1.489   4.592
  561SOL     OW 2368   1.002   0.796   4.962
  561SOL    HW1 2369   1.043   0.764   5.048
  561SOL    HW2 2370   0.906   0.769   4.959
  562SOL     OW 2371   0.040   0.544   4.838
  562SOL    HW1 2372   0.125   0.511   4.797
  562SOL    HW2 2373   0.053   0.559   4.936
  563SOL     OW 2374   0.189   0.520   5.446
  563SOL    HW1 2375   0.248   0.480   5.376
  563SOL    HW2 2376   0.131   0.591   5.405
  564SOL     OW 2377   1.369   0.950   5.384
  564SOL    HW1 2378   1.408   1.039   5.404
  564SOL    HW2 2379   1.379   0.930   5.287
  565SOL     OW 2380   0.815   0.572   4.049
  565SOL    HW1 2381   0.822   0.483   4.003
  565SOL    HW2 2382   0.721   0.606   4.041
  566SOL     OW 2383   1.657   0.604   4.930
  566SOL    HW1 2384   1.619   0.535   4.992
  566SOL    HW2 2385   1.739   0.568   4.886
  567SOL     OW 2386   0.252   1.564   5.468
  567SOL    HW1 2387   0.222   1.621   5.544
  567SOL    HW2 2388   0.245   1.467   5.494
  568SOL     OW 2389   0.671   0.464   4.993
  568SOL    HW1 2390   0.637   0.375   4.963
  568SOL    HW2 2391   0.697   0.518   4.913
  569SOL     OW 2392   0.930   1.678   5.189
  569SOL    HW1 2393   0.906   1.660   5.094
  569SOL    HW2 2394   0.960   1.772   5.199
  570SOL     OW 2395   0.473   0.500   3.915
  570SOL    HW1 2396   0.534   0.580   3.919
  570SOL    HW2 2397   0.378   0.531   3.922
  571SOL     OW 2398   0.159   1.137   5.190
  571SOL    HW1 2399   0.181   1.076   5.266
  571SOL    HW2 2400   0.169   1.088   5.104
  572SOL     OW 2401   1.347   1.059   4.958
  572SOL    HW1 2402   1.371   0.996   4.884
  572SOL    HW2 2403   1.257   1.099   4.940
  573SOL     OW 2404   1.302   0.855   4.033
  573SOL    HW1 2405   1.216   0.824   4.075
  573SOL    HW2 2406   1.298   0.841   3.934
  574SOL     OW 2407   1.759   1.747   4.878
  574SOL    HW1 2408   1.820   1.777   4.805
  574SOL    HW2 2409   1.721   1.658   4.856
  575SOL     OW 2410   1.252   1.731   4.852
  575SOL    HW1 2411   1.336   1.736   4.798
  575SOL    HW2 2412   1.229   1.635   4.870
  576SOL     OW 2413   0.083   1.258   4.746
  576SOL    HW1 2414   0.078   1.257   4.846
  576SOL    HW2 2415   0.000   1.217   4.708
  577SOL     OW 2416   0.688   1.662   5.440
  577SOL    HW1 2417   0.632   1.743   5.449
  577SOL    HW2 2418   0.740   1.666   5.354
  578SOL     OW 2419   1.726   0.135   4.247
  578SOL    HW1 2420   1.799   0.118   4.180
  578SOL    HW2 2421   1.695   0.048   4.285
  579SOL     OW 2422   1.388   1.573   4.201
  579SOL    HW1 2423   1.455   1.585   4.127
  579SOL    HW2 2424   1.348   1.662   4.224
  580SOL     OW 2425   0.130   1.794   5.575
  580SOL    HW1 2426   0.089   1.720   5.628
  580SOL    HW2 2427   0.194   1.845   5.633
  581SOL     OW 2428   1.280   0.927   4.396
  581SOL    HW1 2429   1.340   0.846   4.398
  581SOL    HW2 2430   1.320   0.996   4.336
  582SOL     OW 2431   0.830   1.273   5.146
  582SOL    HW1 2432   0.825   1.306   5.241
  582SOL    HW2 2433   0.744   1.292   5.100
  583SOL     OW 2434   0.672   1.616   3.878
  583SOL    HW1 2435   0.681   1.626   3.779
  583SOL    HW2 2436   0.632   1.527   3.899
  584SOL     OW 2437   1.650   1.720   5.118
  584SOL    HW1 2438   1.703   1.730   5.034
  584SOL    HW2 2439   1.623   1.810   5.152
  585SOL     OW 2440   1.841   0.175   4.687
  585SOL    HW1 2441   1.880   0.090   4.651
  585SOL    HW2 2442   1.743   0.177   4.668
  586SOL     OW 2443   0.263   0.326   4.444
  586SOL    HW1 2444   0.184   0.377   4.410
  586SOL    HW2 2445   0.254   0.311   4.542
  587SOL     OW 2446   1.194   1.612   3.755
  587SOL    HW1 2447   1.200   1.519   3.792
  587SOL    HW2 2448   1.135   1.612   3.675
  588SOL     OW 2449   0.822   1.002   5.096
  588SOL    HW1 2450   0.862   1.001   5.004
  588SOL    HW2 2451   0.832   1.094   5.136
  589SOL     OW 2452   0.916   0.910   4.015
  589SOL    HW1 2453   0.979   0.948   3.947
  589SOL    HW2 2454   0.956   0.827   4.054
  590SOL     OW 2455   1.504   1.607   3.768
  590SOL    HW1 2456   1.412   1.644   3.775
  590SOL    HW2 2457   1.542   1.627   3.678
  591SOL     OW 2458   0.372   1.288   5.214
  591SOL    HW1 2459   0.359   1.381   5.180
  591SOL    HW2 2460   0.288   1.236   5.201
  592SOL     OW 2461   1.614   1.292   5.013
  592SOL    HW1 2462   1.674   1.295   5.093
  592SOL    HW2 2463   1.539   1.356   5.026
  593SOL     OW 2464   1.039   1.098   4.420
  593SOL    HW1 2465   0.969   1.051   4.474
  593SOL    HW2 2466   1.098   1.030   4.377
  594SOL     OW 2467   1.014   0.236   4.695
  594SOL    HW1 2468   1.006   0.200   4.602
  594SOL    HW2 2469   1.012   0.160   4.760
  595SOL     OW 2470   0.590   1.487   4.215
  595SOL    HW1 2471   0.632   1.429   4.145
  595SOL    HW2 2472   0.546   1.566   4.171
  596SOL     OW 2473   1.709   0.385   5.105
  596SOL    HW1 2474   1.782   0.454   5.109
  596SOL    HW2 2475   1.737   0.310   5.046
  597SOL     OW 2476   0.255   1.348   4.014
  597SOL    HW1 2477   0.159   1.349   3.987
  597SOL    HW2 2478   0.267   1.401   4.098
  598SOL     OW 2479   0.105   1.013   5.450
  598SOL    HW1 2480   0.028   0.980   5.504
  598SOL    HW2 2481   0.190   0.983   5.492
  599SOL     OW 2482   0.672   0.203   5.213
  599SOL    HW1 2483   0.762   0.187   5.173
  599SOL    HW2 2484   0.680   0.208   5.312
  600SOL     OW 2485   0.075   0.345   3.757
  600SOL    HW1 2486  -0.017   0.317   3.728
  600SOL    HW2 2487   0.106   0.422   3.701
  601SOL     OW 2488   1.440   0.856   5.122
  601SOL    HW1 2489   1.383   0.908   5.059
  601SOL    HW2 2490   1.536   0.868   5.098
  602SOL     OW 2491   0.072   0.166   4.042
  602SOL    HW1 2492   0.055   0.249   3.988
  602SOL    HW2 2493   0.162   0.129   4.020
  603SOL     OW 2494   1.183   1.335   3.843
  603SOL    HW1 2495   1.084   1.324   3.845
  603SOL    HW2 2496   1.217   1.350   3.936
  604SOL     OW 2497   0.613   0.842   5.155
  604SOL    HW1 2498   0.669   0.923   5.138
  604SOL    HW2 2499   0.672   0.762   5.158
  605SOL     OW 2500   1.493   1.767   4.683
  605SOL    HW1 2501   1.526   1.831   4.614
  605SOL    HW2 2502   1.559   1.761   4.758
  606SOL     OW 2503   0.716   0.565   5.432
  606SOL    HW1 2504   0.735   0.630   5.506
  606SOL    HW2 2505   0.776   0.485   5.441
  607SOL     OW 2506   1.450   1.220   5.357
  607SOL    HW1 2507   1.441   1.210   5.456
  607SOL    HW2 2508   1.546   1.213   5.331
  608SOL     OW 2509   0.390   1.741   5.284
  608SOL    HW1 2510   0.299   1.782   5.282
  608SOL    HW2 2511   0.383   1.647   5.316
  609SOL     OW 2512   1.674   0.883   4.978
  609SOL    HW1 2513   1.647   0.794   4.941
  609SOL    HW2 2514   1.675   0.951   4.905
  610SOL     OW 2515   1.225   0.325   4.173
  610SOL    HW1 2516   1.290   0.251   4.162
  610SOL    HW2 2517   1.245   0.375   4.257
  611SOL     OW 2518   0.594   0.745   4.376
  611SOL    HW1 2519   0.644   0.830   4.357
  611SOL    HW2 2520   0.506   0.747   4.328
  612SOL     OW 2521   1.777   0.342   5.366
  612SOL    HW1 2522   1.760   0.373   5.272
  612SOL    HW2 2523   1.693   0.305   5.404
  613SOL     OW 2524   1.730   0.934   5.241
  613SOL    HW1 2525   1.768   1.025   5.256
  613SOL    HW2 2526   1.722   0.917   5.142
  614SOL     OW 2527   0.859   1.374   3.740
  614SOL    HW1 2528   0.813   1.389   3.828
  614SOL    HW2 2529   0.903   1.459   3.710
  615SOL     OW 2530   0.661   1.790   4.677
  615SOL    HW1 2531   0.615   1.878   4.664
  615SOL    HW2 2532   0.760   1.802   4.670
  616SOL     OW 2533   0.859   0.956   4.585
  616SOL    HW1 2534   0.913   0.887   4.633
  616SOL    HW2 2535   0.827   1.025   4.651
  617SOL     OW 2536   1.083   0.984   3.811
  617SOL    HW1 2537   1.060   1.037   3.729
  617SOL    HW2 2538   1.164   0.928   3.792
  618SOL     OW 2539   1.861   1.569   4.575
  618SOL    HW1 2540   1.790   1.557   4.505
  618SOL    HW2 2541   1.862   1.490   4.635
  619SOL     OW 2542   0.221   1.314   5.568
  619SOL    HW1 2543   0.156   1.241   5.547
  619SOL    HW2 2544   0.225   1.328   5.666
  620SOL     OW 2545   0.079   1.240   4.377
  620SOL    HW1 2546   0.078   1.193   4.465
  620SOL    HW2 2547   0.161   1.212   4.326
  621SOL     OW 2548   0.672   1.391   5.348
  621SOL    HW1 2549   0.594   1.341   5.386
  621SOL    HW2 2550   0.669   1.486   5.379
  622SOL     OW 2551   1.824   0.192   4.951
  622SOL    HW1 2552   1.820   0.102   4.995
  622SOL    HW2 2553   1.827   0.181   4.852
  623SOL     OW 2554   0.428   0.424   4.244
  623SOL    HW1 2555   0.458   0.352   4.182
  623SOL    HW2 2556   0.389   0.384   4.327
  624SOL     OW 2557   1.705   1.487   4.828
  624SOL    HW1 2558   1.612   1.462   4.801
  624SOL    HW2 2559   1.731   1.437   4.910
  625SOL     OW 2560   0.317   0.547   5.004
  625SOL    HW1 2561   0.355   0.488   5.076
  625SOL    HW2 2562   0.357   0.521   4.916
  626SOL     OW 2563   0.812   1.586   4.411
  626SOL    HW1 2564   0.844   1.596   4.317
  626SOL    HW2 2565   0.733   1.524   4.413
  627SOL     OW 2566   1.424   0.214   4.836
  627SOL    HW1 2567   1.476   0.149   4.891
  627SOL    HW2 2568   1.375   0.277   4.897
  628SOL     OW 2569   1.001   0.034   4.878
  628SOL    HW1 2570   0.938  -0.038   4.847
  628SOL    HW2 2571   1.094  -0.002   4.878
  629SOL     OW 2572   0.770   1.330   4.025
  629SOL    HW1 2573   0.724   1.243   4.042
  629SOL    HW2 2574   0.861   1.327   4.066
  630SOL     OW 2575   0.618   1.567   5.008
  630SOL    HW1 2576   0.613   1.649   5.065
  630SOL    HW2 2577   0.707   1.564   4.963
  631SOL     OW 2578   1.352   0.052   3.892
  631SOL    HW1 2579   1.387   0.011   3.808
  631SOL    HW2 2580   1.262   0.014   3.912
  632SOL     OW 2581   1.300   0.453   4.415
  632SOL    HW1 2582   1.241   0.533   4.419
  632SOL    HW2 2583   1.315   0.418   4.508
  633SOL     OW 2584   1.593   0.221   4.606
  633SOL    HW1 2585   1.509   0.220   4.660
  633SOL    HW2 2586   1.595   0.304   4.550
  634SOL     OW 2587   0.039   1.077   4.024
  634SOL    HW1 2588   0.138   1.066   4.015
  634SOL    HW2 2589  -0.001   0.991   4.056
  635SOL     OW 2590   0.875   1.646   4.061
  635SOL    HW1 2591   0.798   1.611   4.007
  635SOL    HW2 2592   0.843   1.717   4.123
  636SOL     OW 2593   0.230   0.628   5.699
  636SOL    HW1 2594   0.137   0.626   5.736
  636SOL    HW2 2595   0.231   0.589   5.607
  637SOL     OW 2596   0.225   0.275   6.582
  637SOL    HW1 2597   0.260   0.258   6.674
  637SOL    HW2 2598   0.137   0.230   6.570
  638SOL     OW 2599   0.019   0.368   6.233
  638SOL    HW1 2600  -0.063   0.411   6.272
  638SOL    HW2 2601  -0.009   0.295   6.170
  639SOL     OW 2602   0.569   1.275   6.751
  639SOL    HW1 2603   0.476   1.268   6.714
  639SOL    HW2 2604   0.580   1.364   6.795
  640SOL     OW 2605   1.135   0.703   6.303
  640SOL    HW1 2606   1.192   0.781   6.278
  640SOL    HW2 2607   1.075   0.729   6.379
  641SOL     OW 2608   1.755   0.607   5.817
  641SOL    HW1 2609   1.743   0.594   5.718
  641SOL    HW2 2610   1.725   0.526   5.866
  642SOL     OW 2611   0.768   1.144   6.609
  642SOL    HW1 2612   0.690   1.161   6.669
  642SOL    HW2 2613   0.802   1.231   6.573
  643SOL     OW 2614   0.850   0.798   7.409
  643SOL    HW1 2615   0.846   0.874   7.474
  643SOL    HW2 2616   0.872   0.834   7.318
  644SOL     OW 2617   0.685   1.012   6.251
  644SOL    HW1 2618   0.754   0.996   6.321
  644SOL    HW2 2619   0.612   1.069   6.289
  645SOL     OW 2620   0.686   1.161   7.389
  645SOL    HW1 2621   0.746   1.240   7.403
  645SOL    HW2 2622   0.600   1.192   7.348
  646SOL     OW 2623   0.335   1.435   6.647
  646SOL    HW1 2624   0.257   1.404   6.594
  646SOL    HW2 2625   0.393   1.493   6.590
  647SOL     OW 2626   0.438   0.392   7.085
  647SOL    HW1 2627   0.520   0.336   7.094
  647SOL    HW2 2628   0.357   0.334   7.089
  648SOL     OW 2629   1.603   0.447   6.323
  648SOL    HW1 2630   1.529   0.493   6.273
  648SOL    HW2 2631   1.654   0.515   6.376
  649SOL     OW 2632   0.231   1.713   6.069
  649SOL    HW1 2633   0.265   1.790   6.123
  649SOL    HW2 2634   0.275   1.713   5.979
  650SOL     OW 2635   1.127   1.341   7.276
  650SOL    HW1 2636   1.174   1.341   7.364
  650SOL    HW2 2637   1.079   1.254   7.265
  651SOL     OW 2638   0.230   1.434   6.124
  651SOL    HW1 2639   0.204   1.530   6.124
  651SOL    HW2 2640   0.159   1.380   6.169
  652SOL     OW 2641   0.240   1.091   6.472
  652SOL    HW1 2642   0.254   1.007   6.524
  652SOL    HW2 2643   0.185   1.155   6.527
  653SOL     OW 2644   0.620   1.786   7.025
  653SOL    HW1 2645   0.528   1.769   7.060
  653SOL    HW2 2646   0.648   1.878   7.051
  654SOL     OW 2647   0.606   0.964   5.709
  654SOL    HW1 2648   0.613   1.048   5.655
  654SOL    HW2 2649   0.652   0.977   5.797
  655SOL     OW 2650   1.594   0.114   7.066
  655SOL    HW1 2651   1.576   0.181   6.994
  655SOL    HW2 2652   1.591   0.160   7.155
  656SOL     OW 2653   0.122   0.643   6.149
  656SOL    HW1 2654   0.077   0.555   6.166
  656SOL    HW2 2655   0.121   0.697   6.233
  657SOL     OW 2656   0.027   1.596   5.703
  657SOL    HW1 2657   0.008   1.500   5.724
  657SOL    HW2 2658  -0.006   1.654   5.778
  658SOL     OW 2659   1.689   0.922   6.198
  658SOL    HW1 2660   1.784   0.893   6.206
  658SOL    HW2 2661   1.681   0.987   6.123
  659SOL     OW 2662   1.641   1.108   6.018
  659SOL    HW1 2663   1.727   1.110   5.966
  659SOL    HW2 2664   1.655   1.155   6.106
  660SOL     OW 2665   0.113   0.737   7.183
  660SOL    HW1 2666   0.201   0.724   7.228
  660SOL    HW2 2667   0.100   0.834   7.161
  661SOL     OW 2668   0.613   1.365   6.312
  661SOL    HW1 2669   0.564   1.278   6.321
  661SOL    HW2 2670   0.590   1.408   6.225
  662SOL     OW 2671   1.293   1.228   7.009
  662SOL    HW1 2672   1.330   1.155   6.951
  662SOL    HW2 2673   1.345   1.233   7.094
  663SOL     OW 2674   0.809   0.004   6.088
  663SOL    HW1 2675   0.849   0.095   6.079
  663SOL    HW2 2676   0.709   0.012   6.094
  664SOL     OW 2677   0.197   0.976   6.850
  664SOL    HW1 2678   0.286   0.931   6.836
  664SOL    HW2 2679   0.124   0.911   6.831
  665SOL     OW 2680   1.525   0.999   5.776
  665SOL    HW1 2681   1.462   0.923   5.789
  665SOL    HW2 2682   1.573   1.017   5.862
  666SOL     OW 2683   0.317   0.251   7.387
  666SOL    HW1 2684   0.388   0.322   7.393
  666SOL    HW2 2685   0.229   0.290   7.415
  667SOL     OW 2686   0.598   0.729   5.856
  667SOL    HW1 2687   0.622   0.798   5.788
  667SOL    HW2 2688   0.520   0.762   5.910
  668SOL     OW 2689   1.281   0.345   6.530
  668SOL    HW1 2690   1.195   0.295   6.517
  668SOL    HW2 2691   1.343   0.291   6.586
  669SOL     OW 2692   0.807   0.605   7.051
  669SOL    HW1 2693   0.760   0.602   7.140
  669SOL    HW2 2694   0.756   0.550   6.985
  670SOL     OW 2695   1.394   0.469   7.260
  670SOL    HW1 2696   1.374   0.512   7.348
  670SOL    HW2 2697   1.472   0.407   7.269
  671SOL     OW 2698   0.973   0.890   7.158
  671SOL    HW1 2699   1.019   0.806   7.129
  671SOL    HW2 2700   0.917   0.924   7.083
  672SOL     OW 2701   0.991   0.410   6.828
  672SOL    HW1 2702   0.914   0.444   6.882
  672SOL    HW2 2703   0.957   0.359   6.749
  673SOL     OW 2704   1.041   0.701   6.015
  673SOL    HW1 2705   1.067   0.697   6.111
  673SOL    HW2 2706   0.956   0.650   6.001
  674SOL     OW 2707   0.076   0.811   6.375
  674SOL    HW1 2708   0.175   0.799   6.384
  674SOL    HW2 2709   0.052   0.906   6.396
  675SOL     OW 2710   0.130   1.821   7.157
  675SOL    HW1 2711   0.120   1.806   7.256
  675SOL    HW2 2712   0.044   1.857   7.121
  676SOL     OW 2713   0.865   0.348   5.781
  676SOL    HW1 2714   0.924   0.411   5.732
  676SOL    HW2 2715   0.884   0.254   5.752
  677SOL     OW 2716   1.719   0.585   7.417
  677SOL    HW1 2717   1.693   0.674   7.381
  677SOL    HW2 2718   1.717   0.517   7.344
  678SOL     OW 2719   1.362   1.144   6.131
  678SOL    HW1 2720   1.445   1.115   6.083
  678SOL    HW2 2721   1.313   1.211   6.075
  679SOL     OW 2722   0.550   0.196   6.471
  679SOL    HW1 2723   0.545   0.191   6.571
  679SOL    HW2 2724   0.552   0.292   6.442
  680SOL     OW 2725   1.008   1.456   6.063
  680SOL    HW1 2726   0.962   1.528   6.011
  680SOL    HW2 2727   1.004   1.476   6.161
  681SOL     OW 2728   0.351   1.801   6.439
  681SOL    HW1 2729   0.401   1.715   6.445
  681SOL    HW2 2730   0.416   1.878   6.436
  682SOL     OW 2731   1.795   1.066   6.459
  682SOL    HW1 2732   1.733   1.051   6.383
  682SOL    HW2 2733   1.743   1.077   6.544
  683SOL     OW 2734   0.321   0.943   5.828
  683SOL    HW1 2735   0.403   0.982   5.786
  683SOL    HW2 2736   0.294   0.861   5.779
  684SOL     OW 2737   1.458   0.735   6.314
  684SOL    HW1 2738   1.453   0.670   6.389
  684SOL    HW2 2739   1.538   0.794   6.327
  685SOL     OW 2740   0.461   1.266   7.313
  685SOL    HW1 2741   0.411   1.267   7.227
  685SOL    HW2 2742   0.398   1.248   7.389
  686SOL     OW 2743   1.111   1.776   5.823
  686SOL    HW1 2744   1.051   1.714   5.873
  686SOL    HW2 2745   1.142   1.732   5.738
  687SOL     OW 2746   0.202   0.285   7.084
  687SOL    HW1 2747   0.122   0.345   7.071
  687SOL    HW2 2748   0.192   0.236   7.170
  688SOL     OW 2749   1.632   1.377   5.667
  688SOL    HW1 2750   1.600   1.471   5.657
  688SOL    HW2 2751   1.556   1.314   5.655
  689SOL     OW 2752   0.464   1.743   5.909
  689SOL    HW1 2753   0.497   1.782   5.995
  689SOL    HW2 2754   0.540   1.736   5.844
  690SOL     OW 2755   1.400   0.107   6.012
  690SOL    HW1 2756   1.376   0.070   5.922
  690SOL    HW2 2757   1.499   0.123   6.016
  691SOL     OW 2758   0.249   1.785   6.827
  691SOL    HW1 2759   0.306   1.720   6.877
  691SOL    HW2 2760   0.233   1.752   6.734
  692SOL     OW 2761   0.940   1.698   6.490
  692SOL    HW1 2762   1.020   1.641   6.511
  692SOL    HW2 2763   0.891   1.658   6.413
  693SOL     OW 2764   0.382   0.700   6.066
  693SOL    HW1 2765   0.427   0.610   6.063
  693SOL    HW2 2766   0.288   0.689   6.099
  694SOL     OW 2767   1.547   0.222   7.315
  694SOL    HW1 2768   1.542   0.259   7.407
  694SOL    HW2 2769   1.475   0.153   7.303
  695SOL     OW 2770   0.614   0.122   5.703
  695SOL    HW1 2771   0.712   0.100   5.710
  695SOL    HW2 2772   0.583   0.105   5.610
  696SOL     OW 2773   0.781   0.264   7.335
  696SOL    HW1 2774   0.848   0.203   7.378
  696SOL    HW2 2775   0.708   0.283   7.400
  697SOL     OW 2776   0.888   1.514   6.781
  697SOL    HW1 2777   0.865   1.489   6.687
  697SOL    HW2 2778   0.949   1.445   6.820
  698SOL     OW 2779   1.351   0.590   7.019
  698SOL    HW1 2780   1.379   0.547   7.104
  698SOL    HW2 2781   1.376   0.686   7.020
  699SOL     OW 2782   0.803   1.402   6.510
  699SOL    HW1 2783   0.893   1.416   6.468
  699SOL    HW2 2784   0.732   1.404   6.439
  700SOL     OW 2785   0.922   0.503   6.485
  700SOL    HW1 2786   0.897   0.494   6.389
  700SOL    HW2 2787   0.970   0.421   6.516
  701SOL     OW 2788   0.539   0.064   6.098
  701SOL    HW1 2789   0.458   0.065   6.156
  701SOL    HW2 2790   0.542   0.147   6.043
  702SOL     OW 2791   1.434   1.188   5.627
  702SOL    HW1 2792   1.466   1.112   5.684
  702SOL    HW2 2793   1.342   1.215   5.657
  703SOL     OW 2794   0.297   0.035   5.757
  703SOL    HW1 2795   0.346   0.119   5.736
  703SOL    HW2 2796   0.359  -0.030   5.802
  704SOL     OW 2797   0.935   0.236   6.066
  704SOL    HW1 2798   0.887   0.277   5.988
  704SOL    HW2 2799   1.034   0.234   6.047
  705SOL     OW 2800   1.076   0.683   7.050
  705SOL    HW1 2801   0.996   0.622   7.053
  705SOL    HW2 2802   1.157   0.630   7.026
  706SOL     OW 2803   0.459   1.152   6.327
  706SOL    HW1 2804   0.388   1.125   6.392
  706SOL    HW2 2805   0.433   1.124   6.234
  707SOL     OW 2806   1.032   0.549   5.602
  707SOL    HW1 2807   0.991   0.631   5.563
  707SOL    HW2 2808   1.096   0.575   5.675
  708SOL     OW 2809   0.078   0.556   6.972
  708SOL    HW1 2810   0.170   0.555   6.931
  708SOL    HW2 2811   0.072   0.630   7.039
  709SOL     OW 2812   0.561   0.222   6.733
  709SOL    HW1 2813   0.599   0.138   6.770
  709SOL    HW2 2814   0.473   0.241   6.777
  710SOL     OW 2815   0.866   0.454   6.228
  710SOL    HW1 2816   0.834   0.526   6.166
  710SOL    HW2 2817   0.890   0.373   6.175
  711SOL     OW 2818   1.017   0.039   6.339
  711SOL    HW1 2819   0.945   0.044   6.270
  711SOL    HW2 2820   0.993  -0.030   6.408
  712SOL     OW 2821   1.429   1.173   6.453
  712SOL    HW1 2822   1.374   1.089   6.446
  712SOL    HW2 2823   1.455   1.202   6.361
  713SOL     OW 2824   1.466   0.590   6.578
  713SOL    HW1 2825   1.436   0.495   6.585
  713SOL    HW2 2826   1.539   0.606   6.644
  714SOL     OW 2827   1.857   0.833   5.963
  714SOL    HW1 2828   1.899   0.769   6.027
  714SOL    HW2 2829   1.819   0.782   5.885
  715SOL     OW 2830   0.488   1.385   5.760
  715SOL    HW1 2831   0.401   1.370   5.807
  715SOL    HW2 2832   0.471   1.411   5.665
  716SOL     OW 2833   1.390   0.575   5.664
  716SOL    HW1 2834   1.336   0.554   5.745
  716SOL    HW2 2835   1.481   0.534   5.673
  717SOL     OW 2836   0.527   0.256   5.914
  717SOL    HW1 2837   0.554   0.197   5.839
  717SOL    HW2 2838   0.527   0.351   5.883
  718SOL     OW 2839   1.064   1.347   6.926
  718SOL    HW1 2840   0.984   1.324   6.981
  718SOL    HW2 2841   1.147   1.321   6.975
  719SOL     OW 2842   1.111   1.195   6.686
  719SOL    HW1 2843   1.071   1.239   6.767
  719SOL    HW2 2844   1.070   1.232   6.603
  720SOL     OW 2845   0.915   0.089   6.988
  720SOL    HW1 2846   0.940   0.069   6.893
  720SOL    HW2 2847   0.987   0.145   7.030
  721SOL     OW 2848   0.980   1.116   7.305
  721SOL    HW1 2849   0.881   1.122   7.315
  721SOL    HW2 2850   1.003   1.036   7.249
  722SOL     OW 2851   0.705   1.050   5.954
  722SOL    HW1 2852   0.691   1.057   6.053
  722SOL    HW2 2853   0.789   0.999   5.936
  723SOL     OW 2854   0.410   0.813   6.837
  723SOL    HW1 2855   0.496   0.825   6.887
  723SOL    HW2 2856   0.368   0.726   6.864
  724SOL     OW 2857   1.274   0.386   6.848
  724SOL    HW1 2858   1.295   0.460   6.912
  724SOL    HW2 2859   1.185   0.403   6.805
  725SOL     OW 2860   0.064   1.564   6.917
  725SOL    HW1 2861   0.018   1.646   6.883
  725SOL    HW2 2862   0.162   1.583   6.926
  726SOL     OW 2863   0.367   1.100   6.087
  726SOL    HW1 2864   0.360   1.183   6.031
  726SOL    HW2 2865   0.371   1.020   6.027
  727SOL     OW 2866   0.566   0.537   6.451
  727SOL    HW1 2867   0.578   0.603   6.377
  727SOL    HW2 2868   0.612   0.571   6.534
  728SOL     OW 2869   1.272   1.445   6.728
  728SOL    HW1 2870   1.319   1.458   6.815
  728SOL    HW2 2871   1.206   1.371   6.737
  729SOL     OW 2872   1.582   0.639   6.058
  729SOL    HW1 2873   1.551   0.700   6.131
  729SOL    HW2 2874   1.632   0.691   5.989
  730SOL     OW 2875   0.354   1.510   6.915
  730SOL    HW1 2876   0.333   1.466   6.828
  730SOL    HW2 2877   0.451   1.536   6.918
  731SOL     OW 2878   0.402   0.751   7.184
  731SOL    HW1 2879   0.470   0.806   7.137
  731SOL    HW2 2880   0.442   0.663   7.211
  732SOL     OW 2881   1.587   0.779   7.256
  732SOL    HW1 2882   1.495   0.817   7.251
  732SOL    HW2 2883   1.647   0.826   7.191
  733SOL     OW 2884   1.013   0.105   7.356
  733SOL    HW1 2885   1.019   0.190   7.304
  733SOL    HW2 2886   1.045   0.029   7.299
  734SOL     OW 2887   0.504   0.050   7.326
  734SOL    HW1 2888   0.462  -0.007   7.256
  734SOL    HW2 2889   0.438   0.119   7.358
  735SOL     OW 2890   0.573   0.870   6.615
  735SOL    HW1 2891   0.617   0.959   6.606
  735SOL    HW2 2892   0.510   0.870   6.692
  736SOL     OW 2893   1.360   0.862   6.631
  736SOL    HW1 2894   1.285   0.862   6.565
  736SOL    HW2 2895   1.397   0.770   6.640
  737SOL     OW 2896   1.209   0.525   5.861
  737SOL    HW1 2897   1.222   0.441   5.915
  737SOL    HW2 2898   1.180   0.599   5.921
  738SOL     OW 2899   0.307   0.213   6.817
  738SOL    HW1 2900   0.284   0.250   6.907
  738SOL    HW2 2901   0.277   0.118   6.811
  739SOL     OW 2902   0.037   1.310   6.868
  739SOL    HW1 2903   0.090   1.261   6.936
  739SOL    HW2 2904   0.059   1.408   6.873
  740SOL     OW 2905   0.732   0.634   6.650
  740SOL    HW1 2906   0.791   0.608   6.574
  740SOL    HW2 2907   0.704   0.730   6.639
  741SOL     OW 2908   1.728   0.935   7.440
  741SOL    HW1 2909   1.682   0.928   7.351
  741SOL    HW2 2910   1.666   0.979   7.506
  742SOL     OW 2911   0.307   0.063   6.204
  742SOL    HW1 2912   0.296   0.157   6.237
  742SOL    HW2 2913   0.302   0.000   6.281
  743SOL     OW 2914   1.622   0.367   5.960
  743SOL    HW1 2915   1.624   0.291   6.024
  743SOL    HW2 2916   1.574   0.444   6.000
  744SOL     OW 2917   1.023   0.766   6.552
  744SOL    HW1 2918   1.038   0.787   6.648
  744SOL    HW2 2919   0.993   0.671   6.543
  745SOL     OW 2920   0.980   1.573   7.286
  745SOL    HW1 2921   0.960   1.617   7.198
  745SOL    HW2 2922   1.019   1.482   7.270
  746SOL     OW 2923   0.350   0.898   7.390
  746SOL    HW1 2924   0.426   0.942   7.438
  746SOL    HW2 2925   0.385   0.851   7.308
  747SOL     OW 2926   1.540   0.274   5.711
  747SOL    HW1 2927   1.479   0.199   5.734
  747SOL    HW2 2928   1.562   0.326   5.794
  748SOL     OW 2929   1.303   0.838   5.628
  748SOL    HW1 2930   1.337   0.745   5.643
  748SOL    HW2 2931   1.321   0.865   5.533
  749SOL     OW 2932   1.068   1.333   6.435
  749SOL    HW1 2933   1.075   1.249   6.380
  749SOL    HW2 2934   1.130   1.402   6.399
  750SOL     OW 2935   0.319   0.810   6.535
  750SOL    HW1 2936   0.412   0.846   6.540
  750SOL    HW2 2937   0.313   0.725   6.587
  751SOL     OW 2938   0.339   0.509   6.592
  751SOL    HW1 2939   0.287   0.426   6.575
  751SOL    HW2 2940   0.416   0.514   6.528
  752SOL     OW 2941   1.138   0.380   7.264
  752SOL    HW1 2942   1.093   0.443   7.328
  752SOL    HW2 2943   1.231   0.411   7.247
  753SOL     OW 2944   1.160   0.207   7.063
  753SOL    HW1 2945   1.160   0.271   7.140
  753SOL    HW2 2946   1.188   0.255   6.980
  754SOL     OW 2947   0.008   1.326   5.786
  754SOL    HW1 2948  -0.085   1.347   5.755
  754SOL    HW2 2949   0.018   1.227   5.799
  755SOL     OW 2950   0.088   1.801   6.513
  755SOL    HW1 2951   0.046   1.715   6.486
  755SOL    HW2 2952   0.182   1.804   6.479
  756SOL     OW 2953   0.504   1.568   6.496
  756SOL    HW1 2954   0.570   1.642   6.505
  756SOL    HW2 2955   0.548   1.489   6.454
  757SOL     OW 2956   1.002   0.796   6.824
  757SOL    HW1 2957   1.043   0.764   6.910
  757SOL    HW2 2958   0.906   0.769   6.821
  758SOL     OW 2959   0.040   0.544   6.700
  758SOL    HW1 2960   0.125   0.511   6.659
  758SOL    HW2 2961   0.053   0.559   6.798
  759SOL     OW 2962   0.189   0.520   7.308
  759SOL    HW1 2963   0.248   0.480   7.238
  759SOL    HW2 2964   0.131   0.591   7.267
  760SOL     OW 2965   1.369   0.950   7.246
  760SOL    HW1 2966   1.408   1.039   7.266
  760SOL    HW2 2967   1.379   0.930   7.149
  761SOL     OW 2968   0.815   0.572   5.911
  761SOL    HW1 2969   0.822   0.483   5.865
  761SOL    HW2 2970   0.721   0.606   5.903
  762SOL     OW 2971   1.657   0.604   6.792
  762SOL    HW1 2972   1.619   0.535   6.854
  762SOL    HW2 2973   1.739   0.568   6.748
  763SOL     OW 2974   0.252   1.564   7.330
  763SOL    HW1 2975   0.222   1.621   7.406
  763SOL    HW2 2976   0.245   1.467   7.356
  764SOL     OW 2977   0.671   0.464   6.855
  764SOL    HW1 2978   0.637   0.375   6.825
  764SOL    HW2 2979   0.697   0.518   6.775
  765SOL     OW 2980   0.930   1.678   7.051
  765SOL    HW1 2981   0.906   1.660   6.956
  765SOL    HW2 2982   0.960   1.772   7.061
  766SOL     OW 2983   0.473   0.500   5.777
  766SOL    HW1 2984   0.534   0.580   5.781
  766SOL    HW2 2985   0.378   0.531   5.784
  767SOL     OW 2986   0.159   1.137   7.052
  767SOL    HW1 2987   0.181   1.076   7.128
  767SOL    HW2 2988   0.169   1.088   6.966
  768SOL     OW 2989   1.347   1.059   6.820
  768SOL    HW1 2990   1.371   0.996   6.746
  768SOL    HW2 2991   1.257   1.099   6.802
  769SOL     OW 2992   1.302   0.855   5.895
  769SOL    HW1 2993   1.216   0.824   5.937
  769SOL    HW2 2994   1.298   0.841   5.796
  770SOL     OW 2995   1.759   1.747   6.740
  770SOL    HW1 2996   1.820   1.777   6.667
  770SOL    HW2 2997   1.721   1.658   6.718
  771SOL     OW 2998   0.083   1.258   6.608
  771SOL    HW1 2999   0.078   1.257   6.708
  771SOL    HW2 3000   0.000   1.217   6.570
  772SOL     OW 3001   0.688   1.662   7.302
  772SOL    HW1 3002   0.632   1.743   7.311
  772SOL    HW2 3003   0.740   1.666   7.216
  773SOL     OW 3004   1.726   0.135   6.109
  773SOL    HW1 3005   1.799   0.118   6.042
  773SOL    HW2 3006   1.695   0.048   6.147
  774SOL     OW 3007   0.130   1.794   7.437
  774SOL    HW1 3008   0.089   1.720   7.490
  774SOL    HW2 3009   0.194   1.845   7.495
  775SOL     OW 3010   1.280   0.927   6.258
  775SOL    HW1 3011   1.340   0.846   6.260
  775SOL    HW2 3012   1.320   0.996   6.198
  776SOL     OW 3013   0.830   1.273   7.008
  776SOL    HW1 3014   0.825   1.306   7.103
  776SOL    HW2 3015   0.744   1.292   6.962
  777SOL     OW 3016   0.672   1.616   5.740
  777SOL    HW1 3017   0.681   1.626   5.641
  777SOL    HW2 3018   0.632   1.527   5.761
  778SOL     OW 3019   1.841   0.175   6.549
  778SOL    HW1 3020   1.880   0.090   6.513
  778SOL    HW2 3021   1.743   0.177   6.530
  779SOL     OW 3022   0.263   0.326   6.306
  779SOL    HW1 3023   0.184   0.377   6.272
  779SOL    HW2 3024   0.254   0.311   6.404
  780SOL     OW 3025   1.194   1.612   5.617
  780SOL    HW1 3026   1.200   1.519   5.654
  780SOL    HW2 3027   1.135   1.612   5.537
  781SOL     OW 3028   0.822   1.002   6.958
  781SOL    HW1 3029   0.862   1.001   6.866
  781SOL    HW2 3030   0.832   1.094   6.998
  782SOL     OW 3031   0.916   0.910   5.877
  782SOL    HW1 3032   0.979   0.948   5.809
  782SOL    HW2 3033   0.956   0.827   5.916
  783SOL     OW 3034   1.504   1.607   5.630
  783SOL    HW1 3035   1.412   1.644   5.637
  783SOL    HW2 3036   1.542   1.627   5.540
  784SOL     OW 3037   0.372   1.288   7.076
  784SOL    HW1 3038   0.359   1.381   7.042
  784SOL    HW2 3039   0.288   1.236   7.063
  785SOL     OW 3040   1.039   1.098   6.282
  785SOL    HW1 3041   0.969   1.051   6.336
  785SOL    HW2 3042   1.098   1.030   6.239
  786SOL     OW 3043   1.014   0.236   6.557
  786SOL    HW1 3044   1.006   0.200   6.464
  786SOL    HW2 3045   1.012   0.160   6.622
  787SOL     OW 3046   0.590   1.487   6.077
  787SOL    HW1 3047   0.632   1.429   6.007
  787SOL    HW2 3048   0.546   1.566   6.033
  788SOL     OW 3049   1.709   0.385   6.967
  788SOL    HW1 3050   1.782   0.454   6.971
  788SOL    HW2 3051   1.737   0.310   6.908
  789SOL     OW 3052   0.255   1.348   5.876
  789SOL    HW1 3053   0.159   1.349   5.849
  789SOL    HW2 3054   0.267   1.401   5.960
  790SOL     OW 3055   0.105   1.013   7.312
  790SOL    HW1 3056   0.028   0.980   7.366
  790SOL    HW2 3057   0.190   0.983   7.354
  791SOL     OW 3058   0.672   0.203   7.075
  791SOL    HW1 3059   0.762   0.187   7.035
  791SOL    HW2 3060   0.680   0.208   7.174
  792SOL     OW 3061   0.075   0.345   5.619
  792SOL    HW1 3062  -0.017   0.317   5.590
  792SOL    HW2 3063   0.106   0.422   5.563
  793SOL     OW 3064   1.440   0.856   6.984
  793SOL    HW1 3065   1.383   0.908   6.921
  793SOL    HW2 3066   1.536   0.868   6.960
  794SOL     OW 3067   0.072   0.166   5.904
  794SOL    HW1 3068   0.055   0.249   5.850
  794SOL    HW2 3069   0.162   0.129   5.882
  795SOL     OW 3070   1.183   1.335   5.705
  795SOL    HW1 3071   1.084   1.324   5.707
  795SOL    HW2 3072   1.217   1.350   5.798
  796SOL     OW 3073   0.613   0.842   7.017
  796SOL    HW1 3074   0.669   0.923   7.000
  796SOL    HW2 3075   0.672   0.762   7.020
  797SOL     OW 3076   0.716   0.565   7.294
  797SOL    HW1 3077   0.735   0.630   7.368
  797SOL    HW2 3078   0.776   0.485   7.303
  798SOL     OW 3079   1.450   1.220   7.219
  798SOL    HW1 3080   1.441   1.210   7.318
  798SOL    HW2 3081   1.546   1.213   7.193
  799SOL     OW 3082   0.390   1.741   7.146
  799SOL    HW1 3083   0.299   1.782   7.144
  799SOL    HW2 3084   0.383   1.647   7.178
  800SOL     OW 3085   1.674   0.883   6.840
  800SOL    HW1 3086   1.647   0.794   6.803
  800SOL    HW2 3087   1.675   0.951   6.767
  801SOL     OW 3088   1.225   0.325   6.035
  801SOL    HW1 3089   1.290   0.251   6.024
  801SOL    HW2 3090   1.245   0.375   6.119
  802SOL     OW 3091   0.594   0.745   6.238
  802SOL    HW1 3092   0.644   0.830   6.219
  802SOL    HW2 3093   0.506   0.747   6.190
  803SOL     OW 3094   1.777   0.342   7.228
  803SOL    HW1 3095   1.760   0.373   7.134
  803SOL    HW2 3096   1.693   0.305   7.266
  804SOL     OW 3097   1.730   0.934   7.103
  804SOL    HW1 3098   1.768   1.025   7.118
  804SOL    HW2 3099   1.722   0.917   7.004
  805SOL     OW 3100   0.859   1.374   5.602
  805SOL    HW1 3101   0.813   1.389   5.690
  805SOL    HW2 3102   0.903   1.459   5.572
  806SOL     OW 3103   0.661   1.790   6.539
  806SOL    HW1 3104   0.615   1.878   6.526
  806SOL    HW2 3105   0.760   1.802   6.532
  807SOL     OW 3106   0.859   0.956   6.447
  807SOL    HW1 3107   0.913   0.887   6.495
  807SOL    HW2 3108   0.827   1.025   6.513
  808SOL     OW 3109   1.083   0.984   5.673
  808SOL    HW1 3110   1.060   1.037   5.591
  808SOL    HW2 3111   1.164   0.928   5.654
  809SOL     OW 3112   0.221   1.314   7.430
  809SOL    HW1 3113   0.156   1.241   7.409
  809SOL    HW2 3114   0.225   1.328   7.528
  810SOL     OW 3115   0.079   1.240   6.239
  810SOL    HW1 3116   0.078   1.193   6.327
  810SOL    HW2 3117   0.161   1.212   6.188
  811SOL     OW 3118   0.672   1.391   7.210
  811SOL    HW1 3119   0.594   1.341   7.248
  811SOL    HW2 3120   0.669   1.486   7.241
  812SOL     OW 3121   1.824   0.192   6.813
  812SOL    HW1 3122   1.820   0.102   6.857
  812SOL    HW2 3123   1.827   0.181   6.714
  813SOL     OW 3124   0.428   0.424   6.106
  813SOL    HW1 3125   0.458   0.352   6.044
  813SOL    HW2 3126   0.389   0.384   6.189
  814SOL     OW 3127   0.317   0.547   6.866
  814SOL    HW1 3128   0.355   0.488   6.938
  814SOL    HW2 3129   0.357   0.521   6.778
  815SOL     OW 3130   0.812   1.586   6.273
  815SOL    HW1 3131   0.844   1.596   6.179
  815SOL    HW2 3132   0.733   1.524   6.275
  816SOL     OW 3133   1.424   0.214   6.698
  816SOL    HW1 3134   1.476   0.149   6.753
  816SOL    HW2 3135   1.375   0.277   6.759
  817SOL     OW 3136   1.001   0.034   6.740
  817SOL    HW1 3137   0.938  -0.038   6.709
  817SOL    HW2 3138   1.094  -0.002   6.740
  818SOL     OW 3139   0.770   1.330   5.887
  818SOL    HW1 3140   0.724   1.243   5.904
  818SOL    HW2 3141   0.861   1.327   5.928
  819SOL     OW 3142   0.618   1.567   6.870
  819SOL    HW1 3143   0.613   1.649   6.927
  819SOL    HW2 3144   0.707   1.564   6.825
  820SOL     OW 3145   1.352   0.052   5.754
  820SOL    HW1 3146   1.387   0.011   5.670
  820SOL    HW2 3147   1.262   0.014   5.774
  821SOL     OW 3148   1.300   0.453   6.277
  821SOL    HW1 3149   1.241   0.533   6.281
  821SOL    HW2 3150   1.315   0.418   6.370
  822SOL     OW 3151   1.593   0.221   6.468
  822SOL    HW1 3152   1.509   0.220   6.522
  822SOL    HW2 3153   1.595   0.304   6.412
  823SOL     OW 3154   0.039   1.077   5.886
  823SOL    HW1 3155   0.138   1.066   5.877
  823SOL    HW2 3156  -0.001   0.991   5.918
  824SOL     OW 3157   0.875   1.646   5.923
  824SOL    HW1 3158   0.798   1.611   5.869
  824SOL    HW2 3159   0.843   1.717   5.985
  825SOL     OW 3160   0.230   0.628   7.561
  825SOL    HW1 3161   0.137   0.626   7.598
  825SOL    HW2 3162   0.231   0.589   7.469
  826SOL     OW 3163   0.225   0.275   8.444
  826SOL    HW1 3164   0.260   0.258   8.536
  826SOL    HW2 3165   0.137   0.230   8.432
  827SOL     OW 3166   0.019   0.368   8.095
  827SOL    HW1 3167  -0.063   0.411   8.134
  827SOL    HW2 3168  -0.009   0.295   8.032
  828SOL     OW 3169   0.569   1.275   8.613
  828SOL    HW1 3170   0.476   1.268   8.576
  828SOL    HW2 3171   0.580   1.364   8.657
  829SOL     OW 3172   1.555   1.511   8.151
  829SOL    HW1 3173   1.498   1.495   8.232
  829SOL    HW2 3174   1.496   1.521   8.071
  830SOL     OW 3175   1.135   0.703   8.165
  830SOL    HW1 3176   1.192   0.781   8.140
  830SOL    HW2 3177   1.075   0.729   8.241
  831SOL     OW 3178   1.755   0.607   7.679
  831SOL    HW1 3179   1.743   0.594   7.580
  831SOL    HW2 3180   1.725   0.526   7.728
  832SOL     OW 3181   0.768   1.144   8.471
  832SOL    HW1 3182   0.690   1.161   8.531
  832SOL    HW2 3183   0.802   1.231   8.435
  833SOL     OW 3184   0.850   0.798   9.271
  833SOL    HW1 3185   0.846   0.874   9.336
  833SOL    HW2 3186   0.872   0.834   9.180
  834SOL     OW 3187   0.685   1.012   8.113
  834SOL    HW1 3188   0.754   0.996   8.183
  834SOL    HW2 3189   0.612   1.069   8.151
  835SOL     OW 3190   0.686   1.161   9.251
  835SOL    HW1 3191   0.746   1.240   9.265
  835SOL    HW2 3192   0.600   1.192   9.210
  836SOL     OW 3193   0.335   1.435   8.509
  836SOL    HW1 3194   0.257   1.404   8.456
  836SOL    HW2 3195   0.393   1.493   8.452
  837SOL     OW 3196   1.460   1.505   8.787
  837SOL    HW1 3197   1.484   1.599   8.813
  837SOL    HW2 3198   1.444   1.451   8.869
  838SOL     OW 3199   0.438   0.392   8.947
  838SOL    HW1 3200   0.520   0.336   8.956
  838SOL    HW2 3201   0.357   0.334   8.951
  839SOL     OW 3202   1.603   0.447   8.185
  839SOL    HW1 3203   1.529   0.493   8.135
  839SOL    HW2 3204   1.654   0.515   8.238
  840SOL     OW 3205   0.231   1.713   7.931
  840SOL    HW1 3206   0.265   1.790   7.985
  840SOL    HW2 3207   0.275   1.713   7.841
  841SOL     OW 3208   1.127   1.341   9.138
  841SOL    HW1 3209   1.174   1.341   9.226
  841SOL    HW2 3210   1.079   1.254   9.127
  842SOL     OW 3211   0.230   1.434   7.986
  842SOL    HW1 3212   0.204   1.530   7.986
  842SOL    HW2 3213   0.159   1.380   8.031
  843SOL     OW 3214   0.240   1.091   8.334
  843SOL    HW1 3215   0.254   1.007   8.386
  843SOL    HW2 3216   0.185   1.155   8.389
  844SOL     OW 3217   0.620   1.786   8.887
  844SOL    HW1 3218   0.528   1.769   8.922
  844SOL    HW2 3219   0.648   1.878   8.913
  845SOL     OW 3220   0.606   0.964   7.571
  845SOL    HW1 3221   0.613   1.048   7.517
  845SOL    HW2 3222   0.652   0.977   7.659
  846SOL     OW 3223   1.594   0.114   8.928
  846SOL    HW1 3224   1.576   0.181   8.856
  846SOL    HW2 3225   1.591   0.160   9.017
  847SOL     OW 3226   0.122   0.643   8.011
  847SOL    HW1 3227   0.077   0.555   8.028
  847SOL    HW2 3228   0.121   0.697   8.095
  848SOL     OW 3229   0.027   1.596   7.565
  848SOL    HW1 3230   0.008   1.500   7.586
  848SOL    HW2 3231  -0.006   1.654   7.640
  849SOL     OW 3232   1.689   0.922   8.060
  849SOL    HW1 3233   1.784   0.893   8.068
  849SOL    HW2 3234   1.681   0.987   7.985
  850SOL     OW 3235   1.641   1.108   7.880
  850SOL    HW1 3236   1.727   1.110   7.828
  850SOL    HW2 3237   1.655   1.155   7.968
  851SOL     OW 3238   0.113   0.737   9.045
  851SOL    HW1 3239   0.201   0.724   9.090
  851SOL    HW2 3240   0.100   0.834   9.023
  852SOL     OW 3241   0.613   1.365   8.174
  852SOL    HW1 3242   0.564   1.278   8.183
  852SOL    HW2 3243   0.590   1.408   8.087
  853SOL     OW 3244   1.293   1.228   8.871
  853SOL    HW1 3245   1.330   1.155   8.813
  853SOL    HW2 3246   1.345   1.233   8.956
  854SOL     OW 3247   0.809   0.004   7.950
  854SOL    HW1 3248   0.849   0.095   7.941
  854SOL    HW2 3249   0.709   0.012   7.956
  855SOL     OW 3250   0.197   0.976   8.712
  855SOL    HW1 3251   0.286   0.931   8.698
  855SOL    HW2 3252   0.124   0.911   8.693
  856SOL     OW 3253   1.525   0.999   7.638
  856SOL    HW1 3254   1.462   0.923   7.651
  856SOL    HW2 3255   1.573   1.017   7.724
  857SOL     OW 3256   1.187   1.792   9.064
  857SOL    HW1 3257   1.211   1.852   8.988
  857SOL    HW2 3258   1.194   1.697   9.034
  858SOL     OW 3259   0.317   0.251   9.249
  858SOL    HW1 3260   0.388   0.322   9.255
  858SOL    HW2 3261   0.229   0.290   9.277
  859SOL     OW 3262   1.466   1.417   8.401
  859SOL    HW1 3263   1.407   1.423   8.481
  859SOL    HW2 3264   1.451   1.329   8.355
  860SOL     OW 3265   1.667   1.714   8.020
  860SOL    HW1 3266   1.626   1.691   7.932
  860SOL    HW2 3267   1.649   1.640   8.085
  861SOL     OW 3268   0.598   0.729   7.718
  861SOL    HW1 3269   0.622   0.798   7.650
  861SOL    HW2 3270   0.520   0.762   7.772
  862SOL     OW 3271   1.281   0.345   8.392
  862SOL    HW1 3272   1.195   0.295   8.379
  862SOL    HW2 3273   1.343   0.291   8.448
  863SOL     OW 3274   0.807   0.605   8.913
  863SOL    HW1 3275   0.760   0.602   9.002
  863SOL    HW2 3276   0.756   0.550   8.847
  864SOL     OW 3277   1.394   0.469   9.122
  864SOL    HW1 3278   1.374   0.512   9.210
  864SOL    HW2 3279   1.472   0.407   9.131
  865SOL     OW 3280   0.973   0.890   9.020
  865SOL    HW1 3281   1.019   0.806   8.991
  865SOL    HW2 3282   0.917   0.924   8.945
  866SOL     OW 3283   0.991   0.410   8.690
  866SOL    HW1 3284   0.914   0.444   8.744
  866SOL    HW2 3285   0.957   0.359   8.611
  867SOL     OW 3286   1.041   0.701   7.877
  867SOL    HW1 3287   1.067   0.697   7.973
  867SOL    HW2 3288   0.956   0.650   7.863
  868SOL     OW 3289   0.076   0.811   8.237
  868SOL    HW1 3290   0.175   0.799   8.246
  868SOL    HW2 3291   0.052   0.906   8.258
  869SOL     OW 3292   0.130   1.821   9.019
  869SOL    HW1 3293   0.120   1.806   9.118
  869SOL    HW2 3294   0.044   1.857   8.983
  870SOL     OW 3295   0.865   0.348   7.643
  870SOL    HW1 3296   0.924   0.411   7.594
  870SOL    HW2 3297   0.884   0.254   7.614
  871SOL     OW 3298   1.719   0.585   9.279
  871SOL    HW1 3299   1.693   0.674   9.243
  871SOL    HW2 3300   1.717   0.517   9.206
  872SOL     OW 3301   1.362   1.144   7.993
  872SOL    HW1 3302   1.445   1.115   7.945
  872SOL    HW2 3303   1.313   1.211   7.937
  873SOL     OW 3304   0.550   0.196   8.333
  873SOL    HW1 3305   0.545   0.191   8.433
  873SOL    HW2 3306   0.552   0.292   8.304
  874SOL     OW 3307   1.008   1.456   7.925
  874SOL    HW1 3308   0.962   1.528   7.873
  874SOL    HW2 3309   1.004   1.476   8.023
  875SOL     OW 3310   0.351   1.801   8.301
  875SOL    HW1 3311   0.401   1.715   8.307
  875SOL    HW2 3312   0.416   1.878   8.298
  876SOL     OW 3313   1.795   1.066   8.321
  876SOL    HW1 3314   1.733   1.051   8.245
  876SOL    HW2 3315   1.743   1.077   8.406
  877SOL     OW 3316   1.227   1.550   8.954
  877SOL    HW1 3317   1.233   1.473   9.018
  877SOL    HW2 3318   1.175   1.524   8.874
  878SOL     OW 3319   0.321   0.943   7.690
  878SOL    HW1 3320   0.403   0.982   7.648
  878SOL    HW2 3321   0.294   0.861   7.641
  879SOL     OW 3322   1.458   0.735   8.176
  879SOL    HW1 3323   1.453   0.670   8.251
  879SOL    HW2 3324   1.538   0.794   8.189
  880SOL     OW 3325   0.461   1.266   9.175
  880SOL    HW1 3326   0.411   1.267   9.089
  880SOL    HW2 3327   0.398   1.248   9.251
  881SOL     OW 3328   0.202   0.285   8.946
  881SOL    HW1 3329   0.122   0.345   8.933
  881SOL    HW2 3330   0.192   0.236   9.032
  882SOL     OW 3331   0.464   1.743   7.771
  882SOL    HW1 3332   0.497   1.782   7.857
  882SOL    HW2 3333   0.540   1.736   7.706
  883SOL     OW 3334   1.400   0.107   7.874
  883SOL    HW1 3335   1.376   0.070   7.784
  883SOL    HW2 3336   1.499   0.123   7.878
  884SOL     OW 3337   0.249   1.785   8.689
  884SOL    HW1 3338   0.306   1.720   8.739
  884SOL    HW2 3339   0.233   1.752   8.596
  885SOL     OW 3340   0.940   1.698   8.352
  885SOL    HW1 3341   1.020   1.641   8.373
  885SOL    HW2 3342   0.891   1.658   8.275
  886SOL     OW 3343   0.382   0.700   7.928
  886SOL    HW1 3344   0.427   0.610   7.925
  886SOL    HW2 3345   0.288   0.689   7.961
  887SOL     OW 3346   1.547   0.222   9.177
  887SOL    HW1 3347   1.542   0.259   9.269
  887SOL    HW2 3348   1.475   0.153   9.165
  888SOL     OW 3349   0.614   0.122   7.565
  888SOL    HW1 3350   0.712   0.100   7.572
  888SOL    HW2 3351   0.583   0.105   7.472
  889SOL     OW 3352   0.781   0.264   9.197
  889SOL    HW1 3353   0.848   0.203   9.240
  889SOL    HW2 3354   0.708   0.283   9.262
  890SOL     OW 3355   0.888   1.514   8.643
  890SOL    HW1 3356   0.865   1.489   8.549
  890SOL    HW2 3357   0.949   1.445   8.682
  891SOL     OW 3358   1.351   0.590   8.881
  891SOL    HW1 3359   1.379   0.547   8.966
  891SOL    HW2 3360   1.376   0.686   8.882
  892SOL     OW 3361   0.803   1.402   8.372
  892SOL    HW1 3362   0.893   1.416   8.330
  892SOL    HW2 3363   0.732   1.404   8.301
  893SOL     OW 3364   0.922   0.503   8.347
  893SOL    HW1 3365   0.897   0.494   8.251
  893SOL    HW2 3366   0.970   0.421   8.378
  894SOL     OW 3367   0.539   0.064   7.960
  894SOL    HW1 3368   0.458   0.065   8.018
  894SOL    HW2 3369   0.542   0.147   7.905
  895SOL     OW 3370   1.434   1.188   7.489
  895SOL    HW1 3371   1.466   1.112   7.546
  895SOL    HW2 3372   1.342   1.215   7.519
  896SOL     OW 3373   0.297   0.035   7.619
  896SOL    HW1 3374   0.346   0.119   7.598
  896SOL    HW2 3375   0.359  -0.030   7.664
  897SOL     OW 3376   0.935   0.236   7.928
  897SOL    HW1 3377   0.887   0.277   7.850
  897SOL    HW2 3378   1.034   0.234   7.909
  898SOL     OW 3379   1.076   0.683   8.912
  898SOL    HW1 3380   0.996   0.622   8.915
  898SOL    HW2 3381   1.157   0.630   8.888
  899SOL     OW 3382   1.227   1.570   8.241
  899SOL    HW1 3383   1.248   1.644   8.176
  899SOL    HW2 3384   1.295   1.570   8.314
  900SOL     OW 3385   0.459   1.152   8.189
  900SOL    HW1 3386   0.388   1.125   8.254
  900SOL    HW2 3387   0.433   1.124   8.096
  901SOL     OW 3388   1.032   0.549   7.464
  901SOL    HW1 3389   0.991   0.631   7.425
  901SOL    HW2 3390   1.096   0.575   7.537
  902SOL     OW 3391   0.078   0.556   8.834
  902SOL    HW1 3392   0.170   0.555   8.793
  902SOL    HW2 3393   0.072   0.630   8.901
  903SOL     OW 3394   0.561   0.222   8.595
  903SOL    HW1 3395   0.599   0.138   8.632
  903SOL    HW2 3396   0.473   0.241   8.639
  904SOL     OW 3397   0.866   0.454   8.090
  904SOL    HW1 3398   0.834   0.526   8.028
  904SOL    HW2 3399   0.890   0.373   8.037
  905SOL     OW 3400   1.017   0.039   8.201
  905SOL    HW1 3401   0.945   0.044   8.132
  905SOL    HW2 3402   0.993  -0.030   8.270
  906SOL     OW 3403   1.429   1.173   8.315
  906SOL    HW1 3404   1.374   1.089   8.308
  906SOL    HW2 3405   1.455   1.202   8.223
  907SOL     OW 3406   1.466   0.590   8.440
  907SOL    HW1 3407   1.436   0.495   8.447
  907SOL    HW2 3408   1.539   0.606   8.506
  908SOL     OW 3409   1.857   0.833   7.825
  908SOL    HW1 3410   1.899   0.769   7.889
  908SOL    HW2 3411   1.819   0.782   7.747
  909SOL     OW 3412   0.488   1.385   7.622
  909SOL    HW1 3413   0.401   1.370   7.669
  909SOL    HW2 3414   0.471   1.411   7.527
  910SOL     OW 3415   1.664   1.280   8.105
  910SOL    HW1 3416   1.763   1.288   8.119
  910SOL    HW2 3417   1.619   1.364   8.136
  911SOL     OW 3418   1.390   0.575   7.526
  911SOL    HW1 3419   1.336   0.554   7.607
  911SOL    HW2 3420   1.481   0.534   7.535
  912SOL     OW 3421   0.527   0.256   7.776
  912SOL    HW1 3422   0.554   0.197   7.701
  912SOL    HW2 3423   0.527   0.351   7.745
  913SOL     OW 3424   1.754   1.223   9.036
  913SOL    HW1 3425   1.845   1.184   9.023
  913SOL    HW2 3426   1.762   1.319   9.060
  914SOL     OW 3427   1.064   1.347   8.788
  914SOL    HW1 3428   0.984   1.324   8.843
  914SOL    HW2 3429   1.147   1.321   8.837
  915SOL     OW 3430   1.592   1.629   9.073
  915SOL    HW1 3431   1.619   1.663   8.983
  915SOL    HW2 3432   1.671   1.591   9.119
  916SOL     OW 3433   1.111   1.195   8.548
  916SOL    HW1 3434   1.071   1.239   8.629
  916SOL    HW2 3435   1.070   1.232   8.465
  917SOL     OW 3436   1.638   1.099   8.527
  917SOL    HW1 3437   1.643   1.180   8.586
  917SOL    HW2 3438   1.552   1.101   8.476
  918SOL     OW 3439   0.915   0.089   8.850
  918SOL    HW1 3440   0.940   0.069   8.755
  918SOL    HW2 3441   0.987   0.145   8.892
  919SOL     OW 3442   0.980   1.116   9.167
  919SOL    HW1 3443   0.881   1.122   9.177
  919SOL    HW2 3444   1.003   1.036   9.111
  920SOL     OW 3445   0.705   1.050   7.816
  920SOL    HW1 3446   0.691   1.057   7.915
  920SOL    HW2 3447   0.789   0.999   7.798
  921SOL     OW 3448   0.410   0.813   8.699
  921SOL    HW1 3449   0.496   0.825   8.749
  921SOL    HW2 3450   0.368   0.726   8.726
  922SOL     OW 3451   1.274   0.386   8.710
  922SOL    HW1 3452   1.295   0.460   8.774
  922SOL    HW2 3453   1.185   0.403   8.667
  923SOL     OW 3454   0.064   1.564   8.779
  923SOL    HW1 3455   0.018   1.646   8.745
  923SOL    HW2 3456   0.162   1.583   8.788
  924SOL     OW 3457   0.367   1.100   7.949
  924SOL    HW1 3458   0.360   1.183   7.893
  924SOL    HW2 3459   0.371   1.020   7.889
  925SOL     OW 3460   0.566   0.537   8.313
  925SOL    HW1 3461   0.578   0.603   8.239
  925SOL    HW2 3462   0.612   0.571   8.396
  926SOL     OW 3463   1.252   1.348   7.836
  926SOL    HW1 3464   1.302   1.425   7.876
  926SOL    HW2 3465   1.157   1.350   7.868
  927SOL     OW 3466   1.272   1.445   8.590
  927SOL    HW1 3467   1.319   1.458   8.677
  927SOL    HW2 3468   1.206   1.371   8.599
  928SOL     OW 3469   1.582   0.639   7.920
  928SOL    HW1 3470   1.551   0.700   7.993
  928SOL    HW2 3471   1.632   0.691   7.851
  929SOL     OW 3472   0.354   1.510   8.777
  929SOL    HW1 3473   0.333   1.466   8.690
  929SOL    HW2 3474   0.451   1.536   8.780
  930SOL     OW 3475   0.402   0.751   9.046
  930SOL    HW1 3476   0.470   0.806   8.999
  930SOL    HW2 3477   0.442   0.663   9.073
  931SOL     OW 3478   1.587   0.779   9.118
  931SOL    HW1 3479   1.495   0.817   9.113
  931SOL    HW2 3480   1.647   0.826   9.053
  932SOL     OW 3481   1.013   0.105   9.218
  932SOL    HW1 3482   1.019   0.190   9.166
  932SOL    HW2 3483   1.045   0.029   9.161
  933SOL     OW 3484   0.504   0.050   9.188
  933SOL    HW1 3485   0.462  -0.007   9.118
  933SOL    HW2 3486   0.438   0.119   9.220
  934SOL     OW 3487   0.573   0.870   8.477
  934SOL    HW1 3488   0.617   0.959   8.468
  934SOL    HW2 3489   0.510   0.870   8.554
  935SOL     OW 3490   1.360   0.862   8.493
  935SOL    HW1 3491   1.285   0.862   8.427
  935SOL    HW2 3492   1.397   0.770   8.502
  936SOL     OW 3493   1.209   0.525   7.723
  936SOL    HW1 3494   1.222   0.441   7.777
  936SOL    HW2 3495   1.180   0.599   7.783
  937SOL     OW 3496   0.307   0.213   8.679
  937SOL    HW1 3497   0.284   0.250   8.769
  937SOL    HW2 3498   0.277   0.118   8.673
  938SOL     OW 3499   0.037   1.310   8.730
  938SOL    HW1 3500   0.090   1.261   8.798
  938SOL    HW2 3501   0.059   1.408   8.735
  939SOL     OW 3502   0.732   0.634   8.512
  939SOL    HW1 3503   0.791   0.608   8.436
  939SOL    HW2 3504   0.704   0.730   8.501
  940SOL     OW 3505   1.728   0.935   9.302
  940SOL    HW1 3506   1.682   0.928   9.213
  940SOL    HW2 3507   1.666   0.979   9.368
  941SOL     OW 3508   0.307   0.063   8.066
  941SOL    HW1 3509   0.296   0.157   8.099
  941SOL    HW2 3510   0.302   0.000   8.143
  942SOL     OW 3511   1.622   0.367   7.822
  942SOL    HW1 3512   1.624   0.291   7.886
  942SOL    HW2 3513   1.574   0.444   7.862
  943SOL     OW 3514   1.023   0.766   8.414
  943SOL    HW1 3515   1.038   0.787   8.510
  943SOL    HW2 3516   0.993   0.671   8.405
  944SOL     OW 3517   0.980   1.573   9.148
  944SOL    HW1 3518   0.960   1.617   9.060
  944SOL    HW2 3519   1.019   1.482   9.132
  945SOL     OW 3520   1.859   1.518   9.053
  945SOL    HW1 3521   1.873   1.545   8.958
  945SOL    HW2 3522   1.942   1.540   9.106
  946SOL     OW 3523   0.350   0.898   9.252
  946SOL    HW1 3524   0.426   0.942   9.300
  946SOL    HW2 3525   0.385   0.851   9.170
  947SOL     OW 3526   1.540   0.274   7.573
  947SOL    HW1 3527   1.479   0.199   7.596
  947SOL    HW2 3528   1.562   0.326   7.656
  948SOL     OW 3529   1.303   0.838   7.490
  948SOL    HW1 3530   1.337   0.745   7.505
  948SOL    HW2 3531   1.321   0.865   7.395
  949SOL     OW 3532   1.068   1.333   8.297
  949SOL    HW1 3533   1.075   1.249   8.242
  949SOL    HW2 3534   1.130   1.402   8.261
  950SOL     OW 3535   0.319   0.810   8.397
  950SOL    HW1 3536   0.412   0.846   8.402
  950SOL    HW2 3537   0.313   0.725   8.449
  951SOL     OW 3538   0.339   0.509   8.454
  951SOL    HW1 3539   0.287   0.426   8.437
  951SOL    HW2 3540   0.416   0.514   8.390
  952SOL     OW 3541   1.138   0.380   9.126
  952SOL    HW1 3542   1.093   0.443   9.190
  952SOL    HW2 3543   1.231   0.411   9.109
  953SOL     OW 3544   1.160   0.207   8.925
  953SOL    HW1 3545   1.160   0.271   9.002
  953SOL    HW2 3546   1.188   0.255   8.842
  954SOL     OW 3547   0.008   1.326   7.648
  954SOL    HW1 3548  -0.085   1.347   7.617
  954SOL    HW2 3549   0.018   1.227   7.661
  955SOL     OW 3550   0.088   1.801   8.375
  955SOL    HW1 3551   0.046   1.715   8.348
  955SOL    HW2 3552   0.182   1.804   8.341
  956SOL     OW 3553   0.504   1.568   8.358
  956SOL    HW1 3554   0.570   1.642   8.367
  956SOL    HW2 3555   0.548   1.489   8.316
  957SOL     OW 3556   1.002   0.796   8.686
  957SOL    HW1 3557   1.043   0.764   8.772
  957SOL    HW2 3558   0.906   0.769   8.683
  958SOL     OW 3559   0.040   0.544   8.562
  958SOL    HW1 3560   0.125   0.511   8.521
  958SOL    HW2 3561   0.053   0.559   8.660
  959SOL     OW 3562   0.189   0.520   9.170
  959SOL    HW1 3563   0.248   0.480   9.100
  959SOL    HW2 3564   0.131   0.591   9.129
  960SOL     OW 3565   1.369   0.950   9.108
  960SOL    HW1 3566   1.408   1.039   9.128
  960SOL    HW2 3567   1.379   0.930   9.011
  961SOL     OW 3568   0.815   0.572   7.773
  961SOL    HW1 3569   0.822   0.483   7.727
  961SOL    HW2 3570   0.721   0.606   7.765
  962SOL     OW 3571   1.657   0.604   8.654
  962SOL    HW1 3572   1.619   0.535   8.716
  962SOL    HW2 3573   1.739   0.568   8.610
  963SOL     OW 3574   0.252   1.564   9.192
  963SOL    HW1 3575   0.222   1.621   9.268
  963SOL    HW2 3576   0.245   1.467   9.218
  964SOL     OW 3577   0.671   0.464   8.717
  964SOL    HW1 3578   0.637   0.375   8.687
  964SOL    HW2 3579   0.697   0.518   8.637
  965SOL     OW 3580   0.930   1.678   8.913
  965SOL    HW1 3581   0.906   1.660   8.818
  965SOL    HW2 3582   0.960   1.772   8.923
  966SOL     OW 3583   0.473   0.500   7.639
  966SOL    HW1 3584   0.534   0.580   7.643
  966SOL    HW2 3585   0.378   0.531   7.646
  967SOL     OW 3586   0.159   1.137   8.914
  967SOL    HW1 3587   0.181   1.076   8.990
  967SOL    HW2 3588   0.169   1.088   8.828
  968SOL     OW 3589   1.347   1.059   8.682
  968SOL    HW1 3590   1.371   0.996   8.608
  968SOL    HW2 3591   1.257   1.099   8.664
  969SOL     OW 3592   1.302   0.855   7.757
  969SOL    HW1 3593   1.216   0.824   7.799
  969SOL    HW2 3594   1.298   0.841   7.658
  970SOL     OW 3595   1.759   1.747   8.602
  970SOL    HW1 3596   1.820   1.777   8.529
  970SOL    HW2 3597   1.721   1.658   8.580
  971SOL     OW 3598   1.252   1.731   8.576
  971SOL    HW1 3599   1.336   1.736   8.522
  971SOL    HW2 3600   1.229   1.635   8.594
  972SOL     OW 3601   0.083   1.258   8.470
  972SOL    HW1 3602   0.078   1.257   8.570
  972SOL    HW2 3603   0.000   1.217   8.432
  973SOL     OW 3604   0.688   1.662   9.164
  973SOL    HW1 3605   0.632   1.743   9.173
  973SOL    HW2 3606   0.740   1.666   9.078
  974SOL     OW 3607   1.726   0.135   7.971
  974SOL    HW1 3608   1.799   0.118   7.904
  974SOL    HW2 3609   1.695   0.048   8.009
  975SOL     OW 3610   0.130   1.794   9.299
  975SOL    HW1 3611   0.089   1.720   9.352
  975SOL    HW2 3612   0.194   1.845   9.357
  976SOL     OW 3613   1.280   0.927   8.120
  976SOL    HW1 3614   1.340   0.846   8.122
  976SOL    HW2 3615   1.320   0.996   8.060
  977SOL     OW 3616   0.830   1.273   8.870
  977SOL    HW1 3617   0.825   1.306   8.965
  977SOL    HW2 3618   0.744   1.292   8.824
  978SOL     OW 3619   0.672   1.616   7.602
  978SOL    HW1 3620   0.681   1.626   7.503
  978SOL    HW2 3621   0.632   1.527   7.623
  979SOL     OW 3622   1.650   1.720   8.842
  979SOL    HW1 3623   1.703   1.730   8.758
  979SOL    HW2 3624   1.623   1.810   8.876
  980SOL     OW 3625   1.841   0.175   8.411
  980SOL    HW1 3626   1.880   0.090   8.375
  980SOL    HW2 3627   1.743   0.177   8.392
  981SOL     OW 3628   0.263   0.326   8.168
  981SOL    HW1 3629   0.184   0.377   8.134
  981SOL    HW2 3630   0.254   0.311   8.266
  982SOL     OW 3631   1.194   1.612   7.479
  982SOL    HW1 3632   1.200   1.519   7.516
  982SOL    HW2 3633   1.135   1.612   7.399
  983SOL     OW 3634   0.822   1.002   8.820
  983SOL    HW1 3635   0.862   1.001   8.728
  983SOL    HW2 3636   0.832   1.094   8.860
  984SOL     OW 3637   0.916   0.910   7.739
  984SOL    HW1 3638   0.979   0.948   7.671
  984SOL    HW2 3639   0.956   0.827   7.778
  985SOL     OW 3640   0.372   1.288   8.938
  985SOL    HW1 3641   0.359   1.381   8.904
  985SOL    HW2 3642   0.288   1.236   8.925
  986SOL     OW 3643   1.614   1.292   8.737
  986SOL    HW1 3644   1.674   1.295   8.817
  986SOL    HW2 3645   1.539   1.356   8.750
  987SOL     OW 3646   1.039   1.098   8.144
  987SOL    HW1 3647   0.969   1.051   8.198
  987SOL    HW2 3648   1.098   1.030   8.101
  988SOL     OW 3649   1.014   0.236   8.419
  988SOL    HW1 3650   1.006   0.200   8.326
  988SOL    HW2 3651   1.012   0.160   8.484
  989SOL     OW 3652   0.590   1.487   7.939
  989SOL    HW1 3653   0.632   1.429   7.869
  989SOL    HW2 3654   0.546   1.566   7.895
  990SOL     OW 3655   1.709   0.385   8.829
  990SOL    HW1 3656   1.782   0.454   8.833
  990SOL    HW2 3657   1.737   0.310   8.770
  991SOL     OW 3658   0.255   1.348   7.738
  991SOL    HW1 3659   0.159   1.349   7.711
  991SOL    HW2 3660   0.267   1.401   7.822
  992SOL     OW 3661   0.105   1.013   9.174
  992SOL    HW1 3662   0.028   0.980   9.228
  992SOL    HW2 3663   0.190   0.983   9.216
  993SOL     OW 3664   0.672   0.203   8.937
  993SOL    HW1 3665   0.762   0.187   8.897
  993SOL    HW2 3666   0.680   0.208   9.036
  994SOL     OW 3667   0.075   0.345   7.481
  994SOL    HW1 3668  -0.017   0.317   7.452
  994SOL    HW2 3669   0.106   0.422   7.425
  995SOL     OW 3670   1.440   0.856   8.846
  995SOL    HW1 3671   1.383   0.908   8.783
  995SOL    HW2 3672   1.536   0.868   8.822
  996SOL     OW 3673   0.072   0.166   7.766
  996SOL    HW1 3674   0.055   0.249   7.712
  996SOL    HW2 3675   0.162   0.129   7.744
  997SOL     OW 3676   1.183   1.335   7.567
  997SOL    HW1 3677   1.084   1.324   7.569
  997SOL    HW2 3678   1.217   1.350   7.660
  998SOL     OW 3679   0.613   0.842   8.879
  998SOL    HW1 3680   0.669   0.923   8.862
  998SOL    HW2 3681   0.672   0.762   8.882
  999SOL     OW 3682   1.493   1.767   8.407
  999SOL    HW1 3683   1.526   1.831   8.338
  999SOL    HW2 3684   1.559   1.761   8.482
 1000SOL     OW 3685   0.716   0.565   9.156
 1000SOL    HW1 3686   0.735   0.630   9.230
 1000SOL    HW2 3687   0.776   0.485   9.165
 1001SOL     OW 3688   1.450   1.220   9.081
 1001SOL    HW1 3689   1.441   1.210   9.180
 1001SOL    HW2 3690   1.546   1.213   9.055
 1002SOL     OW 3691   0.390   1.741   9.008
 1002SOL    HW1 3692   0.299   1.782   9.006
 1002SOL    HW2 3693   0.383   1.647   9.040
 1003SOL     OW 3694   1.674   0.883   8.702
 1003SOL    HW1 3695   1.647   0.794   8.665
 1003SOL    HW2 3696   1.675   0.951   8.629
 1004SOL     OW 3697   1.225   0.325   7.897
 1004SOL    HW1 3698   1.290   0.251   7.886
 1004SOL    HW2 3699   1.245   0.375   7.981
 1005SOL     OW 3700   0.594   0.745   8.100
 1005SOL    HW1 3701   0.644   0.830   8.081
 1005SOL    HW2 3702   0.506   0.747   8.052
 1006SOL     OW 3703   1.777   0.342   9.090
 1006SOL    HW1 3704   1.760   0.373   8.996
 1006SOL    HW2 3705   1.693   0.305   9.128
 1007SOL     OW 3706   1.730   0.934   8.965
 1007SOL    HW1 3707   1.768   1.025   8.980
 1007SOL    HW2 3708   1.722   0.917   8.866
 1008SOL     OW 3709   0.859   1.374   7.464
 1008SOL    HW1 3710   0.813   1.389   7.552
 1008SOL    HW2 3711   0.903   1.459   7.434
 1009SOL     OW 3712   0.661   1.790   8.401
 1009SOL    HW1 3713   0.615   1.878   8.388
 1009SOL    HW2 3714   0.760   1.802   8.394
 1010SOL     OW 3715   0.859   0.956   8.309
 1010SOL    HW1 3716   0.913   0.887   8.357
 1010SOL    HW2 3717   0.827   1.025   8.375
 1011SOL     OW 3718   1.083   0.984   7.535
 1011SOL    HW1 3719   1.060   1.037   7.453
 1011SOL    HW2 3720   1.164   0.928   7.516
 1012SOL     OW 3721   1.861   1.569   8.299
 1012SOL    HW1 3722   1.790   1.557   8.229
 1012SOL    HW2 3723   1.862   1.490   8.359
 1013SOL     OW 3724   0.221   1.314   9.292
 1013SOL    HW1 3725   0.156   1.241   9.271
 1013SOL    HW2 3726   0.225   1.328   9.390
 1014SOL     OW 3727   0.079   1.240   8.101
 1014SOL    HW1 3728   0.078   1.193   8.189
 1014SOL    HW2 3729   0.161   1.212   8.050
 1015SOL     OW 3730   0.672   1.391   9.072
 1015SOL    HW1 3731   0.594   1.341   9.110
 1015SOL    HW2 3732   0.669   1.486   9.103
 1016SOL     OW 3733   1.824   0.192   8.675
 1016SOL    HW1 3734   1.820   0.102   8.719
 1016SOL    HW2 3735   1.827   0.181   8.576
 1017SOL     OW 3736   0.428   0.424   7.968
 1017SOL    HW1 3737   0.458   0.352   7.906
 1017SOL    HW2 3738   0.389   0.384   8.051
 1018SOL     OW 3739   1.705   1.487   8.552
 1018SOL    HW1 3740   1.612   1.462   8.525
 1018SOL    HW2 3741   1.731   1.437   8.634
 1019SOL     OW 3742   0.317   0.547   8.728
 1019SOL    HW1 3743   0.355   0.488   8.800
 1019SOL    HW2 3744   0.357   0.521   8.640
 1020SOL     OW 3745   0.812   1.586   8.135
 1020SOL    HW1 3746   0.844   1.596   8.041
 1020SOL    HW2 3747   0.733   1.524   8.137
 1021SOL     OW 3748   1.424   0.214   8.560
 1021SOL    HW1 3749   1.476   0.149   8.615
 1021SOL    HW2 3750   1.375   0.277   8.621
 1022SOL     OW 3751   1.001   0.034   8.602
 1022SOL    HW1 3752   0.938  -0.038   8.571
 1022SOL    HW2 3753   1.094  -0.002   8.602
 1023SOL     OW 3754   0.770   1.330   7.749
 1023SOL    HW1 3755   0.724   1.243   7.766
 1023SOL    HW2 3756   0.861   1.327   7.790
 1024SOL     OW 3757   0.618   1.567   8.732
 1024SOL    HW1 3758   0.613   1.649   8.789
 1024SOL    HW2 3759   0.707   1.564   8.687
 1025SOL     OW 3760   1.352   0.052   7.616
 1025SOL    HW1 3761   1.387   0.011   7.532
 1025SOL    HW2 3762   1.262   0.014   7.636
 1026SOL     OW 3763   1.300   0.453   8.139
 1026SOL    HW1 3764   1.241   0.533   8.143
 1026SOL    HW2 3765   1.315   0.418   8.232
 1027SOL     OW 3766   1.593   0.221   8.330
 1027SOL    HW1 3767   1.509   0.220   8.384
 1027SOL    HW2 3768   1.595   0.304   8.274
 1028SOL     OW 3769   0.039   1.077   7.748
 1028SOL    HW1 3770   0.138   1.066   7.739
 1028SOL    HW2 3771  -0.001   0.991   7.780
 1029SOL     OW 3772   0.875   1.646   7.785
 1029SOL    HW1 3773   0.798   1.611   7.731
 1029SOL    HW2 3774   0.843   1.717   7.847
 1030SOL     OW 3775   0.230   0.628   9.423
 1030SOL    HW1 3776   0.137   0.626   9.460
 1030SOL    HW2 3777   0.231   0.589   9.331
 1031SOL     OW 3778   0.225   0.275  10.306
 1031SOL    HW1 3779   0.260   0.258  10.398
 1031SOL    HW2 3780   0.137   0.230  10.294
 1032SOL     OW 3781   0.019   0.368   9.957
 1032SOL    HW1 3782  -0.063   0.411   9.996
 1032SOL    HW2 3783  -0.009   0.295   9.894
 1033SOL     OW 3784   0.569   1.275  10.475
 1033SOL    HW1 3785   0.476   1.268  10.438
 1033SOL    HW2 3786   0.580   1.364  10.519
 1034SOL     OW 3787   1.555   1.511  10.013
 1034SOL    HW1 3788   1.498   1.495  10.094
 1034SOL    HW2 3789   1.496   1.521   9.933
 1035SOL     OW 3790   1.135   0.703  10.027
 1035SOL    HW1 3791   1.192   0.781  10.002
 1035SOL    HW2 3792   1.075   0.729  10.103
 1036SOL     OW 3793   1.755   0.607   9.541
 1036SOL    HW1 3794   1.743   0.594   9.442
 1036SOL    HW2 3795   1.725   0.526   9.590
 1037SOL     OW 3796   0.768   1.144  10.333
 1037SOL    HW1 3797   0.690   1.161  10.393
 1037SOL    HW2 3798   0.802   1.231  10.297
 1038SOL     OW 3799   0.850   0.798  11.133
 1038SOL    HW1 3800   0.846   0.874  11.198
 1038SOL    HW2 3801   0.872   0.834  11.042
 1039SOL     OW 3802   0.685   1.012   9.975
 1039SOL    HW1 3803   0.754   0.996  10.045
 1039SOL    HW2 3804   0.612   1.069  10.013
 1040SOL     OW 3805   0.686   1.161  11.113
 1040SOL    HW1 3806   0.746   1.240  11.127
 1040SOL    HW2 3807   0.600   1.192  11.072
 1041SOL     OW 3808   0.335   1.435  10.371
 1041SOL    HW1 3809   0.257   1.404  10.318
 1041SOL    HW2 3810   0.393   1.493  10.314
 1042SOL     OW 3811   1.460   1.505  10.649
 1042SOL    HW1 3812   1.484   1.599  10.675
 1042SOL    HW2 3813   1.444   1.451  10.731
 1043SOL     OW 3814   0.438   0.392  10.809
 1043SOL    HW1 3815   0.520   0.336  10.818
 1043SOL    HW2 3816   0.357   0.334  10.813
 1044SOL     OW 3817   1.603   0.447  10.047
 1044SOL    HW1 3818   1.529   0.493   9.997
 1044SOL    HW2 3819   1.654   0.515  10.100
 1045SOL     OW 3820   0.231   1.713   9.793
 1045SOL    HW1 3821   0.265   1.790   9.847
 1045SOL    HW2 3822   0.275   1.713   9.703
 1046SOL     OW 3823   1.127   1.341  11.000
 1046SOL    HW1 3824   1.174   1.341  11.088
 1046SOL    HW2 3825   1.079   1.254  10.989
 1047SOL     OW 3826   0.230   1.434   9.848
 1047SOL    HW1 3827   0.204   1.530   9.848
 1047SOL    HW2 3828   0.159   1.380   9.893
 1048SOL     OW 3829   0.240   1.091  10.196
 1048SOL    HW1 3830   0.254   1.007  10.248
 1048SOL    HW2 3831   0.185   1.155  10.251
 1049SOL     OW 3832   0.620   1.786  10.749
 1049SOL    HW1 3833   0.528   1.769  10.784
 1049SOL    HW2 3834   0.648   1.878  10.775
 1050SOL     OW 3835   0.606   0.964   9.433
 1050SOL    HW1 3836   0.613   1.048   9.379
 1050SOL    HW2 3837   0.652   0.977   9.521
 1051SOL     OW 3838   1.594   0.114  10.790
 1051SOL    HW1 3839   1.576   0.181  10.718
 1051SOL    HW2 3840   1.591   0.160  10.879
 1052SOL     OW 3841   0.122   0.643   9.873
 1052SOL    HW1 3842   0.077   0.555   9.890
 1052SOL    HW2 3843   0.121   0.697   9.957
 1053SOL     OW 3844   0.027   1.596   9.427
 1053SOL    HW1 3845   0.008   1.500   9.448
 1053SOL    HW2 3846  -0.006   1.654   9.502
 1054SOL     OW 3847   1.689   0.922   9.922
 1054SOL    HW1 3848   1.784   0.893   9.930
 1054SOL    HW2 3849   1.681   0.987   9.847
 1055SOL     OW 3850   1.641   1.108   9.742
 1055SOL    HW1 3851   1.727   1.110   9.690
 1055SOL    HW2 3852   1.655   1.155   9.830
 1056SOL     OW 3853   0.113   0.737  10.907
 1056SOL    HW1 3854   0.201   0.724  10.952
 1056SOL    HW2 3855   0.100   0.834  10.885
 1057SOL     OW 3856   0.613   1.365  10.036
 1057SOL    HW1 3857   0.564   1.278  10.045
 1057SOL    HW2 3858   0.590   1.408   9.949
 1058SOL     OW 3859   1.293   1.228  10.733
 1058SOL    HW1 3860   1.330   1.155  10.675
 1058SOL    HW2 3861   1.345   1.233  10.818
 1059SOL     OW 3862   0.809   0.004   9.812
 1059SOL    HW1 3863   0.849   0.095   9.803
 1059SOL    HW2 3864   0.709   0.012   9.818
 1060SOL     OW 3865   0.197   0.976  10.574
 1060SOL    HW1 3866   0.286   0.931  10.560
 1060SOL    HW2 3867   0.124   0.911  10.555
 1061SOL     OW 3868   1.525   0.999   9.500
 1061SOL    HW1 3869   1.462   0.923   9.513
 1061SOL    HW2 3870   1.573   1.017   9.586
 1062SOL     OW 3871   1.187   1.792  10.926
 1062SOL    HW1 3872   1.211   1.852  10.850
 1062SOL    HW2 3873   1.194   1.697  10.896
 1063SOL     OW 3874   0.317   0.251  11.111
 1063SOL    HW1 3875   0.388   0.322  11.117
 1063SOL    HW2 3876   0.229   0.290  11.139
 1064SOL     OW 3877   1.466   1.417  10.263
 1064SOL    HW1 3878   1.407   1.423  10.343
 1064SOL    HW2 3879   1.451   1.329  10.217
 1065SOL     OW 3880   1.667   1.714   9.882
 1065SOL    HW1 3881   1.626   1.691   9.794
 1065SOL    HW2 3882   1.649   1.640   9.947
 1066SOL     OW 3883   0.598   0.729   9.580
 1066SOL    HW1 3884   0.622   0.798   9.512
 1066SOL    HW2 3885   0.520   0.762   9.634
 1067SOL     OW 3886   1.281   0.345  10.254
 1067SOL    HW1 3887   1.195   0.295  10.241
 1067SOL    HW2 3888   1.343   0.291  10.310
 1068SOL     OW 3889   1.576   1.662   9.617
 1068SOL    HW1 3890   1.665   1.708   9.620
 1068SOL    HW2 3891   1.555   1.638   9.522
 1069SOL     OW 3892   0.807   0.605  10.775
 1069SOL    HW1 3893   0.760   0.602  10.864
 1069SOL    HW2 3894   0.756   0.550  10.709
 1070SOL     OW 3895   1.394   0.469  10.984
 1070SOL    HW1 3896   1.374   0.512  11.072
 1070SOL    HW2 3897   1.472   0.407  10.993
 1071SOL     OW 3898   0.973   0.890  10.882
 1071SOL    HW1 3899   1.019   0.806  10.853
 1071SOL    HW2 3900   0.917   0.924  10.807
 1072SOL     OW 3901   0.991   0.410  10.552
 1072SOL    HW1 3902   0.914   0.444  10.606
 1072SOL    HW2 3903   0.957   0.359  10.473
 1073SOL     OW 3904   1.041   0.701   9.739
 1073SOL    HW1 3905   1.067   0.697   9.835
 1073SOL    HW2 3906   0.956   0.650   9.725
 1074SOL     OW 3907   0.076   0.811  10.099
 1074SOL    HW1 3908   0.175   0.799  10.108
 1074SOL    HW2 3909   0.052   0.906  10.120
 1075SOL     OW 3910   0.130   1.821  10.881
 1075SOL    HW1 3911   0.120   1.806  10.980
 1075SOL    HW2 3912   0.044   1.857  10.845
 1076SOL     OW 3913   0.865   0.348   9.505
 1076SOL    HW1 3914   0.924   0.411   9.456
 1076SOL    HW2 3915   0.884   0.254   9.476
 1077SOL     OW 3916   1.719   0.585  11.141
 1077SOL    HW1 3917   1.693   0.674  11.105
 1077SOL    HW2 3918   1.717   0.517  11.068
 1078SOL     OW 3919   1.362   1.144   9.855
 1078SOL    HW1 3920   1.445   1.115   9.807
 1078SOL    HW2 3921   1.313   1.211   9.799
 1079SOL     OW 3922   0.550   0.196  10.195
 1079SOL    HW1 3923   0.545   0.191  10.295
 1079SOL    HW2 3924   0.552   0.292  10.166
 1080SOL     OW 3925   1.008   1.456   9.787
 1080SOL    HW1 3926   0.962   1.528   9.735
 1080SOL    HW2 3927   1.004   1.476   9.885
 1081SOL     OW 3928   0.351   1.801  10.163
 1081SOL    HW1 3929   0.401   1.715  10.169
 1081SOL    HW2 3930   0.416   1.878  10.160
 1082SOL     OW 3931   1.795   1.066  10.183
 1082SOL    HW1 3932   1.733   1.051  10.107
 1082SOL    HW2 3933   1.743   1.077  10.268
 1083SOL     OW 3934   1.227   1.550  10.816
 1083SOL    HW1 3935   1.233   1.473  10.880
 1083SOL    HW2 3936   1.175   1.524  10.736
 1084SOL     OW 3937   0.321   0.943   9.552
 1084SOL    HW1 3938   0.403   0.982   9.510
 1084SOL    HW2 3939   0.294   0.861   9.503
 1085SOL     OW 3940   1.458   0.735  10.038
 1085SOL    HW1 3941   1.453   0.670  10.113
 1085SOL    HW2 3942   1.538   0.794  10.051
 1086SOL     OW 3943   0.461   1.266  11.037
 1086SOL    HW1 3944   0.411   1.267  10.951
 1086SOL    HW2 3945   0.398   1.248  11.113
 1087SOL     OW 3946   1.111   1.776   9.547
 1087SOL    HW1 3947   1.051   1.714   9.597
 1087SOL    HW2 3948   1.142   1.732   9.462
 1088SOL     OW 3949   0.202   0.285  10.808
 1088SOL    HW1 3950   0.122   0.345  10.795
 1088SOL    HW2 3951   0.192   0.236  10.894
 1089SOL     OW 3952   1.632   1.377   9.391
 1089SOL    HW1 3953   1.600   1.471   9.381
 1089SOL    HW2 3954   1.556   1.314   9.379
 1090SOL     OW 3955   0.464   1.743   9.633
 1090SOL    HW1 3956   0.497   1.782   9.719
 1090SOL    HW2 3957   0.540   1.736   9.568
 1091SOL     OW 3958   1.400   0.107   9.736
 1091SOL    HW1 3959   1.376   0.070   9.646
 1091SOL    HW2 3960   1.499   0.123   9.740
 1092SOL     OW 3961   0.249   1.785  10.551
 1092SOL    HW1 3962   0.306   1.720  10.601
 1092SOL    HW2 3963   0.233   1.752  10.458
 1093SOL     OW 3964   0.940   1.698  10.214
 1093SOL    HW1 3965   1.020   1.641  10.235
 1093SOL    HW2 3966   0.891   1.658  10.137
 1094SOL     OW 3967   0.382   0.700   9.790
 1094SOL    HW1 3968   0.427   0.610   9.787
 1094SOL    HW2 3969   0.288   0.689   9.823
 1095SOL     OW 3970   1.547   0.222  11.039
 1095SOL    HW1 3971   1.542   0.259  11.131
 1095SOL    HW2 3972   1.475   0.153  11.027
 1096SOL     OW 3973   0.614   0.122   9.427
 1096SOL    HW1 3974   0.712   0.100   9.434
 1096SOL    HW2 3975   0.583   0.105   9.334
 1097SOL     OW 3976   0.781   0.264  11.059
 1097SOL    HW1 3977   0.848   0.203  11.102
 1097SOL    HW2 3978   0.708   0.283  11.124
 1098SOL     OW 3979   0.888   1.514  10.505
 1098SOL    HW1 3980   0.865   1.489  10.411
 1098SOL    HW2 3981   0.949   1.445  10.544
 1099SOL     OW 3982   1.351   0.590  10.743
 1099SOL    HW1 3983   1.379   0.547  10.828
 1099SOL    HW2 3984   1.376   0.686  10.744
 1100SOL     OW 3985   0.803   1.402  10.234
 1100SOL    HW1 3986   0.893   1.416  10.192
 1100SOL    HW2 3987   0.732   1.404  10.163
 1101SOL     OW 3988   0.922   0.503  10.209
 1101SOL    HW1 3989   0.897   0.494  10.113
 1101SOL    HW2 3990   0.970   0.421  10.240
 1102SOL     OW 3991   0.539   0.064   9.822
 1102SOL    HW1 3992   0.458   0.065   9.880
 1102SOL    HW2 3993   0.542   0.147   9.767
 1103SOL     OW 3994   1.434   1.188   9.351
 1103SOL    HW1 3995   1.466   1.112   9.408
 1103SOL    HW2 3996   1.342   1.215   9.381
 1104SOL     OW 3997   0.297   0.035   9.481
 1104SOL    HW1 3998   0.346   0.119   9.460
 1104SOL    HW2 3999   0.359  -0.030   9.526
 1105SOL     OW 4000   0.935   0.236   9.790
 1105SOL    HW1 4001   0.887   0.277   9.712
 1105SOL    HW2 4002   1.034   0.234   9.771
 1106SOL     OW 4003   1.076   0.683  10.774
 1106SOL    HW1 4004   0.996   0.622  10.777
 1106SOL    HW2 4005   1.157   0.630  10.750
 1107SOL     OW 4006   1.227   1.570  10.103
 1107SOL    HW1 4007   1.248   1.644  10.038
 1107SOL    HW2 4008   1.295   1.570  10.176
 1108SOL     OW 4009   0.459   1.152  10.051
 1108SOL    HW1 4010   0.388   1.125  10.116
 1108SOL    HW2 4011   0.433   1.124   9.958
 1109SOL     OW 4012   1.271   1.797   9.901
 1109SOL    HW1 4013   1.315   1.861   9.837
 1109SOL    HW2 4014   1.221   1.849   9.971
 1110SOL     OW 4015   1.032   0.549   9.326
 1110SOL    HW1 4016   0.991   0.631   9.287
 1110SOL    HW2 4017   1.096   0.575   9.399
 1111SOL     OW 4018   0.078   0.556  10.696
 1111SOL    HW1 4019   0.170   0.555  10.655
 1111SOL    HW2 4020   0.072   0.630  10.763
 1112SOL     OW 4021   0.561   0.222  10.457
 1112SOL    HW1 4022   0.599   0.138  10.494
 1112SOL    HW2 4023   0.473   0.241  10.501
 1113SOL     OW 4024   0.866   0.454   9.952
 1113SOL    HW1 4025   0.834   0.526   9.890
 1113SOL    HW2 4026   0.890   0.373   9.899
 1114SOL     OW 4027   1.017   0.039  10.063
 1114SOL    HW1 4028   0.945   0.044   9.994
 1114SOL    HW2 4029   0.993  -0.030  10.132
 1115SOL     OW 4030   1.429   1.173  10.177
 1115SOL    HW1 4031   1.374   1.089  10.170
 1115SOL    HW2 4032   1.455   1.202  10.085
 1116SOL     OW 4033   1.466   0.590  10.302
 1116SOL    HW1 4034   1.436   0.495  10.309
 1116SOL    HW2 4035   1.539   0.606  10.368
 1117SOL     OW 4036   1.857   0.833   9.687
 1117SOL    HW1 4037   1.899   0.769   9.751
 1117SOL    HW2 4038   1.819   0.782   9.609
 1118SOL     OW 4039   0.488   1.385   9.484
 1118SOL    HW1 4040   0.401   1.370   9.531
 1118SOL    HW2 4041   0.471   1.411   9.389
 1119SOL     OW 4042   1.664   1.280   9.967
 1119SOL    HW1 4043   1.763   1.288   9.981
 1119SOL    HW2 4044   1.619   1.364   9.998
 1120SOL     OW 4045   1.390   0.575   9.388
 1120SOL    HW1 4046   1.336   0.554   9.469
 1120SOL    HW2 4047   1.481   0.534   9.397
 1121SOL     OW 4048   0.527   0.256   9.638
 1121SOL    HW1 4049   0.554   0.197   9.563
 1121SOL    HW2 4050   0.527   0.351   9.607
 1122SOL     OW 4051   1.754   1.223  10.898
 1122SOL    HW1 4052   1.845   1.184  10.885
 1122SOL    HW2 4053   1.762   1.319  10.922
 1123SOL     OW 4054   1.064   1.347  10.650
 1123SOL    HW1 4055   0.984   1.324  10.705
 1123SOL    HW2 4056   1.147   1.321  10.699
 1124SOL     OW 4057   1.592   1.629  10.935
 1124SOL    HW1 4058   1.619   1.663  10.845
 1124SOL    HW2 4059   1.671   1.591  10.981
 1125SOL     OW 4060   1.111   1.195  10.410
 1125SOL    HW1 4061   1.071   1.239  10.491
 1125SOL    HW2 4062   1.070   1.232  10.327
 1126SOL     OW 4063   1.638   1.099  10.389
 1126SOL    HW1 4064   1.643   1.180  10.448
 1126SOL    HW2 4065   1.552   1.101  10.338
 1127SOL     OW 4066   0.915   0.089  10.712
 1127SOL    HW1 4067   0.940   0.069  10.617
 1127SOL    HW2 4068   0.987   0.145  10.754
 1128SOL     OW 4069   0.980   1.116  11.029
 1128SOL    HW1 4070   0.881   1.122  11.039
 1128SOL    HW2 4071   1.003   1.036  10.973
 1129SOL     OW 4072   0.705   1.050   9.678
 1129SOL    HW1 4073   0.691   1.057   9.777
 1129SOL    HW2 4074   0.789   0.999   9.660
 1130SOL     OW 4075   0.410   0.813  10.561
 1130SOL    HW1 4076   0.496   0.825  10.611
 1130SOL    HW2 4077   0.368   0.726  10.588
 1131SOL     OW 4078   1.274   0.386  10.572
 1131SOL    HW1 4079   1.295   0.460  10.636
 1131SOL    HW2 4080   1.185   0.403  10.529
 1132SOL     OW 4081   0.064   1.564  10.641
 1132SOL    HW1 4082   0.018   1.646  10.607
 1132SOL    HW2 4083   0.162   1.583  10.650
 1133SOL     OW 4084   0.367   1.100   9.811
 1133SOL    HW1 4085   0.360   1.183   9.755
 1133SOL    HW2 4086   0.371   1.020   9.751
 1134SOL     OW 4087   0.566   0.537  10.175
 1134SOL    HW1 4088   0.578   0.603  10.101
 1134SOL    HW2 4089   0.612   0.571  10.258
 1135SOL     OW 4090   1.252   1.348   9.698
 1135SOL    HW1 4091   1.302   1.425   9.738
 1135SOL    HW2 4092   1.157   1.350   9.730
 1136SOL     OW 4093   1.272   1.445  10.452
 1136SOL    HW1 4094   1.319   1.458  10.539
 1136SOL    HW2 4095   1.206   1.371  10.461
 1137SOL     OW 4096   1.582   0.639   9.782
 1137SOL    HW1 4097   1.551   0.700   9.855
 1137SOL    HW2 4098   1.632   0.691   9.713
 1138SOL     OW 4099   0.354   1.510  10.639
 1138SOL    HW1 4100   0.333   1.466  10.552
 1138SOL    HW2 4101   0.451   1.536  10.642
 1139SOL     OW 4102   0.402   0.751  10.908
 1139SOL    HW1 4103   0.470   0.806  10.861
 1139SOL    HW2 4104   0.442   0.663  10.935
 1140SOL     OW 4105   1.587   0.779  10.980
 1140SOL    HW1 4106   1.495   0.817  10.975
 1140SOL    HW2 4107   1.647   0.826  10.915
 1141SOL     OW 4108   1.013   0.105  11.080
 1141SOL    HW1 4109   1.019   0.190  11.028
 1141SOL    HW2 4110   1.045   0.029  11.023
 1142SOL     OW 4111   0.504   0.050  11.050
 1142SOL    HW1 4112   0.462  -0.007  10.980
 1142SOL    HW2 4113   0.438   0.119  11.082
 1143SOL     OW 4114   0.573   0.870  10.339
 1143SOL    HW1 4115   0.617   0.959  10.330
 1143SOL    HW2 4116   0.510   0.870  10.416
 1144SOL     OW 4117   1.360   0.862  10.355
 1144SOL    HW1 4118   1.285   0.862  10.289
 1144SOL    HW2 4119   1.397   0.770  10.364
 1145SOL     OW 4120   1.209   0.525   9.585
 1145SOL    HW1 4121   1.222   0.441   9.639
 1145SOL    HW2 4122   1.180   0.599   9.645
 1146SOL     OW 4123   0.307   0.213  10.541
 1146SOL    HW1 4124   0.284   0.250  10.631
 1146SOL    HW2 4125   0.277   0.118  10.535
 1147SOL     OW 4126   0.037   1.310  10.592
 1147SOL    HW1 4127   0.090   1.261  10.660
 1147SOL    HW2 4128   0.059   1.408  10.597
 1148SOL     OW 4129   0.732   0.634  10.374
 1148SOL    HW1 4130   0.791   0.608  10.298
 1148SOL    HW2 4131   0.704   0.730  10.363
 1149SOL     OW 4132   1.728   0.935  11.164
 1149SOL    HW1 4133   1.682   0.928  11.075
 1149SOL    HW2 4134   1.666   0.979  11.230
 1150SOL     OW 4135   0.307   0.063   9.928
 1150SOL    HW1 4136   0.296   0.157   9.961
 1150SOL    HW2 4137   0.302   0.000  10.005
 1151SOL     OW 4138   1.622   0.367   9.684
 1151SOL    HW1 4139   1.624   0.291   9.748
 1151SOL    HW2 4140   1.574   0.444   9.724
 1152SOL     OW 4141   1.023   0.766  10.276
 1152SOL    HW1 4142   1.038   0.787  10.372
 1152SOL    HW2 4143   0.993   0.671  10.267
 1153SOL     OW 4144   0.980   1.573  11.010
 1153SOL    HW1 4145   0.960   1.617  10.922
 1153SOL    HW2 4146   1.019   1.482  10.994
 1154SOL     OW 4147   1.859   1.518  10.915
 1154SOL    HW1 4148   1.873   1.545  10.820
 1154SOL    HW2 4149   1.942   1.540  10.968
 1155SOL     OW 4150   0.350   0.898  11.114
 1155SOL    HW1 4151   0.426   0.942  11.162
 1155SOL    HW2 4152   0.385   0.851  11.032
 1156SOL     OW 4153   1.540   0.274   9.435
 1156SOL    HW1 4154   1.479   0.199   9.458
 1156SOL    HW2 4155   1.562   0.326   9.518
 1157SOL     OW 4156   1.303   0.838   9.352
 1157SOL    HW1 4157   1.337   0.745   9.367
 1157SOL    HW2 4158   1.321   0.865   9.257
 1158SOL     OW 4159   1.068   1.333  10.159
 1158SOL    HW1 4160   1.075   1.249  10.104
 1158SOL    HW2 4161   1.130   1.402  10.123
 1159SOL     OW 4162   0.319   0.810  10.259
 1159SOL    HW1 4163   0.412   0.846  10.264
 1159SOL    HW2 4164   0.313   0.725  10.311
 1160SOL     OW 4165   0.339   0.509  10.316
 1160SOL    HW1 4166   0.287   0.426  10.299
 1160SOL    HW2 4167   0.416   0.514  10.252
 1161SOL     OW 4168   1.138   0.380  10.988
 1161SOL    HW1 4169   1.093   0.443  11.052
 1161SOL    HW2 4170   1.231   0.411  10.971
 1162SOL     OW 4171   1.160   0.207  10.787
 1162SOL    HW1 4172   1.160   0.271  10.864
 1162SOL    HW2 4173   1.188   0.255  10.704
 1163SOL     OW 4174   0.008   1.326   9.510
 1163SOL    HW1 4175  -0.085   1.347   9.479
 1163SOL    HW2 4176   0.018   1.227   9.523
 1164SOL     OW 4177   0.088   1.801  10.237
 1164SOL    HW1 4178   0.046   1.715  10.210
 1164SOL    HW2 4179   0.182   1.804  10.203
 1165SOL     OW 4180   0.504   1.568  10.220
 1165SOL    HW1 4181   0.570   1.642  10.229
 1165SOL    HW2 4182   0.548   1.489  10.178
 1166SOL     OW 4183   1.002   0.796  10.548
 1166SOL    HW1 4184   1.043   0.764  10.634
 1166SOL    HW2 4185   0.906   0.769  10.545
 1167SOL     OW 4186   0.040   0.544  10.424
 1167SOL    HW1 4187   0.125   0.511  10.383
 1167SOL    HW2 4188   0.053   0.559  10.522
 1168SOL     OW 4189   0.189   0.520  11.032
 1168SOL    HW1 4190   0.248   0.480  10.962
 1168SOL    HW2 4191   0.131   0.591  10.991
 1169SOL     OW 4192   1.369   0.950  10.970
 1169SOL    HW1 4193   1.408   1.039  10.990
 1169SOL    HW2 4194   1.379   0.930  10.873
 1170SOL     OW 4195   0.815   0.572   9.635
 1170SOL    HW1 4196   0.822   0.483   9.589
 1170SOL    HW2 4197   0.721   0.606   9.627
 1171SOL     OW 4198   1.657   0.604  10.516
 1171SOL    HW1 4199   1.619   0.535  10.578
 1171SOL    HW2 4200   1.739   0.568  10.472
 1172SOL     OW 4201   0.252   1.564  11.054
 1172SOL    HW1 4202   0.222   1.621  11.130
 1172SOL    HW2 4203   0.245   1.467  11.080
 1173SOL     OW 4204   0.671   0.464  10.579
 1173SOL    HW1 4205   0.637   0.375  10.549
 1173SOL    HW2 4206   0.697   0.518  10.499
 1174SOL     OW 4207   0.930   1.678  10.775
 1174SOL    HW1 4208   0.906   1.660  10.680
 1174SOL    HW2 4209   0.960   1.772  10.785
 1175SOL     OW 4210   0.473   0.500   9.501
 1175SOL    HW1 4211   0.534   0.580   9.505
 1175SOL    HW2 4212   0.378   0.531   9.508
 1176SOL     OW 4213   0.159   1.137  10.776
 1176SOL    HW1 4214   0.181   1.076  10.852
 1176SOL    HW2 4215   0.169   1.088  10.690
 1177SOL     OW 4216   1.347   1.059  10.544
 1177SOL    HW1 4217   1.371   0.996  10.470
 1177SOL    HW2 4218   1.257   1.099  10.526
 1178SOL     OW 4219   1.302   0.855   9.619
 1178SOL    HW1 4220   1.216   0.824   9.661
 1178SOL    HW2 4221   1.298   0.841   9.520
 1179SOL     OW 4222   1.759   1.747  10.464
 1179SOL    HW1 4223   1.820   1.777  10.391
 1179SOL    HW2 4224   1.721   1.658  10.442
 1180SOL     OW 4225   1.252   1.731  10.438
 1180SOL    HW1 4226   1.336   1.736  10.384
 1180SOL    HW2 4227   1.229   1.635  10.456
 1181SOL     OW 4228   0.083   1.258  10.332
 1181SOL    HW1 4229   0.078   1.257  10.432
 1181SOL    HW2 4230   0.000   1.217  10.294
 1182SOL     OW 4231   0.688   1.662  11.026
 1182SOL    HW1 4232   0.632   1.743  11.035
 1182SOL    HW2 4233   0.740   1.666  10.940
 1183SOL     OW 4234   1.726   0.135   9.833
 1183SOL    HW1 4235   1.799   0.118   9.766
 1183SOL    HW2 4236   1.695   0.048   9.871
 1184SOL     OW 4237   1.388   1.573   9.787
 1184SOL    HW1 4238   1.455   1.585   9.713
 1184SOL    HW2 4239   1.348   1.662   9.810
 1185SOL     OW 4240   0.130   1.794  11.161
 1185SOL    HW1 4241   0.089   1.720  11.214
 1185SOL    HW2 4242   0.194   1.845  11.219
 1186SOL     OW 4243   1.280   0.927   9.982
 1186SOL    HW1 4244   1.340   0.846   9.984
 1186SOL    HW2 4245   1.320   0.996   9.922
 1187SOL     OW 4246   0.830   1.273  10.732
 1187SOL    HW1 4247   0.825   1.306  10.827
 1187SOL    HW2 4248   0.744   1.292  10.686
 1188SOL     OW 4249   0.672   1.616   9.464
 1188SOL    HW1 4250   0.681   1.626   9.365
 1188SOL    HW2 4251   0.632   1.527   9.485
 1189SOL     OW 4252   1.650   1.720  10.704
 1189SOL    HW1 4253   1.703   1.730  10.620
 1189SOL    HW2 4254   1.623   1.810  10.738
 1190SOL     OW 4255   1.841   0.175  10.273
 1190SOL    HW1 4256   1.880   0.090  10.237
 1190SOL    HW2 4257   1.743   0.177  10.254
 1191SOL     OW 4258   0.263   0.326  10.030
 1191SOL    HW1 4259   0.184   0.377   9.996
 1191SOL    HW2 4260   0.254   0.311  10.128
 1192SOL     OW 4261   1.194   1.612   9.341
 1192SOL    HW1 4262   1.200   1.519   9.378
 1192SOL    HW2 4263   1.135   1.612   9.261
 1193SOL     OW 4264   0.822   1.002  10.682
 1193SOL    HW1 4265   0.862   1.001  10.590
 1193SOL    HW2 4266   0.832   1.094  10.722
 1194SOL     OW 4267   0.916   0.910   9.601
 1194SOL    HW1 4268   0.979   0.948   9.533
 1194SOL    HW2 4269   0.956   0.827   9.640
 1195SOL     OW 4270   1.504   1.607   9.354
 1195SOL    HW1 4271   1.412   1.644   9.361
 1195SOL    HW2 4272   1.542   1.627   9.264
 1196SOL     OW 4273   0.372   1.288  10.800
 1196SOL    HW1 4274   0.359   1.381  10.766
 1196SOL    HW2 4275   0.288   1.236  10.787
 1197SOL     OW 4276   1.614   1.292  10.599
 1197SOL    HW1 4277   1.674   1.295  10.679
 1197SOL    HW2 4278   1.539   1.356  10.612
 1198SOL     OW 4279   1.039   1.098  10.006
 1198SOL    HW1 4280   0.969   1.051  10.060
 1198SOL    HW2 4281   1.098   1.030   9.963
 1199SOL     OW 4282   1.014   0.236  10.281
 1199SOL    HW1 4283   1.006   0.200  10.188
 1199SOL    HW2 4284   1.012   0.160  10.346
 1200SOL     OW 4285   0.590   1.487   9.801
 1200SOL    HW1 4286   0.632   1.429   9.731
 1200SOL    HW2 4287   0.546   1.566   9.757
 1201SOL     OW 4288   1.709   0.385  10.691
 1201SOL    HW1 4289   1.782   0.454  10.695
 1201SOL    HW2 4290   1.737   0.310  10.632
 1202SOL     OW 4291   0.255   1.348   9.600
 1202SOL    HW1 4292   0.159   1.349   9.573
 1202SOL    HW2 4293   0.267   1.401   9.684
 1203SOL     OW 4294   0.105   1.013  11.036
 1203SOL    HW1 4295   0.028   0.980  11.090
 1203SOL    HW2 4296   0.190   0.983  11.078
 1204SOL     OW 4297   0.672   0.203  10.799
 1204SOL    HW1 4298   0.762   0.187  10.759
 1204SOL    HW2 4299   0.680   0.208  10.898
 1205SOL     OW 4300   0.075   0.345   9.343
 1205SOL    HW1 4301  -0.017   0.317   9.314
 1205SOL    HW2 4302   0.106   0.422   9.287
 1206SOL     OW 4303   1.440   0.856  10.708
 1206SOL    HW1 4304   1.383   0.908  10.645
 1206SOL    HW2 4305   1.536   0.868  10.684
 1207SOL     OW 4306   0.072   0.166   9.628
 1207SOL    HW1 4307   0.055   0.249   9.574
 1207SOL    HW2 4308   0.162   0.129   9.606
 1208SOL     OW 4309   1.183   1.335   9.429
 1208SOL    HW1 4310   1.084   1.324   9.431
 1208SOL    HW2 4311   1.217   1.350   9.522
 1209SOL     OW 4312   0.613   0.842  10.741
 1209SOL    HW1 4313   0.669   0.923  10.724
 1209SOL    HW2 4314   0.672   0.762  10.744
 1210SOL     OW 4315   1.493   1.767  10.269
 1210SOL    HW1 4316   1.526   1.831  10.200
 1210SOL    HW2 4317   1.559   1.761  10.344
 1211SOL     OW 4318   0.716   0.565  11.018
 1211SOL    HW1 4319   0.735   0.630  11.092
 1211SOL    HW2 4320   0.776   0.485  11.027
 1212SOL     OW 4321   1.450   1.220  10.943
 1212SOL    HW1 4322   1.441   1.210  11.042
 1212SOL    HW2 4323   1.546   1.213  10.917
 1213SOL     OW 4324   0.390   1.741  10.870
 1213SOL    HW1 4325   0.299   1.782  10.868
 1213SOL    HW2 4326   0.383   1.647  10.902
 1214SOL     OW 4327   1.674   0.883  10.564
 1214SOL    HW1 4328   1.647   0.794  10.527
 1214SOL    HW2 4329   1.675   0.951  10.491
 1215SOL     OW 4330   1.225   0.325   9.759
 1215SOL    HW1 4331   1.290   0.251   9.748
 1215SOL    HW2 4332   1.245   0.375   9.843
 1216SOL     OW 4333   0.594   0.745   9.962
 1216SOL    HW1 4334   0.644   0.830   9.943
 1216SOL    HW2 4335   0.506   0.747   9.914
 1217SOL     OW 4336   1.777   0.342  10.952
 1217SOL    HW1 4337   1.760   0.373  10.858
 1217SOL    HW2 4338   1.693   0.305  10.990
 1218SOL     OW 4339   1.730   0.934  10.827
 1218SOL    HW1 4340   1.768   1.025  10.842
 1218SOL    HW2 4341   1.722   0.917  10.728
 1219SOL     OW 4342   0.859   1.374   9.326
 1219SOL    HW1 4343   0.813   1.389   9.414
 1219SOL    HW2 4344   0.903   1.459   9.296
 1220SOL     OW 4345   0.661   1.790  10.263
 1220SOL    HW1 4346   0.615   1.878  10.250
 1220SOL    HW2 4347   0.760   1.802  10.256
 1221SOL     OW 4348   0.859   0.956  10.171
 1221SOL    HW1 4349   0.913   0.887  10.219
 1221SOL    HW2 4350   0.827   1.025  10.237
 1222SOL     OW 4351   1.083   0.984   9.397
 1222SOL    HW1 4352   1.060   1.037   9.315
 1222SOL    HW2 4353   1.164   0.928   9.378
 1223SOL     OW 4354   1.861   1.569  10.161
 1223SOL    HW1 4355   1.790   1.557  10.091
 1223SOL    HW2 4356   1.862   1.490  10.221
 1224SOL     OW 4357   0.221   1.314  11.154
 1224SOL    HW1 4358   0.156   1.241  11.133
 1224SOL    HW2 4359   0.225   1.328  11.252
 1225SOL     OW 4360   0.079   1.240   9.963
 1225SOL    HW1 4361   0.078   1.193  10.051
 1225SOL    HW2 4362   0.161   1.212   9.912
 1226SOL     OW 4363   0.672   1.391  10.934
 1226SOL    HW1 4364   0.594   1.341  10.972
 1226SOL    HW2 4365   0.669   1.486  10.965
 1227SOL     OW 4366   1.824   0.192  10.537
 1227SOL    HW1 4367   1.820   0.102  10.581
 1227SOL    HW2 4368   1.827   0.181  10.438
 1228SOL     OW 4369   0.428   0.424   9.830
 1228SOL    HW1 4370   0.458   0.352   9.768
 1228SOL    HW2 4371   0.389   0.384   9.913
 1229SOL     OW 4372   1.705   1.487  10.414
 1229SOL    HW1 4373   1.612   1.462  10.387
 1229SOL    HW2 4374   1.731   1.437  10.496
 1230SOL     OW 4375   0.317   0.547  10.590
 1230SOL    HW1 4376   0.355   0.488  10.662
 1230SOL    HW2 4377   0.357   0.521  10.502
 1231SOL     OW 4378   0.812   1.586   9.997
 1231SOL    HW1 4379   0.844   1.596   9.903
 1231SOL    HW2 4380   0.733   1.524   9.999
 1232SOL     OW 4381   1.424   0.214  10.422
 1232SOL    HW1 4382   1.476   0.149  10.477
 1232SOL    HW2 4383   1.375   0.277  10.483
 1233SOL     OW 4384   1.001   0.034  10.464
 1233SOL    HW1 4385   0.938  -0.038  10.433
 1233SOL    HW2 4386   1.094  -0.002  10.464
 1234SOL     OW 4387   0.770   1.330   9.611
 1234SOL    HW1 4388   0.724   1.243   9.628
 1234SOL    HW2 4389   0.861   1.327   9.652
 1235SOL     OW 4390   0.618   1.567  10.594
 1235SOL    HW1 4391   0.613   1.649  10.651
 1235SOL    HW2 4392   0.707   1.564  10.549
 1236SOL     OW 4393   1.352   0.052   9.478
 1236SOL    HW1 4394   1.387   0.011   9.394
 1236SOL    HW2 4395   1.262   0.014   9.498
 1237SOL     OW 4396   1.300   0.453  10.001
 1237SOL    HW1 4397   1.241   0.533  10.005
 1237SOL    HW2 4398   1.315   0.418  10.094
 1238SOL     OW 4399   1.593   0.221  10.192
 1238SOL    HW1 4400   1.509   0.220  10.246
 1238SOL    HW2 4401   1.595   0.304  10.136
 1239SOL     OW 4402   0.039   1.077   9.610
 1239SOL    HW1 4403   0.138   1.066   9.601
 1239SOL    HW2 4404  -0.001   0.991   9.642
 1240SOL     OW 4405   0.875   1.646   9.647
 1240SOL    HW1 4406   0.798   1.611   9.593
 1240SOL    HW2 4407   0.843   1.717   9.709
 1241SOL     OW 4408   0.230   0.628  11.285
 1241SOL    HW1 4409   0.137   0.626  11.322
 1241SOL    HW2 4410   0.231   0.589  11.193
 1242SOL     OW 4411   0.225   0.275  12.168
 1242SOL    HW1 4412   0.260   0.258  12.260
 1242SOL    HW2 4413   0.137   0.230  12.156
 1243SOL     OW 4414   0.019   0.368  11.819
 1243SOL    HW1 4415  -0.063   0.411  11.858
 1243SOL    HW2 4416  -0.009   0.295  11.756
 1244SOL     OW 4417   0.569   1.275  12.337
 1244SOL    HW1 4418   0.476   1.268  12.300
 1244SOL    HW2 4419   0.580   1.364  12.381
 1245SOL     OW 4420   1.555   1.511  11.875
 1245SOL    HW1 4421   1.498   1.495  11.956
 1245SOL    HW2 4422   1.496   1.521  11.795
 1246SOL     OW 4423   1.135   0.703  11.889
 1246SOL    HW1 4424   1.192   0.781  11.864
 1246SOL    HW2 4425   1.075   0.729  11.965
 1247SOL     OW 4426   1.755   0.607  11.403
 1247SOL    HW1 4427   1.743   0.594  11.304
 1247SOL    HW2 4428   1.725   0.526  11.452
 1248SOL     OW 4429   0.768   1.144  12.195
 1248SOL    HW1 4430   0.690   1.161  12.255
 1248SOL    HW2 4431   0.802   1.231  12.159
 1249SOL     OW 4432   0.850   0.798  12.995
 1249SOL    HW1 4433   0.846   0.874  13.060
 1249SOL    HW2 4434   0.872   0.834  12.904
 1250SOL     OW 4435   0.685   1.012  11.837
 1250SOL    HW1 4436   0.754   0.996  11.907
 1250SOL    HW2 4437   0.612   1.069  11.875
 1251SOL     OW 4438   0.686   1.161  12.975
 1251SOL    HW1 4439   0.746   1.240  12.989
 1251SOL    HW2 4440   0.600   1.192  12.934
 1252SOL     OW 4441   0.335   1.435  12.233
 1252SOL    HW1 4442   0.257   1.404  12.180
 1252SOL    HW2 4443   0.393   1.493  12.176
 1253SOL     OW 4444   1.460   1.505  12.511
 1253SOL    HW1 4445   1.484   1.599  12.537
 1253SOL    HW2 4446   1.444   1.451  12.593
 1254SOL     OW 4447   0.438   0.392  12.671
 1254SOL    HW1 4448   0.520   0.336  12.680
 1254SOL    HW2 4449   0.357   0.334  12.675
 1255SOL     OW 4450   1.603   0.447  11.909
 1255SOL    HW1 4451   1.529   0.493  11.859
 1255SOL    HW2 4452   1.654   0.515  11.962
 1256SOL     OW 4453   0.231   1.713  11.655
 1256SOL    HW1 4454   0.265   1.790  11.709
 1256SOL    HW2 4455   0.275   1.713  11.565
 1257SOL     OW 4456   1.127   1.341  12.862
 1257SOL    HW1 4457   1.174   1.341  12.950
 1257SOL    HW2 4458   1.079   1.254  12.851
 1258SOL     OW 4459   0.230   1.434  11.710
 1258SOL    HW1 4460   0.204   1.530  11.710
 1258SOL    HW2 4461   0.159   1.380  11.755
 1259SOL     OW 4462   0.240   1.091  12.058
 1259SOL    HW1 4463   0.254   1.007  12.110
 1259SOL    HW2 4464   0.185   1.155  12.113
 1260SOL     OW 4465   0.620   1.786  12.611
 1260SOL    HW1 4466   0.528   1.769  12.646
 1260SOL    HW2 4467   0.648   1.878  12.637
 1261SOL     OW 4468   0.606   0.964  11.295
 1261SOL    HW1 4469   0.613   1.048  11.241
 1261SOL    HW2 4470   0.652   0.977  11.383
 1262SOL     OW 4471   1.594   0.114  12.652
 1262SOL    HW1 4472   1.576   0.181  12.580
 1262SOL    HW2 4473   1.591   0.160  12.741
 1263SOL     OW 4474   0.122   0.643  11.735
 1263SOL    HW1 4475   0.077   0.555  11.752
 1263SOL    HW2 4476   0.121   0.697  11.819
 1264SOL     OW 4477   0.027   1.596  11.289
 1264SOL    HW1 4478   0.008   1.500  11.310
 1264SOL    HW2 4479  -0.006   1.654  11.364
 1265SOL     OW 4480   1.689   0.922  11.784
 1265SOL    HW1 4481   1.784   0.893  11.792
 1265SOL    HW2 4482   1.681   0.987  11.709
 1266SOL     OW 4483   1.641   1.108  11.604
 1266SOL    HW1 4484   1.727   1.110  11.552
 1266SOL    HW2 4485   1.655   1.155  11.692
 1267SOL     OW 4486   0.113   0.737  12.769
 1267SOL    HW1 4487   0.201   0.724  12.814
 1267SOL    HW2 4488   0.100   0.834  12.747
 1268SOL     OW 4489   0.613   1.365  11.898
 1268SOL    HW1 4490   0.564   1.278  11.907
 1268SOL    HW2 4491   0.590   1.408  11.811
 1269SOL     OW 4492   1.293   1.228  12.595
 1269SOL    HW1 4493   1.330   1.155  12.537
 1269SOL    HW2 4494   1.345   1.233  12.680
 1270SOL     OW 4495   0.809   0.004  11.674
 1270SOL    HW1 4496   0.849   0.095  11.665
 1270SOL    HW2 4497   0.709   0.012  11.680
 1271SOL     OW 4498   0.197   0.976  12.436
 1271SOL    HW1 4499   0.286   0.931  12.422
 1271SOL    HW2 4500   0.124   0.911  12.417
 1272SOL     OW 4501   1.525   0.999  11.362
 1272SOL    HW1 4502   1.462   0.923  11.375
 1272SOL    HW2 4503   1.573   1.017  11.448
 1273SOL     OW 4504   1.187   1.792  12.788
 1273SOL    HW1 4505   1.211   1.852  12.712
 1273SOL    HW2 4506   1.194   1.697  12.758
 1274SOL     OW 4507   0.317   0.251  12.973
 1274SOL    HW1 4508   0.388   0.322  12.979
 1274SOL    HW2 4509   0.229   0.290  13.001
 1275SOL     OW 4510   1.466   1.417  12.125
 1275SOL    HW1 4511   1.407   1.423  12.205
 1275SOL    HW2 4512   1.451   1.329  12.079
 1276SOL     OW 4513   1.667   1.714  11.744
 1276SOL    HW1 4514   1.626   1.691  11.656
 1276SOL    HW2 4515   1.649   1.640  11.809
 1277SOL     OW 4516   0.598   0.729  11.442
 1277SOL    HW1 4517   0.622   0.798  11.374
 1277SOL    HW2 4518   0.520   0.762  11.496
 1278SOL     OW 4519   1.281   0.345  12.116
 1278SOL    HW1 4520   1.195   0.295  12.103
 1278SOL    HW2 4521   1.343   0.291  12.172
 1279SOL     OW 4522   1.576   1.662  11.479
 1279SOL    HW1 4523   1.665   1.708  11.482
 1279SOL    HW2 4524   1.555   1.638  11.384
 1280SOL     OW 4525   0.807   0.605  12.637
 1280SOL    HW1 4526   0.760   0.602  12.726
 1280SOL    HW2 4527   0.756   0.550  12.571
 1281SOL     OW 4528   1.394   0.469  12.846
 1281SOL    HW1 4529   1.374   0.512  12.934
 1281SOL    HW2 4530   1.472   0.407  12.855
 1282SOL     OW 4531   0.973   0.890  12.744
 1282SOL    HW1 4532   1.019   0.806  12.715
 1282SOL    HW2 4533   0.917   0.924  12.669
 1283SOL     OW 4534   0.991   0.410  12.414
 1283SOL    HW1 4535   0.914   0.444  12.468
 1283SOL    HW2 4536   0.957   0.359  12.335
 1284SOL     OW 4537   1.041   0.701  11.601
 1284SOL    HW1 4538   1.067   0.697  11.697
 1284SOL    HW2 4539   0.956   0.650  11.587
 1285SOL     OW 4540   0.076   0.811  11.961
 1285SOL    HW1 4541   0.175   0.799  11.970
 1285SOL    HW2 4542   0.052   0.906  11.982
 1286SOL     OW 4543   0.130   1.821  12.743
 1286SOL    HW1 4544   0.120   1.806  12.842
 1286SOL    HW2 4545   0.044   1.857  12.707
 1287SOL     OW 4546   0.865   0.348  11.367
 1287SOL    HW1 4547   0.924   0.411  11.318
 1287SOL    HW2 4548   0.884   0.254  11.338
 1288SOL     OW 4549   1.719   0.585  13.003
 1288SOL    HW1 4550   1.693   0.674  12.967
 1288SOL    HW2 4551   1.717   0.517  12.930
 1289SOL     OW 4552   1.362   1.144  11.717
 1289SOL    HW1 4553   1.445   1.115  11.669
 1289SOL    HW2 4554   1.313   1.211  11.661
 1290SOL     OW 4555   0.550   0.196  12.057
 1290SOL    HW1 4556   0.545   0.191  12.157
 1290SOL    HW2 4557   0.552   0.292  12.028
 1291SOL     OW 4558   1.008   1.456  11.649
 1291SOL    HW1 4559   0.962   1.528  11.597
 1291SOL    HW2 4560   1.004   1.476  11.747
 1292SOL     OW 4561   0.351   1.801  12.025
 1292SOL    HW1 4562   0.401   1.715  12.031
 1292SOL    HW2 4563   0.416   1.878  12.022
 1293SOL     OW 4564   1.795   1.066  12.045
 1293SOL    HW1 4565   1.733   1.051  11.969
 1293SOL    HW2 4566   1.743   1.077  12.130
 1294SOL     OW 4567   1.227   1.550  12.678
 1294SOL    HW1 4568   1.233   1.473  12.742
 1294SOL    HW2 4569   1.175   1.524  12.598
 1295SOL     OW 4570   0.321   0.943  11.414
 1295SOL    HW1 4571   0.403   0.982  11.372
 1295SOL    HW2 4572   0.294   0.861  11.365
 1296SOL     OW 4573   1.458   0.735  11.900
 1296SOL    HW1 4574   1.453   0.670  11.975
 1296SOL    HW2 4575   1.538   0.794  11.913
 1297SOL     OW 4576   0.461   1.266  12.899
 1297SOL    HW1 4577   0.411   1.267  12.813
 1297SOL    HW2 4578   0.398   1.248  12.975
 1298SOL     OW 4579   1.111   1.776  11.409
 1298SOL    HW1 4580   1.051   1.714  11.459
 1298SOL    HW2 4581   1.142   1.732  11.324
 1299SOL     OW 4582   0.202   0.285  12.670
 1299SOL    HW1 4583   0.122   0.345  12.657
 1299SOL    HW2 4584   0.192   0.236  12.756
 1300SOL     OW 4585   1.632   1.377  11.253
 1300SOL    HW1 4586   1.600   1.471  11.243
 1300SOL    HW2 4587   1.556   1.314  11.241
 1301SOL     OW 4588   0.464   1.743  11.495
 1301SOL    HW1 4589   0.497   1.782  11.581
 1301SOL    HW2 4590   0.540   1.736  11.430
 1302SOL     OW 4591   1.400   0.107  11.598
 1302SOL    HW1 4592   1.376   0.070  11.508
 1302SOL    HW2 4593   1.499   0.123  11.602
 1303SOL     OW 4594   0.249   1.785  12.413
 1303SOL    HW1 4595   0.306   1.720  12.463
 1303SOL    HW2 4596   0.233   1.752  12.320
 1304SOL     OW 4597   0.940   1.698  12.076
 1304SOL    HW1 4598   1.020   1.641  12.097
 1304SOL    HW2 4599   0.891   1.658  11.999
 1305SOL     OW 4600   0.382   0.700  11.652
 1305SOL    HW1 4601   0.427   0.610  11.649
 1305SOL    HW2 4602   0.288   0.689  11.685
 1306SOL     OW 4603   1.547   0.222  12.901
 1306SOL    HW1 4604   1.542   0.259  12.993
 1306SOL    HW2 4605   1.475   0.153  12.889
 1307SOL     OW 4606   0.614   0.122  11.289
 1307SOL    HW1 4607   0.712   0.100  11.296
 1307SOL    HW2 4608   0.583   0.105  11.196
 1308SOL     OW 4609   0.781   0.264  12.921
 1308SOL    HW1 4610   0.848   0.203  12.964
 1308SOL    HW2 4611   0.708   0.283  12.986
 1309SOL     OW 4612   0.888   1.514  12.367
 1309SOL    HW1 4613   0.865   1.489  12.273
 1309SOL    HW2 4614   0.949   1.445  12.406
 1310SOL     OW 4615   1.351   0.590  12.605
 1310SOL    HW1 4616   1.379   0.547  12.690
 1310SOL    HW2 4617   1.376   0.686  12.606
 1311SOL     OW 4618   0.803   1.402  12.096
 1311SOL    HW1 4619   0.893   1.416  12.054
 1311SOL    HW2 4620   0.732   1.404  12.025
 1312SOL     OW 4621   0.922   0.503  12.071
 1312SOL    HW1 4622   0.897   0.494  11.975
 1312SOL    HW2 4623   0.970   0.421  12.102
 1313SOL     OW 4624   0.539   0.064  11.684
 1313SOL    HW1 4625   0.458   0.065  11.742
 1313SOL    HW2 4626   0.542   0.147  11.629
 1314SOL     OW 4627   1.434   1.188  11.213
 1314SOL    HW1 4628   1.466   1.112  11.270
 1314SOL    HW2 4629   1.342   1.215  11.243
 1315SOL     OW 4630   0.297   0.035  11.343
 1315SOL    HW1 4631   0.346   0.119  11.322
 1315SOL    HW2 4632   0.359  -0.030  11.388
 1316SOL     OW 4633   0.935   0.236  11.652
 1316SOL    HW1 4634   0.887   0.277  11.574
 1316SOL    HW2 4635   1.034   0.234  11.633
 1317SOL     OW 4636   1.076   0.683  12.636
 1317SOL    HW1 4637   0.996   0.622  12.639
 1317SOL    HW2 4638   1.157   0.630  12.612
 1318SOL     OW 4639   1.227   1.570  11.965
 1318SOL    HW1 4640   1.248   1.644  11.900
 1318SOL    HW2 4641   1.295   1.570  12.038
 1319SOL     OW 4642   0.459   1.152  11.913
 1319SOL    HW1 4643   0.388   1.125  11.978
 1319SOL    HW2 4644   0.433   1.124  11.820
 1320SOL     OW 4645   1.271   1.797  11.763
 1320SOL    HW1 4646   1.315   1.861  11.699
 1320SOL    HW2 4647   1.221   1.849  11.833
 1321SOL     OW 4648   1.032   0.549  11.188
 1321SOL    HW1 4649   0.991   0.631  11.149
 1321SOL    HW2 4650   1.096   0.575  11.261
 1322SOL     OW 4651   0.078   0.556  12.558
 1322SOL    HW1 4652   0.170   0.555  12.517
 1322SOL    HW2 4653   0.072   0.630  12.625
 1323SOL     OW 4654   0.561   0.222  12.319
 1323SOL    HW1 4655   0.599   0.138  12.356
 1323SOL    HW2 4656   0.473   0.241  12.363
 1324SOL     OW 4657   0.866   0.454  11.814
 1324SOL    HW1 4658   0.834   0.526  11.752
 1324SOL    HW2 4659   0.890   0.373  11.761
 1325SOL     OW 4660   1.017   0.039  11.925
 1325SOL    HW1 4661   0.945   0.044  11.856
 1325SOL    HW2 4662   0.993  -0.030  11.994
 1326SOL     OW 4663   1.429   1.173  12.039
 1326SOL    HW1 4664   1.374   1.089  12.032
 1326SOL    HW2 4665   1.455   1.202  11.947
 1327SOL     OW 4666   1.466   0.590  12.164
 1327SOL    HW1 4667   1.436   0.495  12.171
 1327SOL    HW2 4668   1.539   0.606  12.230
 1328SOL     OW 4669   1.857   0.833  11.549
 1328SOL    HW1 4670   1.899   0.769  11.613
 1328SOL    HW2 4671   1.819   0.782  11.471
 1329SOL     OW 4672   0.488   1.385  11.346
 1329SOL    HW1 4673   0.401   1.370  11.393
 1329SOL    HW2 4674   0.471   1.411  11.251
 1330SOL     OW 4675   1.664   1.280  11.829
 1330SOL    HW1 4676   1.763   1.288  11.843
 1330SOL    HW2 4677   1.619   1.364  11.860
 1331SOL     OW 4678   1.390   0.575  11.250
 1331SOL    HW1 4679   1.336   0.554  11.331
 1331SOL    HW2 4680   1.481   0.534  11.259
 1332SOL     OW 4681   0.527   0.256  11.500
 1332SOL    HW1 4682   0.554   0.197  11.425
 1332SOL    HW2 4683   0.527   0.351  11.469
 1333SOL     OW 4684   1.754   1.223  12.760
 1333SOL    HW1 4685   1.845   1.184  12.747
 1333SOL    HW2 4686   1.762   1.319  12.784
 1334SOL     OW 4687   1.064   1.347  12.512
 1334SOL    HW1 4688   0.984   1.324  12.567
 1334SOL    HW2 4689   1.147   1.321  12.561
 1335SOL     OW 4690   1.592   1.629  12.797
 1335SOL    HW1 4691   1.619   1.663  12.707
 1335SOL    HW2 4692   1.671   1.591  12.843
 1336SOL     OW 4693   1.111   1.195  12.272
 1336SOL    HW1 4694   1.071   1.239  12.353
 1336SOL    HW2 4695   1.070   1.232  12.189
 1337SOL     OW 4696   1.638   1.099  12.251
 1337SOL    HW1 4697   1.643   1.180  12.310
 1337SOL    HW2 4698   1.552   1.101  12.200
 1338SOL     OW 4699   0.915   0.089  12.574
 1338SOL    HW1 4700   0.940   0.069  12.479
 1338SOL    HW2 4701   0.987   0.145  12.616
 1339SOL     OW 4702   0.980   1.116  12.891
 1339SOL    HW1 4703   0.881   1.122  12.901
 1339SOL    HW2 4704   1.003   1.036  12.835
 1340SOL     OW 4705   0.705   1.050  11.540
 1340SOL    HW1 4706   0.691   1.057  11.639
 1340SOL    HW2 4707   0.789   0.999  11.522
 1341SOL     OW 4708   0.410   0.813  12.423
 1341SOL    HW1 4709   0.496   0.825  12.473
 1341SOL    HW2 4710   0.368   0.726  12.450
 1342SOL     OW 4711   1.274   0.386  12.434
 1342SOL    HW1 4712   1.295   0.460  12.498
 1342SOL    HW2 4713   1.185   0.403  12.391
 1343SOL     OW 4714   0.064   1.564  12.503
 1343SOL    HW1 4715   0.018   1.646  12.469
 1343SOL    HW2 4716   0.162   1.583  12.512
 1344SOL     OW 4717   0.367   1.100  11.673
 1344SOL    HW1 4718   0.360   1.183  11.617
 1344SOL    HW2 4719   0.371   1.020  11.613
 1345SOL     OW 4720   0.566   0.537  12.037
 1345SOL    HW1 4721   0.578   0.603  11.963
 1345SOL    HW2 4722   0.612   0.571  12.120
 1346SOL     OW 4723   1.252   1.348  11.560
 1346SOL    HW1 4724   1.302   1.425  11.600
 1346SOL    HW2 4725   1.157   1.350  11.592
 1347SOL     OW 4726   1.272   1.445  12.314
 1347SOL    HW1 4727   1.319   1.458  12.401
 1347SOL    HW2 4728   1.206   1.371  12.323
 1348SOL     OW 4729   1.582   0.639  11.644
 1348SOL    HW1 4730   1.551   0.700  11.717
 1348SOL    HW2 4731   1.632   0.691  11.575
 1349SOL     OW 4732   0.354   1.510  12.501
 1349SOL    HW1 4733   0.333   1.466  12.414
 1349SOL    HW2 4734   0.451   1.536  12.504
 1350SOL     OW 4735   0.402   0.751  12.770
 1350SOL    HW1 4736   0.470   0.806  12.723
 1350SOL    HW2 4737   0.442   0.663  12.797
 1351SOL     OW 4738   1.587   0.779  12.842
 1351SOL    HW1 4739   1.495   0.817  12.837
 1351SOL    HW2 4740   1.647   0.826  12.777
 1352SOL     OW 4741   1.013   0.105  12.942
 1352SOL    HW1 4742   1.019   0.190  12.890
 1352SOL    HW2 4743   1.045   0.029  12.885
 1353SOL     OW 4744   0.504   0.050  12.912
 1353SOL    HW1 4745   0.462  -0.007  12.842
 1353SOL    HW2 4746   0.438   0.119  12.944
 1354SOL     OW 4747   0.573   0.870  12.201
 1354SOL    HW1 4748   0.617   0.959  12.192
 1354SOL    HW2 4749   0.510   0.870  12.278
 1355SOL     OW 4750   1.360   0.862  12.217
 1355SOL    HW1 4751   1.285   0.862  12.151
 1355SOL    HW2 4752   1.397   0.770  12.226
 1356SOL     OW 4753   1.209   0.525  11.447
 1356SOL    HW1 4754   1.222   0.441  11.501
 1356SOL    HW2 4755   1.180   0.599  11.507
 1357SOL     OW 4756   0.307   0.213  12.403
 1357SOL    HW1 4757   0.284   0.250  12.493
 1357SOL    HW2 4758   0.277   0.118  12.397
 1358SOL     OW 4759   0.037   1.310  12.454
 1358SOL    HW1 4760   0.090   1.261  12.522
 1358SOL    HW2 4761   0.059   1.408  12.459
 1359SOL     OW 4762   0.732   0.634  12.236
 1359SOL    HW1 4763   0.791   0.608  12.160
 1359SOL    HW2 4764   0.704   0.730  12.225
 1360SOL     OW 4765   1.728   0.935  13.026
 1360SOL    HW1 4766   1.682   0.928  12.937
 1360SOL    HW2 4767   1.666   0.979  13.092
 1361SOL     OW 4768   0.307   0.063  11.790
 1361SOL    HW1 4769   0.296   0.157  11.823
 1361SOL    HW2 4770   0.302   0.000  11.867
 1362SOL     OW 4771   1.622   0.367  11.546
 1362SOL    HW1 4772   1.624   0.291  11.610
 1362SOL    HW2 4773   1.574   0.444  11.586
 1363SOL     OW 4774   1.023   0.766  12.138
 1363SOL    HW1 4775   1.038   0.787  12.234
 1363SOL    HW2 4776   0.993   0.671  12.129
 1364SOL     OW 4777   0.980   1.573  12.872
 1364SOL    HW1 4778   0.960   1.617  12.784
 1364SOL    HW2 4779   1.019   1.482  12.856
 1365SOL     OW 4780   1.859   1.518  12.777
 1365SOL    HW1 4781   1.873   1.545  12.682
 1365SOL    HW2 4782   1.942   1.540  12.830
 1366SOL     OW 4783   0.350   0.898  12.976
 1366SOL    HW1 4784   0.426   0.942  13.024
 1366SOL    HW2 4785   0.385   0.851  12.894
 1367SOL     OW 4786   1.540   0.274  11.297
 1367SOL    HW1 4787   1.479   0.199  11.320
 1367SOL    HW2 4788   1.562   0.326  11.380
 1368SOL     OW 4789   1.303   0.838  11.214
 1368SOL    HW1 4790   1.337   0.745  11.229
 1368SOL    HW2 4791   1.321   0.865  11.119
 1369SOL     OW 4792   1.068   1.333  12.021
 1369SOL    HW1 4793   1.075   1.249  11.966
 1369SOL    HW2 4794   1.130   1.402  11.985
 1370SOL     OW 4795   0.319   0.810  12.121
 1370SOL    HW1 4796   0.412   0.846  12.126
 1370SOL    HW2 4797   0.313   0.725  12.173
 1371SOL     OW 4798   0.339   0.509  12.178
 1371SOL    HW1 4799   0.287   0.426  12.161
 1371SOL    HW2 4800   0.416   0.514  12.114
 1372SOL     OW 4801   1.138   0.380  12.850
 1372SOL    HW1 4802   1.093   0.443  12.914
 1372SOL    HW2 4803   1.231   0.411  12.833
 1373SOL     OW 4804   1.160   0.207  12.649
 1373SOL    HW1 4805   1.160   0.271  12.726
 1373SOL    HW2 4806   1.188   0.255  12.566
 1374SOL     OW 4807   0.008   1.326  11.372
 1374SOL    HW1 4808  -0.085   1.347  11.341
 1374SOL    HW2 4809   0.018   1.227  11.385
 1375SOL     OW 4810   0.088   1.801  12.099
 1375SOL    HW1 4811   0.046   1.715  12.072
 1375SOL    HW2 4812   0.182   1.804  12.065
 1376SOL     OW 4813   0.504   1.568  12.082
 1376SOL    HW1 4814   0.570   1.642  12.091
 1376SOL    HW2 4815   0.548   1.489  12.040
 1377SOL     OW 4816   1.002   0.796  12.410
 1377SOL    HW1 4817   1.043   0.764  12.496
 1377SOL    HW2 4818   0.906   0.769  12.407
 1378SOL     OW 4819   0.040   0.544  12.286
 1378SOL    HW1 4820   0.125   0.511  12.245
 1378SOL    HW2 4821   0.053   0.559  12.384
 1379SOL     OW 4822   0.189   0.520  12.894
 1379SOL    HW1 4823   0.248   0.480  12.824
 1379SOL    HW2 4824   0.131   0.591  12.853
 1380SOL     OW 4825   1.369   0.950  12.832
 1380SOL    HW1 4826   1.408   1.039  12.852
 1380SOL    HW2 4827   1.379   0.930  12.735
 1381SOL     OW 4828   0.815   0.572  11.497
 1381SOL    HW1 4829   0.822   0.483  11.451
 1381SOL    HW2 4830   0.721   0.606  11.489
 1382SOL     OW 4831   1.657   0.604  12.378
 1382SOL    HW1 4832   1.619   0.535  12.440
 1382SOL    HW2 4833   1.739   0.568  12.334
 1383SOL     OW 4834   0.252   1.564  12.916
 1383SOL    HW1 4835   0.222   1.621  12.992
 1383SOL    HW2 4836   0.245   1.467  12.942
 1384SOL     OW 4837   0.671   0.464  12.441
 1384SOL    HW1 4838   0.637   0.375  12.411
 1384SOL    HW2 4839   0.697   0.518  12.361
 1385SOL     OW 4840   0.930   1.678  12.637
 1385SOL    HW1 4841   0.906   1.660  12.542
 1385SOL    HW2 4842   0.960   1.772  12.647
 1386SOL     OW 4843   0.473   0.500  11.363
 1386SOL    HW1 4844   0.534   0.580  11.367
 1386SOL    HW2 4845   0.378   0.531  11.370
 1387SOL     OW 4846   0.159   1.137  12.638
 1387SOL    HW1 4847   0.181   1.076  12.714
 1387SOL    HW2 4848   0.169   1.088  12.552
 1388SOL     OW 4849   1.347   1.059  12.406
 1388SOL    HW1 4850   1.371   0.996  12.332
 1388SOL    HW2 4851   1.257   1.099  12.388
 1389SOL     OW 4852   1.302   0.855  11.481
 1389SOL    HW1 4853   1.216   0.824  11.523
 1389SOL    HW2 4854   1.298   0.841  11.382
 1390SOL     OW 4855   1.759   1.747  12.326
 1390SOL    HW1 4856   1.820   1.777  12.253
 1390SOL    HW2 4857   1.721   1.658  12.304
 1391SOL     OW 4858   1.252   1.731  12.300
 1391SOL    HW1 4859   1.336   1.736  12.246
 1391SOL    HW2 4860   1.229   1.635  12.318
 1392SOL     OW 4861   0.083   1.258  12.194
 1392SOL    HW1 4862   0.078   1.257  12.294
 1392SOL    HW2 4863   0.000   1.217  12.156
 1393SOL     OW 4864   0.688   1.662  12.888
 1393SOL    HW1 4865   0.632   1.743  12.897
 1393SOL    HW2 4866   0.740   1.666  12.802
 1394SOL     OW 4867   1.726   0.135  11.695
 1394SOL    HW1 4868   1.799   0.118  11.628
 1394SOL    HW2 4869   1.695   0.048  11.733
 1395SOL     OW 4870   1.388   1.573  11.649
 1395SOL    HW1 4871   1.455   1.585  11.575
 1395SOL    HW2 4872   1.348   1.662  11.672
 1396SOL     OW 4873   0.130   1.794  13.023
 1396SOL    HW1 4874   0.089   1.720  13.076
 1396SOL    HW2 4875   0.194   1.845  13.081
 1397SOL     OW 4876   1.280   0.927  11.844
 1397SOL    HW1 4877   1.340   0.846  11.846
 1397SOL    HW2 4878   1.320   0.996  11.784
 1398SOL     OW 4879   0.830   1.273  12.594
 1398SOL    HW1 4880   0.825   1.306  12.689
 1398SOL    HW2 4881   0.744   1.292  12.548
 1399SOL     OW 4882   0.672   1.616  11.326
 1399SOL    HW1 4883   0.681   1.626  11.227
 1399SOL    HW2 4884   0.632   1.527  11.347
 1400SOL     OW 4885   1.650   1.720  12.566
 1400SOL    HW1 4886   1.703   1.730  12.482
 1400SOL    HW2 4887   1.623   1.810  12.600
 1401SOL     OW 4888   1.841   0.175  12.135
 1401SOL    HW1 4889   1.880   0.090  12.099
 1401SOL    HW2 4890   1.743   0.177  12.116
 1402SOL     OW 4891   0.263   0.326  11.892
 1402SOL    HW1 4892   0.184   0.377  11.858
 1402SOL    HW2 4893   0.254   0.311  11.990
 1403SOL     OW 4894   1.194   1.612  11.203
 1403SOL    HW1 4895   1.200   1.519  11.240
 1403SOL    HW2 4896   1.135   1.612  11.123
 1404SOL     OW 4897   0.822   1.002  12.544
 1404SOL    HW1 4898   0.862   1.001  12.452
 1404SOL    HW2 4899   0.832   1.094  12.584
 1405SOL     OW 4900   0.916   0.910  11.463
 1405SOL    HW1 4901   0.979   0.948  11.395
 1405SOL    HW2 4902   0.956   0.827  11.502
 1406SOL     OW 4903   1.504   1.607  11.216
 1406SOL    HW1 4904   1.412   1.644  11.223
 1406SOL    HW2 4905   1.542   1.627  11.126
 1407SOL     OW 4906   0.372   1.288  12.662
 1407SOL    HW1 4907   0.359   1.381  12.628
 1407SOL    HW2 4908   0.288   1.236  12.649
 1408SOL     OW 4909   1.614   1.292  12.461
 1408SOL    HW1 4910   1.674   1.295  12.541
 1408SOL    HW2 4911   1.539   1.356  12.474
 1409SOL     OW 4912   1.039   1.098  11.868
 1409SOL    HW1 4913   0.969   1.051  11.922
 1409SOL    HW2 4914   1.098   1.030  11.825
 1410SOL     OW 4915   1.014   0.236  12.143
 1410SOL    HW1 4916   1.006   0.200  12.050
 1410SOL    HW2 4917   1.012   0.160  12.208
 1411SOL     OW 4918   0.590   1.487  11.663
 1411SOL    HW1 4919   0.632   1.429  11.593
 1411SOL    HW2 4920   0.546   1.566  11.619
 1412SOL     OW 4921   1.709   0.385  12.553
 1412SOL    HW1 4922   1.782   0.454  12.557
 1412SOL    HW2 4923   1.737   0.310  12.494
 1413SOL     OW 4924   0.255   1.348  11.462
 1413SOL    HW1 4925   0.159   1.349  11.435
 1413SOL    HW2 4926   0.267   1.401  11.546
 1414SOL     OW 4927   0.105   1.013  12.898
 1414SOL    HW1 4928   0.028   0.980  12.952
 1414SOL    HW2 4929   0.190   0.983  12.940
 1415SOL     OW 4930   0.672   0.203  12.661
 1415SOL    HW1 4931   0.762   0.187  12.621
 1415SOL    HW2 4932   0.680   0.208  12.760
 1416SOL     OW 4933   0.075   0.345  11.205
 1416SOL    HW1 4934  -0.017   0.317  11.176
 1416SOL    HW2 4935   0.106   0.422  11.149
 1417SOL     OW 4936   1.440   0.856  12.570
 1417SOL    HW1 4937   1.383   0.908  12.507
 1417SOL    HW2 4938   1.536   0.868  12.546
 1418SOL     OW 4939   0.072   0.166  11.490
 1418SOL    HW1 4940   0.055   0.249  11.436
 1418SOL    HW2 4941   0.162   0.129  11.468
 1419SOL     OW 4942   1.183   1.335  11.291
 1419SOL    HW1 4943   1.084   1.324  11.293
 1419SOL    HW2 4944   1.217   1.350  11.384
 1420SOL     OW 4945   0.613   0.842  12.603
 1420SOL    HW1 4946   0.669   0.923  12.586
 1420SOL    HW2 4947   0.672   0.762  12.606
 1421SOL     OW 4948   1.493   1.767  12.131
 1421SOL    HW1 4949   1.526   1.831  12.062
 1421SOL    HW2 4950   1.559   1.761  12.206
 1422SOL     OW 4951   0.716   0.565  12.880
 1422SOL    HW1 4952   0.735   0.630  12.954
 1422SOL    HW2 4953   0.776   0.485  12.889
 1423SOL     OW 4954   1.450   1.220  12.805
 1423SOL    HW1 4955   1.441   1.210  12.904
 1423SOL    HW2 4956   1.546   1.213  12.779
 1424SOL     OW 4957   0.390   1.741  12.732
 1424SOL    HW1 4958   0.299   1.782  12.730
 1424SOL    HW2 4959   0.383   1.647  12.764
 1425SOL     OW 4960   1.674   0.883  12.426
 1425SOL    HW1 4961   1.647   0.794  12.389
 1425SOL    HW2 4962   1.675   0.951  12.353
 1426SOL     OW 4963   1.225   0.325  11.621
 1426SOL    HW1 4964   1.290   0.251  11.610
 1426SOL    HW2 4965   1.245   0.375  11.705
 1427SOL     OW 4966   0.594   0.745  11.824
 1427SOL    HW1 4967   0.644   0.830  11.805
 1427SOL    HW2 4968   0.506   0.747  11.776
 1428SOL     OW 4969   1.777   0.342  12.814
 1428SOL    HW1 4970   1.760   0.373  12.720
 1428SOL    HW2 4971   1.693   0.305  12.852
 1429SOL     OW 4972   1.730   0.934  12.689
 1429SOL    HW1 4973   1.768   1.025  12.704
 1429SOL    HW2 4974   1.722   0.917  12.590
 1430SOL     OW 4975   0.859   1.374  11.188
 1430SOL    HW1 4976   0.813   1.389  11.276
 1430SOL    HW2 4977   0.903   1.459  11.158
 1431SOL     OW 4978   0.661   1.790  12.125
 1431SOL    HW1 4979   0.615   1.878  12.112
 1431SOL    HW2 4980   0.760   1.802  12.118
 1432SOL     OW 4981   0.859   0.956  12.033
 1432SOL    HW1 4982   0.913   0.887  12.081
 1432SOL    HW2 4983   0.827   1.025  12.099
 1433SOL     OW 4984   1.083   0.984  11.259
 1433SOL    HW1 4985   1.060   1.037  11.177
 1433SOL    HW2 4986   1.164   0.928  11.240
 1434SOL     OW 4987   1.861   1.569  12.023
 1434SOL    HW1 4988   1.790   1.557  11.953
 1434SOL    HW2 4989   1.862   1.490  12.083
 1435SOL     OW 4990   0.221   1.314  13.016
 1435SOL    HW1 4991   0.156   1.241  12.995
 1435SOL    HW2 4992   0.225   1.328  13.114
 1436SOL     OW 4993   0.079   1.240  11.825
 1436SOL    HW1 4994   0.078   1.193  11.913
 1436SOL    HW2 4995   0.161   1.212  11.774
 1437SOL     OW 4996   0.672   1.391  12.796
 1437SOL    HW1 4997   0.594   1.341  12.834
 1437SOL    HW2 4998   0.669   1.486  12.827
 1438SOL     OW 4999   1.824   0.192  12.399
 1438SOL    HW1 5000   1.820   0.102  12.443
 1438SOL    HW2 5001   1.827   0.181  12.300
 1439SOL     OW 5002   0.428   0.424  11.692
 1439SOL    HW1 5003   0.458   0.352  11.630
 1439SOL    HW2 5004   0.389   0.384  11.775
 1440SOL     OW 5005   1.705   1.487  12.276
 1440SOL    HW1 5006   1.612   1.462  12.249
 1440SOL    HW2 5007   1.731   1.437  12.358
 1441SOL     OW 5008   0.317   0.547  12.452
 1441SOL    HW1 5009   0.355   0.488  12.524
 1441SOL    HW2 5010   0.357   0.521  12.364
 1442SOL     OW 5011   0.812   1.586  11.859
 1442SOL    HW1 5012   0.844   1.596  11.765
 1442SOL    HW2 5013   0.733   1.524  11.861
 1443SOL     OW 5014   1.424   0.214  12.284
 1443SOL    HW1 5015   1.476   0.149  12.339
 1443SOL    HW2 5016   1.375   0.277  12.345
 1444SOL     OW 5017   1.001   0.034  12.326
 1444SOL    HW1 5018   0.938  -0.038  12.295
 1444SOL    HW2 5019   1.094  -0.002  12.326
 1445SOL     OW 5020   0.770   1.330  11.473
 1445SOL    HW1 5021   0.724   1.243  11.490
 1445SOL    HW2 5022   0.861   1.327  11.514
 1446SOL     OW 5023   0.618   1.567  12.456
 1446SOL    HW1 5024   0.613   1.649  12.513
 1446SOL    HW2 5025   0.707   1.564  12.411
 1447SOL     OW 5026   1.352   0.052  11.340
 1447SOL    HW1 5027   1.387   0.011  11.256
 1447SOL    HW2 5028   1.262   0.014  11.360
 1448SOL     OW 5029   1.300   0.453  11.863
 1448SOL    HW1 5030   1.241   0.533  11.867
 1448SOL    HW2 5031   1.315   0.418  11.956
 1449SOL     OW 5032   1.593   0.221  12.054
 1449SOL    HW1 5033   1.509   0.220  12.108
 1449SOL    HW2 5034   1.595   0.304  11.998
 1450SOL     OW 5035   0.039   1.077  11.472
 1450SOL    HW1 5036   0.138   1.066  11.463
 1450SOL    HW2 5037  -0.001   0.991  11.504
 1451SOL     OW 5038   0.875   1.646  11.509
 1451SOL    HW1 5039   0.798   1.611  11.455
 1451SOL    HW2 5040   0.843   1.717  11.571
 1452SOL     OW 5041   0.230   0.628  13.147
 1452SOL    HW1 5042   0.137   0.626  13.184
 1452SOL    HW2 5043   0.231   0.589  13.055
 1453SOL     OW 5044   0.225   0.275  14.030
 1453SOL    HW1 5045   0.260   0.258  14.122
 1453SOL    HW2 5046   0.137   0.230  14.018
 1454SOL     OW 5047   0.019   0.368  13.681
 1454SOL    HW1 5048  -0.063   0.411  13.720
 1454SOL    HW2 5049  -0.009   0.295  13.618
 1455SOL     OW 5050   1.555   1.511  13.737
 1455SOL    HW1 5051   1.498   1.495  13.818
 1455SOL    HW2 5052   1.496   1.521  13.657
 1456SOL     OW 5053   1.135   0.703  13.751
 1456SOL    HW1 5054   1.192   0.781  13.726
 1456SOL    HW2 5055   1.075   0.729  13.827
 1457SOL     OW 5056   1.755   0.607  13.265
 1457SOL    HW1 5057   1.743   0.594  13.166
 1457SOL    HW2 5058   1.725   0.526  13.314
 1458SOL     OW 5059   0.685   1.012  13.699
 1458SOL    HW1 5060   0.754   0.996  13.769
 1458SOL    HW2 5061   0.612   1.069  13.737
 1459SOL     OW 5062   1.603   0.447  13.771
 1459SOL    HW1 5063   1.529   0.493  13.721
 1459SOL    HW2 5064   1.654   0.515  13.824
 1460SOL     OW 5065   0.231   1.713  13.517
 1460SOL    HW1 5066   0.265   1.790  13.571
 1460SOL    HW2 5067   0.275   1.713  13.427
 1461SOL     OW 5068   0.230   1.434  13.572
 1461SOL    HW1 5069   0.204   1.530  13.572
 1461SOL    HW2 5070   0.159   1.380  13.617
 1462SOL     OW 5071   0.240   1.091  13.920
 1462SOL    HW1 5072   0.254   1.007  13.972
 1462SOL    HW2 5073   0.185   1.155  13.975
 1463SOL     OW 5074   0.606   0.964  13.157
 1463SOL    HW1 5075   0.613   1.048  13.103
 1463SOL    HW2 5076   0.652   0.977  13.245
 1464SOL     OW 5077   0.122   0.643  13.597
 1464SOL    HW1 5078   0.077   0.555  13.614
 1464SOL    HW2 5079   0.121   0.697  13.681
 1465SOL     OW 5080   0.027   1.596  13.151
 1465SOL    HW1 5081   0.008   1.500  13.172
 1465SOL    HW2 5082  -0.006   1.654  13.226
 1466SOL     OW 5083   1.689   0.922  13.646
 1466SOL    HW1 5084   1.784   0.893  13.654
 1466SOL    HW2 5085   1.681   0.987  13.571
 1467SOL     OW 5086   1.641   1.108  13.466
 1467SOL    HW1 5087   1.727   1.110  13.414
 1467SOL    HW2 5088   1.655   1.155  13.554
 1468SOL     OW 5089   0.613   1.365  13.760
 1468SOL    HW1 5090   0.564   1.278  13.769
 1468SOL    HW2 5091   0.590   1.408  13.673
 1469SOL     OW 5092   0.809   0.004  13.536
 1469SOL    HW1 5093   0.849   0.095  13.527
 1469SOL    HW2 5094   0.709   0.012  13.542
 1470SOL     OW 5095   1.525   0.999  13.224
 1470SOL    HW1 5096   1.462   0.923  13.237
 1470SOL    HW2 5097   1.573   1.017  13.310
 1471SOL     OW 5098   1.667   1.714  13.606
 1471SOL    HW1 5099   1.626   1.691  13.518
 1471SOL    HW2 5100   1.649   1.640  13.671
 1472SOL     OW 5101   0.598   0.729  13.304
 1472SOL    HW1 5102   0.622   0.798  13.236
 1472SOL    HW2 5103   0.520   0.762  13.358
 1473SOL     OW 5104   1.281   0.345  13.978
 1473SOL    HW1 5105   1.195   0.295  13.965
 1473SOL    HW2 5106   1.343   0.291  14.034
 1474SOL     OW 5107   1.576   1.662  13.341
 1474SOL    HW1 5108   1.665   1.708  13.344
 1474SOL    HW2 5109   1.555   1.638  13.246
 1475SOL     OW 5110   1.041   0.701  13.463
 1475SOL    HW1 5111   1.067   0.697  13.559
 1475SOL    HW2 5112   0.956   0.650  13.449
 1476SOL     OW 5113   0.076   0.811  13.823
 1476SOL    HW1 5114   0.175   0.799  13.832
 1476SOL    HW2 5115   0.052   0.906  13.844
 1477SOL     OW 5116   0.865   0.348  13.229
 1477SOL    HW1 5117   0.924   0.411  13.180
 1477SOL    HW2 5118   0.884   0.254  13.200
 1478SOL     OW 5119   1.362   1.144  13.579
 1478SOL    HW1 5120   1.445   1.115  13.531
 1478SOL    HW2 5121   1.313   1.211  13.523
 1479SOL     OW 5122   1.008   1.456  13.511
 1479SOL    HW1 5123   0.962   1.528  13.459
 1479SOL    HW2 5124   1.004   1.476  13.609
 1480SOL     OW 5125   0.351   1.801  13.887
 1480SOL    HW1 5126   0.401   1.715  13.893
 1480SOL    HW2 5127   0.416   1.878  13.884
 1481SOL     OW 5128   1.795   1.066  13.907
 1481SOL    HW1 5129   1.733   1.051  13.831
 1481SOL    HW2 5130   1.743   1.077  13.992
 1482SOL     OW 5131   0.321   0.943  13.276
 1482SOL    HW1 5132   0.403   0.982  13.234
 1482SOL    HW2 5133   0.294   0.861  13.227
 1483SOL     OW 5134   1.458   0.735  13.762
 1483SOL    HW1 5135   1.453   0.670  13.837
 1483SOL    HW2 5136   1.538   0.794  13.775
 1484SOL     OW 5137   1.111   1.776  13.271
 1484SOL    HW1 5138   1.051   1.714  13.321
 1484SOL    HW2 5139   1.142   1.732  13.186
 1485SOL     OW 5140   1.632   1.377  13.115
 1485SOL    HW1 5141   1.600   1.471  13.105
 1485SOL    HW2 5142   1.556   1.314  13.103
 1486SOL     OW 5143   0.464   1.743  13.357
 1486SOL    HW1 5144   0.497   1.782  13.443
 1486SOL    HW2 5145   0.540   1.736  13.292
 1487SOL     OW 5146   1.400   0.107  13.460
 1487SOL    HW1 5147   1.376   0.070  13.370
 1487SOL    HW2 5148   1.499   0.123  13.464
 1488SOL     OW 5149   0.940   1.698  13.938
 1488SOL    HW1 5150   1.020   1.641  13.959
 1488SOL    HW2 5151   0.891   1.658  13.861
 1489SOL     OW 5152   0.382   0.700  13.514
 1489SOL    HW1 5153   0.427   0.610  13.511
 1489SOL    HW2 5154   0.288   0.689  13.547
 1490SOL     OW 5155   0.614   0.122  13.151
 1490SOL    HW1 5156   0.712   0.100  13.158
 1490SOL    HW2 5157   0.583   0.105  13.058
 1491SOL     OW 5158   0.539   0.064  13.546
 1491SOL    HW1 5159   0.458   0.065  13.604
 1491SOL    HW2 5160   0.542   0.147  13.491
 1492SOL     OW 5161   1.434   1.188  13.075
 1492SOL    HW1 5162   1.466   1.112  13.132
 1492SOL    HW2 5163   1.342   1.215  13.105
 1493SOL     OW 5164   0.297   0.035  13.205
 1493SOL    HW1 5165   0.346   0.119  13.184
 1493SOL    HW2 5166   0.359  -0.030  13.250
 1494SOL     OW 5167   0.935   0.236  13.514
 1494SOL    HW1 5168   0.887   0.277  13.436
 1494SOL    HW2 5169   1.034   0.234  13.495
 1495SOL     OW 5170   0.459   1.152  13.775
 1495SOL    HW1 5171   0.388   1.125  13.840
 1495SOL    HW2 5172   0.433   1.124  13.682
 1496SOL     OW 5173   1.271   1.797  13.625
 1496SOL    HW1 5174   1.315   1.861  13.561
 1496SOL    HW2 5175   1.221   1.849  13.695
 1497SOL     OW 5176   1.032   0.549  13.050
 1497SOL    HW1 5177   0.991   0.631  13.011
 1497SOL    HW2 5178   1.096   0.575  13.123
 1498SOL     OW 5179   0.866   0.454  13.676
 1498SOL    HW1 5180   0.834   0.526  13.614
 1498SOL    HW2 5181   0.890   0.373  13.623
 1499SOL     OW 5182   1.017   0.039  13.787
 1499SOL    HW1 5183   0.945   0.044  13.718
 1499SOL    HW2 5184   0.993  -0.030  13.856
 1500SOL     OW 5185   1.857   0.833  13.411
 1500SOL    HW1 5186   1.899   0.769  13.475
 1500SOL    HW2 5187   1.819   0.782  13.333
 1501SOL     OW 5188   0.488   1.385  13.208
 1501SOL    HW1 5189   0.401   1.370  13.255
 1501SOL    HW2 5190   0.471   1.411  13.113
 1502SOL     OW 5191   1.664   1.280  13.691
 1502SOL    HW1 5192   1.763   1.288  13.705
 1502SOL    HW2 5193   1.619   1.364  13.722
 1503SOL     OW 5194   1.390   0.575  13.112
 1503SOL    HW1 5195   1.336   0.554  13.193
 1503SOL    HW2 5196   1.481   0.534  13.121
 1504SOL     OW 5197   0.527   0.256  13.362
 1504SOL    HW1 5198   0.554   0.197  13.287
 1504SOL    HW2 5199   0.527   0.351  13.331
 1505SOL     OW 5200   0.705   1.050  13.402
 1505SOL    HW1 5201   0.691   1.057  13.501
 1505SOL    HW2 5202   0.789   0.999  13.384
 1506SOL     OW 5203   0.367   1.100  13.535
 1506SOL    HW1 5204   0.360   1.183  13.479
 1506SOL    HW2 5205   0.371   1.020  13.475
 1507SOL     OW 5206   0.566   0.537  13.899
 1507SOL    HW1 5207   0.578   0.603  13.825
 1507SOL    HW2 5208   0.612   0.571  13.982
 1508SOL     OW 5209   1.252   1.348  13.422
 1508SOL    HW1 5210   1.302   1.425  13.462
 1508SOL    HW2 5211   1.157   1.350  13.454
 1509SOL     OW 5212   1.582   0.639  13.506
 1509SOL    HW1 5213   1.551   0.700  13.579
 1509SOL    HW2 5214   1.632   0.691  13.437
 1510SOL     OW 5215   1.209   0.525  13.309
 1510SOL    HW1 5216   1.222   0.441  13.363
 1510SOL    HW2 5217   1.180   0.599  13.369
 1511SOL     OW 5218   0.307   0.063  13.652
 1511SOL    HW1 5219   0.296   0.157  13.685
 1511SOL    HW2 5220   0.302   0.000  13.729
 1512SOL     OW 5221   1.622   0.367  13.408
 1512SOL    HW1 5222   1.624   0.291  13.472
 1512SOL    HW2 5223   1.574   0.444  13.448
 1513SOL     OW 5224   1.540   0.274  13.159
 1513SOL    HW1 5225   1.479   0.199  13.182
 1513SOL    HW2 5226   1.562   0.326  13.242
 1514SOL     OW 5227   1.303   0.838  13.076
 1514SOL    HW1 5228   1.337   0.745  13.091
 1514SOL    HW2 5229   1.321   0.865  12.981
 1515SOL     OW 5230   0.008   1.326  13.234
 1515SOL    HW1 5231  -0.085   1.347  13.203
 1515SOL    HW2 5232   0.018   1.227  13.247
 1516SOL     OW 5233   0.815   0.572  13.359
 1516SOL    HW1 5234   0.822   0.483  13.313
 1516SOL    HW2 5235   0.721   0.606  13.351
 1517SOL     OW 5236   0.473   0.500  13.225
 1517SOL    HW1 5237   0.534   0.580  13.229
 1517SOL    HW2 5238   0.378   0.531  13.232
 1518SOL     OW 5239   1.302   0.855  13.343
 1518SOL    HW1 5240   1.216   0.824  13.385
 1518SOL    HW2 5241   1.298   0.841  13.244
 1519SOL     OW 5242   1.726   0.135  13.557
 1519SOL    HW1 5243   1.799   0.118  13.490
 1519SOL    HW2 5244   1.695   0.048  13.595
 1520SOL     OW 5245   1.388   1.573  13.511
 1520SOL    HW1 5246   1.455   1.585  13.437
 1520SOL    HW2 5247   1.348   1.662  13.534
 1521SOL     OW 5248   1.280   0.927  13.706
 1521SOL    HW1 5249   1.340   0.846  13.708
 1521SOL    HW2 5250   1.320   0.996  13.646
 1522SOL     OW 5251   0.672   1.616  13.188
 1522SOL    HW1 5252   0.681   1.626  13.089
 1522SOL    HW2 5253   0.632   1.527  13.209
 1523SOL     OW 5254   1.841   0.175  13.997
 1523SOL    HW1 5255   1.880   0.090  13.961
 1523SOL    HW2 5256   1.743   0.177  13.978
 1524SOL     OW 5257   0.263   0.326  13.754
 1524SOL    HW1 5258   0.184   0.377  13.720
 1524SOL    HW2 5259   0.254   0.311  13.852
 1525SOL     OW 5260   1.194   1.612  13.065
 1525SOL    HW1 5261   1.200   1.519  13.102
 1525SOL    HW2 5262   1.135   1.612  12.985
 1526SOL     OW 5263   0.916   0.910  13.325
 1526SOL    HW1 5264   0.979   0.948  13.257
 1526SOL    HW2 5265   0.956   0.827  13.364
 1527SOL     OW 5266   1.504   1.607  13.078
 1527SOL    HW1 5267   1.412   1.644  13.085
 1527SOL    HW2 5268   1.542   1.627  12.988
 1528SOL     OW 5269   1.039   1.098  13.730
 1528SOL    HW1 5270   0.969   1.051  13.784
 1528SOL    HW2 5271   1.098   1.030  13.687
 1529SOL     OW 5272   0.590   1.487  13.525
 1529SOL    HW1 5273   0.632   1.429  13.455
 1529SOL    HW2 5274   0.546   1.566  13.481
 1530SOL     OW 5275   0.255   1.348  13.324
 1530SOL    HW1 5276   0.159   1.349  13.297
 1530SOL    HW2 5277   0.267   1.401  13.408
 1531SOL     OW 5278   0.075   0.345  13.067
 1531SOL    HW1 5279  -0.017   0.317  13.038
 1531SOL    HW2 5280   0.106   0.422  13.011
 1532SOL     OW 5281   0.072   0.166  13.352
 1532SOL    HW1 5282   0.055   0.249  13.298
 1532SOL    HW2 5283   0.162   0.129  13.330
 1533SOL     OW 5284   1.183   1.335  13.153
 1533SOL    HW1 5285   1.084   1.324  13.155
 1533SOL    HW2 5286   1.217   1.350  13.246
 1534SOL     OW 5287   1.225   0.325  13.483
 1534SOL    HW1 5288   1.290   0.251  13.472
 1534SOL    HW2 5289   1.245   0.375  13.567
 1535SOL     OW 5290   0.594   0.745  13.686
 1535SOL    HW1 5291   0.644   0.830  13.667
 1535SOL    HW2 5292   0.506   0.747  13.638
 1536SOL     OW 5293   0.859   1.374  13.050
 1536SOL    HW1 5294   0.813   1.389  13.138
 1536SOL    HW2 5295   0.903   1.459  13.020
 1537SOL     OW 5296   0.661   1.790  13.987
 1537SOL    HW1 5297   0.615   1.878  13.974
 1537SOL    HW2 5298   0.760   1.802  13.980
 1538SOL     OW 5299   0.859   0.956  13.895
 1538SOL    HW1 5300   0.913   0.887  13.943
 1538SOL    HW2 5301   0.827   1.025  13.961
 1539SOL     OW 5302   1.083   0.984  13.121
 1539SOL    HW1 5303   1.060   1.037  13.039
 1539SOL    HW2 5304   1.164   0.928  13.102
 1540SOL     OW 5305   0.079   1.240  13.687
 1540SOL    HW1 5306   0.078   1.193  13.775
 1540SOL    HW2 5307   0.161   1.212  13.636
 1541SOL     OW 5308   0.428   0.424  13.554
 1541SOL    HW1 5309   0.458   0.352  13.492
 1541SOL    HW2 5310   0.389   0.384  13.637
 1542SOL     OW 5311   1.705   1.487  14.138
 1542SOL    HW1 5312   1.612   1.462  14.111
 1542SOL    HW2 5313   1.731   1.437  14.220
 1543SOL     OW 5314   0.812   1.586  13.721
 1543SOL    HW1 5315   0.844   1.596  13.627
 1543SOL    HW2 5316   0.733   1.524  13.723
 1544SOL     OW 5317   0.770   1.330  13.335
 1544SOL    HW1 5318   0.724   1.243  13.352
 1544SOL    HW2 5319   0.861   1.327  13.376
 1545SOL     OW 5320   1.352   0.052  13.202
 1545SOL    HW1 5321   1.387   0.011  13.118
 1545SOL    HW2 5322   1.262   0.014  13.222
 1546SOL     OW 5323   1.300   0.453  13.725
 1546SOL    HW1 5324   1.241   0.533  13.729
 1546SOL    HW2 5325   1.315   0.418  13.818
 1547SOL     OW 5326   0.039   1.077  13.334
 1547SOL    HW1 5327   0.138   1.066  13.325
 1547SOL    HW2 5328  -0.001   0.991  13.366
 1548SOL     OW 5329   0.875   1.646  13.371
 1548SOL    HW1 5330   0.798   1.611  13.317
 1548SOL    HW2 5331   0.843   1.717  13.433
 1549SOL     OW 5332   0.230   2.490   0.113
 1549SOL    HW1 5333   0.137   2.488   0.150
 1549SOL    HW2 5334   0.231   2.451   0.021
 1550SOL     OW 5335   0.225   2.137   0.996
 1550SOL    HW1 5336   0.260   2.120   1.088
 1550SOL    HW2 5337   0.137   2.092   0.984
 1551SOL     OW 5338   0.019   2.230   0.647
 1551SOL    HW1 5339  -0.063   2.273   0.686
 1551SOL    HW2 5340  -0.009   2.157   0.584
 1552SOL     OW 5341   0.569   3.137   1.165
 1552SOL    HW1 5342   0.476   3.130   1.128
 1552SOL    HW2 5343   0.580   3.226   1.209
 1553SOL     OW 5344   1.555   3.373   0.703
 1553SOL    HW1 5345   1.498   3.357   0.784
 1553SOL    HW2 5346   1.496   3.383   0.623
 1554SOL     OW 5347   1.135   2.565   0.717
 1554SOL    HW1 5348   1.192   2.643   0.692
 1554SOL    HW2 5349   1.075   2.591   0.793
 1555SOL     OW 5350   1.755   2.469   0.231
 1555SOL    HW1 5351   1.743   2.456   0.132
 1555SOL    HW2 5352   1.725   2.388   0.280
 1556SOL     OW 5353   0.768   3.006   1.023
 1556SOL    HW1 5354   0.690   3.023   1.083
 1556SOL    HW2 5355   0.802   3.093   0.987
 1557SOL     OW 5356   0.850   2.660   1.823
 1557SOL    HW1 5357   0.846   2.736   1.888
 1557SOL    HW2 5358   0.872   2.696   1.732
 1558SOL     OW 5359   0.685   2.874   0.665
 1558SOL    HW1 5360   0.754   2.858   0.735
 1558SOL    HW2 5361   0.612   2.931   0.703
 1559SOL     OW 5362   0.686   3.023   1.803
 1559SOL    HW1 5363   0.746   3.102   1.817
 1559SOL    HW2 5364   0.600   3.054   1.762
 1560SOL     OW 5365   0.335   3.297   1.061
 1560SOL    HW1 5366   0.257   3.266   1.008
 1560SOL    HW2 5367   0.393   3.355   1.004
 1561SOL     OW 5368   1.460   3.367   1.339
 1561SOL    HW1 5369   1.484   3.461   1.365
 1561SOL    HW2 5370   1.444   3.313   1.421
 1562SOL     OW 5371   0.438   2.254   1.499
 1562SOL    HW1 5372   0.520   2.198   1.508
 1562SOL    HW2 5373   0.357   2.196   1.503
 1563SOL     OW 5374   1.603   2.309   0.737
 1563SOL    HW1 5375   1.529   2.355   0.687
 1563SOL    HW2 5376   1.654   2.377   0.790
 1564SOL     OW 5377   0.231   3.575   0.483
 1564SOL    HW1 5378   0.265   3.652   0.537
 1564SOL    HW2 5379   0.275   3.575   0.393
 1565SOL     OW 5380   1.127   3.203   1.690
 1565SOL    HW1 5381   1.174   3.203   1.778
 1565SOL    HW2 5382   1.079   3.116   1.679
 1566SOL     OW 5383   0.230   3.296   0.538
 1566SOL    HW1 5384   0.204   3.392   0.538
 1566SOL    HW2 5385   0.159   3.242   0.583
 1567SOL     OW 5386   0.240   2.953   0.886
 1567SOL    HW1 5387   0.254   2.869   0.938
 1567SOL    HW2 5388   0.185   3.017   0.941
 1568SOL     OW 5389   0.620   3.648   1.439
 1568SOL    HW1 5390   0.528   3.631   1.474
 1568SOL    HW2 5391   0.648   3.740   1.465
 1569SOL     OW 5392   0.606   2.826   0.123
 1569SOL    HW1 5393   0.613   2.910   0.069
 1569SOL    HW2 5394   0.652   2.839   0.211
 1570SOL     OW 5395   1.594   1.976   1.480
 1570SOL    HW1 5396   1.576   2.043   1.408
 1570SOL    HW2 5397   1.591   2.022   1.569
 1571SOL     OW 5398   0.122   2.505   0.563
 1571SOL    HW1 5399   0.077   2.417   0.580
 1571SOL    HW2 5400   0.121   2.559   0.647
 1572SOL     OW 5401   1.842   3.629   0.359
 1572SOL    HW1 5402   1.896   3.600   0.439
 1572SOL    HW2 5403   1.872   3.719   0.330
 1573SOL     OW 5404   0.027   3.458   0.117
 1573SOL    HW1 5405   0.008   3.362   0.138
 1573SOL    HW2 5406  -0.006   3.516   0.192
 1574SOL     OW 5407   1.689   2.784   0.612
 1574SOL    HW1 5408   1.784   2.755   0.620
 1574SOL    HW2 5409   1.681   2.849   0.537
 1575SOL     OW 5410   1.641   2.970   0.432
 1575SOL    HW1 5411   1.727   2.972   0.380
 1575SOL    HW2 5412   1.655   3.017   0.520
 1576SOL     OW 5413   0.113   2.599   1.597
 1576SOL    HW1 5414   0.201   2.586   1.642
 1576SOL    HW2 5415   0.100   2.696   1.575
 1577SOL     OW 5416   0.613   3.227   0.726
 1577SOL    HW1 5417   0.564   3.140   0.735
 1577SOL    HW2 5418   0.590   3.270   0.639
 1578SOL     OW 5419   1.293   3.090   1.423
 1578SOL    HW1 5420   1.330   3.017   1.365
 1578SOL    HW2 5421   1.345   3.095   1.508
 1579SOL     OW 5422   0.809   1.866   0.502
 1579SOL    HW1 5423   0.849   1.957   0.493
 1579SOL    HW2 5424   0.709   1.874   0.508
 1580SOL     OW 5425   0.197   2.838   1.264
 1580SOL    HW1 5426   0.286   2.793   1.250
 1580SOL    HW2 5427   0.124   2.773   1.245
 1581SOL     OW 5428   1.525   2.861   0.190
 1581SOL    HW1 5429   1.462   2.785   0.203
 1581SOL    HW2 5430   1.573   2.879   0.276
 1582SOL     OW 5431   1.187   3.654   1.616
 1582SOL    HW1 5432   1.211   3.714   1.540
 1582SOL    HW2 5433   1.194   3.559   1.586
 1583SOL     OW 5434   0.317   2.113   1.801
 1583SOL    HW1 5435   0.388   2.184   1.807
 1583SOL    HW2 5436   0.229   2.152   1.829
 1584SOL     OW 5437   1.466   3.279   0.953
 1584SOL    HW1 5438   1.407   3.285   1.033
 1584SOL    HW2 5439   1.451   3.191   0.907
 1585SOL     OW 5440   1.667   3.576   0.572
 1585SOL    HW1 5441   1.626   3.553   0.484
 1585SOL    HW2 5442   1.649   3.502   0.637
 1586SOL     OW 5443   0.598   2.591   0.270
 1586SOL    HW1 5444   0.622   2.660   0.202
 1586SOL    HW2 5445   0.520   2.624   0.324
 1587SOL     OW 5446   1.281   2.207   0.944
 1587SOL    HW1 5447   1.195   2.157   0.931
 1587SOL    HW2 5448   1.343   2.153   1.000
 1588SOL     OW 5449   1.576   3.524   0.307
 1588SOL    HW1 5450   1.665   3.570   0.310
 1588SOL    HW2 5451   1.555   3.500   0.212
 1589SOL     OW 5452   0.807   2.467   1.465
 1589SOL    HW1 5453   0.760   2.464   1.554
 1589SOL    HW2 5454   0.756   2.412   1.399
 1590SOL     OW 5455   1.394   2.331   1.674
 1590SOL    HW1 5456   1.374   2.374   1.762
 1590SOL    HW2 5457   1.472   2.269   1.683
 1591SOL     OW 5458   0.973   2.752   1.572
 1591SOL    HW1 5459   1.019   2.668   1.543
 1591SOL    HW2 5460   0.917   2.786   1.497
 1592SOL     OW 5461   0.991   2.272   1.242
 1592SOL    HW1 5462   0.914   2.306   1.296
 1592SOL    HW2 5463   0.957   2.221   1.163
 1593SOL     OW 5464   1.041   2.563   0.429
 1593SOL    HW1 5465   1.067   2.559   0.525
 1593SOL    HW2 5466   0.956   2.512   0.415
 1594SOL     OW 5467   0.076   2.673   0.789
 1594SOL    HW1 5468   0.175   2.661   0.798
 1594SOL    HW2 5469   0.052   2.768   0.810
 1595SOL     OW 5470   0.130   3.683   1.571
 1595SOL    HW1 5471   0.120   3.668   1.670
 1595SOL    HW2 5472   0.044   3.719   1.535
 1596SOL     OW 5473   0.865   2.210   0.195
 1596SOL    HW1 5474   0.924   2.273   0.146
 1596SOL    HW2 5475   0.884   2.116   0.166
 1597SOL     OW 5476   1.719   2.447   1.831
 1597SOL    HW1 5477   1.693   2.536   1.795
 1597SOL    HW2 5478   1.717   2.379   1.758
 1598SOL     OW 5479   1.362   3.006   0.545
 1598SOL    HW1 5480   1.445   2.977   0.497
 1598SOL    HW2 5481   1.313   3.073   0.489
 1599SOL     OW 5482   0.550   2.058   0.885
 1599SOL    HW1 5483   0.545   2.053   0.985
 1599SOL    HW2 5484   0.552   2.154   0.856
 1600SOL     OW 5485   1.008   3.318   0.477
 1600SOL    HW1 5486   0.962   3.390   0.425
 1600SOL    HW2 5487   1.004   3.338   0.575
 1601SOL     OW 5488   0.351   3.663   0.853
 1601SOL    HW1 5489   0.401   3.577   0.859
 1601SOL    HW2 5490   0.416   3.740   0.850
 1602SOL     OW 5491   1.795   2.928   0.873
 1602SOL    HW1 5492   1.733   2.913   0.797
 1602SOL    HW2 5493   1.743   2.939   0.958
 1603SOL     OW 5494   1.227   3.412   1.506
 1603SOL    HW1 5495   1.233   3.335   1.570
 1603SOL    HW2 5496   1.175   3.386   1.426
 1604SOL     OW 5497   0.321   2.805   0.242
 1604SOL    HW1 5498   0.403   2.844   0.200
 1604SOL    HW2 5499   0.294   2.723   0.193
 1605SOL     OW 5500   1.458   2.597   0.728
 1605SOL    HW1 5501   1.453   2.532   0.803
 1605SOL    HW2 5502   1.538   2.656   0.741
 1606SOL     OW 5503   0.461   3.128   1.727
 1606SOL    HW1 5504   0.411   3.129   1.641
 1606SOL    HW2 5505   0.398   3.110   1.803
 1607SOL     OW 5506   1.111   3.638   0.237
 1607SOL    HW1 5507   1.051   3.576   0.287
 1607SOL    HW2 5508   1.142   3.594   0.152
 1608SOL     OW 5509   0.202   2.147   1.498
 1608SOL    HW1 5510   0.122   2.207   1.485
 1608SOL    HW2 5511   0.192   2.098   1.584
 1609SOL     OW 5512   1.632   3.239   0.081
 1609SOL    HW1 5513   1.600   3.333   0.071
 1609SOL    HW2 5514   1.556   3.176   0.069
 1610SOL     OW 5515   0.464   3.605   0.323
 1610SOL    HW1 5516   0.497   3.644   0.409
 1610SOL    HW2 5517   0.540   3.598   0.258
 1611SOL     OW 5518   1.400   1.969   0.426
 1611SOL    HW1 5519   1.376   1.932   0.336
 1611SOL    HW2 5520   1.499   1.985   0.430
 1612SOL     OW 5521   0.249   3.647   1.241
 1612SOL    HW1 5522   0.306   3.582   1.291
 1612SOL    HW2 5523   0.233   3.614   1.148
 1613SOL     OW 5524   0.940   3.560   0.904
 1613SOL    HW1 5525   1.020   3.503   0.925
 1613SOL    HW2 5526   0.891   3.520   0.827
 1614SOL     OW 5527   0.382   2.562   0.480
 1614SOL    HW1 5528   0.427   2.472   0.477
 1614SOL    HW2 5529   0.288   2.551   0.513
 1615SOL     OW 5530   1.547   2.084   1.729
 1615SOL    HW1 5531   1.542   2.121   1.821
 1615SOL    HW2 5532   1.475   2.015   1.717
 1616SOL     OW 5533   0.781   2.126   1.749
 1616SOL    HW1 5534   0.848   2.065   1.792
 1616SOL    HW2 5535   0.708   2.145   1.814
 1617SOL     OW 5536   0.888   3.376   1.195
 1617SOL    HW1 5537   0.865   3.351   1.101
 1617SOL    HW2 5538   0.949   3.307   1.234
 1618SOL     OW 5539   1.351   2.452   1.433
 1618SOL    HW1 5540   1.379   2.409   1.518
 1618SOL    HW2 5541   1.376   2.548   1.434
 1619SOL     OW 5542   0.803   3.264   0.924
 1619SOL    HW1 5543   0.893   3.278   0.882
 1619SOL    HW2 5544   0.732   3.266   0.853
 1620SOL     OW 5545   0.922   2.365   0.899
 1620SOL    HW1 5546   0.897   2.356   0.803
 1620SOL    HW2 5547   0.970   2.283   0.930
 1621SOL     OW 5548   0.539   1.926   0.512
 1621SOL    HW1 5549   0.458   1.927   0.570
 1621SOL    HW2 5550   0.542   2.009   0.457
 1622SOL     OW 5551   1.434   3.050   0.041
 1622SOL    HW1 5552   1.466   2.974   0.098
 1622SOL    HW2 5553   1.342   3.077   0.071
 1623SOL     OW 5554   0.297   1.897   0.171
 1623SOL    HW1 5555   0.346   1.981   0.150
 1623SOL    HW2 5556   0.359   1.832   0.216
 1624SOL     OW 5557   0.935   2.098   0.480
 1624SOL    HW1 5558   0.887   2.139   0.402
 1624SOL    HW2 5559   1.034   2.096   0.461
 1625SOL     OW 5560   1.076   2.545   1.464
 1625SOL    HW1 5561   0.996   2.484   1.467
 1625SOL    HW2 5562   1.157   2.492   1.440
 1626SOL     OW 5563   1.227   3.432   0.793
 1626SOL    HW1 5564   1.248   3.506   0.728
 1626SOL    HW2 5565   1.295   3.432   0.866
 1627SOL     OW 5566   0.459   3.014   0.741
 1627SOL    HW1 5567   0.388   2.987   0.806
 1627SOL    HW2 5568   0.433   2.986   0.648
 1628SOL     OW 5569   1.271   3.659   0.591
 1628SOL    HW1 5570   1.315   3.723   0.527
 1628SOL    HW2 5571   1.221   3.711   0.661
 1629SOL     OW 5572   1.032   2.411   0.016
 1629SOL    HW1 5573   0.991   2.493  -0.023
 1629SOL    HW2 5574   1.096   2.437   0.089
 1630SOL     OW 5575   0.078   2.418   1.386
 1630SOL    HW1 5576   0.170   2.417   1.345
 1630SOL    HW2 5577   0.072   2.492   1.453
 1631SOL     OW 5578   0.561   2.084   1.147
 1631SOL    HW1 5579   0.599   2.000   1.184
 1631SOL    HW2 5580   0.473   2.103   1.191
 1632SOL     OW 5581   0.866   2.316   0.642
 1632SOL    HW1 5582   0.834   2.388   0.580
 1632SOL    HW2 5583   0.890   2.235   0.589
 1633SOL     OW 5584   1.017   1.901   0.753
 1633SOL    HW1 5585   0.945   1.906   0.684
 1633SOL    HW2 5586   0.993   1.832   0.822
 1634SOL     OW 5587   1.429   3.035   0.867
 1634SOL    HW1 5588   1.374   2.951   0.860
 1634SOL    HW2 5589   1.455   3.064   0.775
 1635SOL     OW 5590   1.466   2.452   0.992
 1635SOL    HW1 5591   1.436   2.357   0.999
 1635SOL    HW2 5592   1.539   2.468   1.058
 1636SOL     OW 5593   1.857   2.695   0.377
 1636SOL    HW1 5594   1.899   2.631   0.441
 1636SOL    HW2 5595   1.819   2.644   0.299
 1637SOL     OW 5596   0.488   3.247   0.174
 1637SOL    HW1 5597   0.401   3.232   0.221
 1637SOL    HW2 5598   0.471   3.273   0.079
 1638SOL     OW 5599   1.664   3.142   0.657
 1638SOL    HW1 5600   1.763   3.150   0.671
 1638SOL    HW2 5601   1.619   3.226   0.688
 1639SOL     OW 5602   1.390   2.437   0.078
 1639SOL    HW1 5603   1.336   2.416   0.159
 1639SOL    HW2 5604   1.481   2.396   0.087
 1640SOL     OW 5605   0.527   2.118   0.328
 1640SOL    HW1 5606   0.554   2.059   0.253
 1640SOL    HW2 5607   0.527   2.213   0.297
 1641SOL     OW 5608   1.754   3.085   1.588
 1641SOL    HW1 5609   1.845   3.046   1.575
 1641SOL    HW2 5610   1.762   3.181   1.612
 1642SOL     OW 5611   1.064   3.209   1.340
 1642SOL    HW1 5612   0.984   3.186   1.395
 1642SOL    HW2 5613   1.147   3.183   1.389
 1643SOL     OW 5614   1.592   3.491   1.625
 1643SOL    HW1 5615   1.619   3.525   1.535
 1643SOL    HW2 5616   1.671   3.453   1.671
 1644SOL     OW 5617   1.111   3.057   1.100
 1644SOL    HW1 5618   1.071   3.101   1.181
 1644SOL    HW2 5619   1.070   3.094   1.017
 1645SOL     OW 5620   1.638   2.961   1.079
 1645SOL    HW1 5621   1.643   3.042   1.138
 1645SOL    HW2 5622   1.552   2.963   1.028
 1646SOL     OW 5623   0.915   1.951   1.402
 1646SOL    HW1 5624   0.940   1.931   1.307
 1646SOL    HW2 5625   0.987   2.007   1.444
 1647SOL     OW 5626   0.980   2.978   1.719
 1647SOL    HW1 5627   0.881   2.984   1.729
 1647SOL    HW2 5628   1.003   2.898   1.663
 1648SOL     OW 5629   0.705   2.912   0.368
 1648SOL    HW1 5630   0.691   2.919   0.467
 1648SOL    HW2 5631   0.789   2.861   0.350
 1649SOL     OW 5632   0.410   2.675   1.251
 1649SOL    HW1 5633   0.496   2.687   1.301
 1649SOL    HW2 5634   0.368   2.588   1.278
 1650SOL     OW 5635   1.274   2.248   1.262
 1650SOL    HW1 5636   1.295   2.322   1.326
 1650SOL    HW2 5637   1.185   2.265   1.219
 1651SOL     OW 5638   0.064   3.426   1.331
 1651SOL    HW1 5639   0.018   3.508   1.297
 1651SOL    HW2 5640   0.162   3.445   1.340
 1652SOL     OW 5641   0.367   2.962   0.501
 1652SOL    HW1 5642   0.360   3.045   0.445
 1652SOL    HW2 5643   0.371   2.882   0.441
 1653SOL     OW 5644   0.566   2.399   0.865
 1653SOL    HW1 5645   0.578   2.465   0.791
 1653SOL    HW2 5646   0.612   2.433   0.948
 1654SOL     OW 5647   1.252   3.210   0.388
 1654SOL    HW1 5648   1.302   3.287   0.428
 1654SOL    HW2 5649   1.157   3.212   0.420
 1655SOL     OW 5650   1.272   3.307   1.142
 1655SOL    HW1 5651   1.319   3.320   1.229
 1655SOL    HW2 5652   1.206   3.233   1.151
 1656SOL     OW 5653   1.582   2.501   0.472
 1656SOL    HW1 5654   1.551   2.562   0.545
 1656SOL    HW2 5655   1.632   2.553   0.403
 1657SOL     OW 5656   0.354   3.372   1.329
 1657SOL    HW1 5657   0.333   3.328   1.242
 1657SOL    HW2 5658   0.451   3.398   1.332
 1658SOL     OW 5659   0.402   2.613   1.598
 1658SOL    HW1 5660   0.470   2.668   1.551
 1658SOL    HW2 5661   0.442   2.525   1.625
 1659SOL     OW 5662   1.587   2.641   1.670
 1659SOL    HW1 5663   1.495   2.679   1.665
 1659SOL    HW2 5664   1.647   2.688   1.605
 1660SOL     OW 5665   1.013   1.967   1.770
 1660SOL    HW1 5666   1.019   2.052   1.718
 1660SOL    HW2 5667   1.045   1.891   1.713
 1661SOL     OW 5668   0.504   1.912   1.740
 1661SOL    HW1 5669   0.462   1.855   1.670
 1661SOL    HW2 5670   0.438   1.981   1.772
 1662SOL     OW 5671   0.573   2.732   1.029
 1662SOL    HW1 5672   0.617   2.821   1.020
 1662SOL    HW2 5673   0.510   2.732   1.106
 1663SOL     OW 5674   1.360   2.724   1.045
 1663SOL    HW1 5675   1.285   2.724   0.979
 1663SOL    HW2 5676   1.397   2.632   1.054
 1664SOL     OW 5677   1.209   2.387   0.275
 1664SOL    HW1 5678   1.222   2.303   0.329
 1664SOL    HW2 5679   1.180   2.461   0.335
 1665SOL     OW 5680   0.307   2.075   1.231
 1665SOL    HW1 5681   0.284   2.112   1.321
 1665SOL    HW2 5682   0.277   1.980   1.225
 1666SOL     OW 5683   0.037   3.172   1.282
 1666SOL    HW1 5684   0.090   3.123   1.350
 1666SOL    HW2 5685   0.059   3.270   1.287
 1667SOL     OW 5686   0.732   2.496   1.064
 1667SOL    HW1 5687   0.791   2.470   0.988
 1667SOL    HW2 5688   0.704   2.592   1.053
 1668SOL     OW 5689   1.728   2.797   1.854
 1668SOL    HW1 5690   1.682   2.790   1.765
 1668SOL    HW2 5691   1.666   2.841   1.920
 1669SOL     OW 5692   0.307   1.925   0.618
 1669SOL    HW1 5693   0.296   2.019   0.651
 1669SOL    HW2 5694   0.302   1.862   0.695
 1670SOL     OW 5695   1.622   2.229   0.374
 1670SOL    HW1 5696   1.624   2.153   0.438
 1670SOL    HW2 5697   1.574   2.306   0.414
 1671SOL     OW 5698   1.023   2.628   0.966
 1671SOL    HW1 5699   1.038   2.649   1.062
 1671SOL    HW2 5700   0.993   2.533   0.957
 1672SOL     OW 5701   0.980   3.435   1.700
 1672SOL    HW1 5702   0.960   3.479   1.612
 1672SOL    HW2 5703   1.019   3.344   1.684
 1673SOL     OW 5704   1.859   3.380   1.605
 1673SOL    HW1 5705   1.873   3.407   1.510
 1673SOL    HW2 5706   1.942   3.402   1.658
 1674SOL     OW 5707   0.350   2.760   1.804
 1674SOL    HW1 5708   0.426   2.804   1.852
 1674SOL    HW2 5709   0.385   2.713   1.722
 1675SOL     OW 5710   1.540   2.136   0.125
 1675SOL    HW1 5711   1.479   2.061   0.148
 1675SOL    HW2 5712   1.562   2.188   0.208
 1676SOL     OW 5713   1.303   2.700   0.042
 1676SOL    HW1 5714   1.337   2.607   0.057
 1676SOL    HW2 5715   1.321   2.727  -0.053
 1677SOL     OW 5716   1.068   3.195   0.849
 1677SOL    HW1 5717   1.075   3.111   0.794
 1677SOL    HW2 5718   1.130   3.264   0.813
 1678SOL     OW 5719   0.319   2.672   0.949
 1678SOL    HW1 5720   0.412   2.708   0.954
 1678SOL    HW2 5721   0.313   2.587   1.001
 1679SOL     OW 5722   0.339   2.371   1.006
 1679SOL    HW1 5723   0.287   2.288   0.989
 1679SOL    HW2 5724   0.416   2.376   0.942
 1680SOL     OW 5725   1.138   2.242   1.678
 1680SOL    HW1 5726   1.093   2.305   1.742
 1680SOL    HW2 5727   1.231   2.273   1.661
 1681SOL     OW 5728   1.160   2.069   1.477
 1681SOL    HW1 5729   1.160   2.133   1.554
 1681SOL    HW2 5730   1.188   2.117   1.394
 1682SOL     OW 5731   0.008   3.188   0.200
 1682SOL    HW1 5732  -0.085   3.209   0.169
 1682SOL    HW2 5733   0.018   3.089   0.213
 1683SOL     OW 5734   0.088   3.663   0.927
 1683SOL    HW1 5735   0.046   3.577   0.900
 1683SOL    HW2 5736   0.182   3.666   0.893
 1684SOL     OW 5737   0.504   3.430   0.910
 1684SOL    HW1 5738   0.570   3.504   0.919
 1684SOL    HW2 5739   0.548   3.351   0.868
 1685SOL     OW 5740   1.002   2.658   1.238
 1685SOL    HW1 5741   1.043   2.626   1.324
 1685SOL    HW2 5742   0.906   2.631   1.235
 1686SOL     OW 5743   0.040   2.406   1.114
 1686SOL    HW1 5744   0.125   2.373   1.073
 1686SOL    HW2 5745   0.053   2.421   1.212
 1687SOL     OW 5746   0.189   2.382   1.722
 1687SOL    HW1 5747   0.248   2.342   1.652
 1687SOL    HW2 5748   0.131   2.453   1.681
 1688SOL     OW 5749   1.369   2.812   1.660
 1688SOL    HW1 5750   1.408   2.901   1.680
 1688SOL    HW2 5751   1.379   2.792   1.563
 1689SOL     OW 5752   0.815   2.434   0.325
 1689SOL    HW1 5753   0.822   2.345   0.279
 1689SOL    HW2 5754   0.721   2.468   0.317
 1690SOL     OW 5755   1.657   2.466   1.206
 1690SOL    HW1 5756   1.619   2.397   1.268
 1690SOL    HW2 5757   1.739   2.430   1.162
 1691SOL     OW 5758   0.252   3.426   1.744
 1691SOL    HW1 5759   0.222   3.483   1.820
 1691SOL    HW2 5760   0.245   3.329   1.770
 1692SOL     OW 5761   0.671   2.326   1.269
 1692SOL    HW1 5762   0.637   2.237   1.239
 1692SOL    HW2 5763   0.697   2.380   1.189
 1693SOL     OW 5764   0.930   3.540   1.465
 1693SOL    HW1 5765   0.906   3.522   1.370
 1693SOL    HW2 5766   0.960   3.634   1.475
 1694SOL     OW 5767   0.473   2.362   0.191
 1694SOL    HW1 5768   0.534   2.442   0.195
 1694SOL    HW2 5769   0.378   2.393   0.198
 1695SOL     OW 5770   0.159   2.999   1.466
 1695SOL    HW1 5771   0.181   2.938   1.542
 1695SOL    HW2 5772   0.169   2.950   1.380
 1696SOL     OW 5773   1.347   2.921   1.234
 1696SOL    HW1 5774   1.371   2.858   1.160
 1696SOL    HW2 5775   1.257   2.961   1.216
 1697SOL     OW 5776   1.302   2.717   0.309
 1697SOL    HW1 5777   1.216   2.686   0.351
 1697SOL    HW2 5778   1.298   2.703   0.210
 1698SOL     OW 5779   1.759   3.609   1.154
 1698SOL    HW1 5780   1.820   3.639   1.081
 1698SOL    HW2 5781   1.721   3.520   1.132
 1699SOL     OW 5782   1.252   3.593   1.128
 1699SOL    HW1 5783   1.336   3.598   1.074
 1699SOL    HW2 5784   1.229   3.497   1.146
 1700SOL     OW 5785   0.083   3.120   1.022
 1700SOL    HW1 5786   0.078   3.119   1.122
 1700SOL    HW2 5787   0.000   3.079   0.984
 1701SOL     OW 5788   0.688   3.524   1.716
 1701SOL    HW1 5789   0.632   3.605   1.725
 1701SOL    HW2 5790   0.740   3.528   1.630
 1702SOL     OW 5791   0.903   1.948   0.133
 1702SOL    HW1 5792   0.954   1.949   0.047
 1702SOL    HW2 5793   0.959   1.906   0.204
 1703SOL     OW 5794   1.388   3.435   0.477
 1703SOL    HW1 5795   1.455   3.447   0.403
 1703SOL    HW2 5796   1.348   3.524   0.500
 1704SOL     OW 5797   0.130   3.656   1.851
 1704SOL    HW1 5798   0.089   3.582   1.904
 1704SOL    HW2 5799   0.194   3.707   1.909
 1705SOL     OW 5800   1.280   2.789   0.672
 1705SOL    HW1 5801   1.340   2.708   0.674
 1705SOL    HW2 5802   1.320   2.858   0.612
 1706SOL     OW 5803   0.830   3.135   1.422
 1706SOL    HW1 5804   0.825   3.168   1.517
 1706SOL    HW2 5805   0.744   3.154   1.376
 1707SOL     OW 5806   0.672   3.478   0.154
 1707SOL    HW1 5807   0.681   3.488   0.055
 1707SOL    HW2 5808   0.632   3.389   0.175
 1708SOL     OW 5809   1.650   3.582   1.394
 1708SOL    HW1 5810   1.703   3.592   1.310
 1708SOL    HW2 5811   1.623   3.672   1.428
 1709SOL     OW 5812   0.263   2.188   0.720
 1709SOL    HW1 5813   0.184   2.239   0.686
 1709SOL    HW2 5814   0.254   2.173   0.818
 1710SOL     OW 5815   1.194   3.474   0.031
 1710SOL    HW1 5816   1.200   3.381   0.068
 1710SOL    HW2 5817   1.135   3.474  -0.049
 1711SOL     OW 5818   0.822   2.864   1.372
 1711SOL    HW1 5819   0.862   2.863   1.280
 1711SOL    HW2 5820   0.832   2.956   1.412
 1712SOL     OW 5821   0.916   2.772   0.291
 1712SOL    HW1 5822   0.979   2.810   0.223
 1712SOL    HW2 5823   0.956   2.689   0.330
 1713SOL     OW 5824   1.504   3.469   0.044
 1713SOL    HW1 5825   1.412   3.506   0.051
 1713SOL    HW2 5826   1.542   3.489  -0.046
 1714SOL     OW 5827   0.372   3.150   1.490
 1714SOL    HW1 5828   0.359   3.243   1.456
 1714SOL    HW2 5829   0.288   3.098   1.477
 1715SOL     OW 5830   1.614   3.154   1.289
 1715SOL    HW1 5831   1.674   3.157   1.369
 1715SOL    HW2 5832   1.539   3.218   1.302
 1716SOL     OW 5833   1.039   2.960   0.696
 1716SOL    HW1 5834   0.969   2.913   0.750
 1716SOL    HW2 5835   1.098   2.892   0.653
 1717SOL     OW 5836   1.014   2.098   0.971
 1717SOL    HW1 5837   1.006   2.062   0.878
 1717SOL    HW2 5838   1.012   2.022   1.036
 1718SOL     OW 5839   0.590   3.349   0.491
 1718SOL    HW1 5840   0.632   3.291   0.421
 1718SOL    HW2 5841   0.546   3.428   0.447
 1719SOL     OW 5842   1.709   2.247   1.381
 1719SOL    HW1 5843   1.782   2.316   1.385
 1719SOL    HW2 5844   1.737   2.172   1.322
 1720SOL     OW 5845   0.255   3.210   0.290
 1720SOL    HW1 5846   0.159   3.211   0.263
 1720SOL    HW2 5847   0.267   3.263   0.374
 1721SOL     OW 5848   0.105   2.875   1.726
 1721SOL    HW1 5849   0.028   2.842   1.780
 1721SOL    HW2 5850   0.190   2.845   1.768
 1722SOL     OW 5851   0.672   2.065   1.489
 1722SOL    HW1 5852   0.762   2.049   1.449
 1722SOL    HW2 5853   0.680   2.070   1.588
 1723SOL     OW 5854   0.075   2.207   0.033
 1723SOL    HW1 5855  -0.017   2.179   0.004
 1723SOL    HW2 5856   0.106   2.284  -0.023
 1724SOL     OW 5857   1.440   2.718   1.398
 1724SOL    HW1 5858   1.383   2.770   1.335
 1724SOL    HW2 5859   1.536   2.730   1.374
 1725SOL     OW 5860   0.072   2.028   0.318
 1725SOL    HW1 5861   0.055   2.111   0.264
 1725SOL    HW2 5862   0.162   1.991   0.296
 1726SOL     OW 5863   1.183   3.197   0.119
 1726SOL    HW1 5864   1.084   3.186   0.121
 1726SOL    HW2 5865   1.217   3.212   0.212
 1727SOL     OW 5866   0.613   2.704   1.431
 1727SOL    HW1 5867   0.669   2.785   1.414
 1727SOL    HW2 5868   0.672   2.624   1.434
 1728SOL     OW 5869   1.493   3.629   0.959
 1728SOL    HW1 5870   1.526   3.693   0.890
 1728SOL    HW2 5871   1.559   3.623   1.034
 1729SOL     OW 5872   0.716   2.427   1.708
 1729SOL    HW1 5873   0.735   2.492   1.782
 1729SOL    HW2 5874   0.776   2.347   1.717
 1730SOL     OW 5875   1.450   3.082   1.633
 1730SOL    HW1 5876   1.441   3.072   1.732
 1730SOL    HW2 5877   1.546   3.075   1.607
 1731SOL     OW 5878   0.390   3.603   1.560
 1731SOL    HW1 5879   0.299   3.644   1.558
 1731SOL    HW2 5880   0.383   3.509   1.592
 1732SOL     OW 5881   1.674   2.745   1.254
 1732SOL    HW1 5882   1.647   2.656   1.217
 1732SOL    HW2 5883   1.675   2.813   1.181
 1733SOL     OW 5884   1.225   2.187   0.449
 1733SOL    HW1 5885   1.290   2.113   0.438
 1733SOL    HW2 5886   1.245   2.237   0.533
 1734SOL     OW 5887   0.594   2.607   0.652
 1734SOL    HW1 5888   0.644   2.692   0.633
 1734SOL    HW2 5889   0.506   2.609   0.604
 1735SOL     OW 5890   1.777   2.204   1.642
 1735SOL    HW1 5891   1.760   2.235   1.548
 1735SOL    HW2 5892   1.693   2.167   1.680
 1736SOL     OW 5893   1.730   2.796   1.517
 1736SOL    HW1 5894   1.768   2.887   1.532
 1736SOL    HW2 5895   1.722   2.779   1.418
 1737SOL     OW 5896   0.859   3.236   0.016
 1737SOL    HW1 5897   0.813   3.251   0.104
 1737SOL    HW2 5898   0.903   3.321  -0.014
 1738SOL     OW 5899   0.661   3.652   0.953
 1738SOL    HW1 5900   0.615   3.740   0.940
 1738SOL    HW2 5901   0.760   3.664   0.946
 1739SOL     OW 5902   0.859   2.818   0.861
 1739SOL    HW1 5903   0.913   2.749   0.909
 1739SOL    HW2 5904   0.827   2.887   0.927
 1740SOL     OW 5905   1.083   2.846   0.087
 1740SOL    HW1 5906   1.060   2.899   0.005
 1740SOL    HW2 5907   1.164   2.790   0.068
 1741SOL     OW 5908   1.861   3.431   0.851
 1741SOL    HW1 5909   1.790   3.419   0.781
 1741SOL    HW2 5910   1.862   3.352   0.911
 1742SOL     OW 5911   0.221   3.176   1.844
 1742SOL    HW1 5912   0.156   3.103   1.823
 1742SOL    HW2 5913   0.225   3.190   1.942
 1743SOL     OW 5914   0.079   3.102   0.653
 1743SOL    HW1 5915   0.078   3.055   0.741
 1743SOL    HW2 5916   0.161   3.074   0.602
 1744SOL     OW 5917   0.672   3.253   1.624
 1744SOL    HW1 5918   0.594   3.203   1.662
 1744SOL    HW2 5919   0.669   3.348   1.655
 1745SOL     OW 5920   0.428   2.286   0.520
 1745SOL    HW1 5921   0.458   2.214   0.458
 1745SOL    HW2 5922   0.389   2.246   0.603
 1746SOL     OW 5923   1.705   3.349   1.104
 1746SOL    HW1 5924   1.612   3.324   1.077
 1746SOL    HW2 5925   1.731   3.299   1.186
 1747SOL     OW 5926   0.317   2.409   1.280
 1747SOL    HW1 5927   0.355   2.350   1.352
 1747SOL    HW2 5928   0.357   2.383   1.192
 1748SOL     OW 5929   0.812   3.448   0.687
 1748SOL    HW1 5930   0.844   3.458   0.593
 1748SOL    HW2 5931   0.733   3.386   0.689
 1749SOL     OW 5932   1.424   2.076   1.112
 1749SOL    HW1 5933   1.476   2.011   1.167
 1749SOL    HW2 5934   1.375   2.139   1.173
 1750SOL     OW 5935   1.001   1.896   1.154
 1750SOL    HW1 5936   0.938   1.824   1.123
 1750SOL    HW2 5937   1.094   1.860   1.154
 1751SOL     OW 5938   0.770   3.192   0.301
 1751SOL    HW1 5939   0.724   3.105   0.318
 1751SOL    HW2 5940   0.861   3.189   0.342
 1752SOL     OW 5941   0.618   3.429   1.284
 1752SOL    HW1 5942   0.613   3.511   1.341
 1752SOL    HW2 5943   0.707   3.426   1.239
 1753SOL     OW 5944   1.352   1.914   0.168
 1753SOL    HW1 5945   1.387   1.873   0.084
 1753SOL    HW2 5946   1.262   1.876   0.188
 1754SOL     OW 5947   1.300   2.315   0.691
 1754SOL    HW1 5948   1.241   2.395   0.695
 1754SOL    HW2 5949   1.315   2.280   0.784
 1755SOL     OW 5950   1.593   2.083   0.882
 1755SOL    HW1 5951   1.509   2.082   0.936
 1755SOL    HW2 5952   1.595   2.166   0.826
 1756SOL     OW 5953   0.039   2.939   0.300
 1756SOL    HW1 5954   0.138   2.928   0.291
 1756SOL    HW2 5955  -0.001   2.853   0.332
 1757SOL     OW 5956   0.875   3.508   0.337
 1757SOL    HW1 5957   0.798   3.473   0.283
 1757SOL    HW2 5958   0.843   3.579   0.399
 1758SOL     OW 5959   0.230   2.490   1.975
 1758SOL    HW1 5960   0.137   2.488   2.012
 1758SOL    HW2 5961   0.231   2.451   1.883
 1759SOL     OW 5962   0.225   2.137   2.858
 1759SOL    HW1 5963   0.260   2.120   2.950
 1759SOL    HW2 5964   0.137   2.092   2.846
 1760SOL     OW 5965   0.019   2.230   2.509
 1760SOL    HW1 5966  -0.063   2.273   2.548
 1760SOL    HW2 5967  -0.009   2.157   2.446
 1761SOL     OW 5968   0.569   3.137   3.027
 1761SOL    HW1 5969   0.476   3.130   2.990
 1761SOL    HW2 5970   0.580   3.226   3.071
 1762SOL     OW 5971   1.555   3.373   2.565
 1762SOL    HW1 5972   1.498   3.357   2.646
 1762SOL    HW2 5973   1.496   3.383   2.485
 1763SOL     OW 5974   1.135   2.565   2.579
 1763SOL    HW1 5975   1.192   2.643   2.554
 1763SOL    HW2 5976   1.075   2.591   2.655
 1764SOL     OW 5977   1.755   2.469   2.093
 1764SOL    HW1 5978   1.743   2.456   1.994
 1764SOL    HW2 5979   1.725   2.388   2.142
 1765SOL     OW 5980   0.768   3.006   2.885
 1765SOL    HW1 5981   0.690   3.023   2.945
 1765SOL    HW2 5982   0.802   3.093   2.849
 1766SOL     OW 5983   0.850   2.660   3.685
 1766SOL    HW1 5984   0.846   2.736   3.750
 1766SOL    HW2 5985   0.872   2.696   3.594
 1767SOL     OW 5986   0.685   2.874   2.527
 1767SOL    HW1 5987   0.754   2.858   2.597
 1767SOL    HW2 5988   0.612   2.931   2.565
 1768SOL     OW 5989   0.686   3.023   3.665
 1768SOL    HW1 5990   0.746   3.102   3.679
 1768SOL    HW2 5991   0.600   3.054   3.624
 1769SOL     OW 5992   0.335   3.297   2.923
 1769SOL    HW1 5993   0.257   3.266   2.870
 1769SOL    HW2 5994   0.393   3.355   2.866
 1770SOL     OW 5995   1.460   3.367   3.201
 1770SOL    HW1 5996   1.484   3.461   3.227
 1770SOL    HW2 5997   1.444   3.313   3.283
 1771SOL     OW 5998   0.438   2.254   3.361
 1771SOL    HW1 5999   0.520   2.198   3.370
 1771SOL    HW2 6000   0.357   2.196   3.365
 1772SOL     OW 6001   1.603   2.309   2.599
 1772SOL    HW1 6002   1.529   2.355   2.549
 1772SOL    HW2 6003   1.654   2.377   2.652
 1773SOL     OW 6004   0.231   3.575   2.345
 1773SOL    HW1 6005   0.265   3.652   2.399
 1773SOL    HW2 6006   0.275   3.575   2.255
 1774SOL     OW 6007   1.127   3.203   3.552
 1774SOL    HW1 6008   1.174   3.203   3.640
 1774SOL    HW2 6009   1.079   3.116   3.541
 1775SOL     OW 6010   0.230   3.296   2.400
 1775SOL    HW1 6011   0.204   3.392   2.400
 1775SOL    HW2 6012   0.159   3.242   2.445
 1776SOL     OW 6013   0.240   2.953   2.748
 1776SOL    HW1 6014   0.254   2.869   2.800
 1776SOL    HW2 6015   0.185   3.017   2.803
 1777SOL     OW 6016   0.620   3.648   3.301
 1777SOL    HW1 6017   0.528   3.631   3.336
 1777SOL    HW2 6018   0.648   3.740   3.327
 1778SOL     OW 6019   0.606   2.826   1.985
 1778SOL    HW1 6020   0.613   2.910   1.931
 1778SOL    HW2 6021   0.652   2.839   2.073
 1779SOL     OW 6022   1.594   1.976   3.342
 1779SOL    HW1 6023   1.576   2.043   3.270
 1779SOL    HW2 6024   1.591   2.022   3.431
 1780SOL     OW 6025   0.122   2.505   2.425
 1780SOL    HW1 6026   0.077   2.417   2.442
 1780SOL    HW2 6027   0.121   2.559   2.509
 1781SOL     OW 6028   1.842   3.629   2.221
 1781SOL    HW1 6029   1.896   3.600   2.301
 1781SOL    HW2 6030   1.872   3.719   2.192
 1782SOL     OW 6031   0.027   3.458   1.979
 1782SOL    HW1 6032   0.008   3.362   2.000
 1782SOL    HW2 6033  -0.006   3.516   2.054
 1783SOL     OW 6034   1.689   2.784   2.474
 1783SOL    HW1 6035   1.784   2.755   2.482
 1783SOL    HW2 6036   1.681   2.849   2.399
 1784SOL     OW 6037   1.641   2.970   2.294
 1784SOL    HW1 6038   1.727   2.972   2.242
 1784SOL    HW2 6039   1.655   3.017   2.382
 1785SOL     OW 6040   0.113   2.599   3.459
 1785SOL    HW1 6041   0.201   2.586   3.504
 1785SOL    HW2 6042   0.100   2.696   3.437
 1786SOL     OW 6043   0.613   3.227   2.588
 1786SOL    HW1 6044   0.564   3.140   2.597
 1786SOL    HW2 6045   0.590   3.270   2.501
 1787SOL     OW 6046   1.293   3.090   3.285
 1787SOL    HW1 6047   1.330   3.017   3.227
 1787SOL    HW2 6048   1.345   3.095   3.370
 1788SOL     OW 6049   0.809   1.866   2.364
 1788SOL    HW1 6050   0.849   1.957   2.355
 1788SOL    HW2 6051   0.709   1.874   2.370
 1789SOL     OW 6052   0.197   2.838   3.126
 1789SOL    HW1 6053   0.286   2.793   3.112
 1789SOL    HW2 6054   0.124   2.773   3.107
 1790SOL     OW 6055   1.525   2.861   2.052
 1790SOL    HW1 6056   1.462   2.785   2.065
 1790SOL    HW2 6057   1.573   2.879   2.138
 1791SOL     OW 6058   1.187   3.654   3.478
 1791SOL    HW1 6059   1.211   3.714   3.402
 1791SOL    HW2 6060   1.194   3.559   3.448
 1792SOL     OW 6061   0.317   2.113   3.663
 1792SOL    HW1 6062   0.388   2.184   3.669
 1792SOL    HW2 6063   0.229   2.152   3.691
 1793SOL     OW 6064   1.466   3.279   2.815
 1793SOL    HW1 6065   1.407   3.285   2.895
 1793SOL    HW2 6066   1.451   3.191   2.769
 1794SOL     OW 6067   1.667   3.576   2.434
 1794SOL    HW1 6068   1.626   3.553   2.346
 1794SOL    HW2 6069   1.649   3.502   2.499
 1795SOL     OW 6070   0.598   2.591   2.132
 1795SOL    HW1 6071   0.622   2.660   2.064
 1795SOL    HW2 6072   0.520   2.624   2.186
 1796SOL     OW 6073   1.281   2.207   2.806
 1796SOL    HW1 6074   1.195   2.157   2.793
 1796SOL    HW2 6075   1.343   2.153   2.862
 1797SOL     OW 6076   1.576   3.524   2.169
 1797SOL    HW1 6077   1.665   3.570   2.172
 1797SOL    HW2 6078   1.555   3.500   2.074
 1798SOL     OW 6079   0.807   2.467   3.327
 1798SOL    HW1 6080   0.760   2.464   3.416
 1798SOL    HW2 6081   0.756   2.412   3.261
 1799SOL     OW 6082   1.394   2.331   3.536
 1799SOL    HW1 6083   1.374   2.374   3.624
 1799SOL    HW2 6084   1.472   2.269   3.545
 1800SOL     OW 6085   0.973   2.752   3.434
 1800SOL    HW1 6086   1.019   2.668   3.405
 1800SOL    HW2 6087   0.917   2.786   3.359
 1801SOL     OW 6088   0.991   2.272   3.104
 1801SOL    HW1 6089   0.914   2.306   3.158
 1801SOL    HW2 6090   0.957   2.221   3.025
 1802SOL     OW 6091   1.041   2.563   2.291
 1802SOL    HW1 6092   1.067   2.559   2.387
 1802SOL    HW2 6093   0.956   2.512   2.277
 1803SOL     OW 6094   0.076   2.673   2.651
 1803SOL    HW1 6095   0.175   2.661   2.660
 1803SOL    HW2 6096   0.052   2.768   2.672
 1804SOL     OW 6097   0.130   3.683   3.433
 1804SOL    HW1 6098   0.120   3.668   3.532
 1804SOL    HW2 6099   0.044   3.719   3.397
 1805SOL     OW 6100   0.865   2.210   2.057
 1805SOL    HW1 6101   0.924   2.273   2.008
 1805SOL    HW2 6102   0.884   2.116   2.028
 1806SOL     OW 6103   1.719   2.447   3.693
 1806SOL    HW1 6104   1.693   2.536   3.657
 1806SOL    HW2 6105   1.717   2.379   3.620
 1807SOL     OW 6106   1.362   3.006   2.407
 1807SOL    HW1 6107   1.445   2.977   2.359
 1807SOL    HW2 6108   1.313   3.073   2.351
 1808SOL     OW 6109   0.550   2.058   2.747
 1808SOL    HW1 6110   0.545   2.053   2.847
 1808SOL    HW2 6111   0.552   2.154   2.718
 1809SOL     OW 6112   1.008   3.318   2.339
 1809SOL    HW1 6113   0.962   3.390   2.287
 1809SOL    HW2 6114   1.004   3.338   2.437
 1810SOL     OW 6115   0.351   3.663   2.715
 1810SOL    HW1 6116   0.401   3.577   2.721
 1810SOL    HW2 6117   0.416   3.740   2.712
 1811SOL     OW 6118   1.795   2.928   2.735
 1811SOL    HW1 6119   1.733   2.913   2.659
 1811SOL    HW2 6120   1.743   2.939   2.820
 1812SOL     OW 6121   1.227   3.412   3.368
 1812SOL    HW1 6122   1.233   3.335   3.432
 1812SOL    HW2 6123   1.175   3.386   3.288
 1813SOL     OW 6124   0.321   2.805   2.104
 1813SOL    HW1 6125   0.403   2.844   2.062
 1813SOL    HW2 6126   0.294   2.723   2.055
 1814SOL     OW 6127   1.458   2.597   2.590
 1814SOL    HW1 6128   1.453   2.532   2.665
 1814SOL    HW2 6129   1.538   2.656   2.603
 1815SOL     OW 6130   0.461   3.128   3.589
 1815SOL    HW1 6131   0.411   3.129   3.503
 1815SOL    HW2 6132   0.398   3.110   3.665
 1816SOL     OW 6133   1.111   3.638   2.099
 1816SOL    HW1 6134   1.051   3.576   2.149
 1816SOL    HW2 6135   1.142   3.594   2.014
 1817SOL     OW 6136   0.202   2.147   3.360
 1817SOL    HW1 6137   0.122   2.207   3.347
 1817SOL    HW2 6138   0.192   2.098   3.446
 1818SOL     OW 6139   1.632   3.239   1.943
 1818SOL    HW1 6140   1.600   3.333   1.933
 1818SOL    HW2 6141   1.556   3.176   1.931
 1819SOL     OW 6142   0.464   3.605   2.185
 1819SOL    HW1 6143   0.497   3.644   2.271
 1819SOL    HW2 6144   0.540   3.598   2.120
 1820SOL     OW 6145   1.400   1.969   2.288
 1820SOL    HW1 6146   1.376   1.932   2.198
 1820SOL    HW2 6147   1.499   1.985   2.292
 1821SOL     OW 6148   0.249   3.647   3.103
 1821SOL    HW1 6149   0.306   3.582   3.153
 1821SOL    HW2 6150   0.233   3.614   3.010
 1822SOL     OW 6151   0.940   3.560   2.766
 1822SOL    HW1 6152   1.020   3.503   2.787
 1822SOL    HW2 6153   0.891   3.520   2.689
 1823SOL     OW 6154   0.382   2.562   2.342
 1823SOL    HW1 6155   0.427   2.472   2.339
 1823SOL    HW2 6156   0.288   2.551   2.375
 1824SOL     OW 6157   1.547   2.084   3.591
 1824SOL    HW1 6158   1.542   2.121   3.683
 1824SOL    HW2 6159   1.475   2.015   3.579
 1825SOL     OW 6160   0.614   1.984   1.979
 1825SOL    HW1 6161   0.712   1.962   1.986
 1825SOL    HW2 6162   0.583   1.967   1.886
 1826SOL     OW 6163   0.781   2.126   3.611
 1826SOL    HW1 6164   0.848   2.065   3.654
 1826SOL    HW2 6165   0.708   2.145   3.676
 1827SOL     OW 6166   0.888   3.376   3.057
 1827SOL    HW1 6167   0.865   3.351   2.963
 1827SOL    HW2 6168   0.949   3.307   3.096
 1828SOL     OW 6169   1.351   2.452   3.295
 1828SOL    HW1 6170   1.379   2.409   3.380
 1828SOL    HW2 6171   1.376   2.548   3.296
 1829SOL     OW 6172   0.803   3.264   2.786
 1829SOL    HW1 6173   0.893   3.278   2.744
 1829SOL    HW2 6174   0.732   3.266   2.715
 1830SOL     OW 6175   0.922   2.365   2.761
 1830SOL    HW1 6176   0.897   2.356   2.665
 1830SOL    HW2 6177   0.970   2.283   2.792
 1831SOL     OW 6178   0.539   1.926   2.374
 1831SOL    HW1 6179   0.458   1.927   2.432
 1831SOL    HW2 6180   0.542   2.009   2.319
 1832SOL     OW 6181   1.434   3.050   1.903
 1832SOL    HW1 6182   1.466   2.974   1.960
 1832SOL    HW2 6183   1.342   3.077   1.933
 1833SOL     OW 6184   0.297   1.897   2.033
 1833SOL    HW1 6185   0.346   1.981   2.012
 1833SOL    HW2 6186   0.359   1.832   2.078
 1834SOL     OW 6187   0.935   2.098   2.342
 1834SOL    HW1 6188   0.887   2.139   2.264
 1834SOL    HW2 6189   1.034   2.096   2.323
 1835SOL     OW 6190   1.076   2.545   3.326
 1835SOL    HW1 6191   0.996   2.484   3.329
 1835SOL    HW2 6192   1.157   2.492   3.302
 1836SOL     OW 6193   1.227   3.432   2.655
 1836SOL    HW1 6194   1.248   3.506   2.590
 1836SOL    HW2 6195   1.295   3.432   2.728
 1837SOL     OW 6196   0.459   3.014   2.603
 1837SOL    HW1 6197   0.388   2.987   2.668
 1837SOL    HW2 6198   0.433   2.986   2.510
 1838SOL     OW 6199   1.271   3.659   2.453
 1838SOL    HW1 6200   1.315   3.723   2.389
 1838SOL    HW2 6201   1.221   3.711   2.523
 1839SOL     OW 6202   1.032   2.411   1.878
 1839SOL    HW1 6203   0.991   2.493   1.839
 1839SOL    HW2 6204   1.096   2.437   1.951
 1840SOL     OW 6205   0.078   2.418   3.248
 1840SOL    HW1 6206   0.170   2.417   3.207
 1840SOL    HW2 6207   0.072   2.492   3.315
 1841SOL     OW 6208   0.561   2.084   3.009
 1841SOL    HW1 6209   0.599   2.000   3.046
 1841SOL    HW2 6210   0.473   2.103   3.053
 1842SOL     OW 6211   0.866   2.316   2.504
 1842SOL    HW1 6212   0.834   2.388   2.442
 1842SOL    HW2 6213   0.890   2.235   2.451
 1843SOL     OW 6214   1.017   1.901   2.615
 1843SOL    HW1 6215   0.945   1.906   2.546
 1843SOL    HW2 6216   0.993   1.832   2.684
 1844SOL     OW 6217   1.429   3.035   2.729
 1844SOL    HW1 6218   1.374   2.951   2.722
 1844SOL    HW2 6219   1.455   3.064   2.637
 1845SOL     OW 6220   1.466   2.452   2.854
 1845SOL    HW1 6221   1.436   2.357   2.861
 1845SOL    HW2 6222   1.539   2.468   2.920
 1846SOL     OW 6223   1.857   2.695   2.239
 1846SOL    HW1 6224   1.899   2.631   2.303
 1846SOL    HW2 6225   1.819   2.644   2.161
 1847SOL     OW 6226   0.488   3.247   2.036
 1847SOL    HW1 6227   0.401   3.232   2.083
 1847SOL    HW2 6228   0.471   3.273   1.941
 1848SOL     OW 6229   1.664   3.142   2.519
 1848SOL    HW1 6230   1.763   3.150   2.533
 1848SOL    HW2 6231   1.619   3.226   2.550
 1849SOL     OW 6232   1.390   2.437   1.940
 1849SOL    HW1 6233   1.336   2.416   2.021
 1849SOL    HW2 6234   1.481   2.396   1.949
 1850SOL     OW 6235   0.527   2.118   2.190
 1850SOL    HW1 6236   0.554   2.059   2.115
 1850SOL    HW2 6237   0.527   2.213   2.159
 1851SOL     OW 6238   1.754   3.085   3.450
 1851SOL    HW1 6239   1.845   3.046   3.437
 1851SOL    HW2 6240   1.762   3.181   3.474
 1852SOL     OW 6241   1.064   3.209   3.202
 1852SOL    HW1 6242   0.984   3.186   3.257
 1852SOL    HW2 6243   1.147   3.183   3.251
 1853SOL     OW 6244   1.592   3.491   3.487
 1853SOL    HW1 6245   1.619   3.525   3.397
 1853SOL    HW2 6246   1.671   3.453   3.533
 1854SOL     OW 6247   1.111   3.057   2.962
 1854SOL    HW1 6248   1.071   3.101   3.043
 1854SOL    HW2 6249   1.070   3.094   2.879
 1855SOL     OW 6250   1.638   2.961   2.941
 1855SOL    HW1 6251   1.643   3.042   3.000
 1855SOL    HW2 6252   1.552   2.963   2.890
 1856SOL     OW 6253   0.915   1.951   3.264
 1856SOL    HW1 6254   0.940   1.931   3.169
 1856SOL    HW2 6255   0.987   2.007   3.306
 1857SOL     OW 6256   0.980   2.978   3.581
 1857SOL    HW1 6257   0.881   2.984   3.591
 1857SOL    HW2 6258   1.003   2.898   3.525
 1858SOL     OW 6259   0.705   2.912   2.230
 1858SOL    HW1 6260   0.691   2.919   2.329
 1858SOL    HW2 6261   0.789   2.861   2.212
 1859SOL     OW 6262   0.410   2.675   3.113
 1859SOL    HW1 6263   0.496   2.687   3.163
 1859SOL    HW2 6264   0.368   2.588   3.140
 1860SOL     OW 6265   1.274   2.248   3.124
 1860SOL    HW1 6266   1.295   2.322   3.188
 1860SOL    HW2 6267   1.185   2.265   3.081
 1861SOL     OW 6268   0.064   3.426   3.193
 1861SOL    HW1 6269   0.018   3.508   3.159
 1861SOL    HW2 6270   0.162   3.445   3.202
 1862SOL     OW 6271   0.367   2.962   2.363
 1862SOL    HW1 6272   0.360   3.045   2.307
 1862SOL    HW2 6273   0.371   2.882   2.303
 1863SOL     OW 6274   0.566   2.399   2.727
 1863SOL    HW1 6275   0.578   2.465   2.653
 1863SOL    HW2 6276   0.612   2.433   2.810
 1864SOL     OW 6277   1.252   3.210   2.250
 1864SOL    HW1 6278   1.302   3.287   2.290
 1864SOL    HW2 6279   1.157   3.212   2.282
 1865SOL     OW 6280   1.272   3.307   3.004
 1865SOL    HW1 6281   1.319   3.320   3.091
 1865SOL    HW2 6282   1.206   3.233   3.013
 1866SOL     OW 6283   1.582   2.501   2.334
 1866SOL    HW1 6284   1.551   2.562   2.407
 1866SOL    HW2 6285   1.632   2.553   2.265
 1867SOL     OW 6286   0.354   3.372   3.191
 1867SOL    HW1 6287   0.333   3.328   3.104
 1867SOL    HW2 6288   0.451   3.398   3.194
 1868SOL     OW 6289   0.402   2.613   3.460
 1868SOL    HW1 6290   0.470   2.668   3.413
 1868SOL    HW2 6291   0.442   2.525   3.487
 1869SOL     OW 6292   1.587   2.641   3.532
 1869SOL    HW1 6293   1.495   2.679   3.527
 1869SOL    HW2 6294   1.647   2.688   3.467
 1870SOL     OW 6295   1.013   1.967   3.632
 1870SOL    HW1 6296   1.019   2.052   3.580
 1870SOL    HW2 6297   1.045   1.891   3.575
 1871SOL     OW 6298   0.504   1.912   3.602
 1871SOL    HW1 6299   0.462   1.855   3.532
 1871SOL    HW2 6300   0.438   1.981   3.634
 1872SOL     OW 6301   0.573   2.732   2.891
 1872SOL    HW1 6302   0.617   2.821   2.882
 1872SOL    HW2 6303   0.510   2.732   2.968
 1873SOL     OW 6304   1.360   2.724   2.907
 1873SOL    HW1 6305   1.285   2.724   2.841
 1873SOL    HW2 6306   1.397   2.632   2.916
 1874SOL     OW 6307   1.209   2.387   2.137
 1874SOL    HW1 6308   1.222   2.303   2.191
 1874SOL    HW2 6309   1.180   2.461   2.197
 1875SOL     OW 6310   0.307   2.075   3.093
 1875SOL    HW1 6311   0.284   2.112   3.183
 1875SOL    HW2 6312   0.277   1.980   3.087
 1876SOL     OW 6313   0.037   3.172   3.144
 1876SOL    HW1 6314   0.090   3.123   3.212
 1876SOL    HW2 6315   0.059   3.270   3.149
 1877SOL     OW 6316   0.732   2.496   2.926
 1877SOL    HW1 6317   0.791   2.470   2.850
 1877SOL    HW2 6318   0.704   2.592   2.915
 1878SOL     OW 6319   1.728   2.797   3.716
 1878SOL    HW1 6320   1.682   2.790   3.627
 1878SOL    HW2 6321   1.666   2.841   3.782
 1879SOL     OW 6322   0.307   1.925   2.480
 1879SOL    HW1 6323   0.296   2.019   2.513
 1879SOL    HW2 6324   0.302   1.862   2.557
 1880SOL     OW 6325   1.622   2.229   2.236
 1880SOL    HW1 6326   1.624   2.153   2.300
 1880SOL    HW2 6327   1.574   2.306   2.276
 1881SOL     OW 6328   1.023   2.628   2.828
 1881SOL    HW1 6329   1.038   2.649   2.924
 1881SOL    HW2 6330   0.993   2.533   2.819
 1882SOL     OW 6331   0.980   3.435   3.562
 1882SOL    HW1 6332   0.960   3.479   3.474
 1882SOL    HW2 6333   1.019   3.344   3.546
 1883SOL     OW 6334   1.859   3.380   3.467
 1883SOL    HW1 6335   1.873   3.407   3.372
 1883SOL    HW2 6336   1.942   3.402   3.520
 1884SOL     OW 6337   0.350   2.760   3.666
 1884SOL    HW1 6338   0.426   2.804   3.714
 1884SOL    HW2 6339   0.385   2.713   3.584
 1885SOL     OW 6340   1.540   2.136   1.987
 1885SOL    HW1 6341   1.479   2.061   2.010
 1885SOL    HW2 6342   1.562   2.188   2.070
 1886SOL     OW 6343   1.303   2.700   1.904
 1886SOL    HW1 6344   1.337   2.607   1.919
 1886SOL    HW2 6345   1.321   2.727   1.809
 1887SOL     OW 6346   1.068   3.195   2.711
 1887SOL    HW1 6347   1.075   3.111   2.656
 1887SOL    HW2 6348   1.130   3.264   2.675
 1888SOL     OW 6349   0.319   2.672   2.811
 1888SOL    HW1 6350   0.412   2.708   2.816
 1888SOL    HW2 6351   0.313   2.587   2.863
 1889SOL     OW 6352   0.339   2.371   2.868
 1889SOL    HW1 6353   0.287   2.288   2.851
 1889SOL    HW2 6354   0.416   2.376   2.804
 1890SOL     OW 6355   1.138   2.242   3.540
 1890SOL    HW1 6356   1.093   2.305   3.604
 1890SOL    HW2 6357   1.231   2.273   3.523
 1891SOL     OW 6358   1.160   2.069   3.339
 1891SOL    HW1 6359   1.160   2.133   3.416
 1891SOL    HW2 6360   1.188   2.117   3.256
 1892SOL     OW 6361   0.008   3.188   2.062
 1892SOL    HW1 6362  -0.085   3.209   2.031
 1892SOL    HW2 6363   0.018   3.089   2.075
 1893SOL     OW 6364   0.088   3.663   2.789
 1893SOL    HW1 6365   0.046   3.577   2.762
 1893SOL    HW2 6366   0.182   3.666   2.755
 1894SOL     OW 6367   0.504   3.430   2.772
 1894SOL    HW1 6368   0.570   3.504   2.781
 1894SOL    HW2 6369   0.548   3.351   2.730
 1895SOL     OW 6370   1.002   2.658   3.100
 1895SOL    HW1 6371   1.043   2.626   3.186
 1895SOL    HW2 6372   0.906   2.631   3.097
 1896SOL     OW 6373   0.040   2.406   2.976
 1896SOL    HW1 6374   0.125   2.373   2.935
 1896SOL    HW2 6375   0.053   2.421   3.074
 1897SOL     OW 6376   0.189   2.382   3.584
 1897SOL    HW1 6377   0.248   2.342   3.514
 1897SOL    HW2 6378   0.131   2.453   3.543
 1898SOL     OW 6379   1.369   2.812   3.522
 1898SOL    HW1 6380   1.408   2.901   3.542
 1898SOL    HW2 6381   1.379   2.792   3.425
 1899SOL     OW 6382   0.815   2.434   2.187
 1899SOL    HW1 6383   0.822   2.345   2.141
 1899SOL    HW2 6384   0.721   2.468   2.179
 1900SOL     OW 6385   1.657   2.466   3.068
 1900SOL    HW1 6386   1.619   2.397   3.130
 1900SOL    HW2 6387   1.739   2.430   3.024
 1901SOL     OW 6388   0.252   3.426   3.606
 1901SOL    HW1 6389   0.222   3.483   3.682
 1901SOL    HW2 6390   0.245   3.329   3.632
 1902SOL     OW 6391   0.671   2.326   3.131
 1902SOL    HW1 6392   0.637   2.237   3.101
 1902SOL    HW2 6393   0.697   2.380   3.051
 1903SOL     OW 6394   0.930   3.540   3.327
 1903SOL    HW1 6395   0.906   3.522   3.232
 1903SOL    HW2 6396   0.960   3.634   3.337
 1904SOL     OW 6397   0.473   2.362   2.053
 1904SOL    HW1 6398   0.534   2.442   2.057
 1904SOL    HW2 6399   0.378   2.393   2.060
 1905SOL     OW 6400   0.159   2.999   3.328
 1905SOL    HW1 6401   0.181   2.938   3.404
 1905SOL    HW2 6402   0.169   2.950   3.242
 1906SOL     OW 6403   1.347   2.921   3.096
 1906SOL    HW1 6404   1.371   2.858   3.022
 1906SOL    HW2 6405   1.257   2.961   3.078
 1907SOL     OW 6406   1.302   2.717   2.171
 1907SOL    HW1 6407   1.216   2.686   2.213
 1907SOL    HW2 6408   1.298   2.703   2.072
 1908SOL     OW 6409   1.759   3.609   3.016
 1908SOL    HW1 6410   1.820   3.639   2.943
 1908SOL    HW2 6411   1.721   3.520   2.994
 1909SOL     OW 6412   1.252   3.593   2.990
 1909SOL    HW1 6413   1.336   3.598   2.936
 1909SOL    HW2 6414   1.229   3.497   3.008
 1910SOL     OW 6415   0.083   3.120   2.884
 1910SOL    HW1 6416   0.078   3.119   2.984
 1910SOL    HW2 6417   0.000   3.079   2.846
 1911SOL     OW 6418   0.688   3.524   3.578
 1911SOL    HW1 6419   0.632   3.605   3.587
 1911SOL    HW2 6420   0.740   3.528   3.492
 1912SOL     OW 6421   1.388   3.435   2.339
 1912SOL    HW1 6422   1.455   3.447   2.265
 1912SOL    HW2 6423   1.348   3.524   2.362
 1913SOL     OW 6424   0.130   3.656   3.713
 1913SOL    HW1 6425   0.089   3.582   3.766
 1913SOL    HW2 6426   0.194   3.707   3.771
 1914SOL     OW 6427   1.280   2.789   2.534
 1914SOL    HW1 6428   1.340   2.708   2.536
 1914SOL    HW2 6429   1.320   2.858   2.474
 1915SOL     OW 6430   0.830   3.135   3.284
 1915SOL    HW1 6431   0.825   3.168   3.379
 1915SOL    HW2 6432   0.744   3.154   3.238
 1916SOL     OW 6433   0.672   3.478   2.016
 1916SOL    HW1 6434   0.681   3.488   1.917
 1916SOL    HW2 6435   0.632   3.389   2.037
 1917SOL     OW 6436   1.650   3.582   3.256
 1917SOL    HW1 6437   1.703   3.592   3.172
 1917SOL    HW2 6438   1.623   3.672   3.290
 1918SOL     OW 6439   0.263   2.188   2.582
 1918SOL    HW1 6440   0.184   2.239   2.548
 1918SOL    HW2 6441   0.254   2.173   2.680
 1919SOL     OW 6442   1.194   3.474   1.893
 1919SOL    HW1 6443   1.200   3.381   1.930
 1919SOL    HW2 6444   1.135   3.474   1.813
 1920SOL     OW 6445   0.822   2.864   3.234
 1920SOL    HW1 6446   0.862   2.863   3.142
 1920SOL    HW2 6447   0.832   2.956   3.274
 1921SOL     OW 6448   0.916   2.772   2.153
 1921SOL    HW1 6449   0.979   2.810   2.085
 1921SOL    HW2 6450   0.956   2.689   2.192
 1922SOL     OW 6451   1.504   3.469   1.906
 1922SOL    HW1 6452   1.412   3.506   1.913
 1922SOL    HW2 6453   1.542   3.489   1.816
 1923SOL     OW 6454   0.372   3.150   3.352
 1923SOL    HW1 6455   0.359   3.243   3.318
 1923SOL    HW2 6456   0.288   3.098   3.339
 1924SOL     OW 6457   1.614   3.154   3.151
 1924SOL    HW1 6458   1.674   3.157   3.231
 1924SOL    HW2 6459   1.539   3.218   3.164
 1925SOL     OW 6460   1.039   2.960   2.558
 1925SOL    HW1 6461   0.969   2.913   2.612
 1925SOL    HW2 6462   1.098   2.892   2.515
 1926SOL     OW 6463   1.014   2.098   2.833
 1926SOL    HW1 6464   1.006   2.062   2.740
 1926SOL    HW2 6465   1.012   2.022   2.898
 1927SOL     OW 6466   0.590   3.349   2.353
 1927SOL    HW1 6467   0.632   3.291   2.283
 1927SOL    HW2 6468   0.546   3.428   2.309
 1928SOL     OW 6469   1.709   2.247   3.243
 1928SOL    HW1 6470   1.782   2.316   3.247
 1928SOL    HW2 6471   1.737   2.172   3.184
 1929SOL     OW 6472   0.255   3.210   2.152
 1929SOL    HW1 6473   0.159   3.211   2.125
 1929SOL    HW2 6474   0.267   3.263   2.236
 1930SOL     OW 6475   0.105   2.875   3.588
 1930SOL    HW1 6476   0.028   2.842   3.642
 1930SOL    HW2 6477   0.190   2.845   3.630
 1931SOL     OW 6478   0.672   2.065   3.351
 1931SOL    HW1 6479   0.762   2.049   3.311
 1931SOL    HW2 6480   0.680   2.070   3.450
 1932SOL     OW 6481   0.075   2.207   1.895
 1932SOL    HW1 6482  -0.017   2.179   1.866
 1932SOL    HW2 6483   0.106   2.284   1.839
 1933SOL     OW 6484   1.440   2.718   3.260
 1933SOL    HW1 6485   1.383   2.770   3.197
 1933SOL    HW2 6486   1.536   2.730   3.236
 1934SOL     OW 6487   0.072   2.028   2.180
 1934SOL    HW1 6488   0.055   2.111   2.126
 1934SOL    HW2 6489   0.162   1.991   2.158
 1935SOL     OW 6490   1.183   3.197   1.981
 1935SOL    HW1 6491   1.084   3.186   1.983
 1935SOL    HW2 6492   1.217   3.212   2.074
 1936SOL     OW 6493   0.613   2.704   3.293
 1936SOL    HW1 6494   0.669   2.785   3.276
 1936SOL    HW2 6495   0.672   2.624   3.296
 1937SOL     OW 6496   1.493   3.629   2.821
 1937SOL    HW1 6497   1.526   3.693   2.752
 1937SOL    HW2 6498   1.559   3.623   2.896
 1938SOL     OW 6499   0.716   2.427   3.570
 1938SOL    HW1 6500   0.735   2.492   3.644
 1938SOL    HW2 6501   0.776   2.347   3.579
 1939SOL     OW 6502   1.450   3.082   3.495
 1939SOL    HW1 6503   1.441   3.072   3.594
 1939SOL    HW2 6504   1.546   3.075   3.469
 1940SOL     OW 6505   0.390   3.603   3.422
 1940SOL    HW1 6506   0.299   3.644   3.420
 1940SOL    HW2 6507   0.383   3.509   3.454
 1941SOL     OW 6508   1.674   2.745   3.116
 1941SOL    HW1 6509   1.647   2.656   3.079
 1941SOL    HW2 6510   1.675   2.813   3.043
 1942SOL     OW 6511   1.225   2.187   2.311
 1942SOL    HW1 6512   1.290   2.113   2.300
 1942SOL    HW2 6513   1.245   2.237   2.395
 1943SOL     OW 6514   0.594   2.607   2.514
 1943SOL    HW1 6515   0.644   2.692   2.495
 1943SOL    HW2 6516   0.506   2.609   2.466
 1944SOL     OW 6517   1.777   2.204   3.504
 1944SOL    HW1 6518   1.760   2.235   3.410
 1944SOL    HW2 6519   1.693   2.167   3.542
 1945SOL     OW 6520   1.730   2.796   3.379
 1945SOL    HW1 6521   1.768   2.887   3.394
 1945SOL    HW2 6522   1.722   2.779   3.280
 1946SOL     OW 6523   0.859   3.236   1.878
 1946SOL    HW1 6524   0.813   3.251   1.966
 1946SOL    HW2 6525   0.903   3.321   1.848
 1947SOL     OW 6526   0.661   3.652   2.815
 1947SOL    HW1 6527   0.615   3.740   2.802
 1947SOL    HW2 6528   0.760   3.664   2.808
 1948SOL     OW 6529   0.859   2.818   2.723
 1948SOL    HW1 6530   0.913   2.749   2.771
 1948SOL    HW2 6531   0.827   2.887   2.789
 1949SOL     OW 6532   1.083   2.846   1.949
 1949SOL    HW1 6533   1.060   2.899   1.867
 1949SOL    HW2 6534   1.164   2.790   1.930
 1950SOL     OW 6535   1.861   3.431   2.713
 1950SOL    HW1 6536   1.790   3.419   2.643
 1950SOL    HW2 6537   1.862   3.352   2.773
 1951SOL     OW 6538   0.221   3.176   3.706
 1951SOL    HW1 6539   0.156   3.103   3.685
 1951SOL    HW2 6540   0.225   3.190   3.804
 1952SOL     OW 6541   0.079   3.102   2.515
 1952SOL    HW1 6542   0.078   3.055   2.603
 1952SOL    HW2 6543   0.161   3.074   2.464
 1953SOL     OW 6544   0.672   3.253   3.486
 1953SOL    HW1 6545   0.594   3.203   3.524
 1953SOL    HW2 6546   0.669   3.348   3.517
 1954SOL     OW 6547   0.428   2.286   2.382
 1954SOL    HW1 6548   0.458   2.214   2.320
 1954SOL    HW2 6549   0.389   2.246   2.465
 1955SOL     OW 6550   1.705   3.349   2.966
 1955SOL    HW1 6551   1.612   3.324   2.939
 1955SOL    HW2 6552   1.731   3.299   3.048
 1956SOL     OW 6553   0.317   2.409   3.142
 1956SOL    HW1 6554   0.355   2.350   3.214
 1956SOL    HW2 6555   0.357   2.383   3.054
 1957SOL     OW 6556   0.812   3.448   2.549
 1957SOL    HW1 6557   0.844   3.458   2.455
 1957SOL    HW2 6558   0.733   3.386   2.551
 1958SOL     OW 6559   1.424   2.076   2.974
 1958SOL    HW1 6560   1.476   2.011   3.029
 1958SOL    HW2 6561   1.375   2.139   3.035
 1959SOL     OW 6562   1.001   1.896   3.016
 1959SOL    HW1 6563   0.938   1.824   2.985
 1959SOL    HW2 6564   1.094   1.860   3.016
 1960SOL     OW 6565   0.770   3.192   2.163
 1960SOL    HW1 6566   0.724   3.105   2.180
 1960SOL    HW2 6567   0.861   3.189   2.204
 1961SOL     OW 6568   0.618   3.429   3.146
 1961SOL    HW1 6569   0.613   3.511   3.203
 1961SOL    HW2 6570   0.707   3.426   3.101
 1962SOL     OW 6571   1.352   1.914   2.030
 1962SOL    HW1 6572   1.387   1.873   1.946
 1962SOL    HW2 6573   1.262   1.876   2.050
 1963SOL     OW 6574   1.300   2.315   2.553
 1963SOL    HW1 6575   1.241   2.395   2.557
 1963SOL    HW2 6576   1.315   2.280   2.646
 1964SOL     OW 6577   1.593   2.083   2.744
 1964SOL    HW1 6578   1.509   2.082   2.798
 1964SOL    HW2 6579   1.595   2.166   2.688
 1965SOL     OW 6580   0.039   2.939   2.162
 1965SOL    HW1 6581   0.138   2.928   2.153
 1965SOL    HW2 6582  -0.001   2.853   2.194
 1966SOL     OW 6583   0.875   3.508   2.199
 1966SOL    HW1 6584   0.798   3.473   2.145
 1966SOL    HW2 6585   0.843   3.579   2.261
 1967SOL     OW 6586   0.230   2.490   3.837
 1967SOL    HW1 6587   0.137   2.488   3.874
 1967SOL    HW2 6588   0.231   2.451   3.745
 1968SOL     OW 6589   0.225   2.137   4.720
 1968SOL    HW1 6590   0.260   2.120   4.812
 1968SOL    HW2 6591   0.137   2.092   4.708
 1969SOL     OW 6592   0.019   2.230   4.371
 1969SOL    HW1 6593  -0.063   2.273   4.410
 1969SOL    HW2 6594  -0.009   2.157   4.308
 1970SOL     OW 6595   0.569   3.137   4.889
 1970SOL    HW1 6596   0.476   3.130   4.852
 1970SOL    HW2 6597   0.580   3.226   4.933
 1971SOL     OW 6598   1.555   3.373   4.427
 1971SOL    HW1 6599   1.498   3.357   4.508
 1971SOL    HW2 6600   1.496   3.383   4.347
 1972SOL     OW 6601   1.135   2.565   4.441
 1972SOL    HW1 6602   1.192   2.643   4.416
 1972SOL    HW2 6603   1.075   2.591   4.517
 1973SOL     OW 6604   1.755   2.469   3.955
 1973SOL    HW1 6605   1.743   2.456   3.856
 1973SOL    HW2 6606   1.725   2.388   4.004
 1974SOL     OW 6607   0.768   3.006   4.747
 1974SOL    HW1 6608   0.690   3.023   4.807
 1974SOL    HW2 6609   0.802   3.093   4.711
 1975SOL     OW 6610   0.850   2.660   5.547
 1975SOL    HW1 6611   0.846   2.736   5.612
 1975SOL    HW2 6612   0.872   2.696   5.456
 1976SOL     OW 6613   0.685   2.874   4.389
 1976SOL    HW1 6614   0.754   2.858   4.459
 1976SOL    HW2 6615   0.612   2.931   4.427
 1977SOL     OW 6616   0.686   3.023   5.527
 1977SOL    HW1 6617   0.746   3.102   5.541
 1977SOL    HW2 6618   0.600   3.054   5.486
 1978SOL     OW 6619   0.335   3.297   4.785
 1978SOL    HW1 6620   0.257   3.266   4.732
 1978SOL    HW2 6621   0.393   3.355   4.728
 1979SOL     OW 6622   1.460   3.367   5.063
 1979SOL    HW1 6623   1.484   3.461   5.089
 1979SOL    HW2 6624   1.444   3.313   5.145
 1980SOL     OW 6625   0.438   2.254   5.223
 1980SOL    HW1 6626   0.520   2.198   5.232
 1980SOL    HW2 6627   0.357   2.196   5.227
 1981SOL     OW 6628   1.603   2.309   4.461
 1981SOL    HW1 6629   1.529   2.355   4.411
 1981SOL    HW2 6630   1.654   2.377   4.514
 1982SOL     OW 6631   0.231   3.575   4.207
 1982SOL    HW1 6632   0.265   3.652   4.261
 1982SOL    HW2 6633   0.275   3.575   4.117
 1983SOL     OW 6634   1.127   3.203   5.414
 1983SOL    HW1 6635   1.174   3.203   5.502
 1983SOL    HW2 6636   1.079   3.116   5.403
 1984SOL     OW 6637   0.230   3.296   4.262
 1984SOL    HW1 6638   0.204   3.392   4.262
 1984SOL    HW2 6639   0.159   3.242   4.307
 1985SOL     OW 6640   0.240   2.953   4.610
 1985SOL    HW1 6641   0.254   2.869   4.662
 1985SOL    HW2 6642   0.185   3.017   4.665
 1986SOL     OW 6643   0.620   3.648   5.163
 1986SOL    HW1 6644   0.528   3.631   5.198
 1986SOL    HW2 6645   0.648   3.740   5.189
 1987SOL     OW 6646   0.606   2.826   3.847
 1987SOL    HW1 6647   0.613   2.910   3.793
 1987SOL    HW2 6648   0.652   2.839   3.935
 1988SOL     OW 6649   1.594   1.976   5.204
 1988SOL    HW1 6650   1.576   2.043   5.132
 1988SOL    HW2 6651   1.591   2.022   5.293
 1989SOL     OW 6652   0.122   2.505   4.287
 1989SOL    HW1 6653   0.077   2.417   4.304
 1989SOL    HW2 6654   0.121   2.559   4.371
 1990SOL     OW 6655   1.842   3.629   4.083
 1990SOL    HW1 6656   1.896   3.600   4.163
 1990SOL    HW2 6657   1.872   3.719   4.054
 1991SOL     OW 6658   0.027   3.458   3.841
 1991SOL    HW1 6659   0.008   3.362   3.862
 1991SOL    HW2 6660  -0.006   3.516   3.916
 1992SOL     OW 6661   1.689   2.784   4.336
 1992SOL    HW1 6662   1.784   2.755   4.344
 1992SOL    HW2 6663   1.681   2.849   4.261
 1993SOL     OW 6664   1.641   2.970   4.156
 1993SOL    HW1 6665   1.727   2.972   4.104
 1993SOL    HW2 6666   1.655   3.017   4.244
 1994SOL     OW 6667   0.113   2.599   5.321
 1994SOL    HW1 6668   0.201   2.586   5.366
 1994SOL    HW2 6669   0.100   2.696   5.299
 1995SOL     OW 6670   0.613   3.227   4.450
 1995SOL    HW1 6671   0.564   3.140   4.459
 1995SOL    HW2 6672   0.590   3.270   4.363
 1996SOL     OW 6673   1.293   3.090   5.147
 1996SOL    HW1 6674   1.330   3.017   5.089
 1996SOL    HW2 6675   1.345   3.095   5.232
 1997SOL     OW 6676   0.809   1.866   4.226
 1997SOL    HW1 6677   0.849   1.957   4.217
 1997SOL    HW2 6678   0.709   1.874   4.232
 1998SOL     OW 6679   0.197   2.838   4.988
 1998SOL    HW1 6680   0.286   2.793   4.974
 1998SOL    HW2 6681   0.124   2.773   4.969
 1999SOL     OW 6682   1.525   2.861   3.914
 1999SOL    HW1 6683   1.462   2.785   3.927
 1999SOL    HW2 6684   1.573   2.879   4.000
 2000SOL     OW 6685   1.187   3.654   5.340
 2000SOL    HW1 6686   1.211   3.714   5.264
 2000SOL    HW2 6687   1.194   3.559   5.310
 2001SOL     OW 6688   0.317   2.113   5.525
 2001SOL    HW1 6689   0.388   2.184   5.531
 2001SOL    HW2 6690   0.229   2.152   5.553
 2002SOL     OW 6691   1.466   3.279   4.677
 2002SOL    HW1 6692   1.407   3.285   4.757
 2002SOL    HW2 6693   1.451   3.191   4.631
 2003SOL     OW 6694   1.667   3.576   4.296
 2003SOL    HW1 6695   1.626   3.553   4.208
 2003SOL    HW2 6696   1.649   3.502   4.361
 2004SOL     OW 6697   0.598   2.591   3.994
 2004SOL    HW1 6698   0.622   2.660   3.926
 2004SOL    HW2 6699   0.520   2.624   4.048
 2005SOL     OW 6700   1.281   2.207   4.668
 2005SOL    HW1 6701   1.195   2.157   4.655
 2005SOL    HW2 6702   1.343   2.153   4.724
 2006SOL     OW 6703   1.576   3.524   4.031
 2006SOL    HW1 6704   1.665   3.570   4.034
 2006SOL    HW2 6705   1.555   3.500   3.936
 2007SOL     OW 6706   0.807   2.467   5.189
 2007SOL    HW1 6707   0.760   2.464   5.278
 2007SOL    HW2 6708   0.756   2.412   5.123
 2008SOL     OW 6709   1.394   2.331   5.398
 2008SOL    HW1 6710   1.374   2.374   5.486
 2008SOL    HW2 6711   1.472   2.269   5.407
 2009SOL     OW 6712   0.973   2.752   5.296
 2009SOL    HW1 6713   1.019   2.668   5.267
 2009SOL    HW2 6714   0.917   2.786   5.221
 2010SOL     OW 6715   0.991   2.272   4.966
 2010SOL    HW1 6716   0.914   2.306   5.020
 2010SOL    HW2 6717   0.957   2.221   4.887
 2011SOL     OW 6718   1.041   2.563   4.153
 2011SOL    HW1 6719   1.067   2.559   4.249
 2011SOL    HW2 6720   0.956   2.512   4.139
 2012SOL     OW 6721   0.076   2.673   4.513
 2012SOL    HW1 6722   0.175   2.661   4.522
 2012SOL    HW2 6723   0.052   2.768   4.534
 2013SOL     OW 6724   0.130   3.683   5.295
 2013SOL    HW1 6725   0.120   3.668   5.394
 2013SOL    HW2 6726   0.044   3.719   5.259
 2014SOL     OW 6727   0.865   2.210   3.919
 2014SOL    HW1 6728   0.924   2.273   3.870
 2014SOL    HW2 6729   0.884   2.116   3.890
 2015SOL     OW 6730   1.719   2.447   5.555
 2015SOL    HW1 6731   1.693   2.536   5.519
 2015SOL    HW2 6732   1.717   2.379   5.482
 2016SOL     OW 6733   1.362   3.006   4.269
 2016SOL    HW1 6734   1.445   2.977   4.221
 2016SOL    HW2 6735   1.313   3.073   4.213
 2017SOL     OW 6736   0.550   2.058   4.609
 2017SOL    HW1 6737   0.545   2.053   4.709
 2017SOL    HW2 6738   0.552   2.154   4.580
 2018SOL     OW 6739   1.008   3.318   4.201
 2018SOL    HW1 6740   0.962   3.390   4.149
 2018SOL    HW2 6741   1.004   3.338   4.299
 2019SOL     OW 6742   0.351   3.663   4.577
 2019SOL    HW1 6743   0.401   3.577   4.583
 2019SOL    HW2 6744   0.416   3.740   4.574
 2020SOL     OW 6745   1.795   2.928   4.597
 2020SOL    HW1 6746   1.733   2.913   4.521
 2020SOL    HW2 6747   1.743   2.939   4.682
 2021SOL     OW 6748   1.227   3.412   5.230
 2021SOL    HW1 6749   1.233   3.335   5.294
 2021SOL    HW2 6750   1.175   3.386   5.150
 2022SOL     OW 6751   0.321   2.805   3.966
 2022SOL    HW1 6752   0.403   2.844   3.924
 2022SOL    HW2 6753   0.294   2.723   3.917
 2023SOL     OW 6754   1.458   2.597   4.452
 2023SOL    HW1 6755   1.453   2.532   4.527
 2023SOL    HW2 6756   1.538   2.656   4.465
 2024SOL     OW 6757   0.461   3.128   5.451
 2024SOL    HW1 6758   0.411   3.129   5.365
 2024SOL    HW2 6759   0.398   3.110   5.527
 2025SOL     OW 6760   1.111   3.638   3.961
 2025SOL    HW1 6761   1.051   3.576   4.011
 2025SOL    HW2 6762   1.142   3.594   3.876
 2026SOL     OW 6763   0.202   2.147   5.222
 2026SOL    HW1 6764   0.122   2.207   5.209
 2026SOL    HW2 6765   0.192   2.098   5.308
 2027SOL     OW 6766   1.632   3.239   3.805
 2027SOL    HW1 6767   1.600   3.333   3.795
 2027SOL    HW2 6768   1.556   3.176   3.793
 2028SOL     OW 6769   0.464   3.605   4.047
 2028SOL    HW1 6770   0.497   3.644   4.133
 2028SOL    HW2 6771   0.540   3.598   3.982
 2029SOL     OW 6772   1.400   1.969   4.150
 2029SOL    HW1 6773   1.376   1.932   4.060
 2029SOL    HW2 6774   1.499   1.985   4.154
 2030SOL     OW 6775   0.249   3.647   4.965
 2030SOL    HW1 6776   0.306   3.582   5.015
 2030SOL    HW2 6777   0.233   3.614   4.872
 2031SOL     OW 6778   0.940   3.560   4.628
 2031SOL    HW1 6779   1.020   3.503   4.649
 2031SOL    HW2 6780   0.891   3.520   4.551
 2032SOL     OW 6781   0.382   2.562   4.204
 2032SOL    HW1 6782   0.427   2.472   4.201
 2032SOL    HW2 6783   0.288   2.551   4.237
 2033SOL     OW 6784   1.547   2.084   5.453
 2033SOL    HW1 6785   1.542   2.121   5.545
 2033SOL    HW2 6786   1.475   2.015   5.441
 2034SOL     OW 6787   0.614   1.984   3.841
 2034SOL    HW1 6788   0.712   1.962   3.848
 2034SOL    HW2 6789   0.583   1.967   3.748
 2035SOL     OW 6790   0.781   2.126   5.473
 2035SOL    HW1 6791   0.848   2.065   5.516
 2035SOL    HW2 6792   0.708   2.145   5.538
 2036SOL     OW 6793   0.888   3.376   4.919
 2036SOL    HW1 6794   0.865   3.351   4.825
 2036SOL    HW2 6795   0.949   3.307   4.958
 2037SOL     OW 6796   1.351   2.452   5.157
 2037SOL    HW1 6797   1.379   2.409   5.242
 2037SOL    HW2 6798   1.376   2.548   5.158
 2038SOL     OW 6799   0.803   3.264   4.648
 2038SOL    HW1 6800   0.893   3.278   4.606
 2038SOL    HW2 6801   0.732   3.266   4.577
 2039SOL     OW 6802   0.922   2.365   4.623
 2039SOL    HW1 6803   0.897   2.356   4.527
 2039SOL    HW2 6804   0.970   2.283   4.654
 2040SOL     OW 6805   0.539   1.926   4.236
 2040SOL    HW1 6806   0.458   1.927   4.294
 2040SOL    HW2 6807   0.542   2.009   4.181
 2041SOL     OW 6808   1.434   3.050   3.765
 2041SOL    HW1 6809   1.466   2.974   3.822
 2041SOL    HW2 6810   1.342   3.077   3.795
 2042SOL     OW 6811   0.297   1.897   3.895
 2042SOL    HW1 6812   0.346   1.981   3.874
 2042SOL    HW2 6813   0.359   1.832   3.940
 2043SOL     OW 6814   0.935   2.098   4.204
 2043SOL    HW1 6815   0.887   2.139   4.126
 2043SOL    HW2 6816   1.034   2.096   4.185
 2044SOL     OW 6817   1.076   2.545   5.188
 2044SOL    HW1 6818   0.996   2.484   5.191
 2044SOL    HW2 6819   1.157   2.492   5.164
 2045SOL     OW 6820   1.227   3.432   4.517
 2045SOL    HW1 6821   1.248   3.506   4.452
 2045SOL    HW2 6822   1.295   3.432   4.590
 2046SOL     OW 6823   0.459   3.014   4.465
 2046SOL    HW1 6824   0.388   2.987   4.530
 2046SOL    HW2 6825   0.433   2.986   4.372
 2047SOL     OW 6826   1.271   3.659   4.315
 2047SOL    HW1 6827   1.315   3.723   4.251
 2047SOL    HW2 6828   1.221   3.711   4.385
 2048SOL     OW 6829   1.032   2.411   3.740
 2048SOL    HW1 6830   0.991   2.493   3.701
 2048SOL    HW2 6831   1.096   2.437   3.813
 2049SOL     OW 6832   0.078   2.418   5.110
 2049SOL    HW1 6833   0.170   2.417   5.069
 2049SOL    HW2 6834   0.072   2.492   5.177
 2050SOL     OW 6835   0.561   2.084   4.871
 2050SOL    HW1 6836   0.599   2.000   4.908
 2050SOL    HW2 6837   0.473   2.103   4.915
 2051SOL     OW 6838   0.866   2.316   4.366
 2051SOL    HW1 6839   0.834   2.388   4.304
 2051SOL    HW2 6840   0.890   2.235   4.313
 2052SOL     OW 6841   1.017   1.901   4.477
 2052SOL    HW1 6842   0.945   1.906   4.408
 2052SOL    HW2 6843   0.993   1.832   4.546
 2053SOL     OW 6844   1.429   3.035   4.591
 2053SOL    HW1 6845   1.374   2.951   4.584
 2053SOL    HW2 6846   1.455   3.064   4.499
 2054SOL     OW 6847   1.466   2.452   4.716
 2054SOL    HW1 6848   1.436   2.357   4.723
 2054SOL    HW2 6849   1.539   2.468   4.782
 2055SOL     OW 6850   1.857   2.695   4.101
 2055SOL    HW1 6851   1.899   2.631   4.165
 2055SOL    HW2 6852   1.819   2.644   4.023
 2056SOL     OW 6853   0.488   3.247   3.898
 2056SOL    HW1 6854   0.401   3.232   3.945
 2056SOL    HW2 6855   0.471   3.273   3.803
 2057SOL     OW 6856   1.664   3.142   4.381
 2057SOL    HW1 6857   1.763   3.150   4.395
 2057SOL    HW2 6858   1.619   3.226   4.412
 2058SOL     OW 6859   1.390   2.437   3.802
 2058SOL    HW1 6860   1.336   2.416   3.883
 2058SOL    HW2 6861   1.481   2.396   3.811
 2059SOL     OW 6862   0.527   2.118   4.052
 2059SOL    HW1 6863   0.554   2.059   3.977
 2059SOL    HW2 6864   0.527   2.213   4.021
 2060SOL     OW 6865   1.754   3.085   5.312
 2060SOL    HW1 6866   1.845   3.046   5.299
 2060SOL    HW2 6867   1.762   3.181   5.336
 2061SOL     OW 6868   1.064   3.209   5.064
 2061SOL    HW1 6869   0.984   3.186   5.119
 2061SOL    HW2 6870   1.147   3.183   5.113
 2062SOL     OW 6871   1.592   3.491   5.349
 2062SOL    HW1 6872   1.619   3.525   5.259
 2062SOL    HW2 6873   1.671   3.453   5.395
 2063SOL     OW 6874   1.111   3.057   4.824
 2063SOL    HW1 6875   1.071   3.101   4.905
 2063SOL    HW2 6876   1.070   3.094   4.741
 2064SOL     OW 6877   1.638   2.961   4.803
 2064SOL    HW1 6878   1.643   3.042   4.862
 2064SOL    HW2 6879   1.552   2.963   4.752
 2065SOL     OW 6880   0.915   1.951   5.126
 2065SOL    HW1 6881   0.940   1.931   5.031
 2065SOL    HW2 6882   0.987   2.007   5.168
 2066SOL     OW 6883   0.980   2.978   5.443
 2066SOL    HW1 6884   0.881   2.984   5.453
 2066SOL    HW2 6885   1.003   2.898   5.387
 2067SOL     OW 6886   0.705   2.912   4.092
 2067SOL    HW1 6887   0.691   2.919   4.191
 2067SOL    HW2 6888   0.789   2.861   4.074
 2068SOL     OW 6889   0.410   2.675   4.975
 2068SOL    HW1 6890   0.496   2.687   5.025
 2068SOL    HW2 6891   0.368   2.588   5.002
 2069SOL     OW 6892   1.274   2.248   4.986
 2069SOL    HW1 6893   1.295   2.322   5.050
 2069SOL    HW2 6894   1.185   2.265   4.943
 2070SOL     OW 6895   0.064   3.426   5.055
 2070SOL    HW1 6896   0.018   3.508   5.021
 2070SOL    HW2 6897   0.162   3.445   5.064
 2071SOL     OW 6898   0.367   2.962   4.225
 2071SOL    HW1 6899   0.360   3.045   4.169
 2071SOL    HW2 6900   0.371   2.882   4.165
 2072SOL     OW 6901   0.566   2.399   4.589
 2072SOL    HW1 6902   0.578   2.465   4.515
 2072SOL    HW2 6903   0.612   2.433   4.672
 2073SOL     OW 6904   1.252   3.210   4.112
 2073SOL    HW1 6905   1.302   3.287   4.152
 2073SOL    HW2 6906   1.157   3.212   4.144
 2074SOL     OW 6907   1.272   3.307   4.866
 2074SOL    HW1 6908   1.319   3.320   4.953
 2074SOL    HW2 6909   1.206   3.233   4.875
 2075SOL     OW 6910   1.582   2.501   4.196
 2075SOL    HW1 6911   1.551   2.562   4.269
 2075SOL    HW2 6912   1.632   2.553   4.127
 2076SOL     OW 6913   0.354   3.372   5.053
 2076SOL    HW1 6914   0.333   3.328   4.966
 2076SOL    HW2 6915   0.451   3.398   5.056
 2077SOL     OW 6916   0.402   2.613   5.322
 2077SOL    HW1 6917   0.470   2.668   5.275
 2077SOL    HW2 6918   0.442   2.525   5.349
 2078SOL     OW 6919   1.587   2.641   5.394
 2078SOL    HW1 6920   1.495   2.679   5.389
 2078SOL    HW2 6921   1.647   2.688   5.329
 2079SOL     OW 6922   1.013   1.967   5.494
 2079SOL    HW1 6923   1.019   2.052   5.442
 2079SOL    HW2 6924   1.045   1.891   5.437
 2080SOL     OW 6925   0.504   1.912   5.464
 2080SOL    HW1 6926   0.462   1.855   5.394
 2080SOL    HW2 6927   0.438   1.981   5.496
 2081SOL     OW 6928   0.573   2.732   4.753
 2081SOL    HW1 6929   0.617   2.821   4.744
 2081SOL    HW2 6930   0.510   2.732   4.830
 2082SOL     OW 6931   1.360   2.724   4.769
 2082SOL    HW1 6932   1.285   2.724   4.703
 2082SOL    HW2 6933   1.397   2.632   4.778
 2083SOL     OW 6934   1.209   2.387   3.999
 2083SOL    HW1 6935   1.222   2.303   4.053
 2083SOL    HW2 6936   1.180   2.461   4.059
 2084SOL     OW 6937   0.307   2.075   4.955
 2084SOL    HW1 6938   0.284   2.112   5.045
 2084SOL    HW2 6939   0.277   1.980   4.949
 2085SOL     OW 6940   0.037   3.172   5.006
 2085SOL    HW1 6941   0.090   3.123   5.074
 2085SOL    HW2 6942   0.059   3.270   5.011
 2086SOL     OW 6943   0.732   2.496   4.788
 2086SOL    HW1 6944   0.791   2.470   4.712
 2086SOL    HW2 6945   0.704   2.592   4.777
 2087SOL     OW 6946   1.728   2.797   5.578
 2087SOL    HW1 6947   1.682   2.790   5.489
 2087SOL    HW2 6948   1.666   2.841   5.644
 2088SOL     OW 6949   0.307   1.925   4.342
 2088SOL    HW1 6950   0.296   2.019   4.375
 2088SOL    HW2 6951   0.302   1.862   4.419
 2089SOL     OW 6952   1.622   2.229   4.098
 2089SOL    HW1 6953   1.624   2.153   4.162
 2089SOL    HW2 6954   1.574   2.306   4.138
 2090SOL     OW 6955   1.023   2.628   4.690
 2090SOL    HW1 6956   1.038   2.649   4.786
 2090SOL    HW2 6957   0.993   2.533   4.681
 2091SOL     OW 6958   0.980   3.435   5.424
 2091SOL    HW1 6959   0.960   3.479   5.336
 2091SOL    HW2 6960   1.019   3.344   5.408
 2092SOL     OW 6961   1.859   3.380   5.329
 2092SOL    HW1 6962   1.873   3.407   5.234
 2092SOL    HW2 6963   1.942   3.402   5.382
 2093SOL     OW 6964   0.350   2.760   5.528
 2093SOL    HW1 6965   0.426   2.804   5.576
 2093SOL    HW2 6966   0.385   2.713   5.446
 2094SOL     OW 6967   1.540   2.136   3.849
 2094SOL    HW1 6968   1.479   2.061   3.872
 2094SOL    HW2 6969   1.562   2.188   3.932
 2095SOL     OW 6970   1.303   2.700   3.766
 2095SOL    HW1 6971   1.337   2.607   3.781
 2095SOL    HW2 6972   1.321   2.727   3.671
 2096SOL     OW 6973   1.068   3.195   4.573
 2096SOL    HW1 6974   1.075   3.111   4.518
 2096SOL    HW2 6975   1.130   3.264   4.537
 2097SOL     OW 6976   0.319   2.672   4.673
 2097SOL    HW1 6977   0.412   2.708   4.678
 2097SOL    HW2 6978   0.313   2.587   4.725
 2098SOL     OW 6979   0.339   2.371   4.730
 2098SOL    HW1 6980   0.287   2.288   4.713
 2098SOL    HW2 6981   0.416   2.376   4.666
 2099SOL     OW 6982   1.138   2.242   5.402
 2099SOL    HW1 6983   1.093   2.305   5.466
 2099SOL    HW2 6984   1.231   2.273   5.385
 2100SOL     OW 6985   1.160   2.069   5.201
 2100SOL    HW1 6986   1.160   2.133   5.278
 2100SOL    HW2 6987   1.188   2.117   5.118
 2101SOL     OW 6988   0.008   3.188   3.924
 2101SOL    HW1 6989  -0.085   3.209   3.893
 2101SOL    HW2 6990   0.018   3.089   3.937
 2102SOL     OW 6991   0.088   3.663   4.651
 2102SOL    HW1 6992   0.046   3.577   4.624
 2102SOL    HW2 6993   0.182   3.666   4.617
 2103SOL     OW 6994   0.504   3.430   4.634
 2103SOL    HW1 6995   0.570   3.504   4.643
 2103SOL    HW2 6996   0.548   3.351   4.592
 2104SOL     OW 6997   1.002   2.658   4.962
 2104SOL    HW1 6998   1.043   2.626   5.048
 2104SOL    HW2 6999   0.906   2.631   4.959
 2105SOL     OW 7000   0.040   2.406   4.838
 2105SOL    HW1 7001   0.125   2.373   4.797
 2105SOL    HW2 7002   0.053   2.421   4.936
 2106SOL     OW 7003   0.189   2.382   5.446
 2106SOL    HW1 7004   0.248   2.342   5.376
 2106SOL    HW2 7005   0.131   2.453   5.405
 2107SOL     OW 7006   1.369   2.812   5.384
 2107SOL    HW1 7007   1.408   2.901   5.404
 2107SOL    HW2 7008   1.379   2.792   5.287
 2108SOL     OW 7009   0.815   2.434   4.049
 2108SOL    HW1 7010   0.822   2.345   4.003
 2108SOL    HW2 7011   0.721   2.468   4.041
 2109SOL     OW 7012   1.657   2.466   4.930
 2109SOL    HW1 7013   1.619   2.397   4.992
 2109SOL    HW2 7014   1.739   2.430   4.886
 2110SOL     OW 7015   0.252   3.426   5.468
 2110SOL    HW1 7016   0.222   3.483   5.544
 2110SOL    HW2 7017   0.245   3.329   5.494
 2111SOL     OW 7018   0.671   2.326   4.993
 2111SOL    HW1 7019   0.637   2.237   4.963
 2111SOL    HW2 7020   0.697   2.380   4.913
 2112SOL     OW 7021   0.930   3.540   5.189
 2112SOL    HW1 7022   0.906   3.522   5.094
 2112SOL    HW2 7023   0.960   3.634   5.199
 2113SOL     OW 7024   0.473   2.362   3.915
 2113SOL    HW1 7025   0.534   2.442   3.919
 2113SOL    HW2 7026   0.378   2.393   3.922
 2114SOL     OW 7027   0.159   2.999   5.190
 2114SOL    HW1 7028   0.181   2.938   5.266
 2114SOL    HW2 7029   0.169   2.950   5.104
 2115SOL     OW 7030   1.347   2.921   4.958
 2115SOL    HW1 7031   1.371   2.858   4.884
 2115SOL    HW2 7032   1.257   2.961   4.940
 2116SOL     OW 7033   1.302   2.717   4.033
 2116SOL    HW1 7034   1.216   2.686   4.075
 2116SOL    HW2 7035   1.298   2.703   3.934
 2117SOL     OW 7036   1.759   3.609   4.878
 2117SOL    HW1 7037   1.820   3.639   4.805
 2117SOL    HW2 7038   1.721   3.520   4.856
 2118SOL     OW 7039   1.252   3.593   4.852
 2118SOL    HW1 7040   1.336   3.598   4.798
 2118SOL    HW2 7041   1.229   3.497   4.870
 2119SOL     OW 7042   0.083   3.120   4.746
 2119SOL    HW1 7043   0.078   3.119   4.846
 2119SOL    HW2 7044   0.000   3.079   4.708
 2120SOL     OW 7045   0.688   3.524   5.440
 2120SOL    HW1 7046   0.632   3.605   5.449
 2120SOL    HW2 7047   0.740   3.528   5.354
 2121SOL     OW 7048   1.388   3.435   4.201
 2121SOL    HW1 7049   1.455   3.447   4.127
 2121SOL    HW2 7050   1.348   3.524   4.224
 2122SOL     OW 7051   0.130   3.656   5.575
 2122SOL    HW1 7052   0.089   3.582   5.628
 2122SOL    HW2 7053   0.194   3.707   5.633
 2123SOL     OW 7054   1.280   2.789   4.396
 2123SOL    HW1 7055   1.340   2.708   4.398
 2123SOL    HW2 7056   1.320   2.858   4.336
 2124SOL     OW 7057   0.830   3.135   5.146
 2124SOL    HW1 7058   0.825   3.168   5.241
 2124SOL    HW2 7059   0.744   3.154   5.100
 2125SOL     OW 7060   0.672   3.478   3.878
 2125SOL    HW1 7061   0.681   3.488   3.779
 2125SOL    HW2 7062   0.632   3.389   3.899
 2126SOL     OW 7063   1.650   3.582   5.118
 2126SOL    HW1 7064   1.703   3.592   5.034
 2126SOL    HW2 7065   1.623   3.672   5.152
 2127SOL     OW 7066   0.263   2.188   4.444
 2127SOL    HW1 7067   0.184   2.239   4.410
 2127SOL    HW2 7068   0.254   2.173   4.542
 2128SOL     OW 7069   1.194   3.474   3.755
 2128SOL    HW1 7070   1.200   3.381   3.792
 2128SOL    HW2 7071   1.135   3.474   3.675
 2129SOL     OW 7072   0.822   2.864   5.096
 2129SOL    HW1 7073   0.862   2.863   5.004
 2129SOL    HW2 7074   0.832   2.956   5.136
 2130SOL     OW 7075   0.916   2.772   4.015
 2130SOL    HW1 7076   0.979   2.810   3.947
 2130SOL    HW2 7077   0.956   2.689   4.054
 2131SOL     OW 7078   1.504   3.469   3.768
 2131SOL    HW1 7079   1.412   3.506   3.775
 2131SOL    HW2 7080   1.542   3.489   3.678
 2132SOL     OW 7081   0.372   3.150   5.214
 2132SOL    HW1 7082   0.359   3.243   5.180
 2132SOL    HW2 7083   0.288   3.098   5.201
 2133SOL     OW 7084   1.614   3.154   5.013
 2133SOL    HW1 7085   1.674   3.157   5.093
 2133SOL    HW2 7086   1.539   3.218   5.026
 2134SOL     OW 7087   1.039   2.960   4.420
 2134SOL    HW1 7088   0.969   2.913   4.474
 2134SOL    HW2 7089   1.098   2.892   4.377
 2135SOL     OW 7090   1.014   2.098   4.695
 2135SOL    HW1 7091   1.006   2.062   4.602
 2135SOL    HW2 7092   1.012   2.022   4.760
 2136SOL     OW 7093   0.590   3.349   4.215
 2136SOL    HW1 7094   0.632   3.291   4.145
 2136SOL    HW2 7095   0.546   3.428   4.171
 2137SOL     OW 7096   1.709   2.247   5.105
 2137SOL    HW1 7097   1.782   2.316   5.109
 2137SOL    HW2 7098   1.737   2.172   5.046
 2138SOL     OW 7099   0.255   3.210   4.014
 2138SOL    HW1 7100   0.159   3.211   3.987
 2138SOL    HW2 7101   0.267   3.263   4.098
 2139SOL     OW 7102   0.105   2.875   5.450
 2139SOL    HW1 7103   0.028   2.842   5.504
 2139SOL    HW2 7104   0.190   2.845   5.492
 2140SOL     OW 7105   0.672   2.065   5.213
 2140SOL    HW1 7106   0.762   2.049   5.173
 2140SOL    HW2 7107   0.680   2.070   5.312
 2141SOL     OW 7108   0.075   2.207   3.757
 2141SOL    HW1 7109  -0.017   2.179   3.728
 2141SOL    HW2 7110   0.106   2.284   3.701
 2142SOL     OW 7111   1.440   2.718   5.122
 2142SOL    HW1 7112   1.383   2.770   5.059
 2142SOL    HW2 7113   1.536   2.730   5.098
 2143SOL     OW 7114   0.072   2.028   4.042
 2143SOL    HW1 7115   0.055   2.111   3.988
 2143SOL    HW2 7116   0.162   1.991   4.020
 2144SOL     OW 7117   1.183   3.197   3.843
 2144SOL    HW1 7118   1.084   3.186   3.845
 2144SOL    HW2 7119   1.217   3.212   3.936
 2145SOL     OW 7120   0.613   2.704   5.155
 2145SOL    HW1 7121   0.669   2.785   5.138
 2145SOL    HW2 7122   0.672   2.624   5.158
 2146SOL     OW 7123   1.493   3.629   4.683
 2146SOL    HW1 7124   1.526   3.693   4.614
 2146SOL    HW2 7125   1.559   3.623   4.758
 2147SOL     OW 7126   0.716   2.427   5.432
 2147SOL    HW1 7127   0.735   2.492   5.506
 2147SOL    HW2 7128   0.776   2.347   5.441
 2148SOL     OW 7129   1.450   3.082   5.357
 2148SOL    HW1 7130   1.441   3.072   5.456
 2148SOL    HW2 7131   1.546   3.075   5.331
 2149SOL     OW 7132   0.390   3.603   5.284
 2149SOL    HW1 7133   0.299   3.644   5.282
 2149SOL    HW2 7134   0.383   3.509   5.316
 2150SOL     OW 7135   1.674   2.745   4.978
 2150SOL    HW1 7136   1.647   2.656   4.941
 2150SOL    HW2 7137   1.675   2.813   4.905
 2151SOL     OW 7138   1.225   2.187   4.173
 2151SOL    HW1 7139   1.290   2.113   4.162
 2151SOL    HW2 7140   1.245   2.237   4.257
 2152SOL     OW 7141   0.594   2.607   4.376
 2152SOL    HW1 7142   0.644   2.692   4.357
 2152SOL    HW2 7143   0.506   2.609   4.328
 2153SOL     OW 7144   1.777   2.204   5.366
 2153SOL    HW1 7145   1.760   2.235   5.272
 2153SOL    HW2 7146   1.693   2.167   5.404
 2154SOL     OW 7147   1.730   2.796   5.241
 2154SOL    HW1 7148   1.768   2.887   5.256
 2154SOL    HW2 7149   1.722   2.779   5.142
 2155SOL     OW 7150   0.859   3.236   3.740
 2155SOL    HW1 7151   0.813   3.251   3.828
 2155SOL    HW2 7152   0.903   3.321   3.710
 2156SOL     OW 7153   0.661   3.652   4.677
 2156SOL    HW1 7154   0.615   3.740   4.664
 2156SOL    HW2 7155   0.760   3.664   4.670
 2157SOL     OW 7156   0.859   2.818   4.585
 2157SOL    HW1 7157   0.913   2.749   4.633
 2157SOL    HW2 7158   0.827   2.887   4.651
 2158SOL     OW 7159   1.083   2.846   3.811
 2158SOL    HW1 7160   1.060   2.899   3.729
 2158SOL    HW2 7161   1.164   2.790   3.792
 2159SOL     OW 7162   1.861   3.431   4.575
 2159SOL    HW1 7163   1.790   3.419   4.505
 2159SOL    HW2 7164   1.862   3.352   4.635
 2160SOL     OW 7165   0.221   3.176   5.568
 2160SOL    HW1 7166   0.156   3.103   5.547
 2160SOL    HW2 7167   0.225   3.190   5.666
 2161SOL     OW 7168   0.079   3.102   4.377
 2161SOL    HW1 7169   0.078   3.055   4.465
 2161SOL    HW2 7170   0.161   3.074   4.326
 2162SOL     OW 7171   0.672   3.253   5.348
 2162SOL    HW1 7172   0.594   3.203   5.386
 2162SOL    HW2 7173   0.669   3.348   5.379
 2163SOL     OW 7174   0.428   2.286   4.244
 2163SOL    HW1 7175   0.458   2.214   4.182
 2163SOL    HW2 7176   0.389   2.246   4.327
 2164SOL     OW 7177   1.705   3.349   4.828
 2164SOL    HW1 7178   1.612   3.324   4.801
 2164SOL    HW2 7179   1.731   3.299   4.910
 2165SOL     OW 7180   0.317   2.409   5.004
 2165SOL    HW1 7181   0.355   2.350   5.076
 2165SOL    HW2 7182   0.357   2.383   4.916
 2166SOL     OW 7183   0.812   3.448   4.411
 2166SOL    HW1 7184   0.844   3.458   4.317
 2166SOL    HW2 7185   0.733   3.386   4.413
 2167SOL     OW 7186   1.424   2.076   4.836
 2167SOL    HW1 7187   1.476   2.011   4.891
 2167SOL    HW2 7188   1.375   2.139   4.897
 2168SOL     OW 7189   1.001   1.896   4.878
 2168SOL    HW1 7190   0.938   1.824   4.847
 2168SOL    HW2 7191   1.094   1.860   4.878
 2169SOL     OW 7192   0.770   3.192   4.025
 2169SOL    HW1 7193   0.724   3.105   4.042
 2169SOL    HW2 7194   0.861   3.189   4.066
 2170SOL     OW 7195   0.618   3.429   5.008
 2170SOL    HW1 7196   0.613   3.511   5.065
 2170SOL    HW2 7197   0.707   3.426   4.963
 2171SOL     OW 7198   1.352   1.914   3.892
 2171SOL    HW1 7199   1.387   1.873   3.808
 2171SOL    HW2 7200   1.262   1.876   3.912
 2172SOL     OW 7201   1.300   2.315   4.415
 2172SOL    HW1 7202   1.241   2.395   4.419
 2172SOL    HW2 7203   1.315   2.280   4.508
 2173SOL     OW 7204   1.593   2.083   4.606
 2173SOL    HW1 7205   1.509   2.082   4.660
 2173SOL    HW2 7206   1.595   2.166   4.550
 2174SOL     OW 7207   0.039   2.939   4.024
 2174SOL    HW1 7208   0.138   2.928   4.015
 2174SOL    HW2 7209  -0.001   2.853   4.056
 2175SOL     OW 7210   0.875   3.508   4.061
 2175SOL    HW1 7211   0.798   3.473   4.007
 2175SOL    HW2 7212   0.843   3.579   4.123
 2176SOL     OW 7213   0.230   2.490   5.699
 2176SOL    HW1 7214   0.137   2.488   5.736
 2176SOL    HW2 7215   0.231   2.451   5.607
 2177SOL     OW 7216   0.225   2.137   6.582
 2177SOL    HW1 7217   0.260   2.120   6.674
 2177SOL    HW2 7218   0.137   2.092   6.570
 2178SOL     OW 7219   0.019   2.230   6.233
 2178SOL    HW1 7220  -0.063   2.273   6.272
 2178SOL    HW2 7221  -0.009   2.157   6.170
 2179SOL     OW 7222   0.569   3.137   6.751
 2179SOL    HW1 7223   0.476   3.130   6.714
 2179SOL    HW2 7224   0.580   3.226   6.795
 2180SOL     OW 7225   1.555   3.373   6.289
 2180SOL    HW1 7226   1.498   3.357   6.370
 2180SOL    HW2 7227   1.496   3.383   6.209
 2181SOL     OW 7228   1.755   2.469   5.817
 2181SOL    HW1 7229   1.743   2.456   5.718
 2181SOL    HW2 7230   1.725   2.388   5.866
 2182SOL     OW 7231   0.768   3.006   6.609
 2182SOL    HW1 7232   0.690   3.023   6.669
 2182SOL    HW2 7233   0.802   3.093   6.573
 2183SOL     OW 7234   0.850   2.660   7.409
 2183SOL    HW1 7235   0.846   2.736   7.474
 2183SOL    HW2 7236   0.872   2.696   7.318
 2184SOL     OW 7237   0.685   2.874   6.251
 2184SOL    HW1 7238   0.754   2.858   6.321
 2184SOL    HW2 7239   0.612   2.931   6.289
 2185SOL     OW 7240   0.686   3.023   7.389
 2185SOL    HW1 7241   0.746   3.102   7.403
 2185SOL    HW2 7242   0.600   3.054   7.348
 2186SOL     OW 7243   0.335   3.297   6.647
 2186SOL    HW1 7244   0.257   3.266   6.594
 2186SOL    HW2 7245   0.393   3.355   6.590
 2187SOL     OW 7246   1.460   3.367   6.925
 2187SOL    HW1 7247   1.484   3.461   6.951
 2187SOL    HW2 7248   1.444   3.313   7.007
 2188SOL     OW 7249   0.438   2.254   7.085
 2188SOL    HW1 7250   0.520   2.198   7.094
 2188SOL    HW2 7251   0.357   2.196   7.089
 2189SOL     OW 7252   1.603   2.309   6.323
 2189SOL    HW1 7253   1.529   2.355   6.273
 2189SOL    HW2 7254   1.654   2.377   6.376
 2190SOL     OW 7255   0.231   3.575   6.069
 2190SOL    HW1 7256   0.265   3.652   6.123
 2190SOL    HW2 7257   0.275   3.575   5.979
 2191SOL     OW 7258   1.127   3.203   7.276
 2191SOL    HW1 7259   1.174   3.203   7.364
 2191SOL    HW2 7260   1.079   3.116   7.265
 2192SOL     OW 7261   0.230   3.296   6.124
 2192SOL    HW1 7262   0.204   3.392   6.124
 2192SOL    HW2 7263   0.159   3.242   6.169
 2193SOL     OW 7264   0.240   2.953   6.472
 2193SOL    HW1 7265   0.254   2.869   6.524
 2193SOL    HW2 7266   0.185   3.017   6.527
 2194SOL     OW 7267   0.620   3.648   7.025
 2194SOL    HW1 7268   0.528   3.631   7.060
 2194SOL    HW2 7269   0.648   3.740   7.051
 2195SOL     OW 7270   0.606   2.826   5.709
 2195SOL    HW1 7271   0.613   2.910   5.655
 2195SOL    HW2 7272   0.652   2.839   5.797
 2196SOL     OW 7273   1.594   1.976   7.066
 2196SOL    HW1 7274   1.576   2.043   6.994
 2196SOL    HW2 7275   1.591   2.022   7.155
 2197SOL     OW 7276   0.122   2.505   6.149
 2197SOL    HW1 7277   0.077   2.417   6.166
 2197SOL    HW2 7278   0.121   2.559   6.233
 2198SOL     OW 7279   1.842   3.629   5.945
 2198SOL    HW1 7280   1.896   3.600   6.025
 2198SOL    HW2 7281   1.872   3.719   5.916
 2199SOL     OW 7282   0.027   3.458   5.703
 2199SOL    HW1 7283   0.008   3.362   5.724
 2199SOL    HW2 7284  -0.006   3.516   5.778
 2200SOL     OW 7285   1.641   2.970   6.018
 2200SOL    HW1 7286   1.727   2.972   5.966
 2200SOL    HW2 7287   1.655   3.017   6.106
 2201SOL     OW 7288   0.113   2.599   7.183
 2201SOL    HW1 7289   0.201   2.586   7.228
 2201SOL    HW2 7290   0.100   2.696   7.161
 2202SOL     OW 7291   0.613   3.227   6.312
 2202SOL    HW1 7292   0.564   3.140   6.321
 2202SOL    HW2 7293   0.590   3.270   6.225
 2203SOL     OW 7294   1.293   3.090   7.009
 2203SOL    HW1 7295   1.330   3.017   6.951
 2203SOL    HW2 7296   1.345   3.095   7.094
 2204SOL     OW 7297   0.809   1.866   6.088
 2204SOL    HW1 7298   0.849   1.957   6.079
 2204SOL    HW2 7299   0.709   1.874   6.094
 2205SOL     OW 7300   0.197   2.838   6.850
 2205SOL    HW1 7301   0.286   2.793   6.836
 2205SOL    HW2 7302   0.124   2.773   6.831
 2206SOL     OW 7303   1.525   2.861   5.776
 2206SOL    HW1 7304   1.462   2.785   5.789
 2206SOL    HW2 7305   1.573   2.879   5.862
 2207SOL     OW 7306   1.187   3.654   7.202
 2207SOL    HW1 7307   1.211   3.714   7.126
 2207SOL    HW2 7308   1.194   3.559   7.172
 2208SOL     OW 7309   0.317   2.113   7.387
 2208SOL    HW1 7310   0.388   2.184   7.393
 2208SOL    HW2 7311   0.229   2.152   7.415
 2209SOL     OW 7312   1.466   3.279   6.539
 2209SOL    HW1 7313   1.407   3.285   6.619
 2209SOL    HW2 7314   1.451   3.191   6.493
 2210SOL     OW 7315   1.667   3.576   6.158
 2210SOL    HW1 7316   1.626   3.553   6.070
 2210SOL    HW2 7317   1.649   3.502   6.223
 2211SOL     OW 7318   0.598   2.591   5.856
 2211SOL    HW1 7319   0.622   2.660   5.788
 2211SOL    HW2 7320   0.520   2.624   5.910
 2212SOL     OW 7321   1.576   3.524   5.893
 2212SOL    HW1 7322   1.665   3.570   5.896
 2212SOL    HW2 7323   1.555   3.500   5.798
 2213SOL     OW 7324   0.807   2.467   7.051
 2213SOL    HW1 7325   0.760   2.464   7.140
 2213SOL    HW2 7326   0.756   2.412   6.985
 2214SOL     OW 7327   0.973   2.752   7.158
 2214SOL    HW1 7328   1.019   2.668   7.129
 2214SOL    HW2 7329   0.917   2.786   7.083
 2215SOL     OW 7330   0.991   2.272   6.828
 2215SOL    HW1 7331   0.914   2.306   6.882
 2215SOL    HW2 7332   0.957   2.221   6.749
 2216SOL     OW 7333   1.041   2.563   6.015
 2216SOL    HW1 7334   1.067   2.559   6.111
 2216SOL    HW2 7335   0.956   2.512   6.001
 2217SOL     OW 7336   0.076   2.673   6.375
 2217SOL    HW1 7337   0.175   2.661   6.384
 2217SOL    HW2 7338   0.052   2.768   6.396
 2218SOL     OW 7339   0.130   3.683   7.157
 2218SOL    HW1 7340   0.120   3.668   7.256
 2218SOL    HW2 7341   0.044   3.719   7.121
 2219SOL     OW 7342   0.865   2.210   5.781
 2219SOL    HW1 7343   0.924   2.273   5.732
 2219SOL    HW2 7344   0.884   2.116   5.752
 2220SOL     OW 7345   1.362   3.006   6.131
 2220SOL    HW1 7346   1.445   2.977   6.083
 2220SOL    HW2 7347   1.313   3.073   6.075
 2221SOL     OW 7348   0.550   2.058   6.471
 2221SOL    HW1 7349   0.545   2.053   6.571
 2221SOL    HW2 7350   0.552   2.154   6.442
 2222SOL     OW 7351   1.008   3.318   6.063
 2222SOL    HW1 7352   0.962   3.390   6.011
 2222SOL    HW2 7353   1.004   3.338   6.161
 2223SOL     OW 7354   0.351   3.663   6.439
 2223SOL    HW1 7355   0.401   3.577   6.445
 2223SOL    HW2 7356   0.416   3.740   6.436
 2224SOL     OW 7357   1.795   2.928   6.459
 2224SOL    HW1 7358   1.733   2.913   6.383
 2224SOL    HW2 7359   1.743   2.939   6.544
 2225SOL     OW 7360   1.227   3.412   7.092
 2225SOL    HW1 7361   1.233   3.335   7.156
 2225SOL    HW2 7362   1.175   3.386   7.012
 2226SOL     OW 7363   0.321   2.805   5.828
 2226SOL    HW1 7364   0.403   2.844   5.786
 2226SOL    HW2 7365   0.294   2.723   5.779
 2227SOL     OW 7366   0.461   3.128   7.313
 2227SOL    HW1 7367   0.411   3.129   7.227
 2227SOL    HW2 7368   0.398   3.110   7.389
 2228SOL     OW 7369   1.111   3.638   5.823
 2228SOL    HW1 7370   1.051   3.576   5.873
 2228SOL    HW2 7371   1.142   3.594   5.738
 2229SOL     OW 7372   0.202   2.147   7.084
 2229SOL    HW1 7373   0.122   2.207   7.071
 2229SOL    HW2 7374   0.192   2.098   7.170
 2230SOL     OW 7375   1.632   3.239   5.667
 2230SOL    HW1 7376   1.600   3.333   5.657
 2230SOL    HW2 7377   1.556   3.176   5.655
 2231SOL     OW 7378   0.464   3.605   5.909
 2231SOL    HW1 7379   0.497   3.644   5.995
 2231SOL    HW2 7380   0.540   3.598   5.844
 2232SOL     OW 7381   0.249   3.647   6.827
 2232SOL    HW1 7382   0.306   3.582   6.877
 2232SOL    HW2 7383   0.233   3.614   6.734
 2233SOL     OW 7384   0.940   3.560   6.490
 2233SOL    HW1 7385   1.020   3.503   6.511
 2233SOL    HW2 7386   0.891   3.520   6.413
 2234SOL     OW 7387   0.382   2.562   6.066
 2234SOL    HW1 7388   0.427   2.472   6.063
 2234SOL    HW2 7389   0.288   2.551   6.099
 2235SOL     OW 7390   1.547   2.084   7.315
 2235SOL    HW1 7391   1.542   2.121   7.407
 2235SOL    HW2 7392   1.475   2.015   7.303
 2236SOL     OW 7393   0.614   1.984   5.703
 2236SOL    HW1 7394   0.712   1.962   5.710
 2236SOL    HW2 7395   0.583   1.967   5.610
 2237SOL     OW 7396   0.781   2.126   7.335
 2237SOL    HW1 7397   0.848   2.065   7.378
 2237SOL    HW2 7398   0.708   2.145   7.400
 2238SOL     OW 7399   0.888   3.376   6.781
 2238SOL    HW1 7400   0.865   3.351   6.687
 2238SOL    HW2 7401   0.949   3.307   6.820
 2239SOL     OW 7402   1.351   2.452   7.019
 2239SOL    HW1 7403   1.379   2.409   7.104
 2239SOL    HW2 7404   1.376   2.548   7.020
 2240SOL     OW 7405   0.803   3.264   6.510
 2240SOL    HW1 7406   0.893   3.278   6.468
 2240SOL    HW2 7407   0.732   3.266   6.439
 2241SOL     OW 7408   0.922   2.365   6.485
 2241SOL    HW1 7409   0.897   2.356   6.389
 2241SOL    HW2 7410   0.970   2.283   6.516
 2242SOL     OW 7411   0.539   1.926   6.098
 2242SOL    HW1 7412   0.458   1.927   6.156
 2242SOL    HW2 7413   0.542   2.009   6.043
 2243SOL     OW 7414   1.434   3.050   5.627
 2243SOL    HW1 7415   1.466   2.974   5.684
 2243SOL    HW2 7416   1.342   3.077   5.657
 2244SOL     OW 7417   0.297   1.897   5.757
 2244SOL    HW1 7418   0.346   1.981   5.736
 2244SOL    HW2 7419   0.359   1.832   5.802
 2245SOL     OW 7420   0.935   2.098   6.066
 2245SOL    HW1 7421   0.887   2.139   5.988
 2245SOL    HW2 7422   1.034   2.096   6.047
 2246SOL     OW 7423   1.076   2.545   7.050
 2246SOL    HW1 7424   0.996   2.484   7.053
 2246SOL    HW2 7425   1.157   2.492   7.026
 2247SOL     OW 7426   1.227   3.432   6.379
 2247SOL    HW1 7427   1.248   3.506   6.314
 2247SOL    HW2 7428   1.295   3.432   6.452
 2248SOL     OW 7429   0.459   3.014   6.327
 2248SOL    HW1 7430   0.388   2.987   6.392
 2248SOL    HW2 7431   0.433   2.986   6.234
 2249SOL     OW 7432   1.271   3.659   6.177
 2249SOL    HW1 7433   1.315   3.723   6.113
 2249SOL    HW2 7434   1.221   3.711   6.247
 2250SOL     OW 7435   1.032   2.411   5.602
 2250SOL    HW1 7436   0.991   2.493   5.563
 2250SOL    HW2 7437   1.096   2.437   5.675
 2251SOL     OW 7438   0.078   2.418   6.972
 2251SOL    HW1 7439   0.170   2.417   6.931
 2251SOL    HW2 7440   0.072   2.492   7.039
 2252SOL     OW 7441   0.561   2.084   6.733
 2252SOL    HW1 7442   0.599   2.000   6.770
 2252SOL    HW2 7443   0.473   2.103   6.777
 2253SOL     OW 7444   0.866   2.316   6.228
 2253SOL    HW1 7445   0.834   2.388   6.166
 2253SOL    HW2 7446   0.890   2.235   6.175
 2254SOL     OW 7447   1.429   3.035   6.453
 2254SOL    HW1 7448   1.374   2.951   6.446
 2254SOL    HW2 7449   1.455   3.064   6.361
 2255SOL     OW 7450   0.488   3.247   5.760
 2255SOL    HW1 7451   0.401   3.232   5.807
 2255SOL    HW2 7452   0.471   3.273   5.665
 2256SOL     OW 7453   1.664   3.142   6.243
 2256SOL    HW1 7454   1.763   3.150   6.257
 2256SOL    HW2 7455   1.619   3.226   6.274
 2257SOL     OW 7456   1.390   2.437   5.664
 2257SOL    HW1 7457   1.336   2.416   5.745
 2257SOL    HW2 7458   1.481   2.396   5.673
 2258SOL     OW 7459   0.527   2.118   5.914
 2258SOL    HW1 7460   0.554   2.059   5.839
 2258SOL    HW2 7461   0.527   2.213   5.883
 2259SOL     OW 7462   1.754   3.085   7.174
 2259SOL    HW1 7463   1.845   3.046   7.161
 2259SOL    HW2 7464   1.762   3.181   7.198
 2260SOL     OW 7465   1.064   3.209   6.926
 2260SOL    HW1 7466   0.984   3.186   6.981
 2260SOL    HW2 7467   1.147   3.183   6.975
 2261SOL     OW 7468   1.592   3.491   7.211
 2261SOL    HW1 7469   1.619   3.525   7.121
 2261SOL    HW2 7470   1.671   3.453   7.257
 2262SOL     OW 7471   1.111   3.057   6.686
 2262SOL    HW1 7472   1.071   3.101   6.767
 2262SOL    HW2 7473   1.070   3.094   6.603
 2263SOL     OW 7474   1.638   2.961   6.665
 2263SOL    HW1 7475   1.643   3.042   6.724
 2263SOL    HW2 7476   1.552   2.963   6.614
 2264SOL     OW 7477   0.915   1.951   6.988
 2264SOL    HW1 7478   0.940   1.931   6.893
 2264SOL    HW2 7479   0.987   2.007   7.030
 2265SOL     OW 7480   0.980   2.978   7.305
 2265SOL    HW1 7481   0.881   2.984   7.315
 2265SOL    HW2 7482   1.003   2.898   7.249
 2266SOL     OW 7483   0.705   2.912   5.954
 2266SOL    HW1 7484   0.691   2.919   6.053
 2266SOL    HW2 7485   0.789   2.861   5.936
 2267SOL     OW 7486   0.410   2.675   6.837
 2267SOL    HW1 7487   0.496   2.687   6.887
 2267SOL    HW2 7488   0.368   2.588   6.864
 2268SOL     OW 7489   1.274   2.248   6.848
 2268SOL    HW1 7490   1.295   2.322   6.912
 2268SOL    HW2 7491   1.185   2.265   6.805
 2269SOL     OW 7492   0.064   3.426   6.917
 2269SOL    HW1 7493   0.018   3.508   6.883
 2269SOL    HW2 7494   0.162   3.445   6.926
 2270SOL     OW 7495   0.367   2.962   6.087
 2270SOL    HW1 7496   0.360   3.045   6.031
 2270SOL    HW2 7497   0.371   2.882   6.027
 2271SOL     OW 7498   0.566   2.399   6.451
 2271SOL    HW1 7499   0.578   2.465   6.377
 2271SOL    HW2 7500   0.612   2.433   6.534
 2272SOL     OW 7501   1.252   3.210   5.974
 2272SOL    HW1 7502   1.302   3.287   6.014
 2272SOL    HW2 7503   1.157   3.212   6.006
 2273SOL     OW 7504   1.272   3.307   6.728
 2273SOL    HW1 7505   1.319   3.320   6.815
 2273SOL    HW2 7506   1.206   3.233   6.737
 2274SOL     OW 7507   1.582   2.501   6.058
 2274SOL    HW1 7508   1.551   2.562   6.131
 2274SOL    HW2 7509   1.632   2.553   5.989
 2275SOL     OW 7510   0.354   3.372   6.915
 2275SOL    HW1 7511   0.333   3.328   6.828
 2275SOL    HW2 7512   0.451   3.398   6.918
 2276SOL     OW 7513   0.402   2.613   7.184
 2276SOL    HW1 7514   0.470   2.668   7.137
 2276SOL    HW2 7515   0.442   2.525   7.211
 2277SOL     OW 7516   0.504   1.912   7.326
 2277SOL    HW1 7517   0.462   1.855   7.256
 2277SOL    HW2 7518   0.438   1.981   7.358
 2278SOL     OW 7519   0.573   2.732   6.615
 2278SOL    HW1 7520   0.617   2.821   6.606
 2278SOL    HW2 7521   0.510   2.732   6.692
 2279SOL     OW 7522   1.209   2.387   5.861
 2279SOL    HW1 7523   1.222   2.303   5.915
 2279SOL    HW2 7524   1.180   2.461   5.921
 2280SOL     OW 7525   0.307   2.075   6.817
 2280SOL    HW1 7526   0.284   2.112   6.907
 2280SOL    HW2 7527   0.277   1.980   6.811
 2281SOL     OW 7528   0.037   3.172   6.868
 2281SOL    HW1 7529   0.090   3.123   6.936
 2281SOL    HW2 7530   0.059   3.270   6.873
 2282SOL     OW 7531   0.732   2.496   6.650
 2282SOL    HW1 7532   0.791   2.470   6.574
 2282SOL    HW2 7533   0.704   2.592   6.639
 2283SOL     OW 7534   0.307   1.925   6.204
 2283SOL    HW1 7535   0.296   2.019   6.237
 2283SOL    HW2 7536   0.302   1.862   6.281
 2284SOL     OW 7537   1.622   2.229   5.960
 2284SOL    HW1 7538   1.624   2.153   6.024
 2284SOL    HW2 7539   1.574   2.306   6.000
 2285SOL     OW 7540   1.023   2.628   6.552
 2285SOL    HW1 7541   1.038   2.649   6.648
 2285SOL    HW2 7542   0.993   2.533   6.543
 2286SOL     OW 7543   0.980   3.435   7.286
 2286SOL    HW1 7544   0.960   3.479   7.198
 2286SOL    HW2 7545   1.019   3.344   7.270
 2287SOL     OW 7546   1.859   3.380   7.191
 2287SOL    HW1 7547   1.873   3.407   7.096
 2287SOL    HW2 7548   1.942   3.402   7.244
 2288SOL     OW 7549   0.350   2.760   7.390
 2288SOL    HW1 7550   0.426   2.804   7.438
 2288SOL    HW2 7551   0.385   2.713   7.308
 2289SOL     OW 7552   1.540   2.136   5.711
 2289SOL    HW1 7553   1.479   2.061   5.734
 2289SOL    HW2 7554   1.562   2.188   5.794
 2290SOL     OW 7555   1.303   2.700   5.628
 2290SOL    HW1 7556   1.337   2.607   5.643
 2290SOL    HW2 7557   1.321   2.727   5.533
 2291SOL     OW 7558   1.068   3.195   6.435
 2291SOL    HW1 7559   1.075   3.111   6.380
 2291SOL    HW2 7560   1.130   3.264   6.399
 2292SOL     OW 7561   0.319   2.672   6.535
 2292SOL    HW1 7562   0.412   2.708   6.540
 2292SOL    HW2 7563   0.313   2.587   6.587
 2293SOL     OW 7564   0.339   2.371   6.592
 2293SOL    HW1 7565   0.287   2.288   6.575
 2293SOL    HW2 7566   0.416   2.376   6.528
 2294SOL     OW 7567   0.008   3.188   5.786
 2294SOL    HW1 7568  -0.085   3.209   5.755
 2294SOL    HW2 7569   0.018   3.089   5.799
 2295SOL     OW 7570   0.088   3.663   6.513
 2295SOL    HW1 7571   0.046   3.577   6.486
 2295SOL    HW2 7572   0.182   3.666   6.479
 2296SOL     OW 7573   0.504   3.430   6.496
 2296SOL    HW1 7574   0.570   3.504   6.505
 2296SOL    HW2 7575   0.548   3.351   6.454
 2297SOL     OW 7576   1.002   2.658   6.824
 2297SOL    HW1 7577   1.043   2.626   6.910
 2297SOL    HW2 7578   0.906   2.631   6.821
 2298SOL     OW 7579   0.040   2.406   6.700
 2298SOL    HW1 7580   0.125   2.373   6.659
 2298SOL    HW2 7581   0.053   2.421   6.798
 2299SOL     OW 7582   0.189   2.382   7.308
 2299SOL    HW1 7583   0.248   2.342   7.238
 2299SOL    HW2 7584   0.131   2.453   7.267
 2300SOL     OW 7585   1.369   2.812   7.246
 2300SOL    HW1 7586   1.408   2.901   7.266
 2300SOL    HW2 7587   1.379   2.792   7.149
 2301SOL     OW 7588   0.815   2.434   5.911
 2301SOL    HW1 7589   0.822   2.345   5.865
 2301SOL    HW2 7590   0.721   2.468   5.903
 2302SOL     OW 7591   0.252   3.426   7.330
 2302SOL    HW1 7592   0.222   3.483   7.406
 2302SOL    HW2 7593   0.245   3.329   7.356
 2303SOL     OW 7594   0.671   2.326   6.855
 2303SOL    HW1 7595   0.637   2.237   6.825
 2303SOL    HW2 7596   0.697   2.380   6.775
 2304SOL     OW 7597   0.930   3.540   7.051
 2304SOL    HW1 7598   0.906   3.522   6.956
 2304SOL    HW2 7599   0.960   3.634   7.061
 2305SOL     OW 7600   0.473   2.362   5.777
 2305SOL    HW1 7601   0.534   2.442   5.781
 2305SOL    HW2 7602   0.378   2.393   5.784
 2306SOL     OW 7603   0.159   2.999   7.052
 2306SOL    HW1 7604   0.181   2.938   7.128
 2306SOL    HW2 7605   0.169   2.950   6.966
 2307SOL     OW 7606   1.347   2.921   6.820
 2307SOL    HW1 7607   1.371   2.858   6.746
 2307SOL    HW2 7608   1.257   2.961   6.802
 2308SOL     OW 7609   1.302   2.717   5.895
 2308SOL    HW1 7610   1.216   2.686   5.937
 2308SOL    HW2 7611   1.298   2.703   5.796
 2309SOL     OW 7612   1.759   3.609   6.740
 2309SOL    HW1 7613   1.820   3.639   6.667
 2309SOL    HW2 7614   1.721   3.520   6.718
 2310SOL     OW 7615   1.252   3.593   6.714
 2310SOL    HW1 7616   1.336   3.598   6.660
 2310SOL    HW2 7617   1.229   3.497   6.732
 2311SOL     OW 7618   0.083   3.120   6.608
 2311SOL    HW1 7619   0.078   3.119   6.708
 2311SOL    HW2 7620   0.000   3.079   6.570
 2312SOL     OW 7621   0.688   3.524   7.302
 2312SOL    HW1 7622   0.632   3.605   7.311
 2312SOL    HW2 7623   0.740   3.528   7.216
 2313SOL     OW 7624   1.726   1.997   6.109
 2313SOL    HW1 7625   1.799   1.980   6.042
 2313SOL    HW2 7626   1.695   1.910   6.147
 2314SOL     OW 7627   1.388   3.435   6.063
 2314SOL    HW1 7628   1.455   3.447   5.989
 2314SOL    HW2 7629   1.348   3.524   6.086
 2315SOL     OW 7630   0.130   3.656   7.437
 2315SOL    HW1 7631   0.089   3.582   7.490
 2315SOL    HW2 7632   0.194   3.707   7.495
 2316SOL     OW 7633   1.280   2.789   6.258
 2316SOL    HW1 7634   1.340   2.708   6.260
 2316SOL    HW2 7635   1.320   2.858   6.198
 2317SOL     OW 7636   0.830   3.135   7.008
 2317SOL    HW1 7637   0.825   3.168   7.103
 2317SOL    HW2 7638   0.744   3.154   6.962
 2318SOL     OW 7639   0.672   3.478   5.740
 2318SOL    HW1 7640   0.681   3.488   5.641
 2318SOL    HW2 7641   0.632   3.389   5.761
 2319SOL     OW 7642   1.650   3.582   6.980
 2319SOL    HW1 7643   1.703   3.592   6.896
 2319SOL    HW2 7644   1.623   3.672   7.014
 2320SOL     OW 7645   0.263   2.188   6.306
 2320SOL    HW1 7646   0.184   2.239   6.272
 2320SOL    HW2 7647   0.254   2.173   6.404
 2321SOL     OW 7648   1.194   3.474   5.617
 2321SOL    HW1 7649   1.200   3.381   5.654
 2321SOL    HW2 7650   1.135   3.474   5.537
 2322SOL     OW 7651   0.822   2.864   6.958
 2322SOL    HW1 7652   0.862   2.863   6.866
 2322SOL    HW2 7653   0.832   2.956   6.998
 2323SOL     OW 7654   0.916   2.772   5.877
 2323SOL    HW1 7655   0.979   2.810   5.809
 2323SOL    HW2 7656   0.956   2.689   5.916
 2324SOL     OW 7657   1.504   3.469   5.630
 2324SOL    HW1 7658   1.412   3.506   5.637
 2324SOL    HW2 7659   1.542   3.489   5.540
 2325SOL     OW 7660   0.372   3.150   7.076
 2325SOL    HW1 7661   0.359   3.243   7.042
 2325SOL    HW2 7662   0.288   3.098   7.063
 2326SOL     OW 7663   1.614   3.154   6.875
 2326SOL    HW1 7664   1.674   3.157   6.955
 2326SOL    HW2 7665   1.539   3.218   6.888
 2327SOL     OW 7666   1.039   2.960   6.282
 2327SOL    HW1 7667   0.969   2.913   6.336
 2327SOL    HW2 7668   1.098   2.892   6.239
 2328SOL     OW 7669   0.590   3.349   6.077
 2328SOL    HW1 7670   0.632   3.291   6.007
 2328SOL    HW2 7671   0.546   3.428   6.033
 2329SOL     OW 7672   0.255   3.210   5.876
 2329SOL    HW1 7673   0.159   3.211   5.849
 2329SOL    HW2 7674   0.267   3.263   5.960
 2330SOL     OW 7675   0.105   2.875   7.312
 2330SOL    HW1 7676   0.028   2.842   7.366
 2330SOL    HW2 7677   0.190   2.845   7.354
 2331SOL     OW 7678   0.672   2.065   7.075
 2331SOL    HW1 7679   0.762   2.049   7.035
 2331SOL    HW2 7680   0.680   2.070   7.174
 2332SOL     OW 7681   0.075   2.207   5.619
 2332SOL    HW1 7682  -0.017   2.179   5.590
 2332SOL    HW2 7683   0.106   2.284   5.563
 2333SOL     OW 7684   1.440   2.718   6.984
 2333SOL    HW1 7685   1.383   2.770   6.921
 2333SOL    HW2 7686   1.536   2.730   6.960
 2334SOL     OW 7687   0.072   2.028   5.904
 2334SOL    HW1 7688   0.055   2.111   5.850
 2334SOL    HW2 7689   0.162   1.991   5.882
 2335SOL     OW 7690   1.183   3.197   5.705
 2335SOL    HW1 7691   1.084   3.186   5.707
 2335SOL    HW2 7692   1.217   3.212   5.798
 2336SOL     OW 7693   0.613   2.704   7.017
 2336SOL    HW1 7694   0.669   2.785   7.000
 2336SOL    HW2 7695   0.672   2.624   7.020
 2337SOL     OW 7696   1.493   3.629   6.545
 2337SOL    HW1 7697   1.526   3.693   6.476
 2337SOL    HW2 7698   1.559   3.623   6.620
 2338SOL     OW 7699   0.716   2.427   7.294
 2338SOL    HW1 7700   0.735   2.492   7.368
 2338SOL    HW2 7701   0.776   2.347   7.303
 2339SOL     OW 7702   1.450   3.082   7.219
 2339SOL    HW1 7703   1.441   3.072   7.318
 2339SOL    HW2 7704   1.546   3.075   7.193
 2340SOL     OW 7705   0.390   3.603   7.146
 2340SOL    HW1 7706   0.299   3.644   7.144
 2340SOL    HW2 7707   0.383   3.509   7.178
 2341SOL     OW 7708   1.674   2.745   6.840
 2341SOL    HW1 7709   1.647   2.656   6.803
 2341SOL    HW2 7710   1.675   2.813   6.767
 2342SOL     OW 7711   0.594   2.607   6.238
 2342SOL    HW1 7712   0.644   2.692   6.219
 2342SOL    HW2 7713   0.506   2.609   6.190
 2343SOL     OW 7714   1.777   2.204   7.228
 2343SOL    HW1 7715   1.760   2.235   7.134
 2343SOL    HW2 7716   1.693   2.167   7.266
 2344SOL     OW 7717   0.859   3.236   5.602
 2344SOL    HW1 7718   0.813   3.251   5.690
 2344SOL    HW2 7719   0.903   3.321   5.572
 2345SOL     OW 7720   0.661   3.652   6.539
 2345SOL    HW1 7721   0.615   3.740   6.526
 2345SOL    HW2 7722   0.760   3.664   6.532
 2346SOL     OW 7723   0.859   2.818   6.447
 2346SOL    HW1 7724   0.913   2.749   6.495
 2346SOL    HW2 7725   0.827   2.887   6.513
 2347SOL     OW 7726   1.083   2.846   5.673
 2347SOL    HW1 7727   1.060   2.899   5.591
 2347SOL    HW2 7728   1.164   2.790   5.654
 2348SOL     OW 7729   1.861   3.431   6.437
 2348SOL    HW1 7730   1.790   3.419   6.367
 2348SOL    HW2 7731   1.862   3.352   6.497
 2349SOL     OW 7732   0.221   3.176   7.430
 2349SOL    HW1 7733   0.156   3.103   7.409
 2349SOL    HW2 7734   0.225   3.190   7.528
 2350SOL     OW 7735   0.079   3.102   6.239
 2350SOL    HW1 7736   0.078   3.055   6.327
 2350SOL    HW2 7737   0.161   3.074   6.188
 2351SOL     OW 7738   0.672   3.253   7.210
 2351SOL    HW1 7739   0.594   3.203   7.248
 2351SOL    HW2 7740   0.669   3.348   7.241
 2352SOL     OW 7741   0.428   2.286   6.106
 2352SOL    HW1 7742   0.458   2.214   6.044
 2352SOL    HW2 7743   0.389   2.246   6.189
 2353SOL     OW 7744   1.705   3.349   6.690
 2353SOL    HW1 7745   1.612   3.324   6.663
 2353SOL    HW2 7746   1.731   3.299   6.772
 2354SOL     OW 7747   0.317   2.409   6.866
 2354SOL    HW1 7748   0.355   2.350   6.938
 2354SOL    HW2 7749   0.357   2.383   6.778
 2355SOL     OW 7750   0.812   3.448   6.273
 2355SOL    HW1 7751   0.844   3.458   6.179
 2355SOL    HW2 7752   0.733   3.386   6.275
 2356SOL     OW 7753   1.001   1.896   6.740
 2356SOL    HW1 7754   0.938   1.824   6.709
 2356SOL    HW2 7755   1.094   1.860   6.740
 2357SOL     OW 7756   0.770   3.192   5.887
 2357SOL    HW1 7757   0.724   3.105   5.904
 2357SOL    HW2 7758   0.861   3.189   5.928
 2358SOL     OW 7759   0.618   3.429   6.870
 2358SOL    HW1 7760   0.613   3.511   6.927
 2358SOL    HW2 7761   0.707   3.426   6.825
 2359SOL     OW 7762   1.352   1.914   5.754
 2359SOL    HW1 7763   1.387   1.873   5.670
 2359SOL    HW2 7764   1.262   1.876   5.774
 2360SOL     OW 7765   0.039   2.939   5.886
 2360SOL    HW1 7766   0.138   2.928   5.877
 2360SOL    HW2 7767  -0.001   2.853   5.918
 2361SOL     OW 7768   0.875   3.508   5.923
 2361SOL    HW1 7769   0.798   3.473   5.869
 2361SOL    HW2 7770   0.843   3.579   5.985
 2362SOL     OW 7771   0.230   2.490   7.561
 2362SOL    HW1 7772   0.137   2.488   7.598
 2362SOL    HW2 7773   0.231   2.451   7.469
 2363SOL     OW 7774   0.225   2.137   8.444
 2363SOL    HW1 7775   0.260   2.120   8.536
 2363SOL    HW2 7776   0.137   2.092   8.432
 2364SOL     OW 7777   0.019   2.230   8.095
 2364SOL    HW1 7778  -0.063   2.273   8.134
 2364SOL    HW2 7779  -0.009   2.157   8.032
 2365SOL     OW 7780   0.569   3.137   8.613
 2365SOL    HW1 7781   0.476   3.130   8.576
 2365SOL    HW2 7782   0.580   3.226   8.657
 2366SOL     OW 7783   1.555   3.373   8.151
 2366SOL    HW1 7784   1.498   3.357   8.232
 2366SOL    HW2 7785   1.496   3.383   8.071
 2367SOL     OW 7786   1.135   2.565   8.165
 2367SOL    HW1 7787   1.192   2.643   8.140
 2367SOL    HW2 7788   1.075   2.591   8.241
 2368SOL     OW 7789   0.768   3.006   8.471
 2368SOL    HW1 7790   0.690   3.023   8.531
 2368SOL    HW2 7791   0.802   3.093   8.435
 2369SOL     OW 7792   0.850   2.660   9.271
 2369SOL    HW1 7793   0.846   2.736   9.336
 2369SOL    HW2 7794   0.872   2.696   9.180
 2370SOL     OW 7795   0.685   2.874   8.113
 2370SOL    HW1 7796   0.754   2.858   8.183
 2370SOL    HW2 7797   0.612   2.931   8.151
 2371SOL     OW 7798   0.686   3.023   9.251
 2371SOL    HW1 7799   0.746   3.102   9.265
 2371SOL    HW2 7800   0.600   3.054   9.210
 2372SOL     OW 7801   0.335   3.297   8.509
 2372SOL    HW1 7802   0.257   3.266   8.456
 2372SOL    HW2 7803   0.393   3.355   8.452
 2373SOL     OW 7804   1.460   3.367   8.787
 2373SOL    HW1 7805   1.484   3.461   8.813
 2373SOL    HW2 7806   1.444   3.313   8.869
 2374SOL     OW 7807   0.438   2.254   8.947
 2374SOL    HW1 7808   0.520   2.198   8.956
 2374SOL    HW2 7809   0.357   2.196   8.951
 2375SOL     OW 7810   0.231   3.575   7.931
 2375SOL    HW1 7811   0.265   3.652   7.985
 2375SOL    HW2 7812   0.275   3.575   7.841
 2376SOL     OW 7813   1.127   3.203   9.138
 2376SOL    HW1 7814   1.174   3.203   9.226
 2376SOL    HW2 7815   1.079   3.116   9.127
 2377SOL     OW 7816   0.230   3.296   7.986
 2377SOL    HW1 7817   0.204   3.392   7.986
 2377SOL    HW2 7818   0.159   3.242   8.031
 2378SOL     OW 7819   0.240   2.953   8.334
 2378SOL    HW1 7820   0.254   2.869   8.386
 2378SOL    HW2 7821   0.185   3.017   8.389
 2379SOL     OW 7822   0.620   3.648   8.887
 2379SOL    HW1 7823   0.528   3.631   8.922
 2379SOL    HW2 7824   0.648   3.740   8.913
 2380SOL     OW 7825   0.606   2.826   7.571
 2380SOL    HW1 7826   0.613   2.910   7.517
 2380SOL    HW2 7827   0.652   2.839   7.659
 2381SOL     OW 7828   1.594   1.976   8.928
 2381SOL    HW1 7829   1.576   2.043   8.856
 2381SOL    HW2 7830   1.591   2.022   9.017
 2382SOL     OW 7831   0.122   2.505   8.011
 2382SOL    HW1 7832   0.077   2.417   8.028
 2382SOL    HW2 7833   0.121   2.559   8.095
 2383SOL     OW 7834   1.842   3.629   7.807
 2383SOL    HW1 7835   1.896   3.600   7.887
 2383SOL    HW2 7836   1.872   3.719   7.778
 2384SOL     OW 7837   0.027   3.458   7.565
 2384SOL    HW1 7838   0.008   3.362   7.586
 2384SOL    HW2 7839  -0.006   3.516   7.640
 2385SOL     OW 7840   1.689   2.784   8.060
 2385SOL    HW1 7841   1.784   2.755   8.068
 2385SOL    HW2 7842   1.681   2.849   7.985
 2386SOL     OW 7843   1.641   2.970   7.880
 2386SOL    HW1 7844   1.727   2.972   7.828
 2386SOL    HW2 7845   1.655   3.017   7.968
 2387SOL     OW 7846   0.113   2.599   9.045
 2387SOL    HW1 7847   0.201   2.586   9.090
 2387SOL    HW2 7848   0.100   2.696   9.023
 2388SOL     OW 7849   0.613   3.227   8.174
 2388SOL    HW1 7850   0.564   3.140   8.183
 2388SOL    HW2 7851   0.590   3.270   8.087
 2389SOL     OW 7852   1.293   3.090   8.871
 2389SOL    HW1 7853   1.330   3.017   8.813
 2389SOL    HW2 7854   1.345   3.095   8.956
 2390SOL     OW 7855   0.809   1.866   7.950
 2390SOL    HW1 7856   0.849   1.957   7.941
 2390SOL    HW2 7857   0.709   1.874   7.956
 2391SOL     OW 7858   0.197   2.838   8.712
 2391SOL    HW1 7859   0.286   2.793   8.698
 2391SOL    HW2 7860   0.124   2.773   8.693
 2392SOL     OW 7861   1.187   3.654   9.064
 2392SOL    HW1 7862   1.211   3.714   8.988
 2392SOL    HW2 7863   1.194   3.559   9.034
 2393SOL     OW 7864   0.317   2.113   9.249
 2393SOL    HW1 7865   0.388   2.184   9.255
 2393SOL    HW2 7866   0.229   2.152   9.277
 2394SOL     OW 7867   1.466   3.279   8.401
 2394SOL    HW1 7868   1.407   3.285   8.481
 2394SOL    HW2 7869   1.451   3.191   8.355
 2395SOL     OW 7870   1.667   3.576   8.020
 2395SOL    HW1 7871   1.626   3.553   7.932
 2395SOL    HW2 7872   1.649   3.502   8.085
 2396SOL     OW 7873   0.598   2.591   7.718
 2396SOL    HW1 7874   0.622   2.660   7.650
 2396SOL    HW2 7875   0.520   2.624   7.772
 2397SOL     OW 7876   1.281   2.207   8.392
 2397SOL    HW1 7877   1.195   2.157   8.379
 2397SOL    HW2 7878   1.343   2.153   8.448
 2398SOL     OW 7879   1.576   3.524   7.755
 2398SOL    HW1 7880   1.665   3.570   7.758
 2398SOL    HW2 7881   1.555   3.500   7.660
 2399SOL     OW 7882   0.807   2.467   8.913
 2399SOL    HW1 7883   0.760   2.464   9.002
 2399SOL    HW2 7884   0.756   2.412   8.847
 2400SOL     OW 7885   1.394   2.331   9.122
 2400SOL    HW1 7886   1.374   2.374   9.210
 2400SOL    HW2 7887   1.472   2.269   9.131
 2401SOL     OW 7888   0.973   2.752   9.020
 2401SOL    HW1 7889   1.019   2.668   8.991
 2401SOL    HW2 7890   0.917   2.786   8.945
 2402SOL     OW 7891   0.991   2.272   8.690
 2402SOL    HW1 7892   0.914   2.306   8.744
 2402SOL    HW2 7893   0.957   2.221   8.611
 2403SOL     OW 7894   1.041   2.563   7.877
 2403SOL    HW1 7895   1.067   2.559   7.973
 2403SOL    HW2 7896   0.956   2.512   7.863
 2404SOL     OW 7897   0.076   2.673   8.237
 2404SOL    HW1 7898   0.175   2.661   8.246
 2404SOL    HW2 7899   0.052   2.768   8.258
 2405SOL     OW 7900   0.130   3.683   9.019
 2405SOL    HW1 7901   0.120   3.668   9.118
 2405SOL    HW2 7902   0.044   3.719   8.983
 2406SOL     OW 7903   0.865   2.210   7.643
 2406SOL    HW1 7904   0.924   2.273   7.594
 2406SOL    HW2 7905   0.884   2.116   7.614
 2407SOL     OW 7906   1.719   2.447   9.279
 2407SOL    HW1 7907   1.693   2.536   9.243
 2407SOL    HW2 7908   1.717   2.379   9.206
 2408SOL     OW 7909   1.362   3.006   7.993
 2408SOL    HW1 7910   1.445   2.977   7.945
 2408SOL    HW2 7911   1.313   3.073   7.937
 2409SOL     OW 7912   0.550   2.058   8.333
 2409SOL    HW1 7913   0.545   2.053   8.433
 2409SOL    HW2 7914   0.552   2.154   8.304
 2410SOL     OW 7915   1.008   3.318   7.925
 2410SOL    HW1 7916   0.962   3.390   7.873
 2410SOL    HW2 7917   1.004   3.338   8.023
 2411SOL     OW 7918   0.351   3.663   8.301
 2411SOL    HW1 7919   0.401   3.577   8.307
 2411SOL    HW2 7920   0.416   3.740   8.298
 2412SOL     OW 7921   1.795   2.928   8.321
 2412SOL    HW1 7922   1.733   2.913   8.245
 2412SOL    HW2 7923   1.743   2.939   8.406
 2413SOL     OW 7924   1.227   3.412   8.954
 2413SOL    HW1 7925   1.233   3.335   9.018
 2413SOL    HW2 7926   1.175   3.386   8.874
 2414SOL     OW 7927   0.321   2.805   7.690
 2414SOL    HW1 7928   0.403   2.844   7.648
 2414SOL    HW2 7929   0.294   2.723   7.641
 2415SOL     OW 7930   1.458   2.597   8.176
 2415SOL    HW1 7931   1.453   2.532   8.251
 2415SOL    HW2 7932   1.538   2.656   8.189
 2416SOL     OW 7933   0.461   3.128   9.175
 2416SOL    HW1 7934   0.411   3.129   9.089
 2416SOL    HW2 7935   0.398   3.110   9.251
 2417SOL     OW 7936   1.111   3.638   7.685
 2417SOL    HW1 7937   1.051   3.576   7.735
 2417SOL    HW2 7938   1.142   3.594   7.600
 2418SOL     OW 7939   0.202   2.147   8.946
 2418SOL    HW1 7940   0.122   2.207   8.933
 2418SOL    HW2 7941   0.192   2.098   9.032
 2419SOL     OW 7942   1.632   3.239   7.529
 2419SOL    HW1 7943   1.600   3.333   7.519
 2419SOL    HW2 7944   1.556   3.176   7.517
 2420SOL     OW 7945   0.464   3.605   7.771
 2420SOL    HW1 7946   0.497   3.644   7.857
 2420SOL    HW2 7947   0.540   3.598   7.706
 2421SOL     OW 7948   0.249   3.647   8.689
 2421SOL    HW1 7949   0.306   3.582   8.739
 2421SOL    HW2 7950   0.233   3.614   8.596
 2422SOL     OW 7951   0.940   3.560   8.352
 2422SOL    HW1 7952   1.020   3.503   8.373
 2422SOL    HW2 7953   0.891   3.520   8.275
 2423SOL     OW 7954   0.382   2.562   7.928
 2423SOL    HW1 7955   0.427   2.472   7.925
 2423SOL    HW2 7956   0.288   2.551   7.961
 2424SOL     OW 7957   1.547   2.084   9.177
 2424SOL    HW1 7958   1.542   2.121   9.269
 2424SOL    HW2 7959   1.475   2.015   9.165
 2425SOL     OW 7960   0.614   1.984   7.565
 2425SOL    HW1 7961   0.712   1.962   7.572
 2425SOL    HW2 7962   0.583   1.967   7.472
 2426SOL     OW 7963   0.781   2.126   9.197
 2426SOL    HW1 7964   0.848   2.065   9.240
 2426SOL    HW2 7965   0.708   2.145   9.262
 2427SOL     OW 7966   0.888   3.376   8.643
 2427SOL    HW1 7967   0.865   3.351   8.549
 2427SOL    HW2 7968   0.949   3.307   8.682
 2428SOL     OW 7969   1.351   2.452   8.881
 2428SOL    HW1 7970   1.379   2.409   8.966
 2428SOL    HW2 7971   1.376   2.548   8.882
 2429SOL     OW 7972   0.803   3.264   8.372
 2429SOL    HW1 7973   0.893   3.278   8.330
 2429SOL    HW2 7974   0.732   3.266   8.301
 2430SOL     OW 7975   0.922   2.365   8.347
 2430SOL    HW1 7976   0.897   2.356   8.251
 2430SOL    HW2 7977   0.970   2.283   8.378
 2431SOL     OW 7978   0.539   1.926   7.960
 2431SOL    HW1 7979   0.458   1.927   8.018
 2431SOL    HW2 7980   0.542   2.009   7.905
 2432SOL     OW 7981   1.434   3.050   7.489
 2432SOL    HW1 7982   1.466   2.974   7.546
 2432SOL    HW2 7983   1.342   3.077   7.519
 2433SOL     OW 7984   0.297   1.897   7.619
 2433SOL    HW1 7985   0.346   1.981   7.598
 2433SOL    HW2 7986   0.359   1.832   7.664
 2434SOL     OW 7987   0.935   2.098   7.928
 2434SOL    HW1 7988   0.887   2.139   7.850
 2434SOL    HW2 7989   1.034   2.096   7.909
 2435SOL     OW 7990   1.076   2.545   8.912
 2435SOL    HW1 7991   0.996   2.484   8.915
 2435SOL    HW2 7992   1.157   2.492   8.888
 2436SOL     OW 7993   1.227   3.432   8.241
 2436SOL    HW1 7994   1.248   3.506   8.176
 2436SOL    HW2 7995   1.295   3.432   8.314
 2437SOL     OW 7996   0.459   3.014   8.189
 2437SOL    HW1 7997   0.388   2.987   8.254
 2437SOL    HW2 7998   0.433   2.986   8.096
 2438SOL     OW 7999   1.271   3.659   8.039
 2438SOL    HW1 8000   1.315   3.723   7.975
 2438SOL    HW2 8001   1.221   3.711   8.109
 2439SOL     OW 8002   1.032   2.411   7.464
 2439SOL    HW1 8003   0.991   2.493   7.425
 2439SOL    HW2 8004   1.096   2.437   7.537
 2440SOL     OW 8005   0.078   2.418   8.834
 2440SOL    HW1 8006   0.170   2.417   8.793
 2440SOL    HW2 8007   0.072   2.492   8.901
 2441SOL     OW 8008   0.561   2.084   8.595
 2441SOL    HW1 8009   0.599   2.000   8.632
 2441SOL    HW2 8010   0.473   2.103   8.639
 2442SOL     OW 8011   0.866   2.316   8.090
 2442SOL    HW1 8012   0.834   2.388   8.028
 2442SOL    HW2 8013   0.890   2.235   8.037
 2443SOL     OW 8014   1.017   1.901   8.201
 2443SOL    HW1 8015   0.945   1.906   8.132
 2443SOL    HW2 8016   0.993   1.832   8.270
 2444SOL     OW 8017   1.429   3.035   8.315
 2444SOL    HW1 8018   1.374   2.951   8.308
 2444SOL    HW2 8019   1.455   3.064   8.223
 2445SOL     OW 8020   1.466   2.452   8.440
 2445SOL    HW1 8021   1.436   2.357   8.447
 2445SOL    HW2 8022   1.539   2.468   8.506
 2446SOL     OW 8023   1.857   2.695   7.825
 2446SOL    HW1 8024   1.899   2.631   7.889
 2446SOL    HW2 8025   1.819   2.644   7.747
 2447SOL     OW 8026   0.488   3.247   7.622
 2447SOL    HW1 8027   0.401   3.232   7.669
 2447SOL    HW2 8028   0.471   3.273   7.527
 2448SOL     OW 8029   1.664   3.142   8.105
 2448SOL    HW1 8030   1.763   3.150   8.119
 2448SOL    HW2 8031   1.619   3.226   8.136
 2449SOL     OW 8032   0.527   2.118   7.776
 2449SOL    HW1 8033   0.554   2.059   7.701
 2449SOL    HW2 8034   0.527   2.213   7.745
 2450SOL     OW 8035   1.754   3.085   9.036
 2450SOL    HW1 8036   1.845   3.046   9.023
 2450SOL    HW2 8037   1.762   3.181   9.060
 2451SOL     OW 8038   1.064   3.209   8.788
 2451SOL    HW1 8039   0.984   3.186   8.843
 2451SOL    HW2 8040   1.147   3.183   8.837
 2452SOL     OW 8041   1.592   3.491   9.073
 2452SOL    HW1 8042   1.619   3.525   8.983
 2452SOL    HW2 8043   1.671   3.453   9.119
 2453SOL     OW 8044   1.111   3.057   8.548
 2453SOL    HW1 8045   1.071   3.101   8.629
 2453SOL    HW2 8046   1.070   3.094   8.465
 2454SOL     OW 8047   1.638   2.961   8.527
 2454SOL    HW1 8048   1.643   3.042   8.586
 2454SOL    HW2 8049   1.552   2.963   8.476
 2455SOL     OW 8050   0.915   1.951   8.850
 2455SOL    HW1 8051   0.940   1.931   8.755
 2455SOL    HW2 8052   0.987   2.007   8.892
 2456SOL     OW 8053   0.980   2.978   9.167
 2456SOL    HW1 8054   0.881   2.984   9.177
 2456SOL    HW2 8055   1.003   2.898   9.111
 2457SOL     OW 8056   0.705   2.912   7.816
 2457SOL    HW1 8057   0.691   2.919   7.915
 2457SOL    HW2 8058   0.789   2.861   7.798
 2458SOL     OW 8059   0.410   2.675   8.699
 2458SOL    HW1 8060   0.496   2.687   8.749
 2458SOL    HW2 8061   0.368   2.588   8.726
 2459SOL     OW 8062   1.274   2.248   8.710
 2459SOL    HW1 8063   1.295   2.322   8.774
 2459SOL    HW2 8064   1.185   2.265   8.667
 2460SOL     OW 8065   0.064   3.426   8.779
 2460SOL    HW1 8066   0.018   3.508   8.745
 2460SOL    HW2 8067   0.162   3.445   8.788
 2461SOL     OW 8068   0.367   2.962   7.949
 2461SOL    HW1 8069   0.360   3.045   7.893
 2461SOL    HW2 8070   0.371   2.882   7.889
 2462SOL     OW 8071   0.566   2.399   8.313
 2462SOL    HW1 8072   0.578   2.465   8.239
 2462SOL    HW2 8073   0.612   2.433   8.396
 2463SOL     OW 8074   1.252   3.210   7.836
 2463SOL    HW1 8075   1.302   3.287   7.876
 2463SOL    HW2 8076   1.157   3.212   7.868
 2464SOL     OW 8077   1.272   3.307   8.590
 2464SOL    HW1 8078   1.319   3.320   8.677
 2464SOL    HW2 8079   1.206   3.233   8.599
 2465SOL     OW 8080   1.582   2.501   7.920
 2465SOL    HW1 8081   1.551   2.562   7.993
 2465SOL    HW2 8082   1.632   2.553   7.851
 2466SOL     OW 8083   0.354   3.372   8.777
 2466SOL    HW1 8084   0.333   3.328   8.690
 2466SOL    HW2 8085   0.451   3.398   8.780
 2467SOL     OW 8086   0.402   2.613   9.046
 2467SOL    HW1 8087   0.470   2.668   8.999
 2467SOL    HW2 8088   0.442   2.525   9.073
 2468SOL     OW 8089   1.587   2.641   9.118
 2468SOL    HW1 8090   1.495   2.679   9.113
 2468SOL    HW2 8091   1.647   2.688   9.053
 2469SOL     OW 8092   1.013   1.967   9.218
 2469SOL    HW1 8093   1.019   2.052   9.166
 2469SOL    HW2 8094   1.045   1.891   9.161
 2470SOL     OW 8095   0.504   1.912   9.188
 2470SOL    HW1 8096   0.462   1.855   9.118
 2470SOL    HW2 8097   0.438   1.981   9.220
 2471SOL     OW 8098   0.573   2.732   8.477
 2471SOL    HW1 8099   0.617   2.821   8.468
 2471SOL    HW2 8100   0.510   2.732   8.554
 2472SOL     OW 8101   1.360   2.724   8.493
 2472SOL    HW1 8102   1.285   2.724   8.427
 2472SOL    HW2 8103   1.397   2.632   8.502
 2473SOL     OW 8104   1.209   2.387   7.723
 2473SOL    HW1 8105   1.222   2.303   7.777
 2473SOL    HW2 8106   1.180   2.461   7.783
 2474SOL     OW 8107   0.307   2.075   8.679
 2474SOL    HW1 8108   0.284   2.112   8.769
 2474SOL    HW2 8109   0.277   1.980   8.673
 2475SOL     OW 8110   0.037   3.172   8.730
 2475SOL    HW1 8111   0.090   3.123   8.798
 2475SOL    HW2 8112   0.059   3.270   8.735
 2476SOL     OW 8113   0.732   2.496   8.512
 2476SOL    HW1 8114   0.791   2.470   8.436
 2476SOL    HW2 8115   0.704   2.592   8.501
 2477SOL     OW 8116   1.728   2.797   9.302
 2477SOL    HW1 8117   1.682   2.790   9.213
 2477SOL    HW2 8118   1.666   2.841   9.368
 2478SOL     OW 8119   0.307   1.925   8.066
 2478SOL    HW1 8120   0.296   2.019   8.099
 2478SOL    HW2 8121   0.302   1.862   8.143
 2479SOL     OW 8122   1.023   2.628   8.414
 2479SOL    HW1 8123   1.038   2.649   8.510
 2479SOL    HW2 8124   0.993   2.533   8.405
 2480SOL     OW 8125   0.980   3.435   9.148
 2480SOL    HW1 8126   0.960   3.479   9.060
 2480SOL    HW2 8127   1.019   3.344   9.132
 2481SOL     OW 8128   1.859   3.380   9.053
 2481SOL    HW1 8129   1.873   3.407   8.958
 2481SOL    HW2 8130   1.942   3.402   9.106
 2482SOL     OW 8131   0.350   2.760   9.252
 2482SOL    HW1 8132   0.426   2.804   9.300
 2482SOL    HW2 8133   0.385   2.713   9.170
 2483SOL     OW 8134   1.068   3.195   8.297
 2483SOL    HW1 8135   1.075   3.111   8.242
 2483SOL    HW2 8136   1.130   3.264   8.261
 2484SOL     OW 8137   0.319   2.672   8.397
 2484SOL    HW1 8138   0.412   2.708   8.402
 2484SOL    HW2 8139   0.313   2.587   8.449
 2485SOL     OW 8140   0.339   2.371   8.454
 2485SOL    HW1 8141   0.287   2.288   8.437
 2485SOL    HW2 8142   0.416   2.376   8.390
 2486SOL     OW 8143   1.138   2.242   9.126
 2486SOL    HW1 8144   1.093   2.305   9.190
 2486SOL    HW2 8145   1.231   2.273   9.109
 2487SOL     OW 8146   1.160   2.069   8.925
 2487SOL    HW1 8147   1.160   2.133   9.002
 2487SOL    HW2 8148   1.188   2.117   8.842
 2488SOL     OW 8149   0.008   3.188   7.648
 2488SOL    HW1 8150  -0.085   3.209   7.617
 2488SOL    HW2 8151   0.018   3.089   7.661
 2489SOL     OW 8152   0.088   3.663   8.375
 2489SOL    HW1 8153   0.046   3.577   8.348
 2489SOL    HW2 8154   0.182   3.666   8.341
 2490SOL     OW 8155   0.504   3.430   8.358
 2490SOL    HW1 8156   0.570   3.504   8.367
 2490SOL    HW2 8157   0.548   3.351   8.316
 2491SOL     OW 8158   1.002   2.658   8.686
 2491SOL    HW1 8159   1.043   2.626   8.772
 2491SOL    HW2 8160   0.906   2.631   8.683
 2492SOL     OW 8161   0.040   2.406   8.562
 2492SOL    HW1 8162   0.125   2.373   8.521
 2492SOL    HW2 8163   0.053   2.421   8.660
 2493SOL     OW 8164   0.189   2.382   9.170
 2493SOL    HW1 8165   0.248   2.342   9.100
 2493SOL    HW2 8166   0.131   2.453   9.129
 2494SOL     OW 8167   1.369   2.812   9.108
 2494SOL    HW1 8168   1.408   2.901   9.128
 2494SOL    HW2 8169   1.379   2.792   9.011
 2495SOL     OW 8170   0.815   2.434   7.773
 2495SOL    HW1 8171   0.822   2.345   7.727
 2495SOL    HW2 8172   0.721   2.468   7.765
 2496SOL     OW 8173   1.657   2.466   8.654
 2496SOL    HW1 8174   1.619   2.397   8.716
 2496SOL    HW2 8175   1.739   2.430   8.610
 2497SOL     OW 8176   0.252   3.426   9.192
 2497SOL    HW1 8177   0.222   3.483   9.268
 2497SOL    HW2 8178   0.245   3.329   9.218
 2498SOL     OW 8179   0.671   2.326   8.717
 2498SOL    HW1 8180   0.637   2.237   8.687
 2498SOL    HW2 8181   0.697   2.380   8.637
 2499SOL     OW 8182   0.930   3.540   8.913
 2499SOL    HW1 8183   0.906   3.522   8.818
 2499SOL    HW2 8184   0.960   3.634   8.923
 2500SOL     OW 8185   0.473   2.362   7.639
 2500SOL    HW1 8186   0.534   2.442   7.643
 2500SOL    HW2 8187   0.378   2.393   7.646
 2501SOL     OW 8188   0.159   2.999   8.914
 2501SOL    HW1 8189   0.181   2.938   8.990
 2501SOL    HW2 8190   0.169   2.950   8.828
 2502SOL     OW 8191   1.347   2.921   8.682
 2502SOL    HW1 8192   1.371   2.858   8.608
 2502SOL    HW2 8193   1.257   2.961   8.664
 2503SOL     OW 8194   1.759   3.609   8.602
 2503SOL    HW1 8195   1.820   3.639   8.529
 2503SOL    HW2 8196   1.721   3.520   8.580
 2504SOL     OW 8197   1.252   3.593   8.576
 2504SOL    HW1 8198   1.336   3.598   8.522
 2504SOL    HW2 8199   1.229   3.497   8.594
 2505SOL     OW 8200   0.083   3.120   8.470
 2505SOL    HW1 8201   0.078   3.119   8.570
 2505SOL    HW2 8202   0.000   3.079   8.432
 2506SOL     OW 8203   0.688   3.524   9.164
 2506SOL    HW1 8204   0.632   3.605   9.173
 2506SOL    HW2 8205   0.740   3.528   9.078
 2507SOL     OW 8206   1.726   1.997   7.971
 2507SOL    HW1 8207   1.799   1.980   7.904
 2507SOL    HW2 8208   1.695   1.910   8.009
 2508SOL     OW 8209   1.388   3.435   7.925
 2508SOL    HW1 8210   1.455   3.447   7.851
 2508SOL    HW2 8211   1.348   3.524   7.948
 2509SOL     OW 8212   0.130   3.656   9.299
 2509SOL    HW1 8213   0.089   3.582   9.352
 2509SOL    HW2 8214   0.194   3.707   9.357
 2510SOL     OW 8215   1.280   2.789   8.120
 2510SOL    HW1 8216   1.340   2.708   8.122
 2510SOL    HW2 8217   1.320   2.858   8.060
 2511SOL     OW 8218   0.830   3.135   8.870
 2511SOL    HW1 8219   0.825   3.168   8.965
 2511SOL    HW2 8220   0.744   3.154   8.824
 2512SOL     OW 8221   0.672   3.478   7.602
 2512SOL    HW1 8222   0.681   3.488   7.503
 2512SOL    HW2 8223   0.632   3.389   7.623
 2513SOL     OW 8224   1.650   3.582   8.842
 2513SOL    HW1 8225   1.703   3.592   8.758
 2513SOL    HW2 8226   1.623   3.672   8.876
 2514SOL     OW 8227   0.263   2.188   8.168
 2514SOL    HW1 8228   0.184   2.239   8.134
 2514SOL    HW2 8229   0.254   2.173   8.266
 2515SOL     OW 8230   1.194   3.474   7.479
 2515SOL    HW1 8231   1.200   3.381   7.516
 2515SOL    HW2 8232   1.135   3.474   7.399
 2516SOL     OW 8233   0.822   2.864   8.820
 2516SOL    HW1 8234   0.862   2.863   8.728
 2516SOL    HW2 8235   0.832   2.956   8.860
 2517SOL     OW 8236   0.916   2.772   7.739
 2517SOL    HW1 8237   0.979   2.810   7.671
 2517SOL    HW2 8238   0.956   2.689   7.778
 2518SOL     OW 8239   1.504   3.469   7.492
 2518SOL    HW1 8240   1.412   3.506   7.499
 2518SOL    HW2 8241   1.542   3.489   7.402
 2519SOL     OW 8242   0.372   3.150   8.938
 2519SOL    HW1 8243   0.359   3.243   8.904
 2519SOL    HW2 8244   0.288   3.098   8.925
 2520SOL     OW 8245   1.614   3.154   8.737
 2520SOL    HW1 8246   1.674   3.157   8.817
 2520SOL    HW2 8247   1.539   3.218   8.750
 2521SOL     OW 8248   1.039   2.960   8.144
 2521SOL    HW1 8249   0.969   2.913   8.198
 2521SOL    HW2 8250   1.098   2.892   8.101
 2522SOL     OW 8251   1.014   2.098   8.419
 2522SOL    HW1 8252   1.006   2.062   8.326
 2522SOL    HW2 8253   1.012   2.022   8.484
 2523SOL     OW 8254   0.590   3.349   7.939
 2523SOL    HW1 8255   0.632   3.291   7.869
 2523SOL    HW2 8256   0.546   3.428   7.895
 2524SOL     OW 8257   1.709   2.247   8.829
 2524SOL    HW1 8258   1.782   2.316   8.833
 2524SOL    HW2 8259   1.737   2.172   8.770
 2525SOL     OW 8260   0.255   3.210   7.738
 2525SOL    HW1 8261   0.159   3.211   7.711
 2525SOL    HW2 8262   0.267   3.263   7.822
 2526SOL     OW 8263   0.105   2.875   9.174
 2526SOL    HW1 8264   0.028   2.842   9.228
 2526SOL    HW2 8265   0.190   2.845   9.216
 2527SOL     OW 8266   0.672   2.065   8.937
 2527SOL    HW1 8267   0.762   2.049   8.897
 2527SOL    HW2 8268   0.680   2.070   9.036
 2528SOL     OW 8269   0.075   2.207   7.481
 2528SOL    HW1 8270  -0.017   2.179   7.452
 2528SOL    HW2 8271   0.106   2.284   7.425
 2529SOL     OW 8272   1.440   2.718   8.846
 2529SOL    HW1 8273   1.383   2.770   8.783
 2529SOL    HW2 8274   1.536   2.730   8.822
 2530SOL     OW 8275   0.072   2.028   7.766
 2530SOL    HW1 8276   0.055   2.111   7.712
 2530SOL    HW2 8277   0.162   1.991   7.744
 2531SOL     OW 8278   1.183   3.197   7.567
 2531SOL    HW1 8279   1.084   3.186   7.569
 2531SOL    HW2 8280   1.217   3.212   7.660
 2532SOL     OW 8281   0.613   2.704   8.879
 2532SOL    HW1 8282   0.669   2.785   8.862
 2532SOL    HW2 8283   0.672   2.624   8.882
 2533SOL     OW 8284   1.493   3.629   8.407
 2533SOL    HW1 8285   1.526   3.693   8.338
 2533SOL    HW2 8286   1.559   3.623   8.482
 2534SOL     OW 8287   0.716   2.427   9.156
 2534SOL    HW1 8288   0.735   2.492   9.230
 2534SOL    HW2 8289   0.776   2.347   9.165
 2535SOL     OW 8290   1.450   3.082   9.081
 2535SOL    HW1 8291   1.441   3.072   9.180
 2535SOL    HW2 8292   1.546   3.075   9.055
 2536SOL     OW 8293   0.390   3.603   9.008
 2536SOL    HW1 8294   0.299   3.644   9.006
 2536SOL    HW2 8295   0.383   3.509   9.040
 2537SOL     OW 8296   1.674   2.745   8.702
 2537SOL    HW1 8297   1.647   2.656   8.665
 2537SOL    HW2 8298   1.675   2.813   8.629
 2538SOL     OW 8299   1.225   2.187   7.897
 2538SOL    HW1 8300   1.290   2.113   7.886
 2538SOL    HW2 8301   1.245   2.237   7.981
 2539SOL     OW 8302   0.594   2.607   8.100
 2539SOL    HW1 8303   0.644   2.692   8.081
 2539SOL    HW2 8304   0.506   2.609   8.052
 2540SOL     OW 8305   1.777   2.204   9.090
 2540SOL    HW1 8306   1.760   2.235   8.996
 2540SOL    HW2 8307   1.693   2.167   9.128
 2541SOL     OW 8308   1.730   2.796   8.965
 2541SOL    HW1 8309   1.768   2.887   8.980
 2541SOL    HW2 8310   1.722   2.779   8.866
 2542SOL     OW 8311   0.859   3.236   7.464
 2542SOL    HW1 8312   0.813   3.251   7.552
 2542SOL    HW2 8313   0.903   3.321   7.434
 2543SOL     OW 8314   0.661   3.652   8.401
 2543SOL    HW1 8315   0.615   3.740   8.388
 2543SOL    HW2 8316   0.760   3.664   8.394
 2544SOL     OW 8317   0.859   2.818   8.309
 2544SOL    HW1 8318   0.913   2.749   8.357
 2544SOL    HW2 8319   0.827   2.887   8.375
 2545SOL     OW 8320   1.083   2.846   7.535
 2545SOL    HW1 8321   1.060   2.899   7.453
 2545SOL    HW2 8322   1.164   2.790   7.516
 2546SOL     OW 8323   1.861   3.431   8.299
 2546SOL    HW1 8324   1.790   3.419   8.229
 2546SOL    HW2 8325   1.862   3.352   8.359
 2547SOL     OW 8326   0.221   3.176   9.292
 2547SOL    HW1 8327   0.156   3.103   9.271
 2547SOL    HW2 8328   0.225   3.190   9.390
 2548SOL     OW 8329   0.079   3.102   8.101
 2548SOL    HW1 8330   0.078   3.055   8.189
 2548SOL    HW2 8331   0.161   3.074   8.050
 2549SOL     OW 8332   0.672   3.253   9.072
 2549SOL    HW1 8333   0.594   3.203   9.110
 2549SOL    HW2 8334   0.669   3.348   9.103
 2550SOL     OW 8335   0.428   2.286   7.968
 2550SOL    HW1 8336   0.458   2.214   7.906
 2550SOL    HW2 8337   0.389   2.246   8.051
 2551SOL     OW 8338   1.705   3.349   8.552
 2551SOL    HW1 8339   1.612   3.324   8.525
 2551SOL    HW2 8340   1.731   3.299   8.634
 2552SOL     OW 8341   0.317   2.409   8.728
 2552SOL    HW1 8342   0.355   2.350   8.800
 2552SOL    HW2 8343   0.357   2.383   8.640
 2553SOL     OW 8344   0.812   3.448   8.135
 2553SOL    HW1 8345   0.844   3.458   8.041
 2553SOL    HW2 8346   0.733   3.386   8.137
 2554SOL     OW 8347   1.424   2.076   8.560
 2554SOL    HW1 8348   1.476   2.011   8.615
 2554SOL    HW2 8349   1.375   2.139   8.621
 2555SOL     OW 8350   1.001   1.896   8.602
 2555SOL    HW1 8351   0.938   1.824   8.571
 2555SOL    HW2 8352   1.094   1.860   8.602
 2556SOL     OW 8353   0.770   3.192   7.749
 2556SOL    HW1 8354   0.724   3.105   7.766
 2556SOL    HW2 8355   0.861   3.189   7.790
 2557SOL     OW 8356   0.618   3.429   8.732
 2557SOL    HW1 8357   0.613   3.511   8.789
 2557SOL    HW2 8358   0.707   3.426   8.687
 2558SOL     OW 8359   1.300   2.315   8.139
 2558SOL    HW1 8360   1.241   2.395   8.143
 2558SOL    HW2 8361   1.315   2.280   8.232
 2559SOL     OW 8362   1.593   2.083   8.330
 2559SOL    HW1 8363   1.509   2.082   8.384
 2559SOL    HW2 8364   1.595   2.166   8.274
 2560SOL     OW 8365   0.039   2.939   7.748
 2560SOL    HW1 8366   0.138   2.928   7.739
 2560SOL    HW2 8367  -0.001   2.853   7.780
 2561SOL     OW 8368   0.875   3.508   7.785
 2561SOL    HW1 8369   0.798   3.473   7.731
 2561SOL    HW2 8370   0.843   3.579   7.847
 2562SOL     OW 8371   0.230   2.490   9.423
 2562SOL    HW1 8372   0.137   2.488   9.460
 2562SOL    HW2 8373   0.231   2.451   9.331
 2563SOL     OW 8374   0.225   2.137  10.306
 2563SOL    HW1 8375   0.260   2.120  10.398
 2563SOL    HW2 8376   0.137   2.092  10.294
 2564SOL     OW 8377   0.019   2.230   9.957
 2564SOL    HW1 8378  -0.063   2.273   9.996
 2564SOL    HW2 8379  -0.009   2.157   9.894
 2565SOL     OW 8380   0.569   3.137  10.475
 2565SOL    HW1 8381   0.476   3.130  10.438
 2565SOL    HW2 8382   0.580   3.226  10.519
 2566SOL     OW 8383   1.555   3.373  10.013
 2566SOL    HW1 8384   1.498   3.357  10.094
 2566SOL    HW2 8385   1.496   3.383   9.933
 2567SOL     OW 8386   1.135   2.565  10.027
 2567SOL    HW1 8387   1.192   2.643  10.002
 2567SOL    HW2 8388   1.075   2.591  10.103
 2568SOL     OW 8389   1.755   2.469   9.541
 2568SOL    HW1 8390   1.743   2.456   9.442
 2568SOL    HW2 8391   1.725   2.388   9.590
 2569SOL     OW 8392   0.768   3.006  10.333
 2569SOL    HW1 8393   0.690   3.023  10.393
 2569SOL    HW2 8394   0.802   3.093  10.297
 2570SOL     OW 8395   0.850   2.660  11.133
 2570SOL    HW1 8396   0.846   2.736  11.198
 2570SOL    HW2 8397   0.872   2.696  11.042
 2571SOL     OW 8398   0.685   2.874   9.975
 2571SOL    HW1 8399   0.754   2.858  10.045
 2571SOL    HW2 8400   0.612   2.931  10.013
 2572SOL     OW 8401   0.686   3.023  11.113
 2572SOL    HW1 8402   0.746   3.102  11.127
 2572SOL    HW2 8403   0.600   3.054  11.072
 2573SOL     OW 8404   0.335   3.297  10.371
 2573SOL    HW1 8405   0.257   3.266  10.318
 2573SOL    HW2 8406   0.393   3.355  10.314
 2574SOL     OW 8407   1.460   3.367  10.649
 2574SOL    HW1 8408   1.484   3.461  10.675
 2574SOL    HW2 8409   1.444   3.313  10.731
 2575SOL     OW 8410   0.438   2.254  10.809
 2575SOL    HW1 8411   0.520   2.198  10.818
 2575SOL    HW2 8412   0.357   2.196  10.813
 2576SOL     OW 8413   1.603   2.309  10.047
 2576SOL    HW1 8414   1.529   2.355   9.997
 2576SOL    HW2 8415   1.654   2.377  10.100
 2577SOL     OW 8416   0.231   3.575   9.793
 2577SOL    HW1 8417   0.265   3.652   9.847
 2577SOL    HW2 8418   0.275   3.575   9.703
 2578SOL     OW 8419   1.127   3.203  11.000
 2578SOL    HW1 8420   1.174   3.203  11.088
 2578SOL    HW2 8421   1.079   3.116  10.989
 2579SOL     OW 8422   0.230   3.296   9.848
 2579SOL    HW1 8423   0.204   3.392   9.848
 2579SOL    HW2 8424   0.159   3.242   9.893
 2580SOL     OW 8425   0.240   2.953  10.196
 2580SOL    HW1 8426   0.254   2.869  10.248
 2580SOL    HW2 8427   0.185   3.017  10.251
 2581SOL     OW 8428   0.620   3.648  10.749
 2581SOL    HW1 8429   0.528   3.631  10.784
 2581SOL    HW2 8430   0.648   3.740  10.775
 2582SOL     OW 8431   0.606   2.826   9.433
 2582SOL    HW1 8432   0.613   2.910   9.379
 2582SOL    HW2 8433   0.652   2.839   9.521
 2583SOL     OW 8434   1.594   1.976  10.790
 2583SOL    HW1 8435   1.576   2.043  10.718
 2583SOL    HW2 8436   1.591   2.022  10.879
 2584SOL     OW 8437   0.122   2.505   9.873
 2584SOL    HW1 8438   0.077   2.417   9.890
 2584SOL    HW2 8439   0.121   2.559   9.957
 2585SOL     OW 8440   1.842   3.629   9.669
 2585SOL    HW1 8441   1.896   3.600   9.749
 2585SOL    HW2 8442   1.872   3.719   9.640
 2586SOL     OW 8443   0.027   3.458   9.427
 2586SOL    HW1 8444   0.008   3.362   9.448
 2586SOL    HW2 8445  -0.006   3.516   9.502
 2587SOL     OW 8446   1.689   2.784   9.922
 2587SOL    HW1 8447   1.784   2.755   9.930
 2587SOL    HW2 8448   1.681   2.849   9.847
 2588SOL     OW 8449   1.641   2.970   9.742
 2588SOL    HW1 8450   1.727   2.972   9.690
 2588SOL    HW2 8451   1.655   3.017   9.830
 2589SOL     OW 8452   0.113   2.599  10.907
 2589SOL    HW1 8453   0.201   2.586  10.952
 2589SOL    HW2 8454   0.100   2.696  10.885
 2590SOL     OW 8455   0.613   3.227  10.036
 2590SOL    HW1 8456   0.564   3.140  10.045
 2590SOL    HW2 8457   0.590   3.270   9.949
 2591SOL     OW 8458   1.293   3.090  10.733
 2591SOL    HW1 8459   1.330   3.017  10.675
 2591SOL    HW2 8460   1.345   3.095  10.818
 2592SOL     OW 8461   0.809   1.866   9.812
 2592SOL    HW1 8462   0.849   1.957   9.803
 2592SOL    HW2 8463   0.709   1.874   9.818
 2593SOL     OW 8464   0.197   2.838  10.574
 2593SOL    HW1 8465   0.286   2.793  10.560
 2593SOL    HW2 8466   0.124   2.773  10.555
 2594SOL     OW 8467   1.525   2.861   9.500
 2594SOL    HW1 8468   1.462   2.785   9.513
 2594SOL    HW2 8469   1.573   2.879   9.586
 2595SOL     OW 8470   1.187   3.654  10.926
 2595SOL    HW1 8471   1.211   3.714  10.850
 2595SOL    HW2 8472   1.194   3.559  10.896
 2596SOL     OW 8473   0.317   2.113  11.111
 2596SOL    HW1 8474   0.388   2.184  11.117
 2596SOL    HW2 8475   0.229   2.152  11.139
 2597SOL     OW 8476   1.466   3.279  10.263
 2597SOL    HW1 8477   1.407   3.285  10.343
 2597SOL    HW2 8478   1.451   3.191  10.217
 2598SOL     OW 8479   1.667   3.576   9.882
 2598SOL    HW1 8480   1.626   3.553   9.794
 2598SOL    HW2 8481   1.649   3.502   9.947
 2599SOL     OW 8482   0.598   2.591   9.580
 2599SOL    HW1 8483   0.622   2.660   9.512
 2599SOL    HW2 8484   0.520   2.624   9.634
 2600SOL     OW 8485   1.281   2.207  10.254
 2600SOL    HW1 8486   1.195   2.157  10.241
 2600SOL    HW2 8487   1.343   2.153  10.310
 2601SOL     OW 8488   1.576   3.524   9.617
 2601SOL    HW1 8489   1.665   3.570   9.620
 2601SOL    HW2 8490   1.555   3.500   9.522
 2602SOL     OW 8491   0.807   2.467  10.775
 2602SOL    HW1 8492   0.760   2.464  10.864
 2602SOL    HW2 8493   0.756   2.412  10.709
 2603SOL     OW 8494   1.394   2.331  10.984
 2603SOL    HW1 8495   1.374   2.374  11.072
 2603SOL    HW2 8496   1.472   2.269  10.993
 2604SOL     OW 8497   0.973   2.752  10.882
 2604SOL    HW1 8498   1.019   2.668  10.853
 2604SOL    HW2 8499   0.917   2.786  10.807
 2605SOL     OW 8500   0.991   2.272  10.552
 2605SOL    HW1 8501   0.914   2.306  10.606
 2605SOL    HW2 8502   0.957   2.221  10.473
 2606SOL     OW 8503   1.041   2.563   9.739
 2606SOL    HW1 8504   1.067   2.559   9.835
 2606SOL    HW2 8505   0.956   2.512   9.725
 2607SOL     OW 8506   0.076   2.673  10.099
 2607SOL    HW1 8507   0.175   2.661  10.108
 2607SOL    HW2 8508   0.052   2.768  10.120
 2608SOL     OW 8509   0.130   3.683  10.881
 2608SOL    HW1 8510   0.120   3.668  10.980
 2608SOL    HW2 8511   0.044   3.719  10.845
 2609SOL     OW 8512   0.865   2.210   9.505
 2609SOL    HW1 8513   0.924   2.273   9.456
 2609SOL    HW2 8514   0.884   2.116   9.476
 2610SOL     OW 8515   1.719   2.447  11.141
 2610SOL    HW1 8516   1.693   2.536  11.105
 2610SOL    HW2 8517   1.717   2.379  11.068
 2611SOL     OW 8518   1.362   3.006   9.855
 2611SOL    HW1 8519   1.445   2.977   9.807
 2611SOL    HW2 8520   1.313   3.073   9.799
 2612SOL     OW 8521   0.550   2.058  10.195
 2612SOL    HW1 8522   0.545   2.053  10.295
 2612SOL    HW2 8523   0.552   2.154  10.166
 2613SOL     OW 8524   1.008   3.318   9.787
 2613SOL    HW1 8525   0.962   3.390   9.735
 2613SOL    HW2 8526   1.004   3.338   9.885
 2614SOL     OW 8527   0.351   3.663  10.163
 2614SOL    HW1 8528   0.401   3.577  10.169
 2614SOL    HW2 8529   0.416   3.740  10.160
 2615SOL     OW 8530   1.795   2.928  10.183
 2615SOL    HW1 8531   1.733   2.913  10.107
 2615SOL    HW2 8532   1.743   2.939  10.268
 2616SOL     OW 8533   1.227   3.412  10.816
 2616SOL    HW1 8534   1.233   3.335  10.880
 2616SOL    HW2 8535   1.175   3.386  10.736
 2617SOL     OW 8536   0.321   2.805   9.552
 2617SOL    HW1 8537   0.403   2.844   9.510
 2617SOL    HW2 8538   0.294   2.723   9.503
 2618SOL     OW 8539   1.458   2.597  10.038
 2618SOL    HW1 8540   1.453   2.532  10.113
 2618SOL    HW2 8541   1.538   2.656  10.051
 2619SOL     OW 8542   0.461   3.128  11.037
 2619SOL    HW1 8543   0.411   3.129  10.951
 2619SOL    HW2 8544   0.398   3.110  11.113
 2620SOL     OW 8545   1.111   3.638   9.547
 2620SOL    HW1 8546   1.051   3.576   9.597
 2620SOL    HW2 8547   1.142   3.594   9.462
 2621SOL     OW 8548   0.202   2.147  10.808
 2621SOL    HW1 8549   0.122   2.207  10.795
 2621SOL    HW2 8550   0.192   2.098  10.894
 2622SOL     OW 8551   1.632   3.239   9.391
 2622SOL    HW1 8552   1.600   3.333   9.381
 2622SOL    HW2 8553   1.556   3.176   9.379
 2623SOL     OW 8554   0.464   3.605   9.633
 2623SOL    HW1 8555   0.497   3.644   9.719
 2623SOL    HW2 8556   0.540   3.598   9.568
 2624SOL     OW 8557   1.400   1.969   9.736
 2624SOL    HW1 8558   1.376   1.932   9.646
 2624SOL    HW2 8559   1.499   1.985   9.740
 2625SOL     OW 8560   0.249   3.647  10.551
 2625SOL    HW1 8561   0.306   3.582  10.601
 2625SOL    HW2 8562   0.233   3.614  10.458
 2626SOL     OW 8563   0.940   3.560  10.214
 2626SOL    HW1 8564   1.020   3.503  10.235
 2626SOL    HW2 8565   0.891   3.520  10.137
 2627SOL     OW 8566   0.382   2.562   9.790
 2627SOL    HW1 8567   0.427   2.472   9.787
 2627SOL    HW2 8568   0.288   2.551   9.823
 2628SOL     OW 8569   1.547   2.084  11.039
 2628SOL    HW1 8570   1.542   2.121  11.131
 2628SOL    HW2 8571   1.475   2.015  11.027
 2629SOL     OW 8572   0.614   1.984   9.427
 2629SOL    HW1 8573   0.712   1.962   9.434
 2629SOL    HW2 8574   0.583   1.967   9.334
 2630SOL     OW 8575   0.781   2.126  11.059
 2630SOL    HW1 8576   0.848   2.065  11.102
 2630SOL    HW2 8577   0.708   2.145  11.124
 2631SOL     OW 8578   0.888   3.376  10.505
 2631SOL    HW1 8579   0.865   3.351  10.411
 2631SOL    HW2 8580   0.949   3.307  10.544
 2632SOL     OW 8581   1.351   2.452  10.743
 2632SOL    HW1 8582   1.379   2.409  10.828
 2632SOL    HW2 8583   1.376   2.548  10.744
 2633SOL     OW 8584   0.803   3.264  10.234
 2633SOL    HW1 8585   0.893   3.278  10.192
 2633SOL    HW2 8586   0.732   3.266  10.163
 2634SOL     OW 8587   0.922   2.365  10.209
 2634SOL    HW1 8588   0.897   2.356  10.113
 2634SOL    HW2 8589   0.970   2.283  10.240
 2635SOL     OW 8590   0.539   1.926   9.822
 2635SOL    HW1 8591   0.458   1.927   9.880
 2635SOL    HW2 8592   0.542   2.009   9.767
 2636SOL     OW 8593   1.434   3.050   9.351
 2636SOL    HW1 8594   1.466   2.974   9.408
 2636SOL    HW2 8595   1.342   3.077   9.381
 2637SOL     OW 8596   0.297   1.897   9.481
 2637SOL    HW1 8597   0.346   1.981   9.460
 2637SOL    HW2 8598   0.359   1.832   9.526
 2638SOL     OW 8599   0.935   2.098   9.790
 2638SOL    HW1 8600   0.887   2.139   9.712
 2638SOL    HW2 8601   1.034   2.096   9.771
 2639SOL     OW 8602   1.076   2.545  10.774
 2639SOL    HW1 8603   0.996   2.484  10.777
 2639SOL    HW2 8604   1.157   2.492  10.750
 2640SOL     OW 8605   1.227   3.432  10.103
 2640SOL    HW1 8606   1.248   3.506  10.038
 2640SOL    HW2 8607   1.295   3.432  10.176
 2641SOL     OW 8608   0.459   3.014  10.051
 2641SOL    HW1 8609   0.388   2.987  10.116
 2641SOL    HW2 8610   0.433   2.986   9.958
 2642SOL     OW 8611   1.271   3.659   9.901
 2642SOL    HW1 8612   1.315   3.723   9.837
 2642SOL    HW2 8613   1.221   3.711   9.971
 2643SOL     OW 8614   1.032   2.411   9.326
 2643SOL    HW1 8615   0.991   2.493   9.287
 2643SOL    HW2 8616   1.096   2.437   9.399
 2644SOL     OW 8617   0.078   2.418  10.696
 2644SOL    HW1 8618   0.170   2.417  10.655
 2644SOL    HW2 8619   0.072   2.492  10.763
 2645SOL     OW 8620   0.561   2.084  10.457
 2645SOL    HW1 8621   0.599   2.000  10.494
 2645SOL    HW2 8622   0.473   2.103  10.501
 2646SOL     OW 8623   0.866   2.316   9.952
 2646SOL    HW1 8624   0.834   2.388   9.890
 2646SOL    HW2 8625   0.890   2.235   9.899
 2647SOL     OW 8626   1.017   1.901  10.063
 2647SOL    HW1 8627   0.945   1.906   9.994
 2647SOL    HW2 8628   0.993   1.832  10.132
 2648SOL     OW 8629   1.429   3.035  10.177
 2648SOL    HW1 8630   1.374   2.951  10.170
 2648SOL    HW2 8631   1.455   3.064  10.085
 2649SOL     OW 8632   1.466   2.452  10.302
 2649SOL    HW1 8633   1.436   2.357  10.309
 2649SOL    HW2 8634   1.539   2.468  10.368
 2650SOL     OW 8635   1.857   2.695   9.687
 2650SOL    HW1 8636   1.899   2.631   9.751
 2650SOL    HW2 8637   1.819   2.644   9.609
 2651SOL     OW 8638   0.488   3.247   9.484
 2651SOL    HW1 8639   0.401   3.232   9.531
 2651SOL    HW2 8640   0.471   3.273   9.389
 2652SOL     OW 8641   1.664   3.142   9.967
 2652SOL    HW1 8642   1.763   3.150   9.981
 2652SOL    HW2 8643   1.619   3.226   9.998
 2653SOL     OW 8644   1.390   2.437   9.388
 2653SOL    HW1 8645   1.336   2.416   9.469
 2653SOL    HW2 8646   1.481   2.396   9.397
 2654SOL     OW 8647   0.527   2.118   9.638
 2654SOL    HW1 8648   0.554   2.059   9.563
 2654SOL    HW2 8649   0.527   2.213   9.607
 2655SOL     OW 8650   1.754   3.085  10.898
 2655SOL    HW1 8651   1.845   3.046  10.885
 2655SOL    HW2 8652   1.762   3.181  10.922
 2656SOL     OW 8653   1.064   3.209  10.650
 2656SOL    HW1 8654   0.984   3.186  10.705
 2656SOL    HW2 8655   1.147   3.183  10.699
 2657SOL     OW 8656   1.592   3.491  10.935
 2657SOL    HW1 8657   1.619   3.525  10.845
 2657SOL    HW2 8658   1.671   3.453  10.981
 2658SOL     OW 8659   1.111   3.057  10.410
 2658SOL    HW1 8660   1.071   3.101  10.491
 2658SOL    HW2 8661   1.070   3.094  10.327
 2659SOL     OW 8662   1.638   2.961  10.389
 2659SOL    HW1 8663   1.643   3.042  10.448
 2659SOL    HW2 8664   1.552   2.963  10.338
 2660SOL     OW 8665   0.915   1.951  10.712
 2660SOL    HW1 8666   0.940   1.931  10.617
 2660SOL    HW2 8667   0.987   2.007  10.754
 2661SOL     OW 8668   0.980   2.978  11.029
 2661SOL    HW1 8669   0.881   2.984  11.039
 2661SOL    HW2 8670   1.003   2.898  10.973
 2662SOL     OW 8671   0.705   2.912   9.678
 2662SOL    HW1 8672   0.691   2.919   9.777
 2662SOL    HW2 8673   0.789   2.861   9.660
 2663SOL     OW 8674   0.410   2.675  10.561
 2663SOL    HW1 8675   0.496   2.687  10.611
 2663SOL    HW2 8676   0.368   2.588  10.588
 2664SOL     OW 8677   1.274   2.248  10.572
 2664SOL    HW1 8678   1.295   2.322  10.636
 2664SOL    HW2 8679   1.185   2.265  10.529
 2665SOL     OW 8680   0.064   3.426  10.641
 2665SOL    HW1 8681   0.018   3.508  10.607
 2665SOL    HW2 8682   0.162   3.445  10.650
 2666SOL     OW 8683   0.367   2.962   9.811
 2666SOL    HW1 8684   0.360   3.045   9.755
 2666SOL    HW2 8685   0.371   2.882   9.751
 2667SOL     OW 8686   0.566   2.399  10.175
 2667SOL    HW1 8687   0.578   2.465  10.101
 2667SOL    HW2 8688   0.612   2.433  10.258
 2668SOL     OW 8689   1.252   3.210   9.698
 2668SOL    HW1 8690   1.302   3.287   9.738
 2668SOL    HW2 8691   1.157   3.212   9.730
 2669SOL     OW 8692   1.272   3.307  10.452
 2669SOL    HW1 8693   1.319   3.320  10.539
 2669SOL    HW2 8694   1.206   3.233  10.461
 2670SOL     OW 8695   1.582   2.501   9.782
 2670SOL    HW1 8696   1.551   2.562   9.855
 2670SOL    HW2 8697   1.632   2.553   9.713
 2671SOL     OW 8698   0.354   3.372  10.639
 2671SOL    HW1 8699   0.333   3.328  10.552
 2671SOL    HW2 8700   0.451   3.398  10.642
 2672SOL     OW 8701   0.402   2.613  10.908
 2672SOL    HW1 8702   0.470   2.668  10.861
 2672SOL    HW2 8703   0.442   2.525  10.935
 2673SOL     OW 8704   1.587   2.641  10.980
 2673SOL    HW1 8705   1.495   2.679  10.975
 2673SOL    HW2 8706   1.647   2.688  10.915
 2674SOL     OW 8707   1.013   1.967  11.080
 2674SOL    HW1 8708   1.019   2.052  11.028
 2674SOL    HW2 8709   1.045   1.891  11.023
 2675SOL     OW 8710   0.504   1.912  11.050
 2675SOL    HW1 8711   0.462   1.855  10.980
 2675SOL    HW2 8712   0.438   1.981  11.082
 2676SOL     OW 8713   0.573   2.732  10.339
 2676SOL    HW1 8714   0.617   2.821  10.330
 2676SOL    HW2 8715   0.510   2.732  10.416
 2677SOL     OW 8716   1.360   2.724  10.355
 2677SOL    HW1 8717   1.285   2.724  10.289
 2677SOL    HW2 8718   1.397   2.632  10.364
 2678SOL     OW 8719   1.209   2.387   9.585
 2678SOL    HW1 8720   1.222   2.303   9.639
 2678SOL    HW2 8721   1.180   2.461   9.645
 2679SOL     OW 8722   0.307   2.075  10.541
 2679SOL    HW1 8723   0.284   2.112  10.631
 2679SOL    HW2 8724   0.277   1.980  10.535
 2680SOL     OW 8725   0.037   3.172  10.592
 2680SOL    HW1 8726   0.090   3.123  10.660
 2680SOL    HW2 8727   0.059   3.270  10.597
 2681SOL     OW 8728   0.732   2.496  10.374
 2681SOL    HW1 8729   0.791   2.470  10.298
 2681SOL    HW2 8730   0.704   2.592  10.363
 2682SOL     OW 8731   1.728   2.797  11.164
 2682SOL    HW1 8732   1.682   2.790  11.075
 2682SOL    HW2 8733   1.666   2.841  11.230
 2683SOL     OW 8734   0.307   1.925   9.928
 2683SOL    HW1 8735   0.296   2.019   9.961
 2683SOL    HW2 8736   0.302   1.862  10.005
 2684SOL     OW 8737   1.622   2.229   9.684
 2684SOL    HW1 8738   1.624   2.153   9.748
 2684SOL    HW2 8739   1.574   2.306   9.724
 2685SOL     OW 8740   1.023   2.628  10.276
 2685SOL    HW1 8741   1.038   2.649  10.372
 2685SOL    HW2 8742   0.993   2.533  10.267
 2686SOL     OW 8743   0.980   3.435  11.010
 2686SOL    HW1 8744   0.960   3.479  10.922
 2686SOL    HW2 8745   1.019   3.344  10.994
 2687SOL     OW 8746   1.859   3.380  10.915
 2687SOL    HW1 8747   1.873   3.407  10.820
 2687SOL    HW2 8748   1.942   3.402  10.968
 2688SOL     OW 8749   0.350   2.760  11.114
 2688SOL    HW1 8750   0.426   2.804  11.162
 2688SOL    HW2 8751   0.385   2.713  11.032
 2689SOL     OW 8752   1.540   2.136   9.435
 2689SOL    HW1 8753   1.479   2.061   9.458
 2689SOL    HW2 8754   1.562   2.188   9.518
 2690SOL     OW 8755   1.303   2.700   9.352
 2690SOL    HW1 8756   1.337   2.607   9.367
 2690SOL    HW2 8757   1.321   2.727   9.257
 2691SOL     OW 8758   1.068   3.195  10.159
 2691SOL    HW1 8759   1.075   3.111  10.104
 2691SOL    HW2 8760   1.130   3.264  10.123
 2692SOL     OW 8761   0.319   2.672  10.259
 2692SOL    HW1 8762   0.412   2.708  10.264
 2692SOL    HW2 8763   0.313   2.587  10.311
 2693SOL     OW 8764   0.339   2.371  10.316
 2693SOL    HW1 8765   0.287   2.288  10.299
 2693SOL    HW2 8766   0.416   2.376  10.252
 2694SOL     OW 8767   1.138   2.242  10.988
 2694SOL    HW1 8768   1.093   2.305  11.052
 2694SOL    HW2 8769   1.231   2.273  10.971
 2695SOL     OW 8770   1.160   2.069  10.787
 2695SOL    HW1 8771   1.160   2.133  10.864
 2695SOL    HW2 8772   1.188   2.117  10.704
 2696SOL     OW 8773   0.008   3.188   9.510
 2696SOL    HW1 8774  -0.085   3.209   9.479
 2696SOL    HW2 8775   0.018   3.089   9.523
 2697SOL     OW 8776   0.088   3.663  10.237
 2697SOL    HW1 8777   0.046   3.577  10.210
 2697SOL    HW2 8778   0.182   3.666  10.203
 2698SOL     OW 8779   0.504   3.430  10.220
 2698SOL    HW1 8780   0.570   3.504  10.229
 2698SOL    HW2 8781   0.548   3.351  10.178
 2699SOL     OW 8782   1.002   2.658  10.548
 2699SOL    HW1 8783   1.043   2.626  10.634
 2699SOL    HW2 8784   0.906   2.631  10.545
 2700SOL     OW 8785   0.040   2.406  10.424
 2700SOL    HW1 8786   0.125   2.373  10.383
 2700SOL    HW2 8787   0.053   2.421  10.522
 2701SOL     OW 8788   0.189   2.382  11.032
 2701SOL    HW1 8789   0.248   2.342  10.962
 2701SOL    HW2 8790   0.131   2.453  10.991
 2702SOL     OW 8791   1.369   2.812  10.970
 2702SOL    HW1 8792   1.408   2.901  10.990
 2702SOL    HW2 8793   1.379   2.792  10.873
 2703SOL     OW 8794   0.815   2.434   9.635
 2703SOL    HW1 8795   0.822   2.345   9.589
 2703SOL    HW2 8796   0.721   2.468   9.627
 2704SOL     OW 8797   1.657   2.466  10.516
 2704SOL    HW1 8798   1.619   2.397  10.578
 2704SOL    HW2 8799   1.739   2.430  10.472
 2705SOL     OW 8800   0.252   3.426  11.054
 2705SOL    HW1 8801   0.222   3.483  11.130
 2705SOL    HW2 8802   0.245   3.329  11.080
 2706SOL     OW 8803   0.671   2.326  10.579
 2706SOL    HW1 8804   0.637   2.237  10.549
 2706SOL    HW2 8805   0.697   2.380  10.499
 2707SOL     OW 8806   0.930   3.540  10.775
 2707SOL    HW1 8807   0.906   3.522  10.680
 2707SOL    HW2 8808   0.960   3.634  10.785
 2708SOL     OW 8809   0.473   2.362   9.501
 2708SOL    HW1 8810   0.534   2.442   9.505
 2708SOL    HW2 8811   0.378   2.393   9.508
 2709SOL     OW 8812   0.159   2.999  10.776
 2709SOL    HW1 8813   0.181   2.938  10.852
 2709SOL    HW2 8814   0.169   2.950  10.690
 2710SOL     OW 8815   1.347   2.921  10.544
 2710SOL    HW1 8816   1.371   2.858  10.470
 2710SOL    HW2 8817   1.257   2.961  10.526
 2711SOL     OW 8818   1.302   2.717   9.619
 2711SOL    HW1 8819   1.216   2.686   9.661
 2711SOL    HW2 8820   1.298   2.703   9.520
 2712SOL     OW 8821   1.759   3.609  10.464
 2712SOL    HW1 8822   1.820   3.639  10.391
 2712SOL    HW2 8823   1.721   3.520  10.442
 2713SOL     OW 8824   1.252   3.593  10.438
 2713SOL    HW1 8825   1.336   3.598  10.384
 2713SOL    HW2 8826   1.229   3.497  10.456
 2714SOL     OW 8827   0.083   3.120  10.332
 2714SOL    HW1 8828   0.078   3.119  10.432
 2714SOL    HW2 8829   0.000   3.079  10.294
 2715SOL     OW 8830   0.688   3.524  11.026
 2715SOL    HW1 8831   0.632   3.605  11.035
 2715SOL    HW2 8832   0.740   3.528  10.940
 2716SOL     OW 8833   1.388   3.435   9.787
 2716SOL    HW1 8834   1.455   3.447   9.713
 2716SOL    HW2 8835   1.348   3.524   9.810
 2717SOL     OW 8836   0.130   3.656  11.161
 2717SOL    HW1 8837   0.089   3.582  11.214
 2717SOL    HW2 8838   0.194   3.707  11.219
 2718SOL     OW 8839   1.280   2.789   9.982
 2718SOL    HW1 8840   1.340   2.708   9.984
 2718SOL    HW2 8841   1.320   2.858   9.922
 2719SOL     OW 8842   0.830   3.135  10.732
 2719SOL    HW1 8843   0.825   3.168  10.827
 2719SOL    HW2 8844   0.744   3.154  10.686
 2720SOL     OW 8845   0.672   3.478   9.464
 2720SOL    HW1 8846   0.681   3.488   9.365
 2720SOL    HW2 8847   0.632   3.389   9.485
 2721SOL     OW 8848   1.650   3.582  10.704
 2721SOL    HW1 8849   1.703   3.592  10.620
 2721SOL    HW2 8850   1.623   3.672  10.738
 2722SOL     OW 8851   0.263   2.188  10.030
 2722SOL    HW1 8852   0.184   2.239   9.996
 2722SOL    HW2 8853   0.254   2.173  10.128
 2723SOL     OW 8854   1.194   3.474   9.341
 2723SOL    HW1 8855   1.200   3.381   9.378
 2723SOL    HW2 8856   1.135   3.474   9.261
 2724SOL     OW 8857   0.822   2.864  10.682
 2724SOL    HW1 8858   0.862   2.863  10.590
 2724SOL    HW2 8859   0.832   2.956  10.722
 2725SOL     OW 8860   0.916   2.772   9.601
 2725SOL    HW1 8861   0.979   2.810   9.533
 2725SOL    HW2 8862   0.956   2.689   9.640
 2726SOL     OW 8863   1.504   3.469   9.354
 2726SOL    HW1 8864   1.412   3.506   9.361
 2726SOL    HW2 8865   1.542   3.489   9.264
 2727SOL     OW 8866   0.372   3.150  10.800
 2727SOL    HW1 8867   0.359   3.243  10.766
 2727SOL    HW2 8868   0.288   3.098  10.787
 2728SOL     OW 8869   1.614   3.154  10.599
 2728SOL    HW1 8870   1.674   3.157  10.679
 2728SOL    HW2 8871   1.539   3.218  10.612
 2729SOL     OW 8872   1.039   2.960  10.006
 2729SOL    HW1 8873   0.969   2.913  10.060
 2729SOL    HW2 8874   1.098   2.892   9.963
 2730SOL     OW 8875   1.014   2.098  10.281
 2730SOL    HW1 8876   1.006   2.062  10.188
 2730SOL    HW2 8877   1.012   2.022  10.346
 2731SOL     OW 8878   0.590   3.349   9.801
 2731SOL    HW1 8879   0.632   3.291   9.731
 2731SOL    HW2 8880   0.546   3.428   9.757
 2732SOL     OW 8881   1.709   2.247  10.691
 2732SOL    HW1 8882   1.782   2.316  10.695
 2732SOL    HW2 8883   1.737   2.172  10.632
 2733SOL     OW 8884   0.255   3.210   9.600
 2733SOL    HW1 8885   0.159   3.211   9.573
 2733SOL    HW2 8886   0.267   3.263   9.684
 2734SOL     OW 8887   0.105   2.875  11.036
 2734SOL    HW1 8888   0.028   2.842  11.090
 2734SOL    HW2 8889   0.190   2.845  11.078
 2735SOL     OW 8890   0.672   2.065  10.799
 2735SOL    HW1 8891   0.762   2.049  10.759
 2735SOL    HW2 8892   0.680   2.070  10.898
 2736SOL     OW 8893   0.075   2.207   9.343
 2736SOL    HW1 8894  -0.017   2.179   9.314
 2736SOL    HW2 8895   0.106   2.284   9.287
 2737SOL     OW 8896   1.440   2.718  10.708
 2737SOL    HW1 8897   1.383   2.770  10.645
 2737SOL    HW2 8898   1.536   2.730  10.684
 2738SOL     OW 8899   0.072   2.028   9.628
 2738SOL    HW1 8900   0.055   2.111   9.574
 2738SOL    HW2 8901   0.162   1.991   9.606
 2739SOL     OW 8902   1.183   3.197   9.429
 2739SOL    HW1 8903   1.084   3.186   9.431
 2739SOL    HW2 8904   1.217   3.212   9.522
 2740SOL     OW 8905   0.613   2.704  10.741
 2740SOL    HW1 8906   0.669   2.785  10.724
 2740SOL    HW2 8907   0.672   2.624  10.744
 2741SOL     OW 8908   1.493   3.629  10.269
 2741SOL    HW1 8909   1.526   3.693  10.200
 2741SOL    HW2 8910   1.559   3.623  10.344
 2742SOL     OW 8911   0.716   2.427  11.018
 2742SOL    HW1 8912   0.735   2.492  11.092
 2742SOL    HW2 8913   0.776   2.347  11.027
 2743SOL     OW 8914   1.450   3.082  10.943
 2743SOL    HW1 8915   1.441   3.072  11.042
 2743SOL    HW2 8916   1.546   3.075  10.917
 2744SOL     OW 8917   0.390   3.603  10.870
 2744SOL    HW1 8918   0.299   3.644  10.868
 2744SOL    HW2 8919   0.383   3.509  10.902
 2745SOL     OW 8920   1.674   2.745  10.564
 2745SOL    HW1 8921   1.647   2.656  10.527
 2745SOL    HW2 8922   1.675   2.813  10.491
 2746SOL     OW 8923   1.225   2.187   9.759
 2746SOL    HW1 8924   1.290   2.113   9.748
 2746SOL    HW2 8925   1.245   2.237   9.843
 2747SOL     OW 8926   0.594   2.607   9.962
 2747SOL    HW1 8927   0.644   2.692   9.943
 2747SOL    HW2 8928   0.506   2.609   9.914
 2748SOL     OW 8929   1.777   2.204  10.952
 2748SOL    HW1 8930   1.760   2.235  10.858
 2748SOL    HW2 8931   1.693   2.167  10.990
 2749SOL     OW 8932   1.730   2.796  10.827
 2749SOL    HW1 8933   1.768   2.887  10.842
 2749SOL    HW2 8934   1.722   2.779  10.728
 2750SOL     OW 8935   0.859   3.236   9.326
 2750SOL    HW1 8936   0.813   3.251   9.414
 2750SOL    HW2 8937   0.903   3.321   9.296
 2751SOL     OW 8938   0.661   3.652  10.263
 2751SOL    HW1 8939   0.615   3.740  10.250
 2751SOL    HW2 8940   0.760   3.664  10.256
 2752SOL     OW 8941   0.859   2.818  10.171
 2752SOL    HW1 8942   0.913   2.749  10.219
 2752SOL    HW2 8943   0.827   2.887  10.237
 2753SOL     OW 8944   1.083   2.846   9.397
 2753SOL    HW1 8945   1.060   2.899   9.315
 2753SOL    HW2 8946   1.164   2.790   9.378
 2754SOL     OW 8947   1.861   3.431  10.161
 2754SOL    HW1 8948   1.790   3.419  10.091
 2754SOL    HW2 8949   1.862   3.352  10.221
 2755SOL     OW 8950   0.221   3.176  11.154
 2755SOL    HW1 8951   0.156   3.103  11.133
 2755SOL    HW2 8952   0.225   3.190  11.252
 2756SOL     OW 8953   0.079   3.102   9.963
 2756SOL    HW1 8954   0.078   3.055  10.051
 2756SOL    HW2 8955   0.161   3.074   9.912
 2757SOL     OW 8956   0.672   3.253  10.934
 2757SOL    HW1 8957   0.594   3.203  10.972
 2757SOL    HW2 8958   0.669   3.348  10.965
 2758SOL     OW 8959   0.428   2.286   9.830
 2758SOL    HW1 8960   0.458   2.214   9.768
 2758SOL    HW2 8961   0.389   2.246   9.913
 2759SOL     OW 8962   1.705   3.349  10.414
 2759SOL    HW1 8963   1.612   3.324  10.387
 2759SOL    HW2 8964   1.731   3.299  10.496
 2760SOL     OW 8965   0.317   2.409  10.590
 2760SOL    HW1 8966   0.355   2.350  10.662
 2760SOL    HW2 8967   0.357   2.383  10.502
 2761SOL     OW 8968   0.812   3.448   9.997
 2761SOL    HW1 8969   0.844   3.458   9.903
 2761SOL    HW2 8970   0.733   3.386   9.999
 2762SOL     OW 8971   1.424   2.076  10.422
 2762SOL    HW1 8972   1.476   2.011  10.477
 2762SOL    HW2 8973   1.375   2.139  10.483
 2763SOL     OW 8974   1.001   1.896  10.464
 2763SOL    HW1 8975   0.938   1.824  10.433
 2763SOL    HW2 8976   1.094   1.860  10.464
 2764SOL     OW 8977   0.770   3.192   9.611
 2764SOL    HW1 8978   0.724   3.105   9.628
 2764SOL    HW2 8979   0.861   3.189   9.652
 2765SOL     OW 8980   0.618   3.429  10.594
 2765SOL    HW1 8981   0.613   3.511  10.651
 2765SOL    HW2 8982   0.707   3.426  10.549
 2766SOL     OW 8983   1.352   1.914   9.478
 2766SOL    HW1 8984   1.387   1.873   9.394
 2766SOL    HW2 8985   1.262   1.876   9.498
 2767SOL     OW 8986   1.300   2.315  10.001
 2767SOL    HW1 8987   1.241   2.395  10.005
 2767SOL    HW2 8988   1.315   2.280  10.094
 2768SOL     OW 8989   1.593   2.083  10.192
 2768SOL    HW1 8990   1.509   2.082  10.246
 2768SOL    HW2 8991   1.595   2.166  10.136
 2769SOL     OW 8992   0.039   2.939   9.610
 2769SOL    HW1 8993   0.138   2.928   9.601
 2769SOL    HW2 8994  -0.001   2.853   9.642
 2770SOL     OW 8995   0.875   3.508   9.647
 2770SOL    HW1 8996   0.798   3.473   9.593
 2770SOL    HW2 8997   0.843   3.579   9.709
 2771SOL     OW 8998   0.230   2.490  11.285
 2771SOL    HW1 8999   0.137   2.488  11.322
 2771SOL    HW2 9000   0.231   2.451  11.193
 2772SOL     OW 9001   0.225   2.137  12.168
 2772SOL    HW1 9002   0.260   2.120  12.260
 2772SOL    HW2 9003   0.137   2.092  12.156
 2773SOL     OW 9004   0.019   2.230  11.819
 2773SOL    HW1 9005  -0.063   2.273  11.858
 2773SOL    HW2 9006  -0.009   2.157  11.756
 2774SOL     OW 9007   0.569   3.137  12.337
 2774SOL    HW1 9008   0.476   3.130  12.300
 2774SOL    HW2 9009   0.580   3.226  12.381
 2775SOL     OW 9010   1.555   3.373  11.875
 2775SOL    HW1 9011   1.498   3.357  11.956
 2775SOL    HW2 9012   1.496   3.383  11.795
 2776SOL     OW 9013   1.135   2.565  11.889
 2776SOL    HW1 9014   1.192   2.643  11.864
 2776SOL    HW2 9015   1.075   2.591  11.965
 2777SOL     OW 9016   1.755   2.469  11.403
 2777SOL    HW1 9017   1.743   2.456  11.304
 2777SOL    HW2 9018   1.725   2.388  11.452
 2778SOL     OW 9019   0.768   3.006  12.195
 2778SOL    HW1 9020   0.690   3.023  12.255
 2778SOL    HW2 9021   0.802   3.093  12.159
 2779SOL     OW 9022   0.850   2.660  12.995
 2779SOL    HW1 9023   0.846   2.736  13.060
 2779SOL    HW2 9024   0.872   2.696  12.904
 2780SOL     OW 9025   0.685   2.874  11.837
 2780SOL    HW1 9026   0.754   2.858  11.907
 2780SOL    HW2 9027   0.612   2.931  11.875
 2781SOL     OW 9028   0.686   3.023  12.975
 2781SOL    HW1 9029   0.746   3.102  12.989
 2781SOL    HW2 9030   0.600   3.054  12.934
 2782SOL     OW 9031   0.335   3.297  12.233
 2782SOL    HW1 9032   0.257   3.266  12.180
 2782SOL    HW2 9033   0.393   3.355  12.176
 2783SOL     OW 9034   1.460   3.367  12.511
 2783SOL    HW1 9035   1.484   3.461  12.537
 2783SOL    HW2 9036   1.444   3.313  12.593
 2784SOL     OW 9037   0.438   2.254  12.671
 2784SOL    HW1 9038   0.520   2.198  12.680
 2784SOL    HW2 9039   0.357   2.196  12.675
 2785SOL     OW 9040   1.603   2.309  11.909
 2785SOL    HW1 9041   1.529   2.355  11.859
 2785SOL    HW2 9042   1.654   2.377  11.962
 2786SOL     OW 9043   0.231   3.575  11.655
 2786SOL    HW1 9044   0.265   3.652  11.709
 2786SOL    HW2 9045   0.275   3.575  11.565
 2787SOL     OW 9046   1.127   3.203  12.862
 2787SOL    HW1 9047   1.174   3.203  12.950
 2787SOL    HW2 9048   1.079   3.116  12.851
 2788SOL     OW 9049   0.230   3.296  11.710
 2788SOL    HW1 9050   0.204   3.392  11.710
 2788SOL    HW2 9051   0.159   3.242  11.755
 2789SOL     OW 9052   0.240   2.953  12.058
 2789SOL    HW1 9053   0.254   2.869  12.110
 2789SOL    HW2 9054   0.185   3.017  12.113
 2790SOL     OW 9055   0.620   3.648  12.611
 2790SOL    HW1 9056   0.528   3.631  12.646
 2790SOL    HW2 9057   0.648   3.740  12.637
 2791SOL     OW 9058   0.606   2.826  11.295
 2791SOL    HW1 9059   0.613   2.910  11.241
 2791SOL    HW2 9060   0.652   2.839  11.383
 2792SOL     OW 9061   1.594   1.976  12.652
 2792SOL    HW1 9062   1.576   2.043  12.580
 2792SOL    HW2 9063   1.591   2.022  12.741
 2793SOL     OW 9064   0.122   2.505  11.735
 2793SOL    HW1 9065   0.077   2.417  11.752
 2793SOL    HW2 9066   0.121   2.559  11.819
 2794SOL     OW 9067   1.842   3.629  11.531
 2794SOL    HW1 9068   1.896   3.600  11.611
 2794SOL    HW2 9069   1.872   3.719  11.502
 2795SOL     OW 9070   0.027   3.458  11.289
 2795SOL    HW1 9071   0.008   3.362  11.310
 2795SOL    HW2 9072  -0.006   3.516  11.364
 2796SOL     OW 9073   1.689   2.784  11.784
 2796SOL    HW1 9074   1.784   2.755  11.792
 2796SOL    HW2 9075   1.681   2.849  11.709
 2797SOL     OW 9076   1.641   2.970  11.604
 2797SOL    HW1 9077   1.727   2.972  11.552
 2797SOL    HW2 9078   1.655   3.017  11.692
 2798SOL     OW 9079   0.113   2.599  12.769
 2798SOL    HW1 9080   0.201   2.586  12.814
 2798SOL    HW2 9081   0.100   2.696  12.747
 2799SOL     OW 9082   0.613   3.227  11.898
 2799SOL    HW1 9083   0.564   3.140  11.907
 2799SOL    HW2 9084   0.590   3.270  11.811
 2800SOL     OW 9085   1.293   3.090  12.595
 2800SOL    HW1 9086   1.330   3.017  12.537
 2800SOL    HW2 9087   1.345   3.095  12.680
 2801SOL     OW 9088   0.809   1.866  11.674
 2801SOL    HW1 9089   0.849   1.957  11.665
 2801SOL    HW2 9090   0.709   1.874  11.680
 2802SOL     OW 9091   0.197   2.838  12.436
 2802SOL    HW1 9092   0.286   2.793  12.422
 2802SOL    HW2 9093   0.124   2.773  12.417
 2803SOL     OW 9094   1.525   2.861  11.362
 2803SOL    HW1 9095   1.462   2.785  11.375
 2803SOL    HW2 9096   1.573   2.879  11.448
 2804SOL     OW 9097   1.187   3.654  12.788
 2804SOL    HW1 9098   1.211   3.714  12.712
 2804SOL    HW2 9099   1.194   3.559  12.758
 2805SOL     OW 9100   0.317   2.113  12.973
 2805SOL    HW1 9101   0.388   2.184  12.979
 2805SOL    HW2 9102   0.229   2.152  13.001
 2806SOL     OW 9103   1.466   3.279  12.125
 2806SOL    HW1 9104   1.407   3.285  12.205
 2806SOL    HW2 9105   1.451   3.191  12.079
 2807SOL     OW 9106   1.667   3.576  11.744
 2807SOL    HW1 9107   1.626   3.553  11.656
 2807SOL    HW2 9108   1.649   3.502  11.809
 2808SOL     OW 9109   0.598   2.591  11.442
 2808SOL    HW1 9110   0.622   2.660  11.374
 2808SOL    HW2 9111   0.520   2.624  11.496
 2809SOL     OW 9112   1.281   2.207  12.116
 2809SOL    HW1 9113   1.195   2.157  12.103
 2809SOL    HW2 9114   1.343   2.153  12.172
 2810SOL     OW 9115   1.576   3.524  11.479
 2810SOL    HW1 9116   1.665   3.570  11.482
 2810SOL    HW2 9117   1.555   3.500  11.384
 2811SOL     OW 9118   0.807   2.467  12.637
 2811SOL    HW1 9119   0.760   2.464  12.726
 2811SOL    HW2 9120   0.756   2.412  12.571
 2812SOL     OW 9121   1.394   2.331  12.846
 2812SOL    HW1 9122   1.374   2.374  12.934
 2812SOL    HW2 9123   1.472   2.269  12.855
 2813SOL     OW 9124   0.973   2.752  12.744
 2813SOL    HW1 9125   1.019   2.668  12.715
 2813SOL    HW2 9126   0.917   2.786  12.669
 2814SOL     OW 9127   0.991   2.272  12.414
 2814SOL    HW1 9128   0.914   2.306  12.468
 2814SOL    HW2 9129   0.957   2.221  12.335
 2815SOL     OW 9130   1.041   2.563  11.601
 2815SOL    HW1 9131   1.067   2.559  11.697
 2815SOL    HW2 9132   0.956   2.512  11.587
 2816SOL     OW 9133   0.076   2.673  11.961
 2816SOL    HW1 9134   0.175   2.661  11.970
 2816SOL    HW2 9135   0.052   2.768  11.982
 2817SOL     OW 9136   0.130   3.683  12.743
 2817SOL    HW1 9137   0.120   3.668  12.842
 2817SOL    HW2 9138   0.044   3.719  12.707
 2818SOL     OW 9139   0.865   2.210  11.367
 2818SOL    HW1 9140   0.924   2.273  11.318
 2818SOL    HW2 9141   0.884   2.116  11.338
 2819SOL     OW 9142   1.719   2.447  13.003
 2819SOL    HW1 9143   1.693   2.536  12.967
 2819SOL    HW2 9144   1.717   2.379  12.930
 2820SOL     OW 9145   1.362   3.006  11.717
 2820SOL    HW1 9146   1.445   2.977  11.669
 2820SOL    HW2 9147   1.313   3.073  11.661
 2821SOL     OW 9148   0.550   2.058  12.057
 2821SOL    HW1 9149   0.545   2.053  12.157
 2821SOL    HW2 9150   0.552   2.154  12.028
 2822SOL     OW 9151   1.008   3.318  11.649
 2822SOL    HW1 9152   0.962   3.390  11.597
 2822SOL    HW2 9153   1.004   3.338  11.747
 2823SOL     OW 9154   0.351   3.663  12.025
 2823SOL    HW1 9155   0.401   3.577  12.031
 2823SOL    HW2 9156   0.416   3.740  12.022
 2824SOL     OW 9157   1.795   2.928  12.045
 2824SOL    HW1 9158   1.733   2.913  11.969
 2824SOL    HW2 9159   1.743   2.939  12.130
 2825SOL     OW 9160   1.227   3.412  12.678
 2825SOL    HW1 9161   1.233   3.335  12.742
 2825SOL    HW2 9162   1.175   3.386  12.598
 2826SOL     OW 9163   0.321   2.805  11.414
 2826SOL    HW1 9164   0.403   2.844  11.372
 2826SOL    HW2 9165   0.294   2.723  11.365
 2827SOL     OW 9166   1.458   2.597  11.900
 2827SOL    HW1 9167   1.453   2.532  11.975
 2827SOL    HW2 9168   1.538   2.656  11.913
 2828SOL     OW 9169   0.461   3.128  12.899
 2828SOL    HW1 9170   0.411   3.129  12.813
 2828SOL    HW2 9171   0.398   3.110  12.975
 2829SOL     OW 9172   1.111   3.638  11.409
 2829SOL    HW1 9173   1.051   3.576  11.459
 2829SOL    HW2 9174   1.142   3.594  11.324
 2830SOL     OW 9175   0.202   2.147  12.670
 2830SOL    HW1 9176   0.122   2.207  12.657
 2830SOL    HW2 9177   0.192   2.098  12.756
 2831SOL     OW 9178   1.632   3.239  11.253
 2831SOL    HW1 9179   1.600   3.333  11.243
 2831SOL    HW2 9180   1.556   3.176  11.241
 2832SOL     OW 9181   0.464   3.605  11.495
 2832SOL    HW1 9182   0.497   3.644  11.581
 2832SOL    HW2 9183   0.540   3.598  11.430
 2833SOL     OW 9184   1.400   1.969  11.598
 2833SOL    HW1 9185   1.376   1.932  11.508
 2833SOL    HW2 9186   1.499   1.985  11.602
 2834SOL     OW 9187   0.249   3.647  12.413
 2834SOL    HW1 9188   0.306   3.582  12.463
 2834SOL    HW2 9189   0.233   3.614  12.320
 2835SOL     OW 9190   0.940   3.560  12.076
 2835SOL    HW1 9191   1.020   3.503  12.097
 2835SOL    HW2 9192   0.891   3.520  11.999
 2836SOL     OW 9193   0.382   2.562  11.652
 2836SOL    HW1 9194   0.427   2.472  11.649
 2836SOL    HW2 9195   0.288   2.551  11.685
 2837SOL     OW 9196   1.547   2.084  12.901
 2837SOL    HW1 9197   1.542   2.121  12.993
 2837SOL    HW2 9198   1.475   2.015  12.889
 2838SOL     OW 9199   0.614   1.984  11.289
 2838SOL    HW1 9200   0.712   1.962  11.296
 2838SOL    HW2 9201   0.583   1.967  11.196
 2839SOL     OW 9202   0.781   2.126  12.921
 2839SOL    HW1 9203   0.848   2.065  12.964
 2839SOL    HW2 9204   0.708   2.145  12.986
 2840SOL     OW 9205   0.888   3.376  12.367
 2840SOL    HW1 9206   0.865   3.351  12.273
 2840SOL    HW2 9207   0.949   3.307  12.406
 2841SOL     OW 9208   1.351   2.452  12.605
 2841SOL    HW1 9209   1.379   2.409  12.690
 2841SOL    HW2 9210   1.376   2.548  12.606
 2842SOL     OW 9211   0.803   3.264  12.096
 2842SOL    HW1 9212   0.893   3.278  12.054
 2842SOL    HW2 9213   0.732   3.266  12.025
 2843SOL     OW 9214   0.922   2.365  12.071
 2843SOL    HW1 9215   0.897   2.356  11.975
 2843SOL    HW2 9216   0.970   2.283  12.102
 2844SOL     OW 9217   0.539   1.926  11.684
 2844SOL    HW1 9218   0.458   1.927  11.742
 2844SOL    HW2 9219   0.542   2.009  11.629
 2845SOL     OW 9220   1.434   3.050  11.213
 2845SOL    HW1 9221   1.466   2.974  11.270
 2845SOL    HW2 9222   1.342   3.077  11.243
 2846SOL     OW 9223   0.297   1.897  11.343
 2846SOL    HW1 9224   0.346   1.981  11.322
 2846SOL    HW2 9225   0.359   1.832  11.388
 2847SOL     OW 9226   0.935   2.098  11.652
 2847SOL    HW1 9227   0.887   2.139  11.574
 2847SOL    HW2 9228   1.034   2.096  11.633
 2848SOL     OW 9229   1.076   2.545  12.636
 2848SOL    HW1 9230   0.996   2.484  12.639
 2848SOL    HW2 9231   1.157   2.492  12.612
 2849SOL     OW 9232   1.227   3.432  11.965
 2849SOL    HW1 9233   1.248   3.506  11.900
 2849SOL    HW2 9234   1.295   3.432  12.038
 2850SOL     OW 9235   0.459   3.014  11.913
 2850SOL    HW1 9236   0.388   2.987  11.978
 2850SOL    HW2 9237   0.433   2.986  11.820
 2851SOL     OW 9238   1.271   3.659  11.763
 2851SOL    HW1 9239   1.315   3.723  11.699
 2851SOL    HW2 9240   1.221   3.711  11.833
 2852SOL     OW 9241   1.032   2.411  11.188
 2852SOL    HW1 9242   0.991   2.493  11.149
 2852SOL    HW2 9243   1.096   2.437  11.261
 2853SOL     OW 9244   0.078   2.418  12.558
 2853SOL    HW1 9245   0.170   2.417  12.517
 2853SOL    HW2 9246   0.072   2.492  12.625
 2854SOL     OW 9247   0.561   2.084  12.319
 2854SOL    HW1 9248   0.599   2.000  12.356
 2854SOL    HW2 9249   0.473   2.103  12.363
 2855SOL     OW 9250   0.866   2.316  11.814
 2855SOL    HW1 9251   0.834   2.388  11.752
 2855SOL    HW2 9252   0.890   2.235  11.761
 2856SOL     OW 9253   1.017   1.901  11.925
 2856SOL    HW1 9254   0.945   1.906  11.856
 2856SOL    HW2 9255   0.993   1.832  11.994
 2857SOL     OW 9256   1.429   3.035  12.039
 2857SOL    HW1 9257   1.374   2.951  12.032
 2857SOL    HW2 9258   1.455   3.064  11.947
 2858SOL     OW 9259   1.466   2.452  12.164
 2858SOL    HW1 9260   1.436   2.357  12.171
 2858SOL    HW2 9261   1.539   2.468  12.230
 2859SOL     OW 9262   1.857   2.695  11.549
 2859SOL    HW1 9263   1.899   2.631  11.613
 2859SOL    HW2 9264   1.819   2.644  11.471
 2860SOL     OW 9265   0.488   3.247  11.346
 2860SOL    HW1 9266   0.401   3.232  11.393
 2860SOL    HW2 9267   0.471   3.273  11.251
 2861SOL     OW 9268   1.664   3.142  11.829
 2861SOL    HW1 9269   1.763   3.150  11.843
 2861SOL    HW2 9270   1.619   3.226  11.860
 2862SOL     OW 9271   1.390   2.437  11.250
 2862SOL    HW1 9272   1.336   2.416  11.331
 2862SOL    HW2 9273   1.481   2.396  11.259
 2863SOL     OW 9274   0.527   2.118  11.500
 2863SOL    HW1 9275   0.554   2.059  11.425
 2863SOL    HW2 9276   0.527   2.213  11.469
 2864SOL     OW 9277   1.754   3.085  12.760
 2864SOL    HW1 9278   1.845   3.046  12.747
 2864SOL    HW2 9279   1.762   3.181  12.784
 2865SOL     OW 9280   1.064   3.209  12.512
 2865SOL    HW1 9281   0.984   3.186  12.567
 2865SOL    HW2 9282   1.147   3.183  12.561
 2866SOL     OW 9283   1.592   3.491  12.797
 2866SOL    HW1 9284   1.619   3.525  12.707
 2866SOL    HW2 9285   1.671   3.453  12.843
 2867SOL     OW 9286   1.111   3.057  12.272
 2867SOL    HW1 9287   1.071   3.101  12.353
 2867SOL    HW2 9288   1.070   3.094  12.189
 2868SOL     OW 9289   1.638   2.961  12.251
 2868SOL    HW1 9290   1.643   3.042  12.310
 2868SOL    HW2 9291   1.552   2.963  12.200
 2869SOL     OW 9292   0.915   1.951  12.574
 2869SOL    HW1 9293   0.940   1.931  12.479
 2869SOL    HW2 9294   0.987   2.007  12.616
 2870SOL     OW 9295   0.980   2.978  12.891
 2870SOL    HW1 9296   0.881   2.984  12.901
 2870SOL    HW2 9297   1.003   2.898  12.835
 2871SOL     OW 9298   0.705   2.912  11.540
 2871SOL    HW1 9299   0.691   2.919  11.639
 2871SOL    HW2 9300   0.789   2.861  11.522
 2872SOL     OW 9301   0.410   2.675  12.423
 2872SOL    HW1 9302   0.496   2.687  12.473
 2872SOL    HW2 9303   0.368   2.588  12.450
 2873SOL     OW 9304   1.274   2.248  12.434
 2873SOL    HW1 9305   1.295   2.322  12.498
 2873SOL    HW2 9306   1.185   2.265  12.391
 2874SOL     OW 9307   0.064   3.426  12.503
 2874SOL    HW1 9308   0.018   3.508  12.469
 2874SOL    HW2 9309   0.162   3.445  12.512
 2875SOL     OW 9310   0.367   2.962  11.673
 2875SOL    HW1 9311   0.360   3.045  11.617
 2875SOL    HW2 9312   0.371   2.882  11.613
 2876SOL     OW 9313   0.566   2.399  12.037
 2876SOL    HW1 9314   0.578   2.465  11.963
 2876SOL    HW2 9315   0.612   2.433  12.120
 2877SOL     OW 9316   1.252   3.210  11.560
 2877SOL    HW1 9317   1.302   3.287  11.600
 2877SOL    HW2 9318   1.157   3.212  11.592
 2878SOL     OW 9319   1.272   3.307  12.314
 2878SOL    HW1 9320   1.319   3.320  12.401
 2878SOL    HW2 9321   1.206   3.233  12.323
 2879SOL     OW 9322   1.582   2.501  11.644
 2879SOL    HW1 9323   1.551   2.562  11.717
 2879SOL    HW2 9324   1.632   2.553  11.575
 2880SOL     OW 9325   0.354   3.372  12.501
 2880SOL    HW1 9326   0.333   3.328  12.414
 2880SOL    HW2 9327   0.451   3.398  12.504
 2881SOL     OW 9328   0.402   2.613  12.770
 2881SOL    HW1 9329   0.470   2.668  12.723
 2881SOL    HW2 9330   0.442   2.525  12.797
 2882SOL     OW 9331   1.587   2.641  12.842
 2882SOL    HW1 9332   1.495   2.679  12.837
 2882SOL    HW2 9333   1.647   2.688  12.777
 2883SOL     OW 9334   1.013   1.967  12.942
 2883SOL    HW1 9335   1.019   2.052  12.890
 2883SOL    HW2 9336   1.045   1.891  12.885
 2884SOL     OW 9337   0.504   1.912  12.912
 2884SOL    HW1 9338   0.462   1.855  12.842
 2884SOL    HW2 9339   0.438   1.981  12.944
 2885SOL     OW 9340   0.573   2.732  12.201
 2885SOL    HW1 9341   0.617   2.821  12.192
 2885SOL    HW2 9342   0.510   2.732  12.278
 2886SOL     OW 9343   1.360   2.724  12.217
 2886SOL    HW1 9344   1.285   2.724  12.151
 2886SOL    HW2 9345   1.397   2.632  12.226
 2887SOL     OW 9346   1.209   2.387  11.447
 2887SOL    HW1 9347   1.222   2.303  11.501
 2887SOL    HW2 9348   1.180   2.461  11.507
 2888SOL     OW 9349   0.307   2.075  12.403
 2888SOL    HW1 9350   0.284   2.112  12.493
 2888SOL    HW2 9351   0.277   1.980  12.397
 2889SOL     OW 9352   0.037   3.172  12.454
 2889SOL    HW1 9353   0.090   3.123  12.522
 2889SOL    HW2 9354   0.059   3.270  12.459
 2890SOL     OW 9355   0.732   2.496  12.236
 2890SOL    HW1 9356   0.791   2.470  12.160
 2890SOL    HW2 9357   0.704   2.592  12.225
 2891SOL     OW 9358   1.728   2.797  13.026
 2891SOL    HW1 9359   1.682   2.790  12.937
 2891SOL    HW2 9360   1.666   2.841  13.092
 2892SOL     OW 9361   0.307   1.925  11.790
 2892SOL    HW1 9362   0.296   2.019  11.823
 2892SOL    HW2 9363   0.302   1.862  11.867
 2893SOL     OW 9364   1.622   2.229  11.546
 2893SOL    HW1 9365   1.624   2.153  11.610
 2893SOL    HW2 9366   1.574   2.306  11.586
 2894SOL     OW 9367   1.023   2.628  12.138
 2894SOL    HW1 9368   1.038   2.649  12.234
 2894SOL    HW2 9369   0.993   2.533  12.129
 2895SOL     OW 9370   0.980   3.435  12.872
 2895SOL    HW1 9371   0.960   3.479  12.784
 2895SOL    HW2 9372   1.019   3.344  12.856
 2896SOL     OW 9373   1.859   3.380  12.777
 2896SOL    HW1 9374   1.873   3.407  12.682
 2896SOL    HW2 9375   1.942   3.402  12.830
 2897SOL     OW 9376   0.350   2.760  12.976
 2897SOL    HW1 9377   0.426   2.804  13.024
 2897SOL    HW2 9378   0.385   2.713  12.894
 2898SOL     OW 9379   1.540   2.136  11.297
 2898SOL    HW1 9380   1.479   2.061  11.320
 2898SOL    HW2 9381   1.562   2.188  11.380
 2899SOL     OW 9382   1.303   2.700  11.214
 2899SOL    HW1 9383   1.337   2.607  11.229
 2899SOL    HW2 9384   1.321   2.727  11.119
 2900SOL     OW 9385   1.068   3.195  12.021
 2900SOL    HW1 9386   1.075   3.111  11.966
 2900SOL    HW2 9387   1.130   3.264  11.985
 2901SOL     OW 9388   0.319   2.672  12.121
 2901SOL    HW1 9389   0.412   2.708  12.126
 2901SOL    HW2 9390   0.313   2.587  12.173
 2902SOL     OW 9391   0.339   2.371  12.178
 2902SOL    HW1 9392   0.287   2.288  12.161
 2902SOL    HW2 9393   0.416   2.376  12.114
 2903SOL     OW 9394   1.138   2.242  12.850
 2903SOL    HW1 9395   1.093   2.305  12.914
 2903SOL    HW2 9396   1.231   2.273  12.833
 2904SOL     OW 9397   1.160   2.069  12.649
 2904SOL    HW1 9398   1.160   2.133  12.726
 2904SOL    HW2 9399   1.188   2.117  12.566
 2905SOL     OW 9400   0.008   3.188  11.372
 2905SOL    HW1 9401  -0.085   3.209  11.341
 2905SOL    HW2 9402   0.018   3.089  11.385
 2906SOL     OW 9403   0.088   3.663  12.099
 2906SOL    HW1 9404   0.046   3.577  12.072
 2906SOL    HW2 9405   0.182   3.666  12.065
 2907SOL     OW 9406   0.504   3.430  12.082
 2907SOL    HW1 9407   0.570   3.504  12.091
 2907SOL    HW2 9408   0.548   3.351  12.040
 2908SOL     OW 9409   1.002   2.658  12.410
 2908SOL    HW1 9410   1.043   2.626  12.496
 2908SOL    HW2 9411   0.906   2.631  12.407
 2909SOL     OW 9412   0.040   2.406  12.286
 2909SOL    HW1 9413   0.125   2.373  12.245
 2909SOL    HW2 9414   0.053   2.421  12.384
 2910SOL     OW 9415   0.189   2.382  12.894
 2910SOL    HW1 9416   0.248   2.342  12.824
 2910SOL    HW2 9417   0.131   2.453  12.853
 2911SOL     OW 9418   1.369   2.812  12.832
 2911SOL    HW1 9419   1.408   2.901  12.852
 2911SOL    HW2 9420   1.379   2.792  12.735
 2912SOL     OW 9421   0.815   2.434  11.497
 2912SOL    HW1 9422   0.822   2.345  11.451
 2912SOL    HW2 9423   0.721   2.468  11.489
 2913SOL     OW 9424   1.657   2.466  12.378
 2913SOL    HW1 9425   1.619   2.397  12.440
 2913SOL    HW2 9426   1.739   2.430  12.334
 2914SOL     OW 9427   0.252   3.426  12.916
 2914SOL    HW1 9428   0.222   3.483  12.992
 2914SOL    HW2 9429   0.245   3.329  12.942
 2915SOL     OW 9430   0.671   2.326  12.441
 2915SOL    HW1 9431   0.637   2.237  12.411
 2915SOL    HW2 9432   0.697   2.380  12.361
 2916SOL     OW 9433   0.930   3.540  12.637
 2916SOL    HW1 9434   0.906   3.522  12.542
 2916SOL    HW2 9435   0.960   3.634  12.647
 2917SOL     OW 9436   0.473   2.362  11.363
 2917SOL    HW1 9437   0.534   2.442  11.367
 2917SOL    HW2 9438   0.378   2.393  11.370
 2918SOL     OW 9439   0.159   2.999  12.638
 2918SOL    HW1 9440   0.181   2.938  12.714
 2918SOL    HW2 9441   0.169   2.950  12.552
 2919SOL     OW 9442   1.347   2.921  12.406
 2919SOL    HW1 9443   1.371   2.858  12.332
 2919SOL    HW2 9444   1.257   2.961  12.388
 2920SOL     OW 9445   1.302   2.717  11.481
 2920SOL    HW1 9446   1.216   2.686  11.523
 2920SOL    HW2 9447   1.298   2.703  11.382
 2921SOL     OW 9448   1.759   3.609  12.326
 2921SOL    HW1 9449   1.820   3.639  12.253
 2921SOL    HW2 9450   1.721   3.520  12.304
 2922SOL     OW 9451   1.252   3.593  12.300
 2922SOL    HW1 9452   1.336   3.598  12.246
 2922SOL    HW2 9453   1.229   3.497  12.318
 2923SOL     OW 9454   0.083   3.120  12.194
 2923SOL    HW1 9455   0.078   3.119  12.294
 2923SOL    HW2 9456   0.000   3.079  12.156
 2924SOL     OW 9457   0.688   3.524  12.888
 2924SOL    HW1 9458   0.632   3.605  12.897
 2924SOL    HW2 9459   0.740   3.528  12.802
 2925SOL     OW 9460   1.388   3.435  11.649
 2925SOL    HW1 9461   1.455   3.447  11.575
 2925SOL    HW2 9462   1.348   3.524  11.672
 2926SOL     OW 9463   0.130   3.656  13.023
 2926SOL    HW1 9464   0.089   3.582  13.076
 2926SOL    HW2 9465   0.194   3.707  13.081
 2927SOL     OW 9466   1.280   2.789  11.844
 2927SOL    HW1 9467   1.340   2.708  11.846
 2927SOL    HW2 9468   1.320   2.858  11.784
 2928SOL     OW 9469   0.830   3.135  12.594
 2928SOL    HW1 9470   0.825   3.168  12.689
 2928SOL    HW2 9471   0.744   3.154  12.548
 2929SOL     OW 9472   0.672   3.478  11.326
 2929SOL    HW1 9473   0.681   3.488  11.227
 2929SOL    HW2 9474   0.632   3.389  11.347
 2930SOL     OW 9475   1.650   3.582  12.566
 2930SOL    HW1 9476   1.703   3.592  12.482
 2930SOL    HW2 9477   1.623   3.672  12.600
 2931SOL     OW 9478   0.263   2.188  11.892
 2931SOL    HW1 9479   0.184   2.239  11.858
 2931SOL    HW2 9480   0.254   2.173  11.990
 2932SOL     OW 9481   1.194   3.474  11.203
 2932SOL    HW1 9482   1.200   3.381  11.240
 2932SOL    HW2 9483   1.135   3.474  11.123
 2933SOL     OW 9484   0.822   2.864  12.544
 2933SOL    HW1 9485   0.862   2.863  12.452
 2933SOL    HW2 9486   0.832   2.956  12.584
 2934SOL     OW 9487   0.916   2.772  11.463
 2934SOL    HW1 9488   0.979   2.810  11.395
 2934SOL    HW2 9489   0.956   2.689  11.502
 2935SOL     OW 9490   1.504   3.469  11.216
 2935SOL    HW1 9491   1.412   3.506  11.223
 2935SOL    HW2 9492   1.542   3.489  11.126
 2936SOL     OW 9493   0.372   3.150  12.662
 2936SOL    HW1 9494   0.359   3.243  12.628
 2936SOL    HW2 9495   0.288   3.098  12.649
 2937SOL     OW 9496   1.614   3.154  12.461
 2937SOL    HW1 9497   1.674   3.157  12.541
 2937SOL    HW2 9498   1.539   3.218  12.474
 2938SOL     OW 9499   1.039   2.960  11.868
 2938SOL    HW1 9500   0.969   2.913  11.922
 2938SOL    HW2 9501   1.098   2.892  11.825
 2939SOL     OW 9502   1.014   2.098  12.143
 2939SOL    HW1 9503   1.006   2.062  12.050
 2939SOL    HW2 9504   1.012   2.022  12.208
 2940SOL     OW 9505   0.590   3.349  11.663
 2940SOL    HW1 9506   0.632   3.291  11.593
 2940SOL    HW2 9507   0.546   3.428  11.619
 2941SOL     OW 9508   1.709   2.247  12.553
 2941SOL    HW1 9509   1.782   2.316  12.557
 2941SOL    HW2 9510   1.737   2.172  12.494
 2942SOL     OW 9511   0.255   3.210  11.462
 2942SOL    HW1 9512   0.159   3.211  11.435
 2942SOL    HW2 9513   0.267   3.263  11.546
 2943SOL     OW 9514   0.105   2.875  12.898
 2943SOL    HW1 9515   0.028   2.842  12.952
 2943SOL    HW2 9516   0.190   2.845  12.940
 2944SOL     OW 9517   0.672   2.065  12.661
 2944SOL    HW1 9518   0.762   2.049  12.621
 2944SOL    HW2 9519   0.680   2.070  12.760
 2945SOL     OW 9520   0.075   2.207  11.205
 2945SOL    HW1 9521  -0.017   2.179  11.176
 2945SOL    HW2 9522   0.106   2.284  11.149
 2946SOL     OW 9523   1.440   2.718  12.570
 2946SOL    HW1 9524   1.383   2.770  12.507
 2946SOL    HW2 9525   1.536   2.730  12.546
 2947SOL     OW 9526   0.072   2.028  11.490
 2947SOL    HW1 9527   0.055   2.111  11.436
 2947SOL    HW2 9528   0.162   1.991  11.468
 2948SOL     OW 9529   1.183   3.197  11.291
 2948SOL    HW1 9530   1.084   3.186  11.293
 2948SOL    HW2 9531   1.217   3.212  11.384
 2949SOL     OW 9532   0.613   2.704  12.603
 2949SOL    HW1 9533   0.669   2.785  12.586
 2949SOL    HW2 9534   0.672   2.624  12.606
 2950SOL     OW 9535   1.493   3.629  12.131
 2950SOL    HW1 9536   1.526   3.693  12.062
 2950SOL    HW2 9537   1.559   3.623  12.206
 2951SOL     OW 9538   0.716   2.427  12.880
 2951SOL    HW1 9539   0.735   2.492  12.954
 2951SOL    HW2 9540   0.776   2.347  12.889
 2952SOL     OW 9541   1.450   3.082  12.805
 2952SOL    HW1 9542   1.441   3.072  12.904
 2952SOL    HW2 9543   1.546   3.075  12.779
 2953SOL     OW 9544   0.390   3.603  12.732
 2953SOL    HW1 9545   0.299   3.644  12.730
 2953SOL    HW2 9546   0.383   3.509  12.764
 2954SOL     OW 9547   1.674   2.745  12.426
 2954SOL    HW1 9548   1.647   2.656  12.389
 2954SOL    HW2 9549   1.675   2.813  12.353
 2955SOL     OW 9550   1.225   2.187  11.621
 2955SOL    HW1 9551   1.290   2.113  11.610
 2955SOL    HW2 9552   1.245   2.237  11.705
 2956SOL     OW 9553   0.594   2.607  11.824
 2956SOL    HW1 9554   0.644   2.692  11.805
 2956SOL    HW2 9555   0.506   2.609  11.776
 2957SOL     OW 9556   1.777   2.204  12.814
 2957SOL    HW1 9557   1.760   2.235  12.720
 2957SOL    HW2 9558   1.693   2.167  12.852
 2958SOL     OW 9559   1.730   2.796  12.689
 2958SOL    HW1 9560   1.768   2.887  12.704
 2958SOL    HW2 9561   1.722   2.779  12.590
 2959SOL     OW 9562   0.859   3.236  11.188
 2959SOL    HW1 9563   0.813   3.251  11.276
 2959SOL    HW2 9564   0.903   3.321  11.158
 2960SOL     OW 9565   0.661   3.652  12.125
 2960SOL    HW1 9566   0.615   3.740  12.112
 2960SOL    HW2 9567   0.760   3.664  12.118
 2961SOL     OW 9568   0.859   2.818  12.033
 2961SOL    HW1 9569   0.913   2.749  12.081
 2961SOL    HW2 9570   0.827   2.887  12.099
 2962SOL     OW 9571   1.083   2.846  11.259
 2962SOL    HW1 9572   1.060   2.899  11.177
 2962SOL    HW2 9573   1.164   2.790  11.240
 2963SOL     OW 9574   1.861   3.431  12.023
 2963SOL    HW1 9575   1.790   3.419  11.953
 2963SOL    HW2 9576   1.862   3.352  12.083
 2964SOL     OW 9577   0.221   3.176  13.016
 2964SOL    HW1 9578   0.156   3.103  12.995
 2964SOL    HW2 9579   0.225   3.190  13.114
 2965SOL     OW 9580   0.079   3.102  11.825
 2965SOL    HW1 9581   0.078   3.055  11.913
 2965SOL    HW2 9582   0.161   3.074  11.774
 2966SOL     OW 9583   0.672   3.253  12.796
 2966SOL    HW1 9584   0.594   3.203  12.834
 2966SOL    HW2 9585   0.669   3.348  12.827
 2967SOL     OW 9586   0.428   2.286  11.692
 2967SOL    HW1 9587   0.458   2.214  11.630
 2967SOL    HW2 9588   0.389   2.246  11.775
 2968SOL     OW 9589   1.705   3.349  12.276
 2968SOL    HW1 9590   1.612   3.324  12.249
 2968SOL    HW2 9591   1.731   3.299  12.358
 2969SOL     OW 9592   0.317   2.409  12.452
 2969SOL    HW1 9593   0.355   2.350  12.524
 2969SOL    HW2 9594   0.357   2.383  12.364
 2970SOL     OW 9595   0.812   3.448  11.859
 2970SOL    HW1 9596   0.844   3.458  11.765
 2970SOL    HW2 9597   0.733   3.386  11.861
 2971SOL     OW 9598   1.424   2.076  12.284
 2971SOL    HW1 9599   1.476   2.011  12.339
 2971SOL    HW2 9600   1.375   2.139  12.345
 2972SOL     OW 9601   1.001   1.896  12.326
 2972SOL    HW1 9602   0.938   1.824  12.295
 2972SOL    HW2 9603   1.094   1.860  12.326
 2973SOL     OW 9604   0.770   3.192  11.473
 2973SOL    HW1 9605   0.724   3.105  11.490
 2973SOL    HW2 9606   0.861   3.189  11.514
 2974SOL     OW 9607   0.618   3.429  12.456
 2974SOL    HW1 9608   0.613   3.511  12.513
 2974SOL    HW2 9609   0.707   3.426  12.411
 2975SOL     OW 9610   1.352   1.914  11.340
 2975SOL    HW1 9611   1.387   1.873  11.256
 2975SOL    HW2 9612   1.262   1.876  11.360
 2976SOL     OW 9613   1.300   2.315  11.863
 2976SOL    HW1 9614   1.241   2.395  11.867
 2976SOL    HW2 9615   1.315   2.280  11.956
 2977SOL     OW 9616   1.593   2.083  12.054
 2977SOL    HW1 9617   1.509   2.082  12.108
 2977SOL    HW2 9618   1.595   2.166  11.998
 2978SOL     OW 9619   0.039   2.939  11.472
 2978SOL    HW1 9620   0.138   2.928  11.463
 2978SOL    HW2 9621  -0.001   2.853  11.504
 2979SOL     OW 9622   0.875   3.508  11.509
 2979SOL    HW1 9623   0.798   3.473  11.455
 2979SOL    HW2 9624   0.843   3.579  11.571
 2980SOL     OW 9625   0.230   2.490  13.147
 2980SOL    HW1 9626   0.137   2.488  13.184
 2980SOL    HW2 9627   0.231   2.451  13.055
 2981SOL     OW 9628   0.225   2.137  14.030
 2981SOL    HW1 9629   0.260   2.120  14.122
 2981SOL    HW2 9630   0.137   2.092  14.018
 2982SOL     OW 9631   0.019   2.230  13.681
 2982SOL    HW1 9632  -0.063   2.273  13.720
 2982SOL    HW2 9633  -0.009   2.157  13.618
 2983SOL     OW 9634   1.555   3.373  13.737
 2983SOL    HW1 9635   1.498   3.357  13.818
 2983SOL    HW2 9636   1.496   3.383  13.657
 2984SOL     OW 9637   1.135   2.565  13.751
 2984SOL    HW1 9638   1.192   2.643  13.726
 2984SOL    HW2 9639   1.075   2.591  13.827
 2985SOL     OW 9640   1.755   2.469  13.265
 2985SOL    HW1 9641   1.743   2.456  13.166
 2985SOL    HW2 9642   1.725   2.388  13.314
 2986SOL     OW 9643   0.685   2.874  13.699
 2986SOL    HW1 9644   0.754   2.858  13.769
 2986SOL    HW2 9645   0.612   2.931  13.737
 2987SOL     OW 9646   1.603   2.309  13.771
 2987SOL    HW1 9647   1.529   2.355  13.721
 2987SOL    HW2 9648   1.654   2.377  13.824
 2988SOL     OW 9649   0.231   3.575  13.517
 2988SOL    HW1 9650   0.265   3.652  13.571
 2988SOL    HW2 9651   0.275   3.575  13.427
 2989SOL     OW 9652   0.230   3.296  13.572
 2989SOL    HW1 9653   0.204   3.392  13.572
 2989SOL    HW2 9654   0.159   3.242  13.617
 2990SOL     OW 9655   0.240   2.953  13.920
 2990SOL    HW1 9656   0.254   2.869  13.972
 2990SOL    HW2 9657   0.185   3.017  13.975
 2991SOL     OW 9658   0.606   2.826  13.157
 2991SOL    HW1 9659   0.613   2.910  13.103
 2991SOL    HW2 9660   0.652   2.839  13.245
 2992SOL     OW 9661   0.122   2.505  13.597
 2992SOL    HW1 9662   0.077   2.417  13.614
 2992SOL    HW2 9663   0.121   2.559  13.681
 2993SOL     OW 9664   1.842   3.629  13.393
 2993SOL    HW1 9665   1.896   3.600  13.473
 2993SOL    HW2 9666   1.872   3.719  13.364
 2994SOL     OW 9667   0.027   3.458  13.151
 2994SOL    HW1 9668   0.008   3.362  13.172
 2994SOL    HW2 9669  -0.006   3.516  13.226
 2995SOL     OW 9670   1.689   2.784  13.646
 2995SOL    HW1 9671   1.784   2.755  13.654
 2995SOL    HW2 9672   1.681   2.849  13.571
 2996SOL     OW 9673   1.641   2.970  13.466
 2996SOL    HW1 9674   1.727   2.972  13.414
 2996SOL    HW2 9675   1.655   3.017  13.554
 2997SOL     OW 9676   0.613   3.227  13.760
 2997SOL    HW1 9677   0.564   3.140  13.769
 2997SOL    HW2 9678   0.590   3.270  13.673
 2998SOL     OW 9679   0.809   1.866  13.536
 2998SOL    HW1 9680   0.849   1.957  13.527
 2998SOL    HW2 9681   0.709   1.874  13.542
 2999SOL     OW 9682   1.525   2.861  13.224
 2999SOL    HW1 9683   1.462   2.785  13.237
 2999SOL    HW2 9684   1.573   2.879  13.310
 3000SOL     OW 9685   1.667   3.576  13.606
 3000SOL    HW1 9686   1.626   3.553  13.518
 3000SOL    HW2 9687   1.649   3.502  13.671
 3001SOL     OW 9688   0.598   2.591  13.304
 3001SOL    HW1 9689   0.622   2.660  13.236
 3001SOL    HW2 9690   0.520   2.624  13.358
 3002SOL     OW 9691   1.281   2.207  13.978
 3002SOL    HW1 9692   1.195   2.157  13.965
 3002SOL    HW2 9693   1.343   2.153  14.034
 3003SOL     OW 9694   1.576   3.524  13.341
 3003SOL    HW1 9695   1.665   3.570  13.344
 3003SOL    HW2 9696   1.555   3.500  13.246
 3004SOL     OW 9697   1.041   2.563  13.463
 3004SOL    HW1 9698   1.067   2.559  13.559
 3004SOL    HW2 9699   0.956   2.512  13.449
 3005SOL     OW 9700   0.076   2.673  13.823
 3005SOL    HW1 9701   0.175   2.661  13.832
 3005SOL    HW2 9702   0.052   2.768  13.844
 3006SOL     OW 9703   0.865   2.210  13.229
 3006SOL    HW1 9704   0.924   2.273  13.180
 3006SOL    HW2 9705   0.884   2.116  13.200
 3007SOL     OW 9706   1.362   3.006  13.579
 3007SOL    HW1 9707   1.445   2.977  13.531
 3007SOL    HW2 9708   1.313   3.073  13.523
 3008SOL     OW 9709   1.008   3.318  13.511
 3008SOL    HW1 9710   0.962   3.390  13.459
 3008SOL    HW2 9711   1.004   3.338  13.609
 3009SOL     OW 9712   0.351   3.663  13.887
 3009SOL    HW1 9713   0.401   3.577  13.893
 3009SOL    HW2 9714   0.416   3.740  13.884
 3010SOL     OW 9715   1.795   2.928  13.907
 3010SOL    HW1 9716   1.733   2.913  13.831
 3010SOL    HW2 9717   1.743   2.939  13.992
 3011SOL     OW 9718   0.321   2.805  13.276
 3011SOL    HW1 9719   0.403   2.844  13.234
 3011SOL    HW2 9720   0.294   2.723  13.227
 3012SOL     OW 9721   1.458   2.597  13.762
 3012SOL    HW1 9722   1.453   2.532  13.837
 3012SOL    HW2 9723   1.538   2.656  13.775
 3013SOL     OW 9724   1.111   3.638  13.271
 3013SOL    HW1 9725   1.051   3.576  13.321
 3013SOL    HW2 9726   1.142   3.594  13.186
 3014SOL     OW 9727   1.632   3.239  13.115
 3014SOL    HW1 9728   1.600   3.333  13.105
 3014SOL    HW2 9729   1.556   3.176  13.103
 3015SOL     OW 9730   0.464   3.605  13.357
 3015SOL    HW1 9731   0.497   3.644  13.443
 3015SOL    HW2 9732   0.540   3.598  13.292
 3016SOL     OW 9733   1.400   1.969  13.460
 3016SOL    HW1 9734   1.376   1.932  13.370
 3016SOL    HW2 9735   1.499   1.985  13.464
 3017SOL     OW 9736   0.940   3.560  13.938
 3017SOL    HW1 9737   1.020   3.503  13.959
 3017SOL    HW2 9738   0.891   3.520  13.861
 3018SOL     OW 9739   0.382   2.562  13.514
 3018SOL    HW1 9740   0.427   2.472  13.511
 3018SOL    HW2 9741   0.288   2.551  13.547
 3019SOL     OW 9742   0.614   1.984  13.151
 3019SOL    HW1 9743   0.712   1.962  13.158
 3019SOL    HW2 9744   0.583   1.967  13.058
 3020SOL     OW 9745   0.539   1.926  13.546
 3020SOL    HW1 9746   0.458   1.927  13.604
 3020SOL    HW2 9747   0.542   2.009  13.491
 3021SOL     OW 9748   1.434   3.050  13.075
 3021SOL    HW1 9749   1.466   2.974  13.132
 3021SOL    HW2 9750   1.342   3.077  13.105
 3022SOL     OW 9751   0.297   1.897  13.205
 3022SOL    HW1 9752   0.346   1.981  13.184
 3022SOL    HW2 9753   0.359   1.832  13.250
 3023SOL     OW 9754   0.935   2.098  13.514
 3023SOL    HW1 9755   0.887   2.139  13.436
 3023SOL    HW2 9756   1.034   2.096  13.495
 3024SOL     OW 9757   0.459   3.014  13.775
 3024SOL    HW1 9758   0.388   2.987  13.840
 3024SOL    HW2 9759   0.433   2.986  13.682
 3025SOL     OW 9760   1.271   3.659  13.625
 3025SOL    HW1 9761   1.315   3.723  13.561
 3025SOL    HW2 9762   1.221   3.711  13.695
 3026SOL     OW 9763   1.032   2.411  13.050
 3026SOL    HW1 9764   0.991   2.493  13.011
 3026SOL    HW2 9765   1.096   2.437  13.123
 3027SOL     OW 9766   0.866   2.316  13.676
 3027SOL    HW1 9767   0.834   2.388  13.614
 3027SOL    HW2 9768   0.890   2.235  13.623
 3028SOL     OW 9769   1.017   1.901  13.787
 3028SOL    HW1 9770   0.945   1.906  13.718
 3028SOL    HW2 9771   0.993   1.832  13.856
 3029SOL     OW 9772   1.857   2.695  13.411
 3029SOL    HW1 9773   1.899   2.631  13.475
 3029SOL    HW2 9774   1.819   2.644  13.333
 3030SOL     OW 9775   0.488   3.247  13.208
 3030SOL    HW1 9776   0.401   3.232  13.255
 3030SOL    HW2 9777   0.471   3.273  13.113
 3031SOL     OW 9778   1.664   3.142  13.691
 3031SOL    HW1 9779   1.763   3.150  13.705
 3031SOL    HW2 9780   1.619   3.226  13.722
 3032SOL     OW 9781   1.390   2.437  13.112
 3032SOL    HW1 9782   1.336   2.416  13.193
 3032SOL    HW2 9783   1.481   2.396  13.121
 3033SOL     OW 9784   0.527   2.118  13.362
 3033SOL    HW1 9785   0.554   2.059  13.287
 3033SOL    HW2 9786   0.527   2.213  13.331
 3034SOL     OW 9787   0.705   2.912  13.402
 3034SOL    HW1 9788   0.691   2.919  13.501
 3034SOL    HW2 9789   0.789   2.861  13.384
 3035SOL     OW 9790   0.367   2.962  13.535
 3035SOL    HW1 9791   0.360   3.045  13.479
 3035SOL    HW2 9792   0.371   2.882  13.475
 3036SOL     OW 9793   0.566   2.399  13.899
 3036SOL    HW1 9794   0.578   2.465  13.825
 3036SOL    HW2 9795   0.612   2.433  13.982
 3037SOL     OW 9796   1.252   3.210  13.422
 3037SOL    HW1 9797   1.302   3.287  13.462
 3037SOL    HW2 9798   1.157   3.212  13.454
 3038SOL     OW 9799   1.582   2.501  13.506
 3038SOL    HW1 9800   1.551   2.562  13.579
 3038SOL    HW2 9801   1.632   2.553  13.437
 3039SOL     OW 9802   1.209   2.387  13.309
 3039SOL    HW1 9803   1.222   2.303  13.363
 3039SOL    HW2 9804   1.180   2.461  13.369
 3040SOL     OW 9805   0.307   1.925  13.652
 3040SOL    HW1 9806   0.296   2.019  13.685
 3040SOL    HW2 9807   0.302   1.862  13.729
 3041SOL     OW 9808   1.622   2.229  13.408
 3041SOL    HW1 9809   1.624   2.153  13.472
 3041SOL    HW2 9810   1.574   2.306  13.448
 3042SOL     OW 9811   1.540   2.136  13.159
 3042SOL    HW1 9812   1.479   2.061  13.182
 3042SOL    HW2 9813   1.562   2.188  13.242
 3043SOL     OW 9814   1.303   2.700  13.076
 3043SOL    HW1 9815   1.337   2.607  13.091
 3043SOL    HW2 9816   1.321   2.727  12.981
 3044SOL     OW 9817   0.008   3.188  13.234
 3044SOL    HW1 9818  -0.085   3.209  13.203
 3044SOL    HW2 9819   0.018   3.089  13.247
 3045SOL     OW 9820   0.815   2.434  13.359
 3045SOL    HW1 9821   0.822   2.345  13.313
 3045SOL    HW2 9822   0.721   2.468  13.351
 3046SOL     OW 9823   0.473   2.362  13.225
 3046SOL    HW1 9824   0.534   2.442  13.229
 3046SOL    HW2 9825   0.378   2.393  13.232
 3047SOL     OW 9826   1.302   2.717  13.343
 3047SOL    HW1 9827   1.216   2.686  13.385
 3047SOL    HW2 9828   1.298   2.703  13.244
 3048SOL     OW 9829   1.388   3.435  13.511
 3048SOL    HW1 9830   1.455   3.447  13.437
 3048SOL    HW2 9831   1.348   3.524  13.534
 3049SOL     OW 9832   1.280   2.789  13.706
 3049SOL    HW1 9833   1.340   2.708  13.708
 3049SOL    HW2 9834   1.320   2.858  13.646
 3050SOL     OW 9835   0.672   3.478  13.188
 3050SOL    HW1 9836   0.681   3.488  13.089
 3050SOL    HW2 9837   0.632   3.389  13.209
 3051SOL     OW 9838   0.263   2.188  13.754
 3051SOL    HW1 9839   0.184   2.239  13.720
 3051SOL    HW2 9840   0.254   2.173  13.852
 3052SOL     OW 9841   1.194   3.474  13.065
 3052SOL    HW1 9842   1.200   3.381  13.102
 3052SOL    HW2 9843   1.135   3.474  12.985
 3053SOL     OW 9844   0.916   2.772  13.325
 3053SOL    HW1 9845   0.979   2.810  13.257
 3053SOL    HW2 9846   0.956   2.689  13.364
 3054SOL     OW 9847   1.504   3.469  13.078
 3054SOL    HW1 9848   1.412   3.506  13.085
 3054SOL    HW2 9849   1.542   3.489  12.988
 3055SOL     OW 9850   1.039   2.960  13.730
 3055SOL    HW1 9851   0.969   2.913  13.784
 3055SOL    HW2 9852   1.098   2.892  13.687
 3056SOL     OW 9853   0.590   3.349  13.525
 3056SOL    HW1 9854   0.632   3.291  13.455
 3056SOL    HW2 9855   0.546   3.428  13.481
 3057SOL     OW 9856   0.255   3.210  13.324
 3057SOL    HW1 9857   0.159   3.211  13.297
 3057SOL    HW2 9858   0.267   3.263  13.408
 3058SOL     OW 9859   0.075   2.207  13.067
 3058SOL    HW1 9860  -0.017   2.179  13.038
 3058SOL    HW2 9861   0.106   2.284  13.011
 3059SOL     OW 9862   0.072   2.028  13.352
 3059SOL    HW1 9863   0.055   2.111  13.298
 3059SOL    HW2 9864   0.162   1.991  13.330
 3060SOL     OW 9865   1.183   3.197  13.153
 3060SOL    HW1 9866   1.084   3.186  13.155
 3060SOL    HW2 9867   1.217   3.212  13.246
 3061SOL     OW 9868   1.225   2.187  13.483
 3061SOL    HW1 9869   1.290   2.113  13.472
 3061SOL    HW2 9870   1.245   2.237  13.567
 3062SOL     OW 9871   0.594   2.607  13.686
 3062SOL    HW1 9872   0.644   2.692  13.667
 3062SOL    HW2 9873   0.506   2.609  13.638
 3063SOL     OW 9874   0.859   3.236  13.050
 3063SOL    HW1 9875   0.813   3.251  13.138
 3063SOL    HW2 9876   0.903   3.321  13.020
 3064SOL     OW 9877   0.661   3.652  13.987
 3064SOL    HW1 9878   0.615   3.740  13.974
 3064SOL    HW2 9879   0.760   3.664  13.980
 3065SOL     OW 9880   0.859   2.818  13.895
 3065SOL    HW1 9881   0.913   2.749  13.943
 3065SOL    HW2 9882   0.827   2.887  13.961
 3066SOL     OW 9883   1.083   2.846  13.121
 3066SOL    HW1 9884   1.060   2.899  13.039
 3066SOL    HW2 9885   1.164   2.790  13.102
 3067SOL     OW 9886   0.079   3.102  13.687
 3067SOL    HW1 9887   0.078   3.055  13.775
 3067SOL    HW2 9888   0.161   3.074  13.636
 3068SOL     OW 9889   0.428   2.286  13.554
 3068SOL    HW1 9890   0.458   2.214  13.492
 3068SOL    HW2 9891   0.389   2.246  13.637
 3069SOL     OW 9892   1.705   3.349  14.138
 3069SOL    HW1 9893   1.612   3.324  14.111
 3069SOL    HW2 9894   1.731   3.299  14.220
 3070SOL     OW 9895   0.812   3.448  13.721
 3070SOL    HW1 9896   0.844   3.458  13.627
 3070SOL    HW2 9897   0.733   3.386  13.723
 3071SOL     OW 9898   0.770   3.192  13.335
 3071SOL    HW1 9899   0.724   3.105  13.352
 3071SOL    HW2 9900   0.861   3.189  13.376
 3072SOL     OW 9901   1.352   1.914  13.202
 3072SOL    HW1 9902   1.387   1.873  13.118
 3072SOL    HW2 9903   1.262   1.876  13.222
 3073SOL     OW 9904   1.300   2.315  13.725
 3073SOL    HW1 9905   1.241   2.395  13.729
 3073SOL    HW2 9906   1.315   2.280  13.818
 3074SOL     OW 9907   0.039   2.939  13.334
 3074SOL    HW1 9908   0.138   2.928  13.325
 3074SOL    HW2 9909  -0.001   2.853  13.366
 3075SOL     OW 9910   0.875   3.508  13.371
 3075SOL    HW1 9911   0.798   3.473  13.317
 3075SOL    HW2 9912   0.843   3.579  13.433
 3076SOL     OW 9913   0.225   3.999   0.996
 3076SOL    HW1 9914   0.260   3.982   1.088
 3076SOL    HW2 9915   0.137   3.954   0.984
 3077SOL     OW 9916   0.019   4.092   0.647
 3077SOL    HW1 9917  -0.063   4.135   0.686
 3077SOL    HW2 9918  -0.009   4.019   0.584
 3078SOL     OW 9919   1.755   4.331   0.231
 3078SOL    HW1 9920   1.743   4.318   0.132
 3078SOL    HW2 9921   1.725   4.250   0.280
 3079SOL     OW 9922   0.438   4.116   1.499
 3079SOL    HW1 9923   0.520   4.060   1.508
 3079SOL    HW2 9924   0.357   4.058   1.503
 3080SOL     OW 9925   1.594   3.838   1.480
 3080SOL    HW1 9926   1.576   3.905   1.408
 3080SOL    HW2 9927   1.591   3.884   1.569
 3081SOL     OW 9928   0.809   3.728   0.502
 3081SOL    HW1 9929   0.849   3.819   0.493
 3081SOL    HW2 9930   0.709   3.736   0.508
 3082SOL     OW 9931   1.281   4.069   0.944
 3082SOL    HW1 9932   1.195   4.019   0.931
 3082SOL    HW2 9933   1.343   4.015   1.000
 3083SOL     OW 9934   0.550   3.920   0.885
 3083SOL    HW1 9935   0.545   3.915   0.985
 3083SOL    HW2 9936   0.552   4.016   0.856
 3084SOL     OW 9937   0.202   4.009   1.498
 3084SOL    HW1 9938   0.122   4.069   1.485
 3084SOL    HW2 9939   0.192   3.960   1.584
 3085SOL     OW 9940   1.400   3.831   0.426
 3085SOL    HW1 9941   1.376   3.794   0.336
 3085SOL    HW2 9942   1.499   3.847   0.430
 3086SOL     OW 9943   1.547   3.946   1.729
 3086SOL    HW1 9944   1.542   3.983   1.821
 3086SOL    HW2 9945   1.475   3.877   1.717
 3087SOL     OW 9946   0.781   3.988   1.749
 3087SOL    HW1 9947   0.848   3.927   1.792
 3087SOL    HW2 9948   0.708   4.007   1.814
 3088SOL     OW 9949   0.539   3.788   0.512
 3088SOL    HW1 9950   0.458   3.789   0.570
 3088SOL    HW2 9951   0.542   3.871   0.457
 3089SOL     OW 9952   0.297   3.759   0.171
 3089SOL    HW1 9953   0.346   3.843   0.150
 3089SOL    HW2 9954   0.359   3.694   0.216
 3090SOL     OW 9955   0.561   3.946   1.147
 3090SOL    HW1 9956   0.599   3.862   1.184
 3090SOL    HW2 9957   0.473   3.965   1.191
 3091SOL     OW 9958   1.017   3.763   0.753
 3091SOL    HW1 9959   0.945   3.768   0.684
 3091SOL    HW2 9960   0.993   3.694   0.822
 3092SOL     OW 9961   0.915   3.813   1.402
 3092SOL    HW1 9962   0.940   3.793   1.307
 3092SOL    HW2 9963   0.987   3.869   1.444
 3093SOL     OW 9964   1.274   4.110   1.262
 3093SOL    HW1 9965   1.295   4.184   1.326
 3093SOL    HW2 9966   1.185   4.127   1.219
 3094SOL     OW 9967   0.504   3.774   1.740
 3094SOL    HW1 9968   0.462   3.717   1.670
 3094SOL    HW2 9969   0.438   3.843   1.772
 3095SOL     OW 9970   0.307   3.937   1.231
 3095SOL    HW1 9971   0.284   3.974   1.321
 3095SOL    HW2 9972   0.277   3.842   1.225
 3096SOL     OW 9973   1.540   3.998   0.125
 3096SOL    HW1 9974   1.479   3.923   0.148
 3096SOL    HW2 9975   1.562   4.050   0.208
 3097SOL     OW 9976   1.160   3.931   1.477
 3097SOL    HW1 9977   1.160   3.995   1.554
 3097SOL    HW2 9978   1.188   3.979   1.394
 3098SOL     OW 9979   0.903   3.810   0.133
 3098SOL    HW1 9980   0.954   3.811   0.047
 3098SOL    HW2 9981   0.959   3.768   0.204
 3099SOL     OW 9982   1.726   3.859   0.523
 3099SOL    HW1 9983   1.799   3.842   0.456
 3099SOL    HW2 9984   1.695   3.772   0.561
 3100SOL     OW 9985   1.841   3.899   0.963
 3100SOL    HW1 9986   1.880   3.814   0.927
 3100SOL    HW2 9987   1.743   3.901   0.944
 3101SOL     OW 9988   0.672   3.927   1.489
 3101SOL    HW1 9989   0.762   3.911   1.449
 3101SOL    HW2 9990   0.680   3.932   1.588
 3102SOL     OW 9991   0.075   4.069   0.033
 3102SOL    HW1 9992  -0.017   4.041   0.004
 3102SOL    HW2 9993   0.106   4.146  -0.023
 3103SOL     OW 9994   0.072   3.890   0.318
 3103SOL    HW1 9995   0.055   3.973   0.264
 3103SOL    HW2 9996   0.162   3.853   0.296
 3104SOL     OW 9997   1.225   4.049   0.449
 3104SOL    HW1 9998   1.290   3.975   0.438
 3104SOL    HW2 9999   1.245   4.099   0.533
 3105SOL     OW10000   1.777   4.066   1.642
 3105SOL    HW110001   1.760   4.097   1.548
 3105SOL    HW210002   1.693   4.029   1.680
 3106SOL     OW10003   1.824   3.916   1.227
 3106SOL    HW110004   1.820   3.826   1.271
 3106SOL    HW210005   1.827   3.905   1.128
 3107SOL     OW10006   1.424   3.938   1.112
 3107SOL    HW110007   1.476   3.873   1.167
 3107SOL    HW210008   1.375   4.001   1.173
 3108SOL     OW10009   1.001   3.758   1.154
 3108SOL    HW110010   0.938   3.686   1.123
 3108SOL    HW210011   1.094   3.722   1.154
 3109SOL     OW10012   1.352   3.776   0.168
 3109SOL    HW110013   1.387   3.735   0.084
 3109SOL    HW210014   1.262   3.738   0.188
 3110SOL     OW10015   1.300   4.177   0.691
 3110SOL    HW110016   1.241   4.257   0.695
 3110SOL    HW210017   1.315   4.142   0.784
 3111SOL     OW10018   1.593   3.945   0.882
 3111SOL    HW110019   1.509   3.944   0.936
 3111SOL    HW210020   1.595   4.028   0.826
 3112SOL     OW10021   0.225   3.999   2.858
 3112SOL    HW110022   0.260   3.982   2.950
 3112SOL    HW210023   0.137   3.954   2.846
 3113SOL     OW10024   0.019   4.092   2.509
 3113SOL    HW110025  -0.063   4.135   2.548
 3113SOL    HW210026  -0.009   4.019   2.446
 3114SOL     OW10027   1.755   4.331   2.093
 3114SOL    HW110028   1.743   4.318   1.994
 3114SOL    HW210029   1.725   4.250   2.142
 3115SOL     OW10030   0.438   4.116   3.361
 3115SOL    HW110031   0.520   4.060   3.370
 3115SOL    HW210032   0.357   4.058   3.365
 3116SOL     OW10033   1.594   3.838   3.342
 3116SOL    HW110034   1.576   3.905   3.270
 3116SOL    HW210035   1.591   3.884   3.431
 3117SOL     OW10036   0.809   3.728   2.364
 3117SOL    HW110037   0.849   3.819   2.355
 3117SOL    HW210038   0.709   3.736   2.370
 3118SOL     OW10039   1.281   4.069   2.806
 3118SOL    HW110040   1.195   4.019   2.793
 3118SOL    HW210041   1.343   4.015   2.862
 3119SOL     OW10042   0.550   3.920   2.747
 3119SOL    HW110043   0.545   3.915   2.847
 3119SOL    HW210044   0.552   4.016   2.718
 3120SOL     OW10045   0.202   4.009   3.360
 3120SOL    HW110046   0.122   4.069   3.347
 3120SOL    HW210047   0.192   3.960   3.446
 3121SOL     OW10048   1.400   3.831   2.288
 3121SOL    HW110049   1.376   3.794   2.198
 3121SOL    HW210050   1.499   3.847   2.292
 3122SOL     OW10051   1.547   3.946   3.591
 3122SOL    HW110052   1.542   3.983   3.683
 3122SOL    HW210053   1.475   3.877   3.579
 3123SOL     OW10054   0.614   3.846   1.979
 3123SOL    HW110055   0.712   3.824   1.986
 3123SOL    HW210056   0.583   3.829   1.886
 3124SOL     OW10057   0.781   3.988   3.611
 3124SOL    HW110058   0.848   3.927   3.654
 3124SOL    HW210059   0.708   4.007   3.676
 3125SOL     OW10060   0.539   3.788   2.374
 3125SOL    HW110061   0.458   3.789   2.432
 3125SOL    HW210062   0.542   3.871   2.319
 3126SOL     OW10063   0.297   3.759   2.033
 3126SOL    HW110064   0.346   3.843   2.012
 3126SOL    HW210065   0.359   3.694   2.078
 3127SOL     OW10066   0.561   3.946   3.009
 3127SOL    HW110067   0.599   3.862   3.046
 3127SOL    HW210068   0.473   3.965   3.053
 3128SOL     OW10069   1.017   3.763   2.615
 3128SOL    HW110070   0.945   3.768   2.546
 3128SOL    HW210071   0.993   3.694   2.684
 3129SOL     OW10072   0.915   3.813   3.264
 3129SOL    HW110073   0.940   3.793   3.169
 3129SOL    HW210074   0.987   3.869   3.306
 3130SOL     OW10075   1.274   4.110   3.124
 3130SOL    HW110076   1.295   4.184   3.188
 3130SOL    HW210077   1.185   4.127   3.081
 3131SOL     OW10078   0.504   3.774   3.602
 3131SOL    HW110079   0.462   3.717   3.532
 3131SOL    HW210080   0.438   3.843   3.634
 3132SOL     OW10081   0.307   3.937   3.093
 3132SOL    HW110082   0.284   3.974   3.183
 3132SOL    HW210083   0.277   3.842   3.087
 3133SOL     OW10084   1.540   3.998   1.987
 3133SOL    HW110085   1.479   3.923   2.010
 3133SOL    HW210086   1.562   4.050   2.070
 3134SOL     OW10087   1.160   3.931   3.339
 3134SOL    HW110088   1.160   3.995   3.416
 3134SOL    HW210089   1.188   3.979   3.256
 3135SOL     OW10090   0.903   3.810   1.995
 3135SOL    HW110091   0.954   3.811   1.909
 3135SOL    HW210092   0.959   3.768   2.066
 3136SOL     OW10093   1.726   3.859   2.385
 3136SOL    HW110094   1.799   3.842   2.318
 3136SOL    HW210095   1.695   3.772   2.423
 3137SOL     OW10096   1.841   3.899   2.825
 3137SOL    HW110097   1.880   3.814   2.789
 3137SOL    HW210098   1.743   3.901   2.806
 3138SOL     OW10099   0.672   3.927   3.351
 3138SOL    HW110100   0.762   3.911   3.311
 3138SOL    HW210101   0.680   3.932   3.450
 3139SOL     OW10102   0.075   4.069   1.895
 3139SOL    HW110103  -0.017   4.041   1.866
 3139SOL    HW210104   0.106   4.146   1.839
 3140SOL     OW10105   0.072   3.890   2.180
 3140SOL    HW110106   0.055   3.973   2.126
 3140SOL    HW210107   0.162   3.853   2.158
 3141SOL     OW10108   1.225   4.049   2.311
 3141SOL    HW110109   1.290   3.975   2.300
 3141SOL    HW210110   1.245   4.099   2.395
 3142SOL     OW10111   1.777   4.066   3.504
 3142SOL    HW110112   1.760   4.097   3.410
 3142SOL    HW210113   1.693   4.029   3.542
 3143SOL     OW10114   1.824   3.916   3.089
 3143SOL    HW110115   1.820   3.826   3.133
 3143SOL    HW210116   1.827   3.905   2.990
 3144SOL     OW10117   1.424   3.938   2.974
 3144SOL    HW110118   1.476   3.873   3.029
 3144SOL    HW210119   1.375   4.001   3.035
 3145SOL     OW10120   1.001   3.758   3.016
 3145SOL    HW110121   0.938   3.686   2.985
 3145SOL    HW210122   1.094   3.722   3.016
 3146SOL     OW10123   1.352   3.776   2.030
 3146SOL    HW110124   1.387   3.735   1.946
 3146SOL    HW210125   1.262   3.738   2.050
 3147SOL     OW10126   1.300   4.177   2.553
 3147SOL    HW110127   1.241   4.257   2.557
 3147SOL    HW210128   1.315   4.142   2.646
 3148SOL     OW10129   1.593   3.945   2.744
 3148SOL    HW110130   1.509   3.944   2.798
 3148SOL    HW210131   1.595   4.028   2.688
 3149SOL     OW10132   0.225   3.999   4.720
 3149SOL    HW110133   0.260   3.982   4.812
 3149SOL    HW210134   0.137   3.954   4.708
 3150SOL     OW10135   0.019   4.092   4.371
 3150SOL    HW110136  -0.063   4.135   4.410
 3150SOL    HW210137  -0.009   4.019   4.308
 3151SOL     OW10138   1.755   4.331   3.955
 3151SOL    HW110139   1.743   4.318   3.856
 3151SOL    HW210140   1.725   4.250   4.004
 3152SOL     OW10141   0.438   4.116   5.223
 3152SOL    HW110142   0.520   4.060   5.232
 3152SOL    HW210143   0.357   4.058   5.227
 3153SOL     OW10144   1.594   3.838   5.204
 3153SOL    HW110145   1.576   3.905   5.132
 3153SOL    HW210146   1.591   3.884   5.293
 3154SOL     OW10147   0.809   3.728   4.226
 3154SOL    HW110148   0.849   3.819   4.217
 3154SOL    HW210149   0.709   3.736   4.232
 3155SOL     OW10150   1.281   4.069   4.668
 3155SOL    HW110151   1.195   4.019   4.655
 3155SOL    HW210152   1.343   4.015   4.724
 3156SOL     OW10153   0.550   3.920   4.609
 3156SOL    HW110154   0.545   3.915   4.709
 3156SOL    HW210155   0.552   4.016   4.580
 3157SOL     OW10156   0.202   4.009   5.222
 3157SOL    HW110157   0.122   4.069   5.209
 3157SOL    HW210158   0.192   3.960   5.308
 3158SOL     OW10159   1.400   3.831   4.150
 3158SOL    HW110160   1.376   3.794   4.060
 3158SOL    HW210161   1.499   3.847   4.154
 3159SOL     OW10162   1.547   3.946   5.453
 3159SOL    HW110163   1.542   3.983   5.545
 3159SOL    HW210164   1.475   3.877   5.441
 3160SOL     OW10165   0.614   3.846   3.841
 3160SOL    HW110166   0.712   3.824   3.848
 3160SOL    HW210167   0.583   3.829   3.748
 3161SOL     OW10168   0.781   3.988   5.473
 3161SOL    HW110169   0.848   3.927   5.516
 3161SOL    HW210170   0.708   4.007   5.538
 3162SOL     OW10171   0.539   3.788   4.236
 3162SOL    HW110172   0.458   3.789   4.294
 3162SOL    HW210173   0.542   3.871   4.181
 3163SOL     OW10174   0.297   3.759   3.895
 3163SOL    HW110175   0.346   3.843   3.874
 3163SOL    HW210176   0.359   3.694   3.940
 3164SOL     OW10177   0.561   3.946   4.871
 3164SOL    HW110178   0.599   3.862   4.908
 3164SOL    HW210179   0.473   3.965   4.915
 3165SOL     OW10180   1.017   3.763   4.477
 3165SOL    HW110181   0.945   3.768   4.408
 3165SOL    HW210182   0.993   3.694   4.546
 3166SOL     OW10183   0.915   3.813   5.126
 3166SOL    HW110184   0.940   3.793   5.031
 3166SOL    HW210185   0.987   3.869   5.168
 3167SOL     OW10186   1.274   4.110   4.986
 3167SOL    HW110187   1.295   4.184   5.050
 3167SOL    HW210188   1.185   4.127   4.943
 3168SOL     OW10189   0.504   3.774   5.464
 3168SOL    HW110190   0.462   3.717   5.394
 3168SOL    HW210191   0.438   3.843   5.496
 3169SOL     OW10192   0.307   3.937   4.955
 3169SOL    HW110193   0.284   3.974   5.045
 3169SOL    HW210194   0.277   3.842   4.949
 3170SOL     OW10195   1.540   3.998   3.849
 3170SOL    HW110196   1.479   3.923   3.872
 3170SOL    HW210197   1.562   4.050   3.932
 3171SOL     OW10198   1.160   3.931   5.201
 3171SOL    HW110199   1.160   3.995   5.278
 3171SOL    HW210200   1.188   3.979   5.118
 3172SOL     OW10201   0.903   3.810   3.857
 3172SOL    HW110202   0.954   3.811   3.771
 3172SOL    HW210203   0.959   3.768   3.928
 3173SOL     OW10204   1.726   3.859   4.247
 3173SOL    HW110205   1.799   3.842   4.180
 3173SOL    HW210206   1.695   3.772   4.285
 3174SOL     OW10207   1.841   3.899   4.687
 3174SOL    HW110208   1.880   3.814   4.651
 3174SOL    HW210209   1.743   3.901   4.668
 3175SOL     OW10210   0.672   3.927   5.213
 3175SOL    HW110211   0.762   3.911   5.173
 3175SOL    HW210212   0.680   3.932   5.312
 3176SOL     OW10213   0.075   4.069   3.757
 3176SOL    HW110214  -0.017   4.041   3.728
 3176SOL    HW210215   0.106   4.146   3.701
 3177SOL     OW10216   0.072   3.890   4.042
 3177SOL    HW110217   0.055   3.973   3.988
 3177SOL    HW210218   0.162   3.853   4.020
 3178SOL     OW10219   1.225   4.049   4.173
 3178SOL    HW110220   1.290   3.975   4.162
 3178SOL    HW210221   1.245   4.099   4.257
 3179SOL     OW10222   1.777   4.066   5.366
 3179SOL    HW110223   1.760   4.097   5.272
 3179SOL    HW210224   1.693   4.029   5.404
 3180SOL     OW10225   1.824   3.916   4.951
 3180SOL    HW110226   1.820   3.826   4.995
 3180SOL    HW210227   1.827   3.905   4.852
 3181SOL     OW10228   1.424   3.938   4.836
 3181SOL    HW110229   1.476   3.873   4.891
 3181SOL    HW210230   1.375   4.001   4.897
 3182SOL     OW10231   1.001   3.758   4.878
 3182SOL    HW110232   0.938   3.686   4.847
 3182SOL    HW210233   1.094   3.722   4.878
 3183SOL     OW10234   1.352   3.776   3.892
 3183SOL    HW110235   1.387   3.735   3.808
 3183SOL    HW210236   1.262   3.738   3.912
 3184SOL     OW10237   1.300   4.177   4.415
 3184SOL    HW110238   1.241   4.257   4.419
 3184SOL    HW210239   1.315   4.142   4.508
 3185SOL     OW10240   1.593   3.945   4.606
 3185SOL    HW110241   1.509   3.944   4.660
 3185SOL    HW210242   1.595   4.028   4.550
 3186SOL     OW10243   0.225   3.999   6.582
 3186SOL    HW110244   0.260   3.982   6.674
 3186SOL    HW210245   0.137   3.954   6.570
 3187SOL     OW10246   0.019   4.092   6.233
 3187SOL    HW110247  -0.063   4.135   6.272
 3187SOL    HW210248  -0.009   4.019   6.170
 3188SOL     OW10249   1.755   4.331   5.817
 3188SOL    HW110250   1.743   4.318   5.718
 3188SOL    HW210251   1.725   4.250   5.866
 3189SOL     OW10252   0.438   4.116   7.085
 3189SOL    HW110253   0.520   4.060   7.094
 3189SOL    HW210254   0.357   4.058   7.089
 3190SOL     OW10255   1.594   3.838   7.066
 3190SOL    HW110256   1.576   3.905   6.994
 3190SOL    HW210257   1.591   3.884   7.155
 3191SOL     OW10258   0.809   3.728   6.088
 3191SOL    HW110259   0.849   3.819   6.079
 3191SOL    HW210260   0.709   3.736   6.094
 3192SOL     OW10261   1.281   4.069   6.530
 3192SOL    HW110262   1.195   4.019   6.517
 3192SOL    HW210263   1.343   4.015   6.586
 3193SOL     OW10264   0.550   3.920   6.471
 3193SOL    HW110265   0.545   3.915   6.571
 3193SOL    HW210266   0.552   4.016   6.442
 3194SOL     OW10267   0.202   4.009   7.084
 3194SOL    HW110268   0.122   4.069   7.071
 3194SOL    HW210269   0.192   3.960   7.170
 3195SOL     OW10270   1.400   3.831   6.012
 3195SOL    HW110271   1.376   3.794   5.922
 3195SOL    HW210272   1.499   3.847   6.016
 3196SOL     OW10273   1.547   3.946   7.315
 3196SOL    HW110274   1.542   3.983   7.407
 3196SOL    HW210275   1.475   3.877   7.303
 3197SOL     OW10276   0.614   3.846   5.703
 3197SOL    HW110277   0.712   3.824   5.710
 3197SOL    HW210278   0.583   3.829   5.610
 3198SOL     OW10279   0.781   3.988   7.335
 3198SOL    HW110280   0.848   3.927   7.378
 3198SOL    HW210281   0.708   4.007   7.400
 3199SOL     OW10282   0.539   3.788   6.098
 3199SOL    HW110283   0.458   3.789   6.156
 3199SOL    HW210284   0.542   3.871   6.043
 3200SOL     OW10285   0.297   3.759   5.757
 3200SOL    HW110286   0.346   3.843   5.736
 3200SOL    HW210287   0.359   3.694   5.802
 3201SOL     OW10288   0.561   3.946   6.733
 3201SOL    HW110289   0.599   3.862   6.770
 3201SOL    HW210290   0.473   3.965   6.777
 3202SOL     OW10291   1.017   3.763   6.339
 3202SOL    HW110292   0.945   3.768   6.270
 3202SOL    HW210293   0.993   3.694   6.408
 3203SOL     OW10294   0.915   3.813   6.988
 3203SOL    HW110295   0.940   3.793   6.893
 3203SOL    HW210296   0.987   3.869   7.030
 3204SOL     OW10297   1.274   4.110   6.848
 3204SOL    HW110298   1.295   4.184   6.912
 3204SOL    HW210299   1.185   4.127   6.805
 3205SOL     OW10300   0.504   3.774   7.326
 3205SOL    HW110301   0.462   3.717   7.256
 3205SOL    HW210302   0.438   3.843   7.358
 3206SOL     OW10303   0.307   3.937   6.817
 3206SOL    HW110304   0.284   3.974   6.907
 3206SOL    HW210305   0.277   3.842   6.811
 3207SOL     OW10306   1.540   3.998   5.711
 3207SOL    HW110307   1.479   3.923   5.734
 3207SOL    HW210308   1.562   4.050   5.794
 3208SOL     OW10309   1.160   3.931   7.063
 3208SOL    HW110310   1.160   3.995   7.140
 3208SOL    HW210311   1.188   3.979   6.980
 3209SOL     OW10312   0.903   3.810   5.719
 3209SOL    HW110313   0.954   3.811   5.633
 3209SOL    HW210314   0.959   3.768   5.790
 3210SOL     OW10315   1.726   3.859   6.109
 3210SOL    HW110316   1.799   3.842   6.042
 3210SOL    HW210317   1.695   3.772   6.147
 3211SOL     OW10318   1.841   3.899   6.549
 3211SOL    HW110319   1.880   3.814   6.513
 3211SOL    HW210320   1.743   3.901   6.530
 3212SOL     OW10321   0.672   3.927   7.075
 3212SOL    HW110322   0.762   3.911   7.035
 3212SOL    HW210323   0.680   3.932   7.174
 3213SOL     OW10324   0.075   4.069   5.619
 3213SOL    HW110325  -0.017   4.041   5.590
 3213SOL    HW210326   0.106   4.146   5.563
 3214SOL     OW10327   0.072   3.890   5.904
 3214SOL    HW110328   0.055   3.973   5.850
 3214SOL    HW210329   0.162   3.853   5.882
 3215SOL     OW10330   1.225   4.049   6.035
 3215SOL    HW110331   1.290   3.975   6.024
 3215SOL    HW210332   1.245   4.099   6.119
 3216SOL     OW10333   1.777   4.066   7.228
 3216SOL    HW110334   1.760   4.097   7.134
 3216SOL    HW210335   1.693   4.029   7.266
 3217SOL     OW10336   1.824   3.916   6.813
 3217SOL    HW110337   1.820   3.826   6.857
 3217SOL    HW210338   1.827   3.905   6.714
 3218SOL     OW10339   1.424   3.938   6.698
 3218SOL    HW110340   1.476   3.873   6.753
 3218SOL    HW210341   1.375   4.001   6.759
 3219SOL     OW10342   1.001   3.758   6.740
 3219SOL    HW110343   0.938   3.686   6.709
 3219SOL    HW210344   1.094   3.722   6.740
 3220SOL     OW10345   1.352   3.776   5.754
 3220SOL    HW110346   1.387   3.735   5.670
 3220SOL    HW210347   1.262   3.738   5.774
 3221SOL     OW10348   1.300   4.177   6.277
 3221SOL    HW110349   1.241   4.257   6.281
 3221SOL    HW210350   1.315   4.142   6.370
 3222SOL     OW10351   1.593   3.945   6.468
 3222SOL    HW110352   1.509   3.944   6.522
 3222SOL    HW210353   1.595   4.028   6.412
 3223SOL     OW10354   0.225   3.999   8.444
 3223SOL    HW110355   0.260   3.982   8.536
 3223SOL    HW210356   0.137   3.954   8.432
 3224SOL     OW10357   0.019   4.092   8.095
 3224SOL    HW110358  -0.063   4.135   8.134
 3224SOL    HW210359  -0.009   4.019   8.032
 3225SOL     OW10360   1.755   4.331   7.679
 3225SOL    HW110361   1.743   4.318   7.580
 3225SOL    HW210362   1.725   4.250   7.728
 3226SOL     OW10363   0.438   4.116   8.947
 3226SOL    HW110364   0.520   4.060   8.956
 3226SOL    HW210365   0.357   4.058   8.951
 3227SOL     OW10366   1.594   3.838   8.928
 3227SOL    HW110367   1.576   3.905   8.856
 3227SOL    HW210368   1.591   3.884   9.017
 3228SOL     OW10369   0.809   3.728   7.950
 3228SOL    HW110370   0.849   3.819   7.941
 3228SOL    HW210371   0.709   3.736   7.956
 3229SOL     OW10372   1.281   4.069   8.392
 3229SOL    HW110373   1.195   4.019   8.379
 3229SOL    HW210374   1.343   4.015   8.448
 3230SOL     OW10375   0.550   3.920   8.333
 3230SOL    HW110376   0.545   3.915   8.433
 3230SOL    HW210377   0.552   4.016   8.304
 3231SOL     OW10378   0.202   4.009   8.946
 3231SOL    HW110379   0.122   4.069   8.933
 3231SOL    HW210380   0.192   3.960   9.032
 3232SOL     OW10381   1.400   3.831   7.874
 3232SOL    HW110382   1.376   3.794   7.784
 3232SOL    HW210383   1.499   3.847   7.878
 3233SOL     OW10384   1.547   3.946   9.177
 3233SOL    HW110385   1.542   3.983   9.269
 3233SOL    HW210386   1.475   3.877   9.165
 3234SOL     OW10387   0.614   3.846   7.565
 3234SOL    HW110388   0.712   3.824   7.572
 3234SOL    HW210389   0.583   3.829   7.472
 3235SOL     OW10390   0.781   3.988   9.197
 3235SOL    HW110391   0.848   3.927   9.240
 3235SOL    HW210392   0.708   4.007   9.262
 3236SOL     OW10393   0.539   3.788   7.960
 3236SOL    HW110394   0.458   3.789   8.018
 3236SOL    HW210395   0.542   3.871   7.905
 3237SOL     OW10396   0.297   3.759   7.619
 3237SOL    HW110397   0.346   3.843   7.598
 3237SOL    HW210398   0.359   3.694   7.664
 3238SOL     OW10399   0.561   3.946   8.595
 3238SOL    HW110400   0.599   3.862   8.632
 3238SOL    HW210401   0.473   3.965   8.639
 3239SOL     OW10402   1.017   3.763   8.201
 3239SOL    HW110403   0.945   3.768   8.132
 3239SOL    HW210404   0.993   3.694   8.270
 3240SOL     OW10405   0.915   3.813   8.850
 3240SOL    HW110406   0.940   3.793   8.755
 3240SOL    HW210407   0.987   3.869   8.892
 3241SOL     OW10408   1.274   4.110   8.710
 3241SOL    HW110409   1.295   4.184   8.774
 3241SOL    HW210410   1.185   4.127   8.667
 3242SOL     OW10411   0.504   3.774   9.188
 3242SOL    HW110412   0.462   3.717   9.118
 3242SOL    HW210413   0.438   3.843   9.220
 3243SOL     OW10414   0.307   3.937   8.679
 3243SOL    HW110415   0.284   3.974   8.769
 3243SOL    HW210416   0.277   3.842   8.673
 3244SOL     OW10417   1.540   3.998   7.573
 3244SOL    HW110418   1.479   3.923   7.596
 3244SOL    HW210419   1.562   4.050   7.656
 3245SOL     OW10420   1.160   3.931   8.925
 3245SOL    HW110421   1.160   3.995   9.002
 3245SOL    HW210422   1.188   3.979   8.842
 3246SOL     OW10423   0.903   3.810   7.581
 3246SOL    HW110424   0.954   3.811   7.495
 3246SOL    HW210425   0.959   3.768   7.652
 3247SOL     OW10426   1.726   3.859   7.971
 3247SOL    HW110427   1.799   3.842   7.904
 3247SOL    HW210428   1.695   3.772   8.009
 3248SOL     OW10429   1.841   3.899   8.411
 3248SOL    HW110430   1.880   3.814   8.375
 3248SOL    HW210431   1.743   3.901   8.392
 3249SOL     OW10432   0.672   3.927   8.937
 3249SOL    HW110433   0.762   3.911   8.897
 3249SOL    HW210434   0.680   3.932   9.036
 3250SOL     OW10435   0.075   4.069   7.481
 3250SOL    HW110436  -0.017   4.041   7.452
 3250SOL    HW210437   0.106   4.146   7.425
 3251SOL     OW10438   0.072   3.890   7.766
 3251SOL    HW110439   0.055   3.973   7.712
 3251SOL    HW210440   0.162   3.853   7.744
 3252SOL     OW10441   1.225   4.049   7.897
 3252SOL    HW110442   1.290   3.975   7.886
 3252SOL    HW210443   1.245   4.099   7.981
 3253SOL     OW10444   1.777   4.066   9.090
 3253SOL    HW110445   1.760   4.097   8.996
 3253SOL    HW210446   1.693   4.029   9.128
 3254SOL     OW10447   1.824   3.916   8.675
 3254SOL    HW110448   1.820   3.826   8.719
 3254SOL    HW210449   1.827   3.905   8.576
 3255SOL     OW10450   1.424   3.938   8.560
 3255SOL    HW110451   1.476   3.873   8.615
 3255SOL    HW210452   1.375   4.001   8.621
 3256SOL     OW10453   1.001   3.758   8.602
 3256SOL    HW110454   0.938   3.686   8.571
 3256SOL    HW210455   1.094   3.722   8.602
 3257SOL     OW10456   1.352   3.776   7.616
 3257SOL    HW110457   1.387   3.735   7.532
 3257SOL    HW210458   1.262   3.738   7.636
 3258SOL     OW10459   1.300   4.177   8.139
 3258SOL    HW110460   1.241   4.257   8.143
 3258SOL    HW210461   1.315   4.142   8.232
 3259SOL     OW10462   1.593   3.945   8.330
 3259SOL    HW110463   1.509   3.944   8.384
 3259SOL    HW210464   1.595   4.028   8.274
 3260SOL     OW10465   0.225   3.999  10.306
 3260SOL    HW110466   0.260   3.982  10.398
 3260SOL    HW210467   0.137   3.954  10.294
 3261SOL     OW10468   0.019   4.092   9.957
 3261SOL    HW110469  -0.063   4.135   9.996
 3261SOL    HW210470  -0.009   4.019   9.894
 3262SOL     OW10471   1.755   4.331   9.541
 3262SOL    HW110472   1.743   4.318   9.442
 3262SOL    HW210473   1.725   4.250   9.590
 3263SOL     OW10474   0.438   4.116  10.809
 3263SOL    HW110475   0.520   4.060  10.818
 3263SOL    HW210476   0.357   4.058  10.813
 3264SOL     OW10477   1.594   3.838  10.790
 3264SOL    HW110478   1.576   3.905  10.718
 3264SOL    HW210479   1.591   3.884  10.879
 3265SOL     OW10480   0.809   3.728   9.812
 3265SOL    HW110481   0.849   3.819   9.803
 3265SOL    HW210482   0.709   3.736   9.818
 3266SOL     OW10483   1.281   4.069  10.254
 3266SOL    HW110484   1.195   4.019  10.241
 3266SOL    HW210485   1.343   4.015  10.310
 3267SOL     OW10486   0.550   3.920  10.195
 3267SOL    HW110487   0.545   3.915  10.295
 3267SOL    HW210488   0.552   4.016  10.166
 3268SOL     OW10489   0.202   4.009  10.808
 3268SOL    HW110490   0.122   4.069  10.795
 3268SOL    HW210491   0.192   3.960  10.894
 3269SOL     OW10492   1.400   3.831   9.736
 3269SOL    HW110493   1.376   3.794   9.646
 3269SOL    HW210494   1.499   3.847   9.740
 3270SOL     OW10495   1.547   3.946  11.039
 3270SOL    HW110496   1.542   3.983  11.131
 3270SOL    HW210497   1.475   3.877  11.027
 3271SOL     OW10498   0.614   3.846   9.427
 3271SOL    HW110499   0.712   3.824   9.434
 3271SOL    HW210500   0.583   3.829   9.334
 3272SOL     OW10501   0.781   3.988  11.059
 3272SOL    HW110502   0.848   3.927  11.102
 3272SOL    HW210503   0.708   4.007  11.124
 3273SOL     OW10504   0.539   3.788   9.822
 3273SOL    HW110505   0.458   3.789   9.880
 3273SOL    HW210506   0.542   3.871   9.767
 3274SOL     OW10507   0.297   3.759   9.481
 3274SOL    HW110508   0.346   3.843   9.460
 3274SOL    HW210509   0.359   3.694   9.526
 3275SOL     OW10510   0.561   3.946  10.457
 3275SOL    HW110511   0.599   3.862  10.494
 3275SOL    HW210512   0.473   3.965  10.501
 3276SOL     OW10513   1.017   3.763  10.063
 3276SOL    HW110514   0.945   3.768   9.994
 3276SOL    HW210515   0.993   3.694  10.132
 3277SOL     OW10516   0.915   3.813  10.712
 3277SOL    HW110517   0.940   3.793  10.617
 3277SOL    HW210518   0.987   3.869  10.754
 3278SOL     OW10519   1.274   4.110  10.572
 3278SOL    HW110520   1.295   4.184  10.636
 3278SOL    HW210521   1.185   4.127  10.529
 3279SOL     OW10522   0.504   3.774  11.050
 3279SOL    HW110523   0.462   3.717  10.980
 3279SOL    HW210524   0.438   3.843  11.082
 3280SOL     OW10525   0.307   3.937  10.541
 3280SOL    HW110526   0.284   3.974  10.631
 3280SOL    HW210527   0.277   3.842  10.535
 3281SOL     OW10528   1.540   3.998   9.435
 3281SOL    HW110529   1.479   3.923   9.458
 3281SOL    HW210530   1.562   4.050   9.518
 3282SOL     OW10531   1.160   3.931  10.787
 3282SOL    HW110532   1.160   3.995  10.864
 3282SOL    HW210533   1.188   3.979  10.704
 3283SOL     OW10534   0.903   3.810   9.443
 3283SOL    HW110535   0.954   3.811   9.357
 3283SOL    HW210536   0.959   3.768   9.514
 3284SOL     OW10537   1.726   3.859   9.833
 3284SOL    HW110538   1.799   3.842   9.766
 3284SOL    HW210539   1.695   3.772   9.871
 3285SOL     OW10540   1.841   3.899  10.273
 3285SOL    HW110541   1.880   3.814  10.237
 3285SOL    HW210542   1.743   3.901  10.254
 3286SOL     OW10543   0.672   3.927  10.799
 3286SOL    HW110544   0.762   3.911  10.759
 3286SOL    HW210545   0.680   3.932  10.898
 3287SOL     OW10546   0.075   4.069   9.343
 3287SOL    HW110547  -0.017   4.041   9.314
 3287SOL    HW210548   0.106   4.146   9.287
 3288SOL     OW10549   0.072   3.890   9.628
 3288SOL    HW110550   0.055   3.973   9.574
 3288SOL    HW210551   0.162   3.853   9.606
 3289SOL     OW10552   1.225   4.049   9.759
 3289SOL    HW110553   1.290   3.975   9.748
 3289SOL    HW210554   1.245   4.099   9.843
 3290SOL     OW10555   1.777   4.066  10.952
 3290SOL    HW110556   1.760   4.097  10.858
 3290SOL    HW210557   1.693   4.029  10.990
 3291SOL     OW10558   1.824   3.916  10.537
 3291SOL    HW110559   1.820   3.826  10.581
 3291SOL    HW210560   1.827   3.905  10.438
 3292SOL     OW10561   1.424   3.938  10.422
 3292SOL    HW110562   1.476   3.873  10.477
 3292SOL    HW210563   1.375   4.001  10.483
 3293SOL     OW10564   1.001   3.758  10.464
 3293SOL    HW110565   0.938   3.686  10.433
 3293SOL    HW210566   1.094   3.722  10.464
 3294SOL     OW10567   1.352   3.776   9.478
 3294SOL    HW110568   1.387   3.735   9.394
 3294SOL    HW210569   1.262   3.738   9.498
 3295SOL     OW10570   1.300   4.177  10.001
 3295SOL    HW110571   1.241   4.257  10.005
 3295SOL    HW210572   1.315   4.142  10.094
 3296SOL     OW10573   1.593   3.945  10.192
 3296SOL    HW110574   1.509   3.944  10.246
 3296SOL    HW210575   1.595   4.028  10.136
 3297SOL     OW10576   0.225   3.999  12.168
 3297SOL    HW110577   0.260   3.982  12.260
 3297SOL    HW210578   0.137   3.954  12.156
 3298SOL     OW10579   0.019   4.092  11.819
 3298SOL    HW110580  -0.063   4.135  11.858
 3298SOL    HW210581  -0.009   4.019  11.756
 3299SOL     OW10582   1.755   4.331  11.403
 3299SOL    HW110583   1.743   4.318  11.304
 3299SOL    HW210584   1.725   4.250  11.452
 3300SOL     OW10585   0.438   4.116  12.671
 3300SOL    HW110586   0.520   4.060  12.680
 3300SOL    HW210587   0.357   4.058  12.675
 3301SOL     OW10588   1.594   3.838  12.652
 3301SOL    HW110589   1.576   3.905  12.580
 3301SOL    HW210590   1.591   3.884  12.741
 3302SOL     OW10591   0.809   3.728  11.674
 3302SOL    HW110592   0.849   3.819  11.665
 3302SOL    HW210593   0.709   3.736  11.680
 3303SOL     OW10594   1.281   4.069  12.116
 3303SOL    HW110595   1.195   4.019  12.103
 3303SOL    HW210596   1.343   4.015  12.172
 3304SOL     OW10597   0.550   3.920  12.057
 3304SOL    HW110598   0.545   3.915  12.157
 3304SOL    HW210599   0.552   4.016  12.028
 3305SOL     OW10600   0.202   4.009  12.670
 3305SOL    HW110601   0.122   4.069  12.657
 3305SOL    HW210602   0.192   3.960  12.756
 3306SOL     OW10603   1.400   3.831  11.598
 3306SOL    HW110604   1.376   3.794  11.508
 3306SOL    HW210605   1.499   3.847  11.602
 3307SOL     OW10606   1.547   3.946  12.901
 3307SOL    HW110607   1.542   3.983  12.993
 3307SOL    HW210608   1.475   3.877  12.889
 3308SOL     OW10609   0.614   3.846  11.289
 3308SOL    HW110610   0.712   3.824  11.296
 3308SOL    HW210611   0.583   3.829  11.196
 3309SOL     OW10612   0.781   3.988  12.921
 3309SOL    HW110613   0.848   3.927  12.964
 3309SOL    HW210614   0.708   4.007  12.986
 3310SOL     OW10615   0.539   3.788  11.684
 3310SOL    HW110616   0.458   3.789  11.742
 3310SOL    HW210617   0.542   3.871  11.629
 3311SOL     OW10618   0.297   3.759  11.343
 3311SOL    HW110619   0.346   3.843  11.322
 3311SOL    HW210620   0.359   3.694  11.388
 3312SOL     OW10621   0.561   3.946  12.319
 3312SOL    HW110622   0.599   3.862  12.356
 3312SOL    HW210623   0.473   3.965  12.363
 3313SOL     OW10624   1.017   3.763  11.925
 3313SOL    HW110625   0.945   3.768  11.856
 3313SOL    HW210626   0.993   3.694  11.994
 3314SOL     OW10627   0.915   3.813  12.574
 3314SOL    HW110628   0.940   3.793  12.479
 3314SOL    HW210629   0.987   3.869  12.616
 3315SOL     OW10630   1.274   4.110  12.434
 3315SOL    HW110631   1.295   4.184  12.498
 3315SOL    HW210632   1.185   4.127  12.391
 3316SOL     OW10633   0.504   3.774  12.912
 3316SOL    HW110634   0.462   3.717  12.842
 3316SOL    HW210635   0.438   3.843  12.944
 3317SOL     OW10636   0.307   3.937  12.403
 3317SOL    HW110637   0.284   3.974  12.493
 3317SOL    HW210638   0.277   3.842  12.397
 3318SOL     OW10639   1.540   3.998  11.297
 3318SOL    HW110640   1.479   3.923  11.320
 3318SOL    HW210641   1.562   4.050  11.380
 3319SOL     OW10642   1.160   3.931  12.649
 3319SOL    HW110643   1.160   3.995  12.726
 3319SOL    HW210644   1.188   3.979  12.566
 3320SOL     OW10645   0.903   3.810  11.305
 3320SOL    HW110646   0.954   3.811  11.219
 3320SOL    HW210647   0.959   3.768  11.376
 3321SOL     OW10648   1.726   3.859  11.695
 3321SOL    HW110649   1.799   3.842  11.628
 3321SOL    HW210650   1.695   3.772  11.733
 3322SOL     OW10651   1.841   3.899  12.135
 3322SOL    HW110652   1.880   3.814  12.099
 3322SOL    HW210653   1.743   3.901  12.116
 3323SOL     OW10654   0.672   3.927  12.661
 3323SOL    HW110655   0.762   3.911  12.621
 3323SOL    HW210656   0.680   3.932  12.760
 3324SOL     OW10657   0.075   4.069  11.205
 3324SOL    HW110658  -0.017   4.041  11.176
 3324SOL    HW210659   0.106   4.146  11.149
 3325SOL     OW10660   0.072   3.890  11.490
 3325SOL    HW110661   0.055   3.973  11.436
 3325SOL    HW210662   0.162   3.853  11.468
 3326SOL     OW10663   1.225   4.049  11.621
 3326SOL    HW110664   1.290   3.975  11.610
 3326SOL    HW210665   1.245   4.099  11.705
 3327SOL     OW10666   1.777   4.066  12.814
 3327SOL    HW110667   1.760   4.097  12.720
 3327SOL    HW210668   1.693   4.029  12.852
 3328SOL     OW10669   1.824   3.916  12.399
 3328SOL    HW110670   1.820   3.826  12.443
 3328SOL    HW210671   1.827   3.905  12.300
 3329SOL     OW10672   1.424   3.938  12.284
 3329SOL    HW110673   1.476   3.873  12.339
 3329SOL    HW210674   1.375   4.001  12.345
 3330SOL     OW10675   1.001   3.758  12.326
 3330SOL    HW110676   0.938   3.686  12.295
 3330SOL    HW210677   1.094   3.722  12.326
 3331SOL     OW10678   1.352   3.776  11.340
 3331SOL    HW110679   1.387   3.735  11.256
 3331SOL    HW210680   1.262   3.738  11.360
 3332SOL     OW10681   1.300   4.177  11.863
 3332SOL    HW110682   1.241   4.257  11.867
 3332SOL    HW210683   1.315   4.142  11.956
 3333SOL     OW10684   1.593   3.945  12.054
 3333SOL    HW110685   1.509   3.944  12.108
 3333SOL    HW210686   1.595   4.028  11.998
 3334SOL     OW10687   0.019   4.092  13.681
 3334SOL    HW110688  -0.063   4.135  13.720
 3334SOL    HW210689  -0.009   4.019  13.618
 3335SOL     OW10690   1.755   4.331  13.265
 3335SOL    HW110691   1.743   4.318  13.166
 3335SOL    HW210692   1.725   4.250  13.314
 3336SOL     OW10693   1.603   4.171  13.771
 3336SOL    HW110694   1.529   4.217  13.721
 3336SOL    HW210695   1.654   4.239  13.824
 3337SOL     OW10696   0.809   3.728  13.536
 3337SOL    HW110697   0.849   3.819  13.527
 3337SOL    HW210698   0.709   3.736  13.542
 3338SOL     OW10699   1.400   3.831  13.460
 3338SOL    HW110700   1.376   3.794  13.370
 3338SOL    HW210701   1.499   3.847  13.464
 3339SOL     OW10702   0.614   3.846  13.151
 3339SOL    HW110703   0.712   3.824  13.158
 3339SOL    HW210704   0.583   3.829  13.058
 3340SOL     OW10705   0.539   3.788  13.546
 3340SOL    HW110706   0.458   3.789  13.604
 3340SOL    HW210707   0.542   3.871  13.491
 3341SOL     OW10708   0.297   3.759  13.205
 3341SOL    HW110709   0.346   3.843  13.184
 3341SOL    HW210710   0.359   3.694  13.250
 3342SOL     OW10711   1.017   3.763  13.787
 3342SOL    HW110712   0.945   3.768  13.718
 3342SOL    HW210713   0.993   3.694  13.856
 3343SOL     OW10714   1.540   3.998  13.159
 3343SOL    HW110715   1.479   3.923  13.182
 3343SOL    HW210716   1.562   4.050  13.242
 3344SOL     OW10717   0.903   3.810  13.167
 3344SOL    HW110718   0.954   3.811  13.081
 3344SOL    HW210719   0.959   3.768  13.238
 3345SOL     OW10720   1.726   3.859  13.557
 3345SOL    HW110721   1.799   3.842  13.490
 3345SOL    HW210722   1.695   3.772  13.595
 3346SOL     OW10723   1.841   3.899  13.997
 3346SOL    HW110724   1.880   3.814  13.961
 3346SOL    HW210725   1.743   3.901  13.978
 3347SOL     OW10726   0.075   4.069  13.067
 3347SOL    HW110727  -0.017   4.041  13.038
 3347SOL    HW210728   0.106   4.146  13.011
 3348SOL     OW10729   0.072   3.890  13.352
 3348SOL    HW110730   0.055   3.973  13.298
 3348SOL    HW210731   0.162   3.853  13.330
 3349SOL     OW10732   1.225   4.049  13.483
 3349SOL    HW110733   1.290   3.975  13.472
 3349SOL    HW210734   1.245   4.099  13.567
 3350SOL     OW10735   1.352   3.776  13.202
 3350SOL    HW110736   1.387   3.735  13.118
 3350SOL    HW210737   1.262   3.738  13.222
 3351SOL     OW10738   1.300   4.177  13.725
 3351SOL    HW110739   1.241   4.257  13.729
 3351SOL    HW210740   1.315   4.142  13.818
 3352SOL     OW10741   2.092   0.628   0.113
 3352SOL    HW110742   1.999   0.626   0.150
 3352SOL    HW210743   2.093   0.589   0.021
 3353SOL     OW10744   2.087   0.275   0.996
 3353SOL    HW110745   2.122   0.258   1.088
 3353SOL    HW210746   1.999   0.230   0.984
 3354SOL     OW10747   1.881   0.368   0.647
 3354SOL    HW110748   1.799   0.411   0.686
 3354SOL    HW210749   1.853   0.295   0.584
 3355SOL     OW10750   2.431   1.275   1.165
 3355SOL    HW110751   2.338   1.268   1.128
 3355SOL    HW210752   2.442   1.364   1.209
 3356SOL     OW10753   3.417   1.511   0.703
 3356SOL    HW110754   3.360   1.495   0.784
 3356SOL    HW210755   3.358   1.521   0.623
 3357SOL     OW10756   2.997   0.703   0.717
 3357SOL    HW110757   3.054   0.781   0.692
 3357SOL    HW210758   2.937   0.729   0.793
 3358SOL     OW10759   3.617   0.607   0.231
 3358SOL    HW110760   3.605   0.594   0.132
 3358SOL    HW210761   3.587   0.526   0.280
 3359SOL     OW10762   2.630   1.144   1.023
 3359SOL    HW110763   2.552   1.161   1.083
 3359SOL    HW210764   2.664   1.231   0.987
 3360SOL     OW10765   2.712   0.798   1.823
 3360SOL    HW110766   2.708   0.874   1.888
 3360SOL    HW210767   2.734   0.834   1.732
 3361SOL     OW10768   2.547   1.012   0.665
 3361SOL    HW110769   2.616   0.996   0.735
 3361SOL    HW210770   2.474   1.069   0.703
 3362SOL     OW10771   2.548   1.161   1.803
 3362SOL    HW110772   2.608   1.240   1.817
 3362SOL    HW210773   2.462   1.192   1.762
 3363SOL     OW10774   2.197   1.435   1.061
 3363SOL    HW110775   2.119   1.404   1.008
 3363SOL    HW210776   2.255   1.493   1.004
 3364SOL     OW10777   3.322   1.505   1.339
 3364SOL    HW110778   3.346   1.599   1.365
 3364SOL    HW210779   3.306   1.451   1.421
 3365SOL     OW10780   2.300   0.392   1.499
 3365SOL    HW110781   2.382   0.336   1.508
 3365SOL    HW210782   2.219   0.334   1.503
 3366SOL     OW10783   3.465   0.447   0.737
 3366SOL    HW110784   3.391   0.493   0.687
 3366SOL    HW210785   3.516   0.515   0.790
 3367SOL     OW10786   2.093   1.713   0.483
 3367SOL    HW110787   2.127   1.790   0.537
 3367SOL    HW210788   2.137   1.713   0.393
 3368SOL     OW10789   2.989   1.341   1.690
 3368SOL    HW110790   3.036   1.341   1.778
 3368SOL    HW210791   2.941   1.254   1.679
 3369SOL     OW10792   2.092   1.434   0.538
 3369SOL    HW110793   2.066   1.530   0.538
 3369SOL    HW210794   2.021   1.380   0.583
 3370SOL     OW10795   2.102   1.091   0.886
 3370SOL    HW110796   2.116   1.007   0.938
 3370SOL    HW210797   2.047   1.155   0.941
 3371SOL     OW10798   2.482   1.786   1.439
 3371SOL    HW110799   2.390   1.769   1.474
 3371SOL    HW210800   2.510   1.878   1.465
 3372SOL     OW10801   2.468   0.964   0.123
 3372SOL    HW110802   2.475   1.048   0.069
 3372SOL    HW210803   2.514   0.977   0.211
 3373SOL     OW10804   3.456   0.114   1.480
 3373SOL    HW110805   3.438   0.181   1.408
 3373SOL    HW210806   3.453   0.160   1.569
 3374SOL     OW10807   1.984   0.643   0.563
 3374SOL    HW110808   1.939   0.555   0.580
 3374SOL    HW210809   1.983   0.697   0.647
 3375SOL     OW10810   3.704   1.767   0.359
 3375SOL    HW110811   3.758   1.738   0.439
 3375SOL    HW210812   3.734   1.857   0.330
 3376SOL     OW10813   1.889   1.596   0.117
 3376SOL    HW110814   1.870   1.500   0.138
 3376SOL    HW210815   1.856   1.654   0.192
 3377SOL     OW10816   3.551   0.922   0.612
 3377SOL    HW110817   3.646   0.893   0.620
 3377SOL    HW210818   3.543   0.987   0.537
 3378SOL     OW10819   3.503   1.108   0.432
 3378SOL    HW110820   3.589   1.110   0.380
 3378SOL    HW210821   3.517   1.155   0.520
 3379SOL     OW10822   1.975   0.737   1.597
 3379SOL    HW110823   2.063   0.724   1.642
 3379SOL    HW210824   1.962   0.834   1.575
 3380SOL     OW10825   2.475   1.365   0.726
 3380SOL    HW110826   2.426   1.278   0.735
 3380SOL    HW210827   2.452   1.408   0.639
 3381SOL     OW10828   3.155   1.228   1.423
 3381SOL    HW110829   3.192   1.155   1.365
 3381SOL    HW210830   3.207   1.233   1.508
 3382SOL     OW10831   2.671   0.004   0.502
 3382SOL    HW110832   2.711   0.095   0.493
 3382SOL    HW210833   2.571   0.012   0.508
 3383SOL     OW10834   2.059   0.976   1.264
 3383SOL    HW110835   2.148   0.931   1.250
 3383SOL    HW210836   1.986   0.911   1.245
 3384SOL     OW10837   3.387   0.999   0.190
 3384SOL    HW110838   3.324   0.923   0.203
 3384SOL    HW210839   3.435   1.017   0.276
 3385SOL     OW10840   3.049   1.792   1.616
 3385SOL    HW110841   3.073   1.852   1.540
 3385SOL    HW210842   3.056   1.697   1.586
 3386SOL     OW10843   2.179   0.251   1.801
 3386SOL    HW110844   2.250   0.322   1.807
 3386SOL    HW210845   2.091   0.290   1.829
 3387SOL     OW10846   3.328   1.417   0.953
 3387SOL    HW110847   3.269   1.423   1.033
 3387SOL    HW210848   3.313   1.329   0.907
 3388SOL     OW10849   3.529   1.714   0.572
 3388SOL    HW110850   3.488   1.691   0.484
 3388SOL    HW210851   3.511   1.640   0.637
 3389SOL     OW10852   2.460   0.729   0.270
 3389SOL    HW110853   2.484   0.798   0.202
 3389SOL    HW210854   2.382   0.762   0.324
 3390SOL     OW10855   3.143   0.345   0.944
 3390SOL    HW110856   3.057   0.295   0.931
 3390SOL    HW210857   3.205   0.291   1.000
 3391SOL     OW10858   3.438   1.662   0.307
 3391SOL    HW110859   3.527   1.708   0.310
 3391SOL    HW210860   3.417   1.638   0.212
 3392SOL     OW10861   2.669   0.605   1.465
 3392SOL    HW110862   2.622   0.602   1.554
 3392SOL    HW210863   2.618   0.550   1.399
 3393SOL     OW10864   3.256   0.469   1.674
 3393SOL    HW110865   3.236   0.512   1.762
 3393SOL    HW210866   3.334   0.407   1.683
 3394SOL     OW10867   2.835   0.890   1.572
 3394SOL    HW110868   2.881   0.806   1.543
 3394SOL    HW210869   2.779   0.924   1.497
 3395SOL     OW10870   2.853   0.410   1.242
 3395SOL    HW110871   2.776   0.444   1.296
 3395SOL    HW210872   2.819   0.359   1.163
 3396SOL     OW10873   2.903   0.701   0.429
 3396SOL    HW110874   2.929   0.697   0.525
 3396SOL    HW210875   2.818   0.650   0.415
 3397SOL     OW10876   1.938   0.811   0.789
 3397SOL    HW110877   2.037   0.799   0.798
 3397SOL    HW210878   1.914   0.906   0.810
 3398SOL     OW10879   2.727   0.348   0.195
 3398SOL    HW110880   2.786   0.411   0.146
 3398SOL    HW210881   2.746   0.254   0.166
 3399SOL     OW10882   3.581   0.585   1.831
 3399SOL    HW110883   3.555   0.674   1.795
 3399SOL    HW210884   3.579   0.517   1.758
 3400SOL     OW10885   3.224   1.144   0.545
 3400SOL    HW110886   3.307   1.115   0.497
 3400SOL    HW210887   3.175   1.211   0.489
 3401SOL     OW10888   2.412   0.196   0.885
 3401SOL    HW110889   2.407   0.191   0.985
 3401SOL    HW210890   2.414   0.292   0.856
 3402SOL     OW10891   2.870   1.456   0.477
 3402SOL    HW110892   2.824   1.528   0.425
 3402SOL    HW210893   2.866   1.476   0.575
 3403SOL     OW10894   2.213   1.801   0.853
 3403SOL    HW110895   2.263   1.715   0.859
 3403SOL    HW210896   2.278   1.878   0.850
 3404SOL     OW10897   3.657   1.066   0.873
 3404SOL    HW110898   3.595   1.051   0.797
 3404SOL    HW210899   3.605   1.077   0.958
 3405SOL     OW10900   3.089   1.550   1.506
 3405SOL    HW110901   3.095   1.473   1.570
 3405SOL    HW210902   3.037   1.524   1.426
 3406SOL     OW10903   2.183   0.943   0.242
 3406SOL    HW110904   2.265   0.982   0.200
 3406SOL    HW210905   2.156   0.861   0.193
 3407SOL     OW10906   3.320   0.735   0.728
 3407SOL    HW110907   3.315   0.670   0.803
 3407SOL    HW210908   3.400   0.794   0.741
 3408SOL     OW10909   2.323   1.266   1.727
 3408SOL    HW110910   2.273   1.267   1.641
 3408SOL    HW210911   2.260   1.248   1.803
 3409SOL     OW10912   2.973   1.776   0.237
 3409SOL    HW110913   2.913   1.714   0.287
 3409SOL    HW210914   3.004   1.732   0.152
 3410SOL     OW10915   2.064   0.285   1.498
 3410SOL    HW110916   1.984   0.345   1.485
 3410SOL    HW210917   2.054   0.236   1.584
 3411SOL     OW10918   3.494   1.377   0.081
 3411SOL    HW110919   3.462   1.471   0.071
 3411SOL    HW210920   3.418   1.314   0.069
 3412SOL     OW10921   2.326   1.743   0.323
 3412SOL    HW110922   2.359   1.782   0.409
 3412SOL    HW210923   2.402   1.736   0.258
 3413SOL     OW10924   3.262   0.107   0.426
 3413SOL    HW110925   3.238   0.070   0.336
 3413SOL    HW210926   3.361   0.123   0.430
 3414SOL     OW10927   2.111   1.785   1.241
 3414SOL    HW110928   2.168   1.720   1.291
 3414SOL    HW210929   2.095   1.752   1.148
 3415SOL     OW10930   2.802   1.698   0.904
 3415SOL    HW110931   2.882   1.641   0.925
 3415SOL    HW210932   2.753   1.658   0.827
 3416SOL     OW10933   2.244   0.700   0.480
 3416SOL    HW110934   2.289   0.610   0.477
 3416SOL    HW210935   2.150   0.689   0.513
 3417SOL     OW10936   3.409   0.222   1.729
 3417SOL    HW110937   3.404   0.259   1.821
 3417SOL    HW210938   3.337   0.153   1.717
 3418SOL     OW10939   2.476   0.122   0.117
 3418SOL    HW110940   2.574   0.100   0.124
 3418SOL    HW210941   2.445   0.105   0.024
 3419SOL     OW10942   2.643   0.264   1.749
 3419SOL    HW110943   2.710   0.203   1.792
 3419SOL    HW210944   2.570   0.283   1.814
 3420SOL     OW10945   2.750   1.514   1.195
 3420SOL    HW110946   2.727   1.489   1.101
 3420SOL    HW210947   2.811   1.445   1.234
 3421SOL     OW10948   3.213   0.590   1.433
 3421SOL    HW110949   3.241   0.547   1.518
 3421SOL    HW210950   3.238   0.686   1.434
 3422SOL     OW10951   2.665   1.402   0.924
 3422SOL    HW110952   2.755   1.416   0.882
 3422SOL    HW210953   2.594   1.404   0.853
 3423SOL     OW10954   2.784   0.503   0.899
 3423SOL    HW110955   2.759   0.494   0.803
 3423SOL    HW210956   2.832   0.421   0.930
 3424SOL     OW10957   2.401   0.064   0.512
 3424SOL    HW110958   2.320   0.065   0.570
 3424SOL    HW210959   2.404   0.147   0.457
 3425SOL     OW10960   3.296   1.188   0.041
 3425SOL    HW110961   3.328   1.112   0.098
 3425SOL    HW210962   3.204   1.215   0.071
 3426SOL     OW10963   2.159   0.035   0.171
 3426SOL    HW110964   2.208   0.119   0.150
 3426SOL    HW210965   2.221  -0.030   0.216
 3427SOL     OW10966   2.797   0.236   0.480
 3427SOL    HW110967   2.749   0.277   0.402
 3427SOL    HW210968   2.896   0.234   0.461
 3428SOL     OW10969   2.938   0.683   1.464
 3428SOL    HW110970   2.858   0.622   1.467
 3428SOL    HW210971   3.019   0.630   1.440
 3429SOL     OW10972   3.089   1.570   0.793
 3429SOL    HW110973   3.110   1.644   0.728
 3429SOL    HW210974   3.157   1.570   0.866
 3430SOL     OW10975   2.321   1.152   0.741
 3430SOL    HW110976   2.250   1.125   0.806
 3430SOL    HW210977   2.295   1.124   0.648
 3431SOL     OW10978   3.133   1.797   0.591
 3431SOL    HW110979   3.177   1.861   0.527
 3431SOL    HW210980   3.083   1.849   0.661
 3432SOL     OW10981   2.894   0.549   0.016
 3432SOL    HW110982   2.853   0.631  -0.023
 3432SOL    HW210983   2.958   0.575   0.089
 3433SOL     OW10984   1.940   0.556   1.386
 3433SOL    HW110985   2.032   0.555   1.345
 3433SOL    HW210986   1.934   0.630   1.453
 3434SOL     OW10987   2.423   0.222   1.147
 3434SOL    HW110988   2.461   0.138   1.184
 3434SOL    HW210989   2.335   0.241   1.191
 3435SOL     OW10990   2.728   0.454   0.642
 3435SOL    HW110991   2.696   0.526   0.580
 3435SOL    HW210992   2.752   0.373   0.589
 3436SOL     OW10993   2.879   0.039   0.753
 3436SOL    HW110994   2.807   0.044   0.684
 3436SOL    HW210995   2.855  -0.030   0.822
 3437SOL     OW10996   3.291   1.173   0.867
 3437SOL    HW110997   3.236   1.089   0.860
 3437SOL    HW210998   3.317   1.202   0.775
 3438SOL     OW10999   3.328   0.590   0.992
 3438SOL    HW111000   3.298   0.495   0.999
 3438SOL    HW211001   3.401   0.606   1.058
 3439SOL     OW11002   3.719   0.833   0.377
 3439SOL    HW111003   3.761   0.769   0.441
 3439SOL    HW211004   3.681   0.782   0.299
 3440SOL     OW11005   2.350   1.385   0.174
 3440SOL    HW111006   2.263   1.370   0.221
 3440SOL    HW211007   2.333   1.411   0.079
 3441SOL     OW11008   3.526   1.280   0.657
 3441SOL    HW111009   3.625   1.288   0.671
 3441SOL    HW211010   3.481   1.364   0.688
 3442SOL     OW11011   3.252   0.575   0.078
 3442SOL    HW111012   3.198   0.554   0.159
 3442SOL    HW211013   3.343   0.534   0.087
 3443SOL     OW11014   2.389   0.256   0.328
 3443SOL    HW111015   2.416   0.197   0.253
 3443SOL    HW211016   2.389   0.351   0.297
 3444SOL     OW11017   3.616   1.223   1.588
 3444SOL    HW111018   3.707   1.184   1.575
 3444SOL    HW211019   3.624   1.319   1.612
 3445SOL     OW11020   2.926   1.347   1.340
 3445SOL    HW111021   2.846   1.324   1.395
 3445SOL    HW211022   3.009   1.321   1.389
 3446SOL     OW11023   3.454   1.629   1.625
 3446SOL    HW111024   3.481   1.663   1.535
 3446SOL    HW211025   3.533   1.591   1.671
 3447SOL     OW11026   2.973   1.195   1.100
 3447SOL    HW111027   2.933   1.239   1.181
 3447SOL    HW211028   2.932   1.232   1.017
 3448SOL     OW11029   3.500   1.099   1.079
 3448SOL    HW111030   3.505   1.180   1.138
 3448SOL    HW211031   3.414   1.101   1.028
 3449SOL     OW11032   2.777   0.089   1.402
 3449SOL    HW111033   2.802   0.069   1.307
 3449SOL    HW211034   2.849   0.145   1.444
 3450SOL     OW11035   2.842   1.116   1.719
 3450SOL    HW111036   2.743   1.122   1.729
 3450SOL    HW211037   2.865   1.036   1.663
 3451SOL     OW11038   2.567   1.050   0.368
 3451SOL    HW111039   2.553   1.057   0.467
 3451SOL    HW211040   2.651   0.999   0.350
 3452SOL     OW11041   2.272   0.813   1.251
 3452SOL    HW111042   2.358   0.825   1.301
 3452SOL    HW211043   2.230   0.726   1.278
 3453SOL     OW11044   3.136   0.386   1.262
 3453SOL    HW111045   3.157   0.460   1.326
 3453SOL    HW211046   3.047   0.403   1.219
 3454SOL     OW11047   1.926   1.564   1.331
 3454SOL    HW111048   1.880   1.646   1.297
 3454SOL    HW211049   2.024   1.583   1.340
 3455SOL     OW11050   2.229   1.100   0.501
 3455SOL    HW111051   2.222   1.183   0.445
 3455SOL    HW211052   2.233   1.020   0.441
 3456SOL     OW11053   2.428   0.537   0.865
 3456SOL    HW111054   2.440   0.603   0.791
 3456SOL    HW211055   2.474   0.571   0.948
 3457SOL     OW11056   3.114   1.348   0.388
 3457SOL    HW111057   3.164   1.425   0.428
 3457SOL    HW211058   3.019   1.350   0.420
 3458SOL     OW11059   3.134   1.445   1.142
 3458SOL    HW111060   3.181   1.458   1.229
 3458SOL    HW211061   3.068   1.371   1.151
 3459SOL     OW11062   3.444   0.639   0.472
 3459SOL    HW111063   3.413   0.700   0.545
 3459SOL    HW211064   3.494   0.691   0.403
 3460SOL     OW11065   2.216   1.510   1.329
 3460SOL    HW111066   2.195   1.466   1.242
 3460SOL    HW211067   2.313   1.536   1.332
 3461SOL     OW11068   2.264   0.751   1.598
 3461SOL    HW111069   2.332   0.806   1.551
 3461SOL    HW211070   2.304   0.663   1.625
 3462SOL     OW11071   3.449   0.779   1.670
 3462SOL    HW111072   3.357   0.817   1.665
 3462SOL    HW211073   3.509   0.826   1.605
 3463SOL     OW11074   2.875   0.105   1.770
 3463SOL    HW111075   2.881   0.190   1.718
 3463SOL    HW211076   2.907   0.029   1.713
 3464SOL     OW11077   2.366   0.050   1.740
 3464SOL    HW111078   2.324  -0.007   1.670
 3464SOL    HW211079   2.300   0.119   1.772
 3465SOL     OW11080   2.435   0.870   1.029
 3465SOL    HW111081   2.479   0.959   1.020
 3465SOL    HW211082   2.372   0.870   1.106
 3466SOL     OW11083   3.222   0.862   1.045
 3466SOL    HW111084   3.147   0.862   0.979
 3466SOL    HW211085   3.259   0.770   1.054
 3467SOL     OW11086   3.071   0.525   0.275
 3467SOL    HW111087   3.084   0.441   0.329
 3467SOL    HW211088   3.042   0.599   0.335
 3468SOL     OW11089   2.169   0.213   1.231
 3468SOL    HW111090   2.146   0.250   1.321
 3468SOL    HW211091   2.139   0.118   1.225
 3469SOL     OW11092   1.899   1.310   1.282
 3469SOL    HW111093   1.952   1.261   1.350
 3469SOL    HW211094   1.921   1.408   1.287
 3470SOL     OW11095   2.594   0.634   1.064
 3470SOL    HW111096   2.653   0.608   0.988
 3470SOL    HW211097   2.566   0.730   1.053
 3471SOL     OW11098   3.590   0.935   1.854
 3471SOL    HW111099   3.544   0.928   1.765
 3471SOL    HW211100   3.528   0.979   1.920
 3472SOL     OW11101   2.169   0.063   0.618
 3472SOL    HW111102   2.158   0.157   0.651
 3472SOL    HW211103   2.164   0.000   0.695
 3473SOL     OW11104   3.484   0.367   0.374
 3473SOL    HW111105   3.486   0.291   0.438
 3473SOL    HW211106   3.436   0.444   0.414
 3474SOL     OW11107   2.885   0.766   0.966
 3474SOL    HW111108   2.900   0.787   1.062
 3474SOL    HW211109   2.855   0.671   0.957
 3475SOL     OW11110   2.842   1.573   1.700
 3475SOL    HW111111   2.822   1.617   1.612
 3475SOL    HW211112   2.881   1.482   1.684
 3476SOL     OW11113   3.721   1.518   1.605
 3476SOL    HW111114   3.735   1.545   1.510
 3476SOL    HW211115   3.804   1.540   1.658
 3477SOL     OW11116   2.212   0.898   1.804
 3477SOL    HW111117   2.288   0.942   1.852
 3477SOL    HW211118   2.247   0.851   1.722
 3478SOL     OW11119   3.402   0.274   0.125
 3478SOL    HW111120   3.341   0.199   0.148
 3478SOL    HW211121   3.424   0.326   0.208
 3479SOL     OW11122   3.165   0.838   0.042
 3479SOL    HW111123   3.199   0.745   0.057
 3479SOL    HW211124   3.183   0.865  -0.053
 3480SOL     OW11125   2.930   1.333   0.849
 3480SOL    HW111126   2.937   1.249   0.794
 3480SOL    HW211127   2.992   1.402   0.813
 3481SOL     OW11128   2.181   0.810   0.949
 3481SOL    HW111129   2.274   0.846   0.954
 3481SOL    HW211130   2.175   0.725   1.001
 3482SOL     OW11131   2.201   0.509   1.006
 3482SOL    HW111132   2.149   0.426   0.989
 3482SOL    HW211133   2.278   0.514   0.942
 3483SOL     OW11134   3.000   0.380   1.678
 3483SOL    HW111135   2.955   0.443   1.742
 3483SOL    HW211136   3.093   0.411   1.661
 3484SOL     OW11137   3.022   0.207   1.477
 3484SOL    HW111138   3.022   0.271   1.554
 3484SOL    HW211139   3.050   0.255   1.394
 3485SOL     OW11140   1.870   1.326   0.200
 3485SOL    HW111141   1.777   1.347   0.169
 3485SOL    HW211142   1.880   1.227   0.213
 3486SOL     OW11143   1.950   1.801   0.927
 3486SOL    HW111144   1.908   1.715   0.900
 3486SOL    HW211145   2.044   1.804   0.893
 3487SOL     OW11146   2.366   1.568   0.910
 3487SOL    HW111147   2.432   1.642   0.919
 3487SOL    HW211148   2.410   1.489   0.868
 3488SOL     OW11149   2.864   0.796   1.238
 3488SOL    HW111150   2.905   0.764   1.324
 3488SOL    HW211151   2.768   0.769   1.235
 3489SOL     OW11152   1.902   0.544   1.114
 3489SOL    HW111153   1.987   0.511   1.073
 3489SOL    HW211154   1.915   0.559   1.212
 3490SOL     OW11155   2.051   0.520   1.722
 3490SOL    HW111156   2.110   0.480   1.652
 3490SOL    HW211157   1.993   0.591   1.681
 3491SOL     OW11158   3.231   0.950   1.660
 3491SOL    HW111159   3.270   1.039   1.680
 3491SOL    HW211160   3.241   0.930   1.563
 3492SOL     OW11161   2.677   0.572   0.325
 3492SOL    HW111162   2.684   0.483   0.279
 3492SOL    HW211163   2.583   0.606   0.317
 3493SOL     OW11164   3.519   0.604   1.206
 3493SOL    HW111165   3.481   0.535   1.268
 3493SOL    HW211166   3.601   0.568   1.162
 3494SOL     OW11167   2.114   1.564   1.744
 3494SOL    HW111168   2.084   1.621   1.820
 3494SOL    HW211169   2.107   1.467   1.770
 3495SOL     OW11170   2.533   0.464   1.269
 3495SOL    HW111171   2.499   0.375   1.239
 3495SOL    HW211172   2.559   0.518   1.189
 3496SOL     OW11173   2.792   1.678   1.465
 3496SOL    HW111174   2.768   1.660   1.370
 3496SOL    HW211175   2.822   1.772   1.475
 3497SOL     OW11176   2.335   0.500   0.191
 3497SOL    HW111177   2.396   0.580   0.195
 3497SOL    HW211178   2.240   0.531   0.198
 3498SOL     OW11179   2.021   1.137   1.466
 3498SOL    HW111180   2.043   1.076   1.542
 3498SOL    HW211181   2.031   1.088   1.380
 3499SOL     OW11182   3.209   1.059   1.234
 3499SOL    HW111183   3.233   0.996   1.160
 3499SOL    HW211184   3.119   1.099   1.216
 3500SOL     OW11185   3.164   0.855   0.309
 3500SOL    HW111186   3.078   0.824   0.351
 3500SOL    HW211187   3.160   0.841   0.210
 3501SOL     OW11188   3.621   1.747   1.154
 3501SOL    HW111189   3.682   1.777   1.081
 3501SOL    HW211190   3.583   1.658   1.132
 3502SOL     OW11191   3.114   1.731   1.128
 3502SOL    HW111192   3.198   1.736   1.074
 3502SOL    HW211193   3.091   1.635   1.146
 3503SOL     OW11194   1.945   1.258   1.022
 3503SOL    HW111195   1.940   1.257   1.122
 3503SOL    HW211196   1.862   1.217   0.984
 3504SOL     OW11197   2.550   1.662   1.716
 3504SOL    HW111198   2.494   1.743   1.725
 3504SOL    HW211199   2.602   1.666   1.630
 3505SOL     OW11200   2.765   0.086   0.133
 3505SOL    HW111201   2.816   0.087   0.047
 3505SOL    HW211202   2.821   0.044   0.204
 3506SOL     OW11203   3.588   0.135   0.523
 3506SOL    HW111204   3.661   0.118   0.456
 3506SOL    HW211205   3.557   0.048   0.561
 3507SOL     OW11206   3.250   1.573   0.477
 3507SOL    HW111207   3.317   1.585   0.403
 3507SOL    HW211208   3.210   1.662   0.500
 3508SOL     OW11209   1.992   1.794   1.851
 3508SOL    HW111210   1.951   1.720   1.904
 3508SOL    HW211211   2.056   1.845   1.909
 3509SOL     OW11212   3.142   0.927   0.672
 3509SOL    HW111213   3.202   0.846   0.674
 3509SOL    HW211214   3.182   0.996   0.612
 3510SOL     OW11215   2.692   1.273   1.422
 3510SOL    HW111216   2.687   1.306   1.517
 3510SOL    HW211217   2.606   1.292   1.376
 3511SOL     OW11218   2.534   1.616   0.154
 3511SOL    HW111219   2.543   1.626   0.055
 3511SOL    HW211220   2.494   1.527   0.175
 3512SOL     OW11221   3.512   1.720   1.394
 3512SOL    HW111222   3.565   1.730   1.310
 3512SOL    HW211223   3.485   1.810   1.428
 3513SOL     OW11224   3.703   0.175   0.963
 3513SOL    HW111225   3.742   0.090   0.927
 3513SOL    HW211226   3.605   0.177   0.944
 3514SOL     OW11227   2.125   0.326   0.720
 3514SOL    HW111228   2.046   0.377   0.686
 3514SOL    HW211229   2.116   0.311   0.818
 3515SOL     OW11230   3.056   1.612   0.031
 3515SOL    HW111231   3.062   1.519   0.068
 3515SOL    HW211232   2.997   1.612  -0.049
 3516SOL     OW11233   2.684   1.002   1.372
 3516SOL    HW111234   2.724   1.001   1.280
 3516SOL    HW211235   2.694   1.094   1.412
 3517SOL     OW11236   2.778   0.910   0.291
 3517SOL    HW111237   2.841   0.948   0.223
 3517SOL    HW211238   2.818   0.827   0.330
 3518SOL     OW11239   3.366   1.607   0.044
 3518SOL    HW111240   3.274   1.644   0.051
 3518SOL    HW211241   3.404   1.627  -0.046
 3519SOL     OW11242   2.234   1.288   1.490
 3519SOL    HW111243   2.221   1.381   1.456
 3519SOL    HW211244   2.150   1.236   1.477
 3520SOL     OW11245   3.476   1.292   1.289
 3520SOL    HW111246   3.536   1.295   1.369
 3520SOL    HW211247   3.401   1.356   1.302
 3521SOL     OW11248   2.901   1.098   0.696
 3521SOL    HW111249   2.831   1.051   0.750
 3521SOL    HW211250   2.960   1.030   0.653
 3522SOL     OW11251   2.876   0.236   0.971
 3522SOL    HW111252   2.868   0.200   0.878
 3522SOL    HW211253   2.874   0.160   1.036
 3523SOL     OW11254   2.452   1.487   0.491
 3523SOL    HW111255   2.494   1.429   0.421
 3523SOL    HW211256   2.408   1.566   0.447
 3524SOL     OW11257   3.571   0.385   1.381
 3524SOL    HW111258   3.644   0.454   1.385
 3524SOL    HW211259   3.599   0.310   1.322
 3525SOL     OW11260   2.117   1.348   0.290
 3525SOL    HW111261   2.021   1.349   0.263
 3525SOL    HW211262   2.129   1.401   0.374
 3526SOL     OW11263   1.967   1.013   1.726
 3526SOL    HW111264   1.890   0.980   1.780
 3526SOL    HW211265   2.052   0.983   1.768
 3527SOL     OW11266   2.534   0.203   1.489
 3527SOL    HW111267   2.624   0.187   1.449
 3527SOL    HW211268   2.542   0.208   1.588
 3528SOL     OW11269   1.937   0.345   0.033
 3528SOL    HW111270   1.845   0.317   0.004
 3528SOL    HW211271   1.968   0.422  -0.023
 3529SOL     OW11272   3.302   0.856   1.398
 3529SOL    HW111273   3.245   0.908   1.335
 3529SOL    HW211274   3.398   0.868   1.374
 3530SOL     OW11275   1.934   0.166   0.318
 3530SOL    HW111276   1.917   0.249   0.264
 3530SOL    HW211277   2.024   0.129   0.296
 3531SOL     OW11278   3.045   1.335   0.119
 3531SOL    HW111279   2.946   1.324   0.121
 3531SOL    HW211280   3.079   1.350   0.212
 3532SOL     OW11281   2.475   0.842   1.431
 3532SOL    HW111282   2.531   0.923   1.414
 3532SOL    HW211283   2.534   0.762   1.434
 3533SOL     OW11284   3.355   1.767   0.959
 3533SOL    HW111285   3.388   1.831   0.890
 3533SOL    HW211286   3.421   1.761   1.034
 3534SOL     OW11287   2.578   0.565   1.708
 3534SOL    HW111288   2.597   0.630   1.782
 3534SOL    HW211289   2.638   0.485   1.717
 3535SOL     OW11290   3.312   1.220   1.633
 3535SOL    HW111291   3.303   1.210   1.732
 3535SOL    HW211292   3.408   1.213   1.607
 3536SOL     OW11293   2.252   1.741   1.560
 3536SOL    HW111294   2.161   1.782   1.558
 3536SOL    HW211295   2.245   1.647   1.592
 3537SOL     OW11296   3.536   0.883   1.254
 3537SOL    HW111297   3.509   0.794   1.217
 3537SOL    HW211298   3.537   0.951   1.181
 3538SOL     OW11299   3.087   0.325   0.449
 3538SOL    HW111300   3.152   0.251   0.438
 3538SOL    HW211301   3.107   0.375   0.533
 3539SOL     OW11302   2.456   0.745   0.652
 3539SOL    HW111303   2.506   0.830   0.633
 3539SOL    HW211304   2.368   0.747   0.604
 3540SOL     OW11305   3.639   0.342   1.642
 3540SOL    HW111306   3.622   0.373   1.548
 3540SOL    HW211307   3.555   0.305   1.680
 3541SOL     OW11308   3.592   0.934   1.517
 3541SOL    HW111309   3.630   1.025   1.532
 3541SOL    HW211310   3.584   0.917   1.418
 3542SOL     OW11311   2.721   1.374   0.016
 3542SOL    HW111312   2.675   1.389   0.104
 3542SOL    HW211313   2.765   1.459  -0.014
 3543SOL     OW11314   2.523   1.790   0.953
 3543SOL    HW111315   2.477   1.878   0.940
 3543SOL    HW211316   2.622   1.802   0.946
 3544SOL     OW11317   2.721   0.956   0.861
 3544SOL    HW111318   2.775   0.887   0.909
 3544SOL    HW211319   2.689   1.025   0.927
 3545SOL     OW11320   2.945   0.984   0.087
 3545SOL    HW111321   2.922   1.037   0.005
 3545SOL    HW211322   3.026   0.928   0.068
 3546SOL     OW11323   3.723   1.569   0.851
 3546SOL    HW111324   3.652   1.557   0.781
 3546SOL    HW211325   3.724   1.490   0.911
 3547SOL     OW11326   2.083   1.314   1.844
 3547SOL    HW111327   2.018   1.241   1.823
 3547SOL    HW211328   2.087   1.328   1.942
 3548SOL     OW11329   1.941   1.240   0.653
 3548SOL    HW111330   1.940   1.193   0.741
 3548SOL    HW211331   2.023   1.212   0.602
 3549SOL     OW11332   2.534   1.391   1.624
 3549SOL    HW111333   2.456   1.341   1.662
 3549SOL    HW211334   2.531   1.486   1.655
 3550SOL     OW11335   3.686   0.192   1.227
 3550SOL    HW111336   3.682   0.102   1.271
 3550SOL    HW211337   3.689   0.181   1.128
 3551SOL     OW11338   2.290   0.424   0.520
 3551SOL    HW111339   2.320   0.352   0.458
 3551SOL    HW211340   2.251   0.384   0.603
 3552SOL     OW11341   3.567   1.487   1.104
 3552SOL    HW111342   3.474   1.462   1.077
 3552SOL    HW211343   3.593   1.437   1.186
 3553SOL     OW11344   2.179   0.547   1.280
 3553SOL    HW111345   2.217   0.488   1.352
 3553SOL    HW211346   2.219   0.521   1.192
 3554SOL     OW11347   2.674   1.586   0.687
 3554SOL    HW111348   2.706   1.596   0.593
 3554SOL    HW211349   2.595   1.524   0.689
 3555SOL     OW11350   3.286   0.214   1.112
 3555SOL    HW111351   3.338   0.149   1.167
 3555SOL    HW211352   3.237   0.277   1.173
 3556SOL     OW11353   2.863   0.034   1.154
 3556SOL    HW111354   2.800  -0.038   1.123
 3556SOL    HW211355   2.956  -0.002   1.154
 3557SOL     OW11356   2.632   1.330   0.301
 3557SOL    HW111357   2.586   1.243   0.318
 3557SOL    HW211358   2.723   1.327   0.342
 3558SOL     OW11359   2.480   1.567   1.284
 3558SOL    HW111360   2.475   1.649   1.341
 3558SOL    HW211361   2.569   1.564   1.239
 3559SOL     OW11362   3.214   0.052   0.168
 3559SOL    HW111363   3.249   0.011   0.084
 3559SOL    HW211364   3.124   0.014   0.188
 3560SOL     OW11365   3.162   0.453   0.691
 3560SOL    HW111366   3.103   0.533   0.695
 3560SOL    HW211367   3.177   0.418   0.784
 3561SOL     OW11368   3.455   0.221   0.882
 3561SOL    HW111369   3.371   0.220   0.936
 3561SOL    HW211370   3.457   0.304   0.826
 3562SOL     OW11371   1.901   1.077   0.300
 3562SOL    HW111372   2.000   1.066   0.291
 3562SOL    HW211373   1.861   0.991   0.332
 3563SOL     OW11374   2.737   1.646   0.337
 3563SOL    HW111375   2.660   1.611   0.283
 3563SOL    HW211376   2.705   1.717   0.399
 3564SOL     OW11377   2.092   0.628   1.975
 3564SOL    HW111378   1.999   0.626   2.012
 3564SOL    HW211379   2.093   0.589   1.883
 3565SOL     OW11380   2.087   0.275   2.858
 3565SOL    HW111381   2.122   0.258   2.950
 3565SOL    HW211382   1.999   0.230   2.846
 3566SOL     OW11383   1.881   0.368   2.509
 3566SOL    HW111384   1.799   0.411   2.548
 3566SOL    HW211385   1.853   0.295   2.446
 3567SOL     OW11386   2.431   1.275   3.027
 3567SOL    HW111387   2.338   1.268   2.990
 3567SOL    HW211388   2.442   1.364   3.071
 3568SOL     OW11389   3.417   1.511   2.565
 3568SOL    HW111390   3.360   1.495   2.646
 3568SOL    HW211391   3.358   1.521   2.485
 3569SOL     OW11392   2.997   0.703   2.579
 3569SOL    HW111393   3.054   0.781   2.554
 3569SOL    HW211394   2.937   0.729   2.655
 3570SOL     OW11395   3.617   0.607   2.093
 3570SOL    HW111396   3.605   0.594   1.994
 3570SOL    HW211397   3.587   0.526   2.142
 3571SOL     OW11398   2.630   1.144   2.885
 3571SOL    HW111399   2.552   1.161   2.945
 3571SOL    HW211400   2.664   1.231   2.849
 3572SOL     OW11401   2.712   0.798   3.685
 3572SOL    HW111402   2.708   0.874   3.750
 3572SOL    HW211403   2.734   0.834   3.594
 3573SOL     OW11404   2.547   1.012   2.527
 3573SOL    HW111405   2.616   0.996   2.597
 3573SOL    HW211406   2.474   1.069   2.565
 3574SOL     OW11407   2.548   1.161   3.665
 3574SOL    HW111408   2.608   1.240   3.679
 3574SOL    HW211409   2.462   1.192   3.624
 3575SOL     OW11410   2.197   1.435   2.923
 3575SOL    HW111411   2.119   1.404   2.870
 3575SOL    HW211412   2.255   1.493   2.866
 3576SOL     OW11413   3.322   1.505   3.201
 3576SOL    HW111414   3.346   1.599   3.227
 3576SOL    HW211415   3.306   1.451   3.283
 3577SOL     OW11416   2.300   0.392   3.361
 3577SOL    HW111417   2.382   0.336   3.370
 3577SOL    HW211418   2.219   0.334   3.365
 3578SOL     OW11419   3.465   0.447   2.599
 3578SOL    HW111420   3.391   0.493   2.549
 3578SOL    HW211421   3.516   0.515   2.652
 3579SOL     OW11422   2.093   1.713   2.345
 3579SOL    HW111423   2.127   1.790   2.399
 3579SOL    HW211424   2.137   1.713   2.255
 3580SOL     OW11425   2.989   1.341   3.552
 3580SOL    HW111426   3.036   1.341   3.640
 3580SOL    HW211427   2.941   1.254   3.541
 3581SOL     OW11428   2.092   1.434   2.400
 3581SOL    HW111429   2.066   1.530   2.400
 3581SOL    HW211430   2.021   1.380   2.445
 3582SOL     OW11431   2.102   1.091   2.748
 3582SOL    HW111432   2.116   1.007   2.800
 3582SOL    HW211433   2.047   1.155   2.803
 3583SOL     OW11434   2.482   1.786   3.301
 3583SOL    HW111435   2.390   1.769   3.336
 3583SOL    HW211436   2.510   1.878   3.327
 3584SOL     OW11437   2.468   0.964   1.985
 3584SOL    HW111438   2.475   1.048   1.931
 3584SOL    HW211439   2.514   0.977   2.073
 3585SOL     OW11440   3.456   0.114   3.342
 3585SOL    HW111441   3.438   0.181   3.270
 3585SOL    HW211442   3.453   0.160   3.431
 3586SOL     OW11443   1.984   0.643   2.425
 3586SOL    HW111444   1.939   0.555   2.442
 3586SOL    HW211445   1.983   0.697   2.509
 3587SOL     OW11446   3.704   1.767   2.221
 3587SOL    HW111447   3.758   1.738   2.301
 3587SOL    HW211448   3.734   1.857   2.192
 3588SOL     OW11449   1.889   1.596   1.979
 3588SOL    HW111450   1.870   1.500   2.000
 3588SOL    HW211451   1.856   1.654   2.054
 3589SOL     OW11452   3.551   0.922   2.474
 3589SOL    HW111453   3.646   0.893   2.482
 3589SOL    HW211454   3.543   0.987   2.399
 3590SOL     OW11455   3.503   1.108   2.294
 3590SOL    HW111456   3.589   1.110   2.242
 3590SOL    HW211457   3.517   1.155   2.382
 3591SOL     OW11458   1.975   0.737   3.459
 3591SOL    HW111459   2.063   0.724   3.504
 3591SOL    HW211460   1.962   0.834   3.437
 3592SOL     OW11461   2.475   1.365   2.588
 3592SOL    HW111462   2.426   1.278   2.597
 3592SOL    HW211463   2.452   1.408   2.501
 3593SOL     OW11464   3.155   1.228   3.285
 3593SOL    HW111465   3.192   1.155   3.227
 3593SOL    HW211466   3.207   1.233   3.370
 3594SOL     OW11467   2.671   0.004   2.364
 3594SOL    HW111468   2.711   0.095   2.355
 3594SOL    HW211469   2.571   0.012   2.370
 3595SOL     OW11470   2.059   0.976   3.126
 3595SOL    HW111471   2.148   0.931   3.112
 3595SOL    HW211472   1.986   0.911   3.107
 3596SOL     OW11473   3.387   0.999   2.052
 3596SOL    HW111474   3.324   0.923   2.065
 3596SOL    HW211475   3.435   1.017   2.138
 3597SOL     OW11476   3.049   1.792   3.478
 3597SOL    HW111477   3.073   1.852   3.402
 3597SOL    HW211478   3.056   1.697   3.448
 3598SOL     OW11479   2.179   0.251   3.663
 3598SOL    HW111480   2.250   0.322   3.669
 3598SOL    HW211481   2.091   0.290   3.691
 3599SOL     OW11482   3.328   1.417   2.815
 3599SOL    HW111483   3.269   1.423   2.895
 3599SOL    HW211484   3.313   1.329   2.769
 3600SOL     OW11485   3.529   1.714   2.434
 3600SOL    HW111486   3.488   1.691   2.346
 3600SOL    HW211487   3.511   1.640   2.499
 3601SOL     OW11488   2.460   0.729   2.132
 3601SOL    HW111489   2.484   0.798   2.064
 3601SOL    HW211490   2.382   0.762   2.186
 3602SOL     OW11491   3.143   0.345   2.806
 3602SOL    HW111492   3.057   0.295   2.793
 3602SOL    HW211493   3.205   0.291   2.862
 3603SOL     OW11494   3.438   1.662   2.169
 3603SOL    HW111495   3.527   1.708   2.172
 3603SOL    HW211496   3.417   1.638   2.074
 3604SOL     OW11497   2.669   0.605   3.327
 3604SOL    HW111498   2.622   0.602   3.416
 3604SOL    HW211499   2.618   0.550   3.261
 3605SOL     OW11500   3.256   0.469   3.536
 3605SOL    HW111501   3.236   0.512   3.624
 3605SOL    HW211502   3.334   0.407   3.545
 3606SOL     OW11503   2.835   0.890   3.434
 3606SOL    HW111504   2.881   0.806   3.405
 3606SOL    HW211505   2.779   0.924   3.359
 3607SOL     OW11506   2.853   0.410   3.104
 3607SOL    HW111507   2.776   0.444   3.158
 3607SOL    HW211508   2.819   0.359   3.025
 3608SOL     OW11509   2.903   0.701   2.291
 3608SOL    HW111510   2.929   0.697   2.387
 3608SOL    HW211511   2.818   0.650   2.277
 3609SOL     OW11512   1.938   0.811   2.651
 3609SOL    HW111513   2.037   0.799   2.660
 3609SOL    HW211514   1.914   0.906   2.672
 3610SOL     OW11515   2.727   0.348   2.057
 3610SOL    HW111516   2.786   0.411   2.008
 3610SOL    HW211517   2.746   0.254   2.028
 3611SOL     OW11518   3.581   0.585   3.693
 3611SOL    HW111519   3.555   0.674   3.657
 3611SOL    HW211520   3.579   0.517   3.620
 3612SOL     OW11521   3.224   1.144   2.407
 3612SOL    HW111522   3.307   1.115   2.359
 3612SOL    HW211523   3.175   1.211   2.351
 3613SOL     OW11524   2.412   0.196   2.747
 3613SOL    HW111525   2.407   0.191   2.847
 3613SOL    HW211526   2.414   0.292   2.718
 3614SOL     OW11527   2.870   1.456   2.339
 3614SOL    HW111528   2.824   1.528   2.287
 3614SOL    HW211529   2.866   1.476   2.437
 3615SOL     OW11530   2.213   1.801   2.715
 3615SOL    HW111531   2.263   1.715   2.721
 3615SOL    HW211532   2.278   1.878   2.712
 3616SOL     OW11533   3.657   1.066   2.735
 3616SOL    HW111534   3.595   1.051   2.659
 3616SOL    HW211535   3.605   1.077   2.820
 3617SOL     OW11536   3.089   1.550   3.368
 3617SOL    HW111537   3.095   1.473   3.432
 3617SOL    HW211538   3.037   1.524   3.288
 3618SOL     OW11539   2.183   0.943   2.104
 3618SOL    HW111540   2.265   0.982   2.062
 3618SOL    HW211541   2.156   0.861   2.055
 3619SOL     OW11542   3.320   0.735   2.590
 3619SOL    HW111543   3.315   0.670   2.665
 3619SOL    HW211544   3.400   0.794   2.603
 3620SOL     OW11545   2.323   1.266   3.589
 3620SOL    HW111546   2.273   1.267   3.503
 3620SOL    HW211547   2.260   1.248   3.665
 3621SOL     OW11548   2.973   1.776   2.099
 3621SOL    HW111549   2.913   1.714   2.149
 3621SOL    HW211550   3.004   1.732   2.014
 3622SOL     OW11551   2.064   0.285   3.360
 3622SOL    HW111552   1.984   0.345   3.347
 3622SOL    HW211553   2.054   0.236   3.446
 3623SOL     OW11554   3.494   1.377   1.943
 3623SOL    HW111555   3.462   1.471   1.933
 3623SOL    HW211556   3.418   1.314   1.931
 3624SOL     OW11557   2.326   1.743   2.185
 3624SOL    HW111558   2.359   1.782   2.271
 3624SOL    HW211559   2.402   1.736   2.120
 3625SOL     OW11560   3.262   0.107   2.288
 3625SOL    HW111561   3.238   0.070   2.198
 3625SOL    HW211562   3.361   0.123   2.292
 3626SOL     OW11563   2.111   1.785   3.103
 3626SOL    HW111564   2.168   1.720   3.153
 3626SOL    HW211565   2.095   1.752   3.010
 3627SOL     OW11566   2.802   1.698   2.766
 3627SOL    HW111567   2.882   1.641   2.787
 3627SOL    HW211568   2.753   1.658   2.689
 3628SOL     OW11569   2.244   0.700   2.342
 3628SOL    HW111570   2.289   0.610   2.339
 3628SOL    HW211571   2.150   0.689   2.375
 3629SOL     OW11572   3.409   0.222   3.591
 3629SOL    HW111573   3.404   0.259   3.683
 3629SOL    HW211574   3.337   0.153   3.579
 3630SOL     OW11575   2.476   0.122   1.979
 3630SOL    HW111576   2.574   0.100   1.986
 3630SOL    HW211577   2.445   0.105   1.886
 3631SOL     OW11578   2.643   0.264   3.611
 3631SOL    HW111579   2.710   0.203   3.654
 3631SOL    HW211580   2.570   0.283   3.676
 3632SOL     OW11581   2.750   1.514   3.057
 3632SOL    HW111582   2.727   1.489   2.963
 3632SOL    HW211583   2.811   1.445   3.096
 3633SOL     OW11584   3.213   0.590   3.295
 3633SOL    HW111585   3.241   0.547   3.380
 3633SOL    HW211586   3.238   0.686   3.296
 3634SOL     OW11587   2.665   1.402   2.786
 3634SOL    HW111588   2.755   1.416   2.744
 3634SOL    HW211589   2.594   1.404   2.715
 3635SOL     OW11590   2.784   0.503   2.761
 3635SOL    HW111591   2.759   0.494   2.665
 3635SOL    HW211592   2.832   0.421   2.792
 3636SOL     OW11593   2.401   0.064   2.374
 3636SOL    HW111594   2.320   0.065   2.432
 3636SOL    HW211595   2.404   0.147   2.319
 3637SOL     OW11596   3.296   1.188   1.903
 3637SOL    HW111597   3.328   1.112   1.960
 3637SOL    HW211598   3.204   1.215   1.933
 3638SOL     OW11599   2.159   0.035   2.033
 3638SOL    HW111600   2.208   0.119   2.012
 3638SOL    HW211601   2.221  -0.030   2.078
 3639SOL     OW11602   2.797   0.236   2.342
 3639SOL    HW111603   2.749   0.277   2.264
 3639SOL    HW211604   2.896   0.234   2.323
 3640SOL     OW11605   2.938   0.683   3.326
 3640SOL    HW111606   2.858   0.622   3.329
 3640SOL    HW211607   3.019   0.630   3.302
 3641SOL     OW11608   3.089   1.570   2.655
 3641SOL    HW111609   3.110   1.644   2.590
 3641SOL    HW211610   3.157   1.570   2.728
 3642SOL     OW11611   2.321   1.152   2.603
 3642SOL    HW111612   2.250   1.125   2.668
 3642SOL    HW211613   2.295   1.124   2.510
 3643SOL     OW11614   3.133   1.797   2.453
 3643SOL    HW111615   3.177   1.861   2.389
 3643SOL    HW211616   3.083   1.849   2.523
 3644SOL     OW11617   2.894   0.549   1.878
 3644SOL    HW111618   2.853   0.631   1.839
 3644SOL    HW211619   2.958   0.575   1.951
 3645SOL     OW11620   1.940   0.556   3.248
 3645SOL    HW111621   2.032   0.555   3.207
 3645SOL    HW211622   1.934   0.630   3.315
 3646SOL     OW11623   2.423   0.222   3.009
 3646SOL    HW111624   2.461   0.138   3.046
 3646SOL    HW211625   2.335   0.241   3.053
 3647SOL     OW11626   2.728   0.454   2.504
 3647SOL    HW111627   2.696   0.526   2.442
 3647SOL    HW211628   2.752   0.373   2.451
 3648SOL     OW11629   2.879   0.039   2.615
 3648SOL    HW111630   2.807   0.044   2.546
 3648SOL    HW211631   2.855  -0.030   2.684
 3649SOL     OW11632   3.291   1.173   2.729
 3649SOL    HW111633   3.236   1.089   2.722
 3649SOL    HW211634   3.317   1.202   2.637
 3650SOL     OW11635   3.328   0.590   2.854
 3650SOL    HW111636   3.298   0.495   2.861
 3650SOL    HW211637   3.401   0.606   2.920
 3651SOL     OW11638   3.719   0.833   2.239
 3651SOL    HW111639   3.761   0.769   2.303
 3651SOL    HW211640   3.681   0.782   2.161
 3652SOL     OW11641   2.350   1.385   2.036
 3652SOL    HW111642   2.263   1.370   2.083
 3652SOL    HW211643   2.333   1.411   1.941
 3653SOL     OW11644   3.526   1.280   2.519
 3653SOL    HW111645   3.625   1.288   2.533
 3653SOL    HW211646   3.481   1.364   2.550
 3654SOL     OW11647   3.252   0.575   1.940
 3654SOL    HW111648   3.198   0.554   2.021
 3654SOL    HW211649   3.343   0.534   1.949
 3655SOL     OW11650   2.389   0.256   2.190
 3655SOL    HW111651   2.416   0.197   2.115
 3655SOL    HW211652   2.389   0.351   2.159
 3656SOL     OW11653   3.616   1.223   3.450
 3656SOL    HW111654   3.707   1.184   3.437
 3656SOL    HW211655   3.624   1.319   3.474
 3657SOL     OW11656   2.926   1.347   3.202
 3657SOL    HW111657   2.846   1.324   3.257
 3657SOL    HW211658   3.009   1.321   3.251
 3658SOL     OW11659   3.454   1.629   3.487
 3658SOL    HW111660   3.481   1.663   3.397
 3658SOL    HW211661   3.533   1.591   3.533
 3659SOL     OW11662   2.973   1.195   2.962
 3659SOL    HW111663   2.933   1.239   3.043
 3659SOL    HW211664   2.932   1.232   2.879
 3660SOL     OW11665   3.500   1.099   2.941
 3660SOL    HW111666   3.505   1.180   3.000
 3660SOL    HW211667   3.414   1.101   2.890
 3661SOL     OW11668   2.777   0.089   3.264
 3661SOL    HW111669   2.802   0.069   3.169
 3661SOL    HW211670   2.849   0.145   3.306
 3662SOL     OW11671   2.842   1.116   3.581
 3662SOL    HW111672   2.743   1.122   3.591
 3662SOL    HW211673   2.865   1.036   3.525
 3663SOL     OW11674   2.567   1.050   2.230
 3663SOL    HW111675   2.553   1.057   2.329
 3663SOL    HW211676   2.651   0.999   2.212
 3664SOL     OW11677   2.272   0.813   3.113
 3664SOL    HW111678   2.358   0.825   3.163
 3664SOL    HW211679   2.230   0.726   3.140
 3665SOL     OW11680   3.136   0.386   3.124
 3665SOL    HW111681   3.157   0.460   3.188
 3665SOL    HW211682   3.047   0.403   3.081
 3666SOL     OW11683   1.926   1.564   3.193
 3666SOL    HW111684   1.880   1.646   3.159
 3666SOL    HW211685   2.024   1.583   3.202
 3667SOL     OW11686   2.229   1.100   2.363
 3667SOL    HW111687   2.222   1.183   2.307
 3667SOL    HW211688   2.233   1.020   2.303
 3668SOL     OW11689   2.428   0.537   2.727
 3668SOL    HW111690   2.440   0.603   2.653
 3668SOL    HW211691   2.474   0.571   2.810
 3669SOL     OW11692   3.114   1.348   2.250
 3669SOL    HW111693   3.164   1.425   2.290
 3669SOL    HW211694   3.019   1.350   2.282
 3670SOL     OW11695   3.134   1.445   3.004
 3670SOL    HW111696   3.181   1.458   3.091
 3670SOL    HW211697   3.068   1.371   3.013
 3671SOL     OW11698   3.444   0.639   2.334
 3671SOL    HW111699   3.413   0.700   2.407
 3671SOL    HW211700   3.494   0.691   2.265
 3672SOL     OW11701   2.216   1.510   3.191
 3672SOL    HW111702   2.195   1.466   3.104
 3672SOL    HW211703   2.313   1.536   3.194
 3673SOL     OW11704   2.264   0.751   3.460
 3673SOL    HW111705   2.332   0.806   3.413
 3673SOL    HW211706   2.304   0.663   3.487
 3674SOL     OW11707   3.449   0.779   3.532
 3674SOL    HW111708   3.357   0.817   3.527
 3674SOL    HW211709   3.509   0.826   3.467
 3675SOL     OW11710   2.875   0.105   3.632
 3675SOL    HW111711   2.881   0.190   3.580
 3675SOL    HW211712   2.907   0.029   3.575
 3676SOL     OW11713   2.366   0.050   3.602
 3676SOL    HW111714   2.324  -0.007   3.532
 3676SOL    HW211715   2.300   0.119   3.634
 3677SOL     OW11716   2.435   0.870   2.891
 3677SOL    HW111717   2.479   0.959   2.882
 3677SOL    HW211718   2.372   0.870   2.968
 3678SOL     OW11719   3.222   0.862   2.907
 3678SOL    HW111720   3.147   0.862   2.841
 3678SOL    HW211721   3.259   0.770   2.916
 3679SOL     OW11722   3.071   0.525   2.137
 3679SOL    HW111723   3.084   0.441   2.191
 3679SOL    HW211724   3.042   0.599   2.197
 3680SOL     OW11725   2.169   0.213   3.093
 3680SOL    HW111726   2.146   0.250   3.183
 3680SOL    HW211727   2.139   0.118   3.087
 3681SOL     OW11728   1.899   1.310   3.144
 3681SOL    HW111729   1.952   1.261   3.212
 3681SOL    HW211730   1.921   1.408   3.149
 3682SOL     OW11731   2.594   0.634   2.926
 3682SOL    HW111732   2.653   0.608   2.850
 3682SOL    HW211733   2.566   0.730   2.915
 3683SOL     OW11734   3.590   0.935   3.716
 3683SOL    HW111735   3.544   0.928   3.627
 3683SOL    HW211736   3.528   0.979   3.782
 3684SOL     OW11737   2.169   0.063   2.480
 3684SOL    HW111738   2.158   0.157   2.513
 3684SOL    HW211739   2.164   0.000   2.557
 3685SOL     OW11740   3.484   0.367   2.236
 3685SOL    HW111741   3.486   0.291   2.300
 3685SOL    HW211742   3.436   0.444   2.276
 3686SOL     OW11743   2.885   0.766   2.828
 3686SOL    HW111744   2.900   0.787   2.924
 3686SOL    HW211745   2.855   0.671   2.819
 3687SOL     OW11746   2.842   1.573   3.562
 3687SOL    HW111747   2.822   1.617   3.474
 3687SOL    HW211748   2.881   1.482   3.546
 3688SOL     OW11749   3.721   1.518   3.467
 3688SOL    HW111750   3.735   1.545   3.372
 3688SOL    HW211751   3.804   1.540   3.520
 3689SOL     OW11752   2.212   0.898   3.666
 3689SOL    HW111753   2.288   0.942   3.714
 3689SOL    HW211754   2.247   0.851   3.584
 3690SOL     OW11755   3.402   0.274   1.987
 3690SOL    HW111756   3.341   0.199   2.010
 3690SOL    HW211757   3.424   0.326   2.070
 3691SOL     OW11758   3.165   0.838   1.904
 3691SOL    HW111759   3.199   0.745   1.919
 3691SOL    HW211760   3.183   0.865   1.809
 3692SOL     OW11761   2.930   1.333   2.711
 3692SOL    HW111762   2.937   1.249   2.656
 3692SOL    HW211763   2.992   1.402   2.675
 3693SOL     OW11764   2.181   0.810   2.811
 3693SOL    HW111765   2.274   0.846   2.816
 3693SOL    HW211766   2.175   0.725   2.863
 3694SOL     OW11767   2.201   0.509   2.868
 3694SOL    HW111768   2.149   0.426   2.851
 3694SOL    HW211769   2.278   0.514   2.804
 3695SOL     OW11770   3.000   0.380   3.540
 3695SOL    HW111771   2.955   0.443   3.604
 3695SOL    HW211772   3.093   0.411   3.523
 3696SOL     OW11773   3.022   0.207   3.339
 3696SOL    HW111774   3.022   0.271   3.416
 3696SOL    HW211775   3.050   0.255   3.256
 3697SOL     OW11776   1.870   1.326   2.062
 3697SOL    HW111777   1.777   1.347   2.031
 3697SOL    HW211778   1.880   1.227   2.075
 3698SOL     OW11779   1.950   1.801   2.789
 3698SOL    HW111780   1.908   1.715   2.762
 3698SOL    HW211781   2.044   1.804   2.755
 3699SOL     OW11782   2.366   1.568   2.772
 3699SOL    HW111783   2.432   1.642   2.781
 3699SOL    HW211784   2.410   1.489   2.730
 3700SOL     OW11785   2.864   0.796   3.100
 3700SOL    HW111786   2.905   0.764   3.186
 3700SOL    HW211787   2.768   0.769   3.097
 3701SOL     OW11788   1.902   0.544   2.976
 3701SOL    HW111789   1.987   0.511   2.935
 3701SOL    HW211790   1.915   0.559   3.074
 3702SOL     OW11791   2.051   0.520   3.584
 3702SOL    HW111792   2.110   0.480   3.514
 3702SOL    HW211793   1.993   0.591   3.543
 3703SOL     OW11794   3.231   0.950   3.522
 3703SOL    HW111795   3.270   1.039   3.542
 3703SOL    HW211796   3.241   0.930   3.425
 3704SOL     OW11797   2.677   0.572   2.187
 3704SOL    HW111798   2.684   0.483   2.141
 3704SOL    HW211799   2.583   0.606   2.179
 3705SOL     OW11800   3.519   0.604   3.068
 3705SOL    HW111801   3.481   0.535   3.130
 3705SOL    HW211802   3.601   0.568   3.024
 3706SOL     OW11803   2.114   1.564   3.606
 3706SOL    HW111804   2.084   1.621   3.682
 3706SOL    HW211805   2.107   1.467   3.632
 3707SOL     OW11806   2.533   0.464   3.131
 3707SOL    HW111807   2.499   0.375   3.101
 3707SOL    HW211808   2.559   0.518   3.051
 3708SOL     OW11809   2.792   1.678   3.327
 3708SOL    HW111810   2.768   1.660   3.232
 3708SOL    HW211811   2.822   1.772   3.337
 3709SOL     OW11812   2.335   0.500   2.053
 3709SOL    HW111813   2.396   0.580   2.057
 3709SOL    HW211814   2.240   0.531   2.060
 3710SOL     OW11815   2.021   1.137   3.328
 3710SOL    HW111816   2.043   1.076   3.404
 3710SOL    HW211817   2.031   1.088   3.242
 3711SOL     OW11818   3.209   1.059   3.096
 3711SOL    HW111819   3.233   0.996   3.022
 3711SOL    HW211820   3.119   1.099   3.078
 3712SOL     OW11821   3.164   0.855   2.171
 3712SOL    HW111822   3.078   0.824   2.213
 3712SOL    HW211823   3.160   0.841   2.072
 3713SOL     OW11824   3.621   1.747   3.016
 3713SOL    HW111825   3.682   1.777   2.943
 3713SOL    HW211826   3.583   1.658   2.994
 3714SOL     OW11827   3.114   1.731   2.990
 3714SOL    HW111828   3.198   1.736   2.936
 3714SOL    HW211829   3.091   1.635   3.008
 3715SOL     OW11830   1.945   1.258   2.884
 3715SOL    HW111831   1.940   1.257   2.984
 3715SOL    HW211832   1.862   1.217   2.846
 3716SOL     OW11833   2.550   1.662   3.578
 3716SOL    HW111834   2.494   1.743   3.587
 3716SOL    HW211835   2.602   1.666   3.492
 3717SOL     OW11836   3.588   0.135   2.385
 3717SOL    HW111837   3.661   0.118   2.318
 3717SOL    HW211838   3.557   0.048   2.423
 3718SOL     OW11839   3.250   1.573   2.339
 3718SOL    HW111840   3.317   1.585   2.265
 3718SOL    HW211841   3.210   1.662   2.362
 3719SOL     OW11842   1.992   1.794   3.713
 3719SOL    HW111843   1.951   1.720   3.766
 3719SOL    HW211844   2.056   1.845   3.771
 3720SOL     OW11845   3.142   0.927   2.534
 3720SOL    HW111846   3.202   0.846   2.536
 3720SOL    HW211847   3.182   0.996   2.474
 3721SOL     OW11848   2.692   1.273   3.284
 3721SOL    HW111849   2.687   1.306   3.379
 3721SOL    HW211850   2.606   1.292   3.238
 3722SOL     OW11851   2.534   1.616   2.016
 3722SOL    HW111852   2.543   1.626   1.917
 3722SOL    HW211853   2.494   1.527   2.037
 3723SOL     OW11854   3.512   1.720   3.256
 3723SOL    HW111855   3.565   1.730   3.172
 3723SOL    HW211856   3.485   1.810   3.290
 3724SOL     OW11857   3.703   0.175   2.825
 3724SOL    HW111858   3.742   0.090   2.789
 3724SOL    HW211859   3.605   0.177   2.806
 3725SOL     OW11860   2.125   0.326   2.582
 3725SOL    HW111861   2.046   0.377   2.548
 3725SOL    HW211862   2.116   0.311   2.680
 3726SOL     OW11863   3.056   1.612   1.893
 3726SOL    HW111864   3.062   1.519   1.930
 3726SOL    HW211865   2.997   1.612   1.813
 3727SOL     OW11866   2.684   1.002   3.234
 3727SOL    HW111867   2.724   1.001   3.142
 3727SOL    HW211868   2.694   1.094   3.274
 3728SOL     OW11869   2.778   0.910   2.153
 3728SOL    HW111870   2.841   0.948   2.085
 3728SOL    HW211871   2.818   0.827   2.192
 3729SOL     OW11872   3.366   1.607   1.906
 3729SOL    HW111873   3.274   1.644   1.913
 3729SOL    HW211874   3.404   1.627   1.816
 3730SOL     OW11875   2.234   1.288   3.352
 3730SOL    HW111876   2.221   1.381   3.318
 3730SOL    HW211877   2.150   1.236   3.339
 3731SOL     OW11878   3.476   1.292   3.151
 3731SOL    HW111879   3.536   1.295   3.231
 3731SOL    HW211880   3.401   1.356   3.164
 3732SOL     OW11881   2.901   1.098   2.558
 3732SOL    HW111882   2.831   1.051   2.612
 3732SOL    HW211883   2.960   1.030   2.515
 3733SOL     OW11884   2.876   0.236   2.833
 3733SOL    HW111885   2.868   0.200   2.740
 3733SOL    HW211886   2.874   0.160   2.898
 3734SOL     OW11887   2.452   1.487   2.353
 3734SOL    HW111888   2.494   1.429   2.283
 3734SOL    HW211889   2.408   1.566   2.309
 3735SOL     OW11890   3.571   0.385   3.243
 3735SOL    HW111891   3.644   0.454   3.247
 3735SOL    HW211892   3.599   0.310   3.184
 3736SOL     OW11893   2.117   1.348   2.152
 3736SOL    HW111894   2.021   1.349   2.125
 3736SOL    HW211895   2.129   1.401   2.236
 3737SOL     OW11896   1.967   1.013   3.588
 3737SOL    HW111897   1.890   0.980   3.642
 3737SOL    HW211898   2.052   0.983   3.630
 3738SOL     OW11899   2.534   0.203   3.351
 3738SOL    HW111900   2.624   0.187   3.311
 3738SOL    HW211901   2.542   0.208   3.450
 3739SOL     OW11902   1.937   0.345   1.895
 3739SOL    HW111903   1.845   0.317   1.866
 3739SOL    HW211904   1.968   0.422   1.839
 3740SOL     OW11905   3.302   0.856   3.260
 3740SOL    HW111906   3.245   0.908   3.197
 3740SOL    HW211907   3.398   0.868   3.236
 3741SOL     OW11908   1.934   0.166   2.180
 3741SOL    HW111909   1.917   0.249   2.126
 3741SOL    HW211910   2.024   0.129   2.158
 3742SOL     OW11911   3.045   1.335   1.981
 3742SOL    HW111912   2.946   1.324   1.983
 3742SOL    HW211913   3.079   1.350   2.074
 3743SOL     OW11914   2.475   0.842   3.293
 3743SOL    HW111915   2.531   0.923   3.276
 3743SOL    HW211916   2.534   0.762   3.296
 3744SOL     OW11917   3.355   1.767   2.821
 3744SOL    HW111918   3.388   1.831   2.752
 3744SOL    HW211919   3.421   1.761   2.896
 3745SOL     OW11920   2.578   0.565   3.570
 3745SOL    HW111921   2.597   0.630   3.644
 3745SOL    HW211922   2.638   0.485   3.579
 3746SOL     OW11923   3.312   1.220   3.495
 3746SOL    HW111924   3.303   1.210   3.594
 3746SOL    HW211925   3.408   1.213   3.469
 3747SOL     OW11926   2.252   1.741   3.422
 3747SOL    HW111927   2.161   1.782   3.420
 3747SOL    HW211928   2.245   1.647   3.454
 3748SOL     OW11929   3.536   0.883   3.116
 3748SOL    HW111930   3.509   0.794   3.079
 3748SOL    HW211931   3.537   0.951   3.043
 3749SOL     OW11932   3.087   0.325   2.311
 3749SOL    HW111933   3.152   0.251   2.300
 3749SOL    HW211934   3.107   0.375   2.395
 3750SOL     OW11935   2.456   0.745   2.514
 3750SOL    HW111936   2.506   0.830   2.495
 3750SOL    HW211937   2.368   0.747   2.466
 3751SOL     OW11938   3.639   0.342   3.504
 3751SOL    HW111939   3.622   0.373   3.410
 3751SOL    HW211940   3.555   0.305   3.542
 3752SOL     OW11941   3.592   0.934   3.379
 3752SOL    HW111942   3.630   1.025   3.394
 3752SOL    HW211943   3.584   0.917   3.280
 3753SOL     OW11944   2.721   1.374   1.878
 3753SOL    HW111945   2.675   1.389   1.966
 3753SOL    HW211946   2.765   1.459   1.848
 3754SOL     OW11947   2.523   1.790   2.815
 3754SOL    HW111948   2.477   1.878   2.802
 3754SOL    HW211949   2.622   1.802   2.808
 3755SOL     OW11950   2.721   0.956   2.723
 3755SOL    HW111951   2.775   0.887   2.771
 3755SOL    HW211952   2.689   1.025   2.789
 3756SOL     OW11953   2.945   0.984   1.949
 3756SOL    HW111954   2.922   1.037   1.867
 3756SOL    HW211955   3.026   0.928   1.930
 3757SOL     OW11956   3.723   1.569   2.713
 3757SOL    HW111957   3.652   1.557   2.643
 3757SOL    HW211958   3.724   1.490   2.773
 3758SOL     OW11959   2.083   1.314   3.706
 3758SOL    HW111960   2.018   1.241   3.685
 3758SOL    HW211961   2.087   1.328   3.804
 3759SOL     OW11962   1.941   1.240   2.515
 3759SOL    HW111963   1.940   1.193   2.603
 3759SOL    HW211964   2.023   1.212   2.464
 3760SOL     OW11965   2.534   1.391   3.486
 3760SOL    HW111966   2.456   1.341   3.524
 3760SOL    HW211967   2.531   1.486   3.517
 3761SOL     OW11968   3.686   0.192   3.089
 3761SOL    HW111969   3.682   0.102   3.133
 3761SOL    HW211970   3.689   0.181   2.990
 3762SOL     OW11971   2.290   0.424   2.382
 3762SOL    HW111972   2.320   0.352   2.320
 3762SOL    HW211973   2.251   0.384   2.465
 3763SOL     OW11974   3.567   1.487   2.966
 3763SOL    HW111975   3.474   1.462   2.939
 3763SOL    HW211976   3.593   1.437   3.048
 3764SOL     OW11977   2.179   0.547   3.142
 3764SOL    HW111978   2.217   0.488   3.214
 3764SOL    HW211979   2.219   0.521   3.054
 3765SOL     OW11980   2.674   1.586   2.549
 3765SOL    HW111981   2.706   1.596   2.455
 3765SOL    HW211982   2.595   1.524   2.551
 3766SOL     OW11983   3.286   0.214   2.974
 3766SOL    HW111984   3.338   0.149   3.029
 3766SOL    HW211985   3.237   0.277   3.035
 3767SOL     OW11986   2.863   0.034   3.016
 3767SOL    HW111987   2.800  -0.038   2.985
 3767SOL    HW211988   2.956  -0.002   3.016
 3768SOL     OW11989   2.632   1.330   2.163
 3768SOL    HW111990   2.586   1.243   2.180
 3768SOL    HW211991   2.723   1.327   2.204
 3769SOL     OW11992   2.480   1.567   3.146
 3769SOL    HW111993   2.475   1.649   3.203
 3769SOL    HW211994   2.569   1.564   3.101
 3770SOL     OW11995   3.214   0.052   2.030
 3770SOL    HW111996   3.249   0.011   1.946
 3770SOL    HW211997   3.124   0.014   2.050
 3771SOL     OW11998   3.162   0.453   2.553
 3771SOL    HW111999   3.103   0.533   2.557
 3771SOL    HW212000   3.177   0.418   2.646
 3772SOL     OW12001   3.455   0.221   2.744
 3772SOL    HW112002   3.371   0.220   2.798
 3772SOL    HW212003   3.457   0.304   2.688
 3773SOL     OW12004   1.901   1.077   2.162
 3773SOL    HW112005   2.000   1.066   2.153
 3773SOL    HW212006   1.861   0.991   2.194
 3774SOL     OW12007   2.737   1.646   2.199
 3774SOL    HW112008   2.660   1.611   2.145
 3774SOL    HW212009   2.705   1.717   2.261
 3775SOL     OW12010   2.092   0.628   3.837
 3775SOL    HW112011   1.999   0.626   3.874
 3775SOL    HW212012   2.093   0.589   3.745
 3776SOL     OW12013   2.087   0.275   4.720
 3776SOL    HW112014   2.122   0.258   4.812
 3776SOL    HW212015   1.999   0.230   4.708
 3777SOL     OW12016   1.881   0.368   4.371
 3777SOL    HW112017   1.799   0.411   4.410
 3777SOL    HW212018   1.853   0.295   4.308
 3778SOL     OW12019   2.431   1.275   4.889
 3778SOL    HW112020   2.338   1.268   4.852
 3778SOL    HW212021   2.442   1.364   4.933
 3779SOL     OW12022   3.417   1.511   4.427
 3779SOL    HW112023   3.360   1.495   4.508
 3779SOL    HW212024   3.358   1.521   4.347
 3780SOL     OW12025   2.997   0.703   4.441
 3780SOL    HW112026   3.054   0.781   4.416
 3780SOL    HW212027   2.937   0.729   4.517
 3781SOL     OW12028   3.617   0.607   3.955
 3781SOL    HW112029   3.605   0.594   3.856
 3781SOL    HW212030   3.587   0.526   4.004
 3782SOL     OW12031   2.630   1.144   4.747
 3782SOL    HW112032   2.552   1.161   4.807
 3782SOL    HW212033   2.664   1.231   4.711
 3783SOL     OW12034   2.712   0.798   5.547
 3783SOL    HW112035   2.708   0.874   5.612
 3783SOL    HW212036   2.734   0.834   5.456
 3784SOL     OW12037   2.547   1.012   4.389
 3784SOL    HW112038   2.616   0.996   4.459
 3784SOL    HW212039   2.474   1.069   4.427
 3785SOL     OW12040   2.548   1.161   5.527
 3785SOL    HW112041   2.608   1.240   5.541
 3785SOL    HW212042   2.462   1.192   5.486
 3786SOL     OW12043   2.197   1.435   4.785
 3786SOL    HW112044   2.119   1.404   4.732
 3786SOL    HW212045   2.255   1.493   4.728
 3787SOL     OW12046   3.322   1.505   5.063
 3787SOL    HW112047   3.346   1.599   5.089
 3787SOL    HW212048   3.306   1.451   5.145
 3788SOL     OW12049   2.300   0.392   5.223
 3788SOL    HW112050   2.382   0.336   5.232
 3788SOL    HW212051   2.219   0.334   5.227
 3789SOL     OW12052   3.465   0.447   4.461
 3789SOL    HW112053   3.391   0.493   4.411
 3789SOL    HW212054   3.516   0.515   4.514
 3790SOL     OW12055   2.093   1.713   4.207
 3790SOL    HW112056   2.127   1.790   4.261
 3790SOL    HW212057   2.137   1.713   4.117
 3791SOL     OW12058   2.989   1.341   5.414
 3791SOL    HW112059   3.036   1.341   5.502
 3791SOL    HW212060   2.941   1.254   5.403
 3792SOL     OW12061   2.092   1.434   4.262
 3792SOL    HW112062   2.066   1.530   4.262
 3792SOL    HW212063   2.021   1.380   4.307
 3793SOL     OW12064   2.102   1.091   4.610
 3793SOL    HW112065   2.116   1.007   4.662
 3793SOL    HW212066   2.047   1.155   4.665
 3794SOL     OW12067   2.482   1.786   5.163
 3794SOL    HW112068   2.390   1.769   5.198
 3794SOL    HW212069   2.510   1.878   5.189
 3795SOL     OW12070   2.468   0.964   3.847
 3795SOL    HW112071   2.475   1.048   3.793
 3795SOL    HW212072   2.514   0.977   3.935
 3796SOL     OW12073   3.456   0.114   5.204
 3796SOL    HW112074   3.438   0.181   5.132
 3796SOL    HW212075   3.453   0.160   5.293
 3797SOL     OW12076   1.984   0.643   4.287
 3797SOL    HW112077   1.939   0.555   4.304
 3797SOL    HW212078   1.983   0.697   4.371
 3798SOL     OW12079   3.704   1.767   4.083
 3798SOL    HW112080   3.758   1.738   4.163
 3798SOL    HW212081   3.734   1.857   4.054
 3799SOL     OW12082   1.889   1.596   3.841
 3799SOL    HW112083   1.870   1.500   3.862
 3799SOL    HW212084   1.856   1.654   3.916
 3800SOL     OW12085   3.551   0.922   4.336
 3800SOL    HW112086   3.646   0.893   4.344
 3800SOL    HW212087   3.543   0.987   4.261
 3801SOL     OW12088   3.503   1.108   4.156
 3801SOL    HW112089   3.589   1.110   4.104
 3801SOL    HW212090   3.517   1.155   4.244
 3802SOL     OW12091   1.975   0.737   5.321
 3802SOL    HW112092   2.063   0.724   5.366
 3802SOL    HW212093   1.962   0.834   5.299
 3803SOL     OW12094   2.475   1.365   4.450
 3803SOL    HW112095   2.426   1.278   4.459
 3803SOL    HW212096   2.452   1.408   4.363
 3804SOL     OW12097   3.155   1.228   5.147
 3804SOL    HW112098   3.192   1.155   5.089
 3804SOL    HW212099   3.207   1.233   5.232
 3805SOL     OW12100   2.671   0.004   4.226
 3805SOL    HW112101   2.711   0.095   4.217
 3805SOL    HW212102   2.571   0.012   4.232
 3806SOL     OW12103   2.059   0.976   4.988
 3806SOL    HW112104   2.148   0.931   4.974
 3806SOL    HW212105   1.986   0.911   4.969
 3807SOL     OW12106   3.387   0.999   3.914
 3807SOL    HW112107   3.324   0.923   3.927
 3807SOL    HW212108   3.435   1.017   4.000
 3808SOL     OW12109   3.049   1.792   5.340
 3808SOL    HW112110   3.073   1.852   5.264
 3808SOL    HW212111   3.056   1.697   5.310
 3809SOL     OW12112   2.179   0.251   5.525
 3809SOL    HW112113   2.250   0.322   5.531
 3809SOL    HW212114   2.091   0.290   5.553
 3810SOL     OW12115   3.328   1.417   4.677
 3810SOL    HW112116   3.269   1.423   4.757
 3810SOL    HW212117   3.313   1.329   4.631
 3811SOL     OW12118   3.529   1.714   4.296
 3811SOL    HW112119   3.488   1.691   4.208
 3811SOL    HW212120   3.511   1.640   4.361
 3812SOL     OW12121   2.460   0.729   3.994
 3812SOL    HW112122   2.484   0.798   3.926
 3812SOL    HW212123   2.382   0.762   4.048
 3813SOL     OW12124   3.143   0.345   4.668
 3813SOL    HW112125   3.057   0.295   4.655
 3813SOL    HW212126   3.205   0.291   4.724
 3814SOL     OW12127   3.438   1.662   4.031
 3814SOL    HW112128   3.527   1.708   4.034
 3814SOL    HW212129   3.417   1.638   3.936
 3815SOL     OW12130   2.669   0.605   5.189
 3815SOL    HW112131   2.622   0.602   5.278
 3815SOL    HW212132   2.618   0.550   5.123
 3816SOL     OW12133   3.256   0.469   5.398
 3816SOL    HW112134   3.236   0.512   5.486
 3816SOL    HW212135   3.334   0.407   5.407
 3817SOL     OW12136   2.835   0.890   5.296
 3817SOL    HW112137   2.881   0.806   5.267
 3817SOL    HW212138   2.779   0.924   5.221
 3818SOL     OW12139   2.853   0.410   4.966
 3818SOL    HW112140   2.776   0.444   5.020
 3818SOL    HW212141   2.819   0.359   4.887
 3819SOL     OW12142   2.903   0.701   4.153
 3819SOL    HW112143   2.929   0.697   4.249
 3819SOL    HW212144   2.818   0.650   4.139
 3820SOL     OW12145   1.938   0.811   4.513
 3820SOL    HW112146   2.037   0.799   4.522
 3820SOL    HW212147   1.914   0.906   4.534
 3821SOL     OW12148   2.727   0.348   3.919
 3821SOL    HW112149   2.786   0.411   3.870
 3821SOL    HW212150   2.746   0.254   3.890
 3822SOL     OW12151   3.581   0.585   5.555
 3822SOL    HW112152   3.555   0.674   5.519
 3822SOL    HW212153   3.579   0.517   5.482
 3823SOL     OW12154   3.224   1.144   4.269
 3823SOL    HW112155   3.307   1.115   4.221
 3823SOL    HW212156   3.175   1.211   4.213
 3824SOL     OW12157   2.412   0.196   4.609
 3824SOL    HW112158   2.407   0.191   4.709
 3824SOL    HW212159   2.414   0.292   4.580
 3825SOL     OW12160   2.870   1.456   4.201
 3825SOL    HW112161   2.824   1.528   4.149
 3825SOL    HW212162   2.866   1.476   4.299
 3826SOL     OW12163   2.213   1.801   4.577
 3826SOL    HW112164   2.263   1.715   4.583
 3826SOL    HW212165   2.278   1.878   4.574
 3827SOL     OW12166   3.657   1.066   4.597
 3827SOL    HW112167   3.595   1.051   4.521
 3827SOL    HW212168   3.605   1.077   4.682
 3828SOL     OW12169   3.089   1.550   5.230
 3828SOL    HW112170   3.095   1.473   5.294
 3828SOL    HW212171   3.037   1.524   5.150
 3829SOL     OW12172   2.183   0.943   3.966
 3829SOL    HW112173   2.265   0.982   3.924
 3829SOL    HW212174   2.156   0.861   3.917
 3830SOL     OW12175   3.320   0.735   4.452
 3830SOL    HW112176   3.315   0.670   4.527
 3830SOL    HW212177   3.400   0.794   4.465
 3831SOL     OW12178   2.323   1.266   5.451
 3831SOL    HW112179   2.273   1.267   5.365
 3831SOL    HW212180   2.260   1.248   5.527
 3832SOL     OW12181   2.973   1.776   3.961
 3832SOL    HW112182   2.913   1.714   4.011
 3832SOL    HW212183   3.004   1.732   3.876
 3833SOL     OW12184   2.064   0.285   5.222
 3833SOL    HW112185   1.984   0.345   5.209
 3833SOL    HW212186   2.054   0.236   5.308
 3834SOL     OW12187   3.494   1.377   3.805
 3834SOL    HW112188   3.462   1.471   3.795
 3834SOL    HW212189   3.418   1.314   3.793
 3835SOL     OW12190   2.326   1.743   4.047
 3835SOL    HW112191   2.359   1.782   4.133
 3835SOL    HW212192   2.402   1.736   3.982
 3836SOL     OW12193   3.262   0.107   4.150
 3836SOL    HW112194   3.238   0.070   4.060
 3836SOL    HW212195   3.361   0.123   4.154
 3837SOL     OW12196   2.111   1.785   4.965
 3837SOL    HW112197   2.168   1.720   5.015
 3837SOL    HW212198   2.095   1.752   4.872
 3838SOL     OW12199   2.802   1.698   4.628
 3838SOL    HW112200   2.882   1.641   4.649
 3838SOL    HW212201   2.753   1.658   4.551
 3839SOL     OW12202   2.244   0.700   4.204
 3839SOL    HW112203   2.289   0.610   4.201
 3839SOL    HW212204   2.150   0.689   4.237
 3840SOL     OW12205   3.409   0.222   5.453
 3840SOL    HW112206   3.404   0.259   5.545
 3840SOL    HW212207   3.337   0.153   5.441
 3841SOL     OW12208   2.476   0.122   3.841
 3841SOL    HW112209   2.574   0.100   3.848
 3841SOL    HW212210   2.445   0.105   3.748
 3842SOL     OW12211   2.643   0.264   5.473
 3842SOL    HW112212   2.710   0.203   5.516
 3842SOL    HW212213   2.570   0.283   5.538
 3843SOL     OW12214   2.750   1.514   4.919
 3843SOL    HW112215   2.727   1.489   4.825
 3843SOL    HW212216   2.811   1.445   4.958
 3844SOL     OW12217   3.213   0.590   5.157
 3844SOL    HW112218   3.241   0.547   5.242
 3844SOL    HW212219   3.238   0.686   5.158
 3845SOL     OW12220   2.665   1.402   4.648
 3845SOL    HW112221   2.755   1.416   4.606
 3845SOL    HW212222   2.594   1.404   4.577
 3846SOL     OW12223   2.784   0.503   4.623
 3846SOL    HW112224   2.759   0.494   4.527
 3846SOL    HW212225   2.832   0.421   4.654
 3847SOL     OW12226   2.401   0.064   4.236
 3847SOL    HW112227   2.320   0.065   4.294
 3847SOL    HW212228   2.404   0.147   4.181
 3848SOL     OW12229   3.296   1.188   3.765
 3848SOL    HW112230   3.328   1.112   3.822
 3848SOL    HW212231   3.204   1.215   3.795
 3849SOL     OW12232   2.159   0.035   3.895
 3849SOL    HW112233   2.208   0.119   3.874
 3849SOL    HW212234   2.221  -0.030   3.940
 3850SOL     OW12235   2.797   0.236   4.204
 3850SOL    HW112236   2.749   0.277   4.126
 3850SOL    HW212237   2.896   0.234   4.185
 3851SOL     OW12238   2.938   0.683   5.188
 3851SOL    HW112239   2.858   0.622   5.191
 3851SOL    HW212240   3.019   0.630   5.164
 3852SOL     OW12241   3.089   1.570   4.517
 3852SOL    HW112242   3.110   1.644   4.452
 3852SOL    HW212243   3.157   1.570   4.590
 3853SOL     OW12244   2.321   1.152   4.465
 3853SOL    HW112245   2.250   1.125   4.530
 3853SOL    HW212246   2.295   1.124   4.372
 3854SOL     OW12247   3.133   1.797   4.315
 3854SOL    HW112248   3.177   1.861   4.251
 3854SOL    HW212249   3.083   1.849   4.385
 3855SOL     OW12250   2.894   0.549   3.740
 3855SOL    HW112251   2.853   0.631   3.701
 3855SOL    HW212252   2.958   0.575   3.813
 3856SOL     OW12253   1.940   0.556   5.110
 3856SOL    HW112254   2.032   0.555   5.069
 3856SOL    HW212255   1.934   0.630   5.177
 3857SOL     OW12256   2.423   0.222   4.871
 3857SOL    HW112257   2.461   0.138   4.908
 3857SOL    HW212258   2.335   0.241   4.915
 3858SOL     OW12259   2.728   0.454   4.366
 3858SOL    HW112260   2.696   0.526   4.304
 3858SOL    HW212261   2.752   0.373   4.313
 3859SOL     OW12262   2.879   0.039   4.477
 3859SOL    HW112263   2.807   0.044   4.408
 3859SOL    HW212264   2.855  -0.030   4.546
 3860SOL     OW12265   3.291   1.173   4.591
 3860SOL    HW112266   3.236   1.089   4.584
 3860SOL    HW212267   3.317   1.202   4.499
 3861SOL     OW12268   3.328   0.590   4.716
 3861SOL    HW112269   3.298   0.495   4.723
 3861SOL    HW212270   3.401   0.606   4.782
 3862SOL     OW12271   3.719   0.833   4.101
 3862SOL    HW112272   3.761   0.769   4.165
 3862SOL    HW212273   3.681   0.782   4.023
 3863SOL     OW12274   2.350   1.385   3.898
 3863SOL    HW112275   2.263   1.370   3.945
 3863SOL    HW212276   2.333   1.411   3.803
 3864SOL     OW12277   3.526   1.280   4.381
 3864SOL    HW112278   3.625   1.288   4.395
 3864SOL    HW212279   3.481   1.364   4.412
 3865SOL     OW12280   3.252   0.575   3.802
 3865SOL    HW112281   3.198   0.554   3.883
 3865SOL    HW212282   3.343   0.534   3.811
 3866SOL     OW12283   2.389   0.256   4.052
 3866SOL    HW112284   2.416   0.197   3.977
 3866SOL    HW212285   2.389   0.351   4.021
 3867SOL     OW12286   3.616   1.223   5.312
 3867SOL    HW112287   3.707   1.184   5.299
 3867SOL    HW212288   3.624   1.319   5.336
 3868SOL     OW12289   2.926   1.347   5.064
 3868SOL    HW112290   2.846   1.324   5.119
 3868SOL    HW212291   3.009   1.321   5.113
 3869SOL     OW12292   3.454   1.629   5.349
 3869SOL    HW112293   3.481   1.663   5.259
 3869SOL    HW212294   3.533   1.591   5.395
 3870SOL     OW12295   2.973   1.195   4.824
 3870SOL    HW112296   2.933   1.239   4.905
 3870SOL    HW212297   2.932   1.232   4.741
 3871SOL     OW12298   3.500   1.099   4.803
 3871SOL    HW112299   3.505   1.180   4.862
 3871SOL    HW212300   3.414   1.101   4.752
 3872SOL     OW12301   2.777   0.089   5.126
 3872SOL    HW112302   2.802   0.069   5.031
 3872SOL    HW212303   2.849   0.145   5.168
 3873SOL     OW12304   2.842   1.116   5.443
 3873SOL    HW112305   2.743   1.122   5.453
 3873SOL    HW212306   2.865   1.036   5.387
 3874SOL     OW12307   2.567   1.050   4.092
 3874SOL    HW112308   2.553   1.057   4.191
 3874SOL    HW212309   2.651   0.999   4.074
 3875SOL     OW12310   2.272   0.813   4.975
 3875SOL    HW112311   2.358   0.825   5.025
 3875SOL    HW212312   2.230   0.726   5.002
 3876SOL     OW12313   3.136   0.386   4.986
 3876SOL    HW112314   3.157   0.460   5.050
 3876SOL    HW212315   3.047   0.403   4.943
 3877SOL     OW12316   1.926   1.564   5.055
 3877SOL    HW112317   1.880   1.646   5.021
 3877SOL    HW212318   2.024   1.583   5.064
 3878SOL     OW12319   2.229   1.100   4.225
 3878SOL    HW112320   2.222   1.183   4.169
 3878SOL    HW212321   2.233   1.020   4.165
 3879SOL     OW12322   2.428   0.537   4.589
 3879SOL    HW112323   2.440   0.603   4.515
 3879SOL    HW212324   2.474   0.571   4.672
 3880SOL     OW12325   3.114   1.348   4.112
 3880SOL    HW112326   3.164   1.425   4.152
 3880SOL    HW212327   3.019   1.350   4.144
 3881SOL     OW12328   3.134   1.445   4.866
 3881SOL    HW112329   3.181   1.458   4.953
 3881SOL    HW212330   3.068   1.371   4.875
 3882SOL     OW12331   3.444   0.639   4.196
 3882SOL    HW112332   3.413   0.700   4.269
 3882SOL    HW212333   3.494   0.691   4.127
 3883SOL     OW12334   2.216   1.510   5.053
 3883SOL    HW112335   2.195   1.466   4.966
 3883SOL    HW212336   2.313   1.536   5.056
 3884SOL     OW12337   2.264   0.751   5.322
 3884SOL    HW112338   2.332   0.806   5.275
 3884SOL    HW212339   2.304   0.663   5.349
 3885SOL     OW12340   3.449   0.779   5.394
 3885SOL    HW112341   3.357   0.817   5.389
 3885SOL    HW212342   3.509   0.826   5.329
 3886SOL     OW12343   2.875   0.105   5.494
 3886SOL    HW112344   2.881   0.190   5.442
 3886SOL    HW212345   2.907   0.029   5.437
 3887SOL     OW12346   2.366   0.050   5.464
 3887SOL    HW112347   2.324  -0.007   5.394
 3887SOL    HW212348   2.300   0.119   5.496
 3888SOL     OW12349   2.435   0.870   4.753
 3888SOL    HW112350   2.479   0.959   4.744
 3888SOL    HW212351   2.372   0.870   4.830
 3889SOL     OW12352   3.222   0.862   4.769
 3889SOL    HW112353   3.147   0.862   4.703
 3889SOL    HW212354   3.259   0.770   4.778
 3890SOL     OW12355   3.071   0.525   3.999
 3890SOL    HW112356   3.084   0.441   4.053
 3890SOL    HW212357   3.042   0.599   4.059
 3891SOL     OW12358   2.169   0.213   4.955
 3891SOL    HW112359   2.146   0.250   5.045
 3891SOL    HW212360   2.139   0.118   4.949
 3892SOL     OW12361   1.899   1.310   5.006
 3892SOL    HW112362   1.952   1.261   5.074
 3892SOL    HW212363   1.921   1.408   5.011
 3893SOL     OW12364   2.594   0.634   4.788
 3893SOL    HW112365   2.653   0.608   4.712
 3893SOL    HW212366   2.566   0.730   4.777
 3894SOL     OW12367   3.590   0.935   5.578
 3894SOL    HW112368   3.544   0.928   5.489
 3894SOL    HW212369   3.528   0.979   5.644
 3895SOL     OW12370   2.169   0.063   4.342
 3895SOL    HW112371   2.158   0.157   4.375
 3895SOL    HW212372   2.164   0.000   4.419
 3896SOL     OW12373   3.484   0.367   4.098
 3896SOL    HW112374   3.486   0.291   4.162
 3896SOL    HW212375   3.436   0.444   4.138
 3897SOL     OW12376   2.885   0.766   4.690
 3897SOL    HW112377   2.900   0.787   4.786
 3897SOL    HW212378   2.855   0.671   4.681
 3898SOL     OW12379   2.842   1.573   5.424
 3898SOL    HW112380   2.822   1.617   5.336
 3898SOL    HW212381   2.881   1.482   5.408
 3899SOL     OW12382   3.721   1.518   5.329
 3899SOL    HW112383   3.735   1.545   5.234
 3899SOL    HW212384   3.804   1.540   5.382
 3900SOL     OW12385   2.212   0.898   5.528
 3900SOL    HW112386   2.288   0.942   5.576
 3900SOL    HW212387   2.247   0.851   5.446
 3901SOL     OW12388   3.402   0.274   3.849
 3901SOL    HW112389   3.341   0.199   3.872
 3901SOL    HW212390   3.424   0.326   3.932
 3902SOL     OW12391   3.165   0.838   3.766
 3902SOL    HW112392   3.199   0.745   3.781
 3902SOL    HW212393   3.183   0.865   3.671
 3903SOL     OW12394   2.930   1.333   4.573
 3903SOL    HW112395   2.937   1.249   4.518
 3903SOL    HW212396   2.992   1.402   4.537
 3904SOL     OW12397   2.181   0.810   4.673
 3904SOL    HW112398   2.274   0.846   4.678
 3904SOL    HW212399   2.175   0.725   4.725
 3905SOL     OW12400   2.201   0.509   4.730
 3905SOL    HW112401   2.149   0.426   4.713
 3905SOL    HW212402   2.278   0.514   4.666
 3906SOL     OW12403   3.000   0.380   5.402
 3906SOL    HW112404   2.955   0.443   5.466
 3906SOL    HW212405   3.093   0.411   5.385
 3907SOL     OW12406   3.022   0.207   5.201
 3907SOL    HW112407   3.022   0.271   5.278
 3907SOL    HW212408   3.050   0.255   5.118
 3908SOL     OW12409   1.870   1.326   3.924
 3908SOL    HW112410   1.777   1.347   3.893
 3908SOL    HW212411   1.880   1.227   3.937
 3909SOL     OW12412   1.950   1.801   4.651
 3909SOL    HW112413   1.908   1.715   4.624
 3909SOL    HW212414   2.044   1.804   4.617
 3910SOL     OW12415   2.366   1.568   4.634
 3910SOL    HW112416   2.432   1.642   4.643
 3910SOL    HW212417   2.410   1.489   4.592
 3911SOL     OW12418   2.864   0.796   4.962
 3911SOL    HW112419   2.905   0.764   5.048
 3911SOL    HW212420   2.768   0.769   4.959
 3912SOL     OW12421   1.902   0.544   4.838
 3912SOL    HW112422   1.987   0.511   4.797
 3912SOL    HW212423   1.915   0.559   4.936
 3913SOL     OW12424   2.051   0.520   5.446
 3913SOL    HW112425   2.110   0.480   5.376
 3913SOL    HW212426   1.993   0.591   5.405
 3914SOL     OW12427   3.231   0.950   5.384
 3914SOL    HW112428   3.270   1.039   5.404
 3914SOL    HW212429   3.241   0.930   5.287
 3915SOL     OW12430   2.677   0.572   4.049
 3915SOL    HW112431   2.684   0.483   4.003
 3915SOL    HW212432   2.583   0.606   4.041
 3916SOL     OW12433   3.519   0.604   4.930
 3916SOL    HW112434   3.481   0.535   4.992
 3916SOL    HW212435   3.601   0.568   4.886
 3917SOL     OW12436   2.114   1.564   5.468
 3917SOL    HW112437   2.084   1.621   5.544
 3917SOL    HW212438   2.107   1.467   5.494
 3918SOL     OW12439   2.533   0.464   4.993
 3918SOL    HW112440   2.499   0.375   4.963
 3918SOL    HW212441   2.559   0.518   4.913
 3919SOL     OW12442   2.792   1.678   5.189
 3919SOL    HW112443   2.768   1.660   5.094
 3919SOL    HW212444   2.822   1.772   5.199
 3920SOL     OW12445   2.335   0.500   3.915
 3920SOL    HW112446   2.396   0.580   3.919
 3920SOL    HW212447   2.240   0.531   3.922
 3921SOL     OW12448   2.021   1.137   5.190
 3921SOL    HW112449   2.043   1.076   5.266
 3921SOL    HW212450   2.031   1.088   5.104
 3922SOL     OW12451   3.209   1.059   4.958
 3922SOL    HW112452   3.233   0.996   4.884
 3922SOL    HW212453   3.119   1.099   4.940
 3923SOL     OW12454   3.164   0.855   4.033
 3923SOL    HW112455   3.078   0.824   4.075
 3923SOL    HW212456   3.160   0.841   3.934
 3924SOL     OW12457   3.621   1.747   4.878
 3924SOL    HW112458   3.682   1.777   4.805
 3924SOL    HW212459   3.583   1.658   4.856
 3925SOL     OW12460   3.114   1.731   4.852
 3925SOL    HW112461   3.198   1.736   4.798
 3925SOL    HW212462   3.091   1.635   4.870
 3926SOL     OW12463   1.945   1.258   4.746
 3926SOL    HW112464   1.940   1.257   4.846
 3926SOL    HW212465   1.862   1.217   4.708
 3927SOL     OW12466   2.550   1.662   5.440
 3927SOL    HW112467   2.494   1.743   5.449
 3927SOL    HW212468   2.602   1.666   5.354
 3928SOL     OW12469   3.588   0.135   4.247
 3928SOL    HW112470   3.661   0.118   4.180
 3928SOL    HW212471   3.557   0.048   4.285
 3929SOL     OW12472   3.250   1.573   4.201
 3929SOL    HW112473   3.317   1.585   4.127
 3929SOL    HW212474   3.210   1.662   4.224
 3930SOL     OW12475   1.992   1.794   5.575
 3930SOL    HW112476   1.951   1.720   5.628
 3930SOL    HW212477   2.056   1.845   5.633
 3931SOL     OW12478   3.142   0.927   4.396
 3931SOL    HW112479   3.202   0.846   4.398
 3931SOL    HW212480   3.182   0.996   4.336
 3932SOL     OW12481   2.692   1.273   5.146
 3932SOL    HW112482   2.687   1.306   5.241
 3932SOL    HW212483   2.606   1.292   5.100
 3933SOL     OW12484   2.534   1.616   3.878
 3933SOL    HW112485   2.543   1.626   3.779
 3933SOL    HW212486   2.494   1.527   3.899
 3934SOL     OW12487   3.512   1.720   5.118
 3934SOL    HW112488   3.565   1.730   5.034
 3934SOL    HW212489   3.485   1.810   5.152
 3935SOL     OW12490   3.703   0.175   4.687
 3935SOL    HW112491   3.742   0.090   4.651
 3935SOL    HW212492   3.605   0.177   4.668
 3936SOL     OW12493   2.125   0.326   4.444
 3936SOL    HW112494   2.046   0.377   4.410
 3936SOL    HW212495   2.116   0.311   4.542
 3937SOL     OW12496   3.056   1.612   3.755
 3937SOL    HW112497   3.062   1.519   3.792
 3937SOL    HW212498   2.997   1.612   3.675
 3938SOL     OW12499   2.684   1.002   5.096
 3938SOL    HW112500   2.724   1.001   5.004
 3938SOL    HW212501   2.694   1.094   5.136
 3939SOL     OW12502   2.778   0.910   4.015
 3939SOL    HW112503   2.841   0.948   3.947
 3939SOL    HW212504   2.818   0.827   4.054
 3940SOL     OW12505   3.366   1.607   3.768
 3940SOL    HW112506   3.274   1.644   3.775
 3940SOL    HW212507   3.404   1.627   3.678
 3941SOL     OW12508   2.234   1.288   5.214
 3941SOL    HW112509   2.221   1.381   5.180
 3941SOL    HW212510   2.150   1.236   5.201
 3942SOL     OW12511   3.476   1.292   5.013
 3942SOL    HW112512   3.536   1.295   5.093
 3942SOL    HW212513   3.401   1.356   5.026
 3943SOL     OW12514   2.901   1.098   4.420
 3943SOL    HW112515   2.831   1.051   4.474
 3943SOL    HW212516   2.960   1.030   4.377
 3944SOL     OW12517   2.876   0.236   4.695
 3944SOL    HW112518   2.868   0.200   4.602
 3944SOL    HW212519   2.874   0.160   4.760
 3945SOL     OW12520   2.452   1.487   4.215
 3945SOL    HW112521   2.494   1.429   4.145
 3945SOL    HW212522   2.408   1.566   4.171
 3946SOL     OW12523   3.571   0.385   5.105
 3946SOL    HW112524   3.644   0.454   5.109
 3946SOL    HW212525   3.599   0.310   5.046
 3947SOL     OW12526   2.117   1.348   4.014
 3947SOL    HW112527   2.021   1.349   3.987
 3947SOL    HW212528   2.129   1.401   4.098
 3948SOL     OW12529   1.967   1.013   5.450
 3948SOL    HW112530   1.890   0.980   5.504
 3948SOL    HW212531   2.052   0.983   5.492
 3949SOL     OW12532   2.534   0.203   5.213
 3949SOL    HW112533   2.624   0.187   5.173
 3949SOL    HW212534   2.542   0.208   5.312
 3950SOL     OW12535   1.937   0.345   3.757
 3950SOL    HW112536   1.845   0.317   3.728
 3950SOL    HW212537   1.968   0.422   3.701
 3951SOL     OW12538   3.302   0.856   5.122
 3951SOL    HW112539   3.245   0.908   5.059
 3951SOL    HW212540   3.398   0.868   5.098
 3952SOL     OW12541   1.934   0.166   4.042
 3952SOL    HW112542   1.917   0.249   3.988
 3952SOL    HW212543   2.024   0.129   4.020
 3953SOL     OW12544   3.045   1.335   3.843
 3953SOL    HW112545   2.946   1.324   3.845
 3953SOL    HW212546   3.079   1.350   3.936
 3954SOL     OW12547   2.475   0.842   5.155
 3954SOL    HW112548   2.531   0.923   5.138
 3954SOL    HW212549   2.534   0.762   5.158
 3955SOL     OW12550   3.355   1.767   4.683
 3955SOL    HW112551   3.388   1.831   4.614
 3955SOL    HW212552   3.421   1.761   4.758
 3956SOL     OW12553   2.578   0.565   5.432
 3956SOL    HW112554   2.597   0.630   5.506
 3956SOL    HW212555   2.638   0.485   5.441
 3957SOL     OW12556   3.312   1.220   5.357
 3957SOL    HW112557   3.303   1.210   5.456
 3957SOL    HW212558   3.408   1.213   5.331
 3958SOL     OW12559   2.252   1.741   5.284
 3958SOL    HW112560   2.161   1.782   5.282
 3958SOL    HW212561   2.245   1.647   5.316
 3959SOL     OW12562   3.536   0.883   4.978
 3959SOL    HW112563   3.509   0.794   4.941
 3959SOL    HW212564   3.537   0.951   4.905
 3960SOL     OW12565   3.087   0.325   4.173
 3960SOL    HW112566   3.152   0.251   4.162
 3960SOL    HW212567   3.107   0.375   4.257
 3961SOL     OW12568   2.456   0.745   4.376
 3961SOL    HW112569   2.506   0.830   4.357
 3961SOL    HW212570   2.368   0.747   4.328
 3962SOL     OW12571   3.639   0.342   5.366
 3962SOL    HW112572   3.622   0.373   5.272
 3962SOL    HW212573   3.555   0.305   5.404
 3963SOL     OW12574   3.592   0.934   5.241
 3963SOL    HW112575   3.630   1.025   5.256
 3963SOL    HW212576   3.584   0.917   5.142
 3964SOL     OW12577   2.721   1.374   3.740
 3964SOL    HW112578   2.675   1.389   3.828
 3964SOL    HW212579   2.765   1.459   3.710
 3965SOL     OW12580   2.523   1.790   4.677
 3965SOL    HW112581   2.477   1.878   4.664
 3965SOL    HW212582   2.622   1.802   4.670
 3966SOL     OW12583   2.721   0.956   4.585
 3966SOL    HW112584   2.775   0.887   4.633
 3966SOL    HW212585   2.689   1.025   4.651
 3967SOL     OW12586   2.945   0.984   3.811
 3967SOL    HW112587   2.922   1.037   3.729
 3967SOL    HW212588   3.026   0.928   3.792
 3968SOL     OW12589   3.723   1.569   4.575
 3968SOL    HW112590   3.652   1.557   4.505
 3968SOL    HW212591   3.724   1.490   4.635
 3969SOL     OW12592   2.083   1.314   5.568
 3969SOL    HW112593   2.018   1.241   5.547
 3969SOL    HW212594   2.087   1.328   5.666
 3970SOL     OW12595   1.941   1.240   4.377
 3970SOL    HW112596   1.940   1.193   4.465
 3970SOL    HW212597   2.023   1.212   4.326
 3971SOL     OW12598   2.534   1.391   5.348
 3971SOL    HW112599   2.456   1.341   5.386
 3971SOL    HW212600   2.531   1.486   5.379
 3972SOL     OW12601   3.686   0.192   4.951
 3972SOL    HW112602   3.682   0.102   4.995
 3972SOL    HW212603   3.689   0.181   4.852
 3973SOL     OW12604   2.290   0.424   4.244
 3973SOL    HW112605   2.320   0.352   4.182
 3973SOL    HW212606   2.251   0.384   4.327
 3974SOL     OW12607   3.567   1.487   4.828
 3974SOL    HW112608   3.474   1.462   4.801
 3974SOL    HW212609   3.593   1.437   4.910
 3975SOL     OW12610   2.179   0.547   5.004
 3975SOL    HW112611   2.217   0.488   5.076
 3975SOL    HW212612   2.219   0.521   4.916
 3976SOL     OW12613   2.674   1.586   4.411
 3976SOL    HW112614   2.706   1.596   4.317
 3976SOL    HW212615   2.595   1.524   4.413
 3977SOL     OW12616   3.286   0.214   4.836
 3977SOL    HW112617   3.338   0.149   4.891
 3977SOL    HW212618   3.237   0.277   4.897
 3978SOL     OW12619   2.863   0.034   4.878
 3978SOL    HW112620   2.800  -0.038   4.847
 3978SOL    HW212621   2.956  -0.002   4.878
 3979SOL     OW12622   2.632   1.330   4.025
 3979SOL    HW112623   2.586   1.243   4.042
 3979SOL    HW212624   2.723   1.327   4.066
 3980SOL     OW12625   2.480   1.567   5.008
 3980SOL    HW112626   2.475   1.649   5.065
 3980SOL    HW212627   2.569   1.564   4.963
 3981SOL     OW12628   3.214   0.052   3.892
 3981SOL    HW112629   3.249   0.011   3.808
 3981SOL    HW212630   3.124   0.014   3.912
 3982SOL     OW12631   3.162   0.453   4.415
 3982SOL    HW112632   3.103   0.533   4.419
 3982SOL    HW212633   3.177   0.418   4.508
 3983SOL     OW12634   3.455   0.221   4.606
 3983SOL    HW112635   3.371   0.220   4.660
 3983SOL    HW212636   3.457   0.304   4.550
 3984SOL     OW12637   1.901   1.077   4.024
 3984SOL    HW112638   2.000   1.066   4.015
 3984SOL    HW212639   1.861   0.991   4.056
 3985SOL     OW12640   2.737   1.646   4.061
 3985SOL    HW112641   2.660   1.611   4.007
 3985SOL    HW212642   2.705   1.717   4.123
 3986SOL     OW12643   2.092   0.628   5.699
 3986SOL    HW112644   1.999   0.626   5.736
 3986SOL    HW212645   2.093   0.589   5.607
 3987SOL     OW12646   2.087   0.275   6.582
 3987SOL    HW112647   2.122   0.258   6.674
 3987SOL    HW212648   1.999   0.230   6.570
 3988SOL     OW12649   1.881   0.368   6.233
 3988SOL    HW112650   1.799   0.411   6.272
 3988SOL    HW212651   1.853   0.295   6.170
 3989SOL     OW12652   2.431   1.275   6.751
 3989SOL    HW112653   2.338   1.268   6.714
 3989SOL    HW212654   2.442   1.364   6.795
 3990SOL     OW12655   3.417   1.511   6.289
 3990SOL    HW112656   3.360   1.495   6.370
 3990SOL    HW212657   3.358   1.521   6.209
 3991SOL     OW12658   2.997   0.703   6.303
 3991SOL    HW112659   3.054   0.781   6.278
 3991SOL    HW212660   2.937   0.729   6.379
 3992SOL     OW12661   3.617   0.607   5.817
 3992SOL    HW112662   3.605   0.594   5.718
 3992SOL    HW212663   3.587   0.526   5.866
 3993SOL     OW12664   2.712   0.798   7.409
 3993SOL    HW112665   2.708   0.874   7.474
 3993SOL    HW212666   2.734   0.834   7.318
 3994SOL     OW12667   2.547   1.012   6.251
 3994SOL    HW112668   2.616   0.996   6.321
 3994SOL    HW212669   2.474   1.069   6.289
 3995SOL     OW12670   3.322   1.505   6.925
 3995SOL    HW112671   3.346   1.599   6.951
 3995SOL    HW212672   3.306   1.451   7.007
 3996SOL     OW12673   2.300   0.392   7.085
 3996SOL    HW112674   2.382   0.336   7.094
 3996SOL    HW212675   2.219   0.334   7.089
 3997SOL     OW12676   3.465   0.447   6.323
 3997SOL    HW112677   3.391   0.493   6.273
 3997SOL    HW212678   3.516   0.515   6.376
 3998SOL     OW12679   2.093   1.713   6.069
 3998SOL    HW112680   2.127   1.790   6.123
 3998SOL    HW212681   2.137   1.713   5.979
 3999SOL     OW12682   2.989   1.341   7.276
 3999SOL    HW112683   3.036   1.341   7.364
 3999SOL    HW212684   2.941   1.254   7.265
 4000SOL     OW12685   2.102   1.091   6.472
 4000SOL    HW112686   2.116   1.007   6.524
 4000SOL    HW212687   2.047   1.155   6.527
 4001SOL     OW12688   2.468   0.964   5.709
 4001SOL    HW112689   2.475   1.048   5.655
 4001SOL    HW212690   2.514   0.977   5.797
 4002SOL     OW12691   3.456   0.114   7.066
 4002SOL    HW112692   3.438   0.181   6.994
 4002SOL    HW212693   3.453   0.160   7.155
 4003SOL     OW12694   1.984   0.643   6.149
 4003SOL    HW112695   1.939   0.555   6.166
 4003SOL    HW212696   1.983   0.697   6.233
 4004SOL     OW12697   3.704   1.767   5.945
 4004SOL    HW112698   3.758   1.738   6.025
 4004SOL    HW212699   3.734   1.857   5.916
 4005SOL     OW12700   1.889   1.596   5.703
 4005SOL    HW112701   1.870   1.500   5.724
 4005SOL    HW212702   1.856   1.654   5.778
 4006SOL     OW12703   3.551   0.922   6.198
 4006SOL    HW112704   3.646   0.893   6.206
 4006SOL    HW212705   3.543   0.987   6.123
 4007SOL     OW12706   3.503   1.108   6.018
 4007SOL    HW112707   3.589   1.110   5.966
 4007SOL    HW212708   3.517   1.155   6.106
 4008SOL     OW12709   1.975   0.737   7.183
 4008SOL    HW112710   2.063   0.724   7.228
 4008SOL    HW212711   1.962   0.834   7.161
 4009SOL     OW12712   3.155   1.228   7.009
 4009SOL    HW112713   3.192   1.155   6.951
 4009SOL    HW212714   3.207   1.233   7.094
 4010SOL     OW12715   2.671   0.004   6.088
 4010SOL    HW112716   2.711   0.095   6.079
 4010SOL    HW212717   2.571   0.012   6.094
 4011SOL     OW12718   2.059   0.976   6.850
 4011SOL    HW112719   2.148   0.931   6.836
 4011SOL    HW212720   1.986   0.911   6.831
 4012SOL     OW12721   3.387   0.999   5.776
 4012SOL    HW112722   3.324   0.923   5.789
 4012SOL    HW212723   3.435   1.017   5.862
 4013SOL     OW12724   3.049   1.792   7.202
 4013SOL    HW112725   3.073   1.852   7.126
 4013SOL    HW212726   3.056   1.697   7.172
 4014SOL     OW12727   2.179   0.251   7.387
 4014SOL    HW112728   2.250   0.322   7.393
 4014SOL    HW212729   2.091   0.290   7.415
 4015SOL     OW12730   3.328   1.417   6.539
 4015SOL    HW112731   3.269   1.423   6.619
 4015SOL    HW212732   3.313   1.329   6.493
 4016SOL     OW12733   3.529   1.714   6.158
 4016SOL    HW112734   3.488   1.691   6.070
 4016SOL    HW212735   3.511   1.640   6.223
 4017SOL     OW12736   2.460   0.729   5.856
 4017SOL    HW112737   2.484   0.798   5.788
 4017SOL    HW212738   2.382   0.762   5.910
 4018SOL     OW12739   3.143   0.345   6.530
 4018SOL    HW112740   3.057   0.295   6.517
 4018SOL    HW212741   3.205   0.291   6.586
 4019SOL     OW12742   3.438   1.662   5.893
 4019SOL    HW112743   3.527   1.708   5.896
 4019SOL    HW212744   3.417   1.638   5.798
 4020SOL     OW12745   2.669   0.605   7.051
 4020SOL    HW112746   2.622   0.602   7.140
 4020SOL    HW212747   2.618   0.550   6.985
 4021SOL     OW12748   3.256   0.469   7.260
 4021SOL    HW112749   3.236   0.512   7.348
 4021SOL    HW212750   3.334   0.407   7.269
 4022SOL     OW12751   2.835   0.890   7.158
 4022SOL    HW112752   2.881   0.806   7.129
 4022SOL    HW212753   2.779   0.924   7.083
 4023SOL     OW12754   2.853   0.410   6.828
 4023SOL    HW112755   2.776   0.444   6.882
 4023SOL    HW212756   2.819   0.359   6.749
 4024SOL     OW12757   2.903   0.701   6.015
 4024SOL    HW112758   2.929   0.697   6.111
 4024SOL    HW212759   2.818   0.650   6.001
 4025SOL     OW12760   1.938   0.811   6.375
 4025SOL    HW112761   2.037   0.799   6.384
 4025SOL    HW212762   1.914   0.906   6.396
 4026SOL     OW12763   2.727   0.348   5.781
 4026SOL    HW112764   2.786   0.411   5.732
 4026SOL    HW212765   2.746   0.254   5.752
 4027SOL     OW12766   3.581   0.585   7.417
 4027SOL    HW112767   3.555   0.674   7.381
 4027SOL    HW212768   3.579   0.517   7.344
 4028SOL     OW12769   3.224   1.144   6.131
 4028SOL    HW112770   3.307   1.115   6.083
 4028SOL    HW212771   3.175   1.211   6.075
 4029SOL     OW12772   2.412   0.196   6.471
 4029SOL    HW112773   2.407   0.191   6.571
 4029SOL    HW212774   2.414   0.292   6.442
 4030SOL     OW12775   2.213   1.801   6.439
 4030SOL    HW112776   2.263   1.715   6.445
 4030SOL    HW212777   2.278   1.878   6.436
 4031SOL     OW12778   3.657   1.066   6.459
 4031SOL    HW112779   3.595   1.051   6.383
 4031SOL    HW212780   3.605   1.077   6.544
 4032SOL     OW12781   3.089   1.550   7.092
 4032SOL    HW112782   3.095   1.473   7.156
 4032SOL    HW212783   3.037   1.524   7.012
 4033SOL     OW12784   2.183   0.943   5.828
 4033SOL    HW112785   2.265   0.982   5.786
 4033SOL    HW212786   2.156   0.861   5.779
 4034SOL     OW12787   3.320   0.735   6.314
 4034SOL    HW112788   3.315   0.670   6.389
 4034SOL    HW212789   3.400   0.794   6.327
 4035SOL     OW12790   2.973   1.776   5.823
 4035SOL    HW112791   2.913   1.714   5.873
 4035SOL    HW212792   3.004   1.732   5.738
 4036SOL     OW12793   2.064   0.285   7.084
 4036SOL    HW112794   1.984   0.345   7.071
 4036SOL    HW212795   2.054   0.236   7.170
 4037SOL     OW12796   3.494   1.377   5.667
 4037SOL    HW112797   3.462   1.471   5.657
 4037SOL    HW212798   3.418   1.314   5.655
 4038SOL     OW12799   2.326   1.743   5.909
 4038SOL    HW112800   2.359   1.782   5.995
 4038SOL    HW212801   2.402   1.736   5.844
 4039SOL     OW12802   3.262   0.107   6.012
 4039SOL    HW112803   3.238   0.070   5.922
 4039SOL    HW212804   3.361   0.123   6.016
 4040SOL     OW12805   2.244   0.700   6.066
 4040SOL    HW112806   2.289   0.610   6.063
 4040SOL    HW212807   2.150   0.689   6.099
 4041SOL     OW12808   3.409   0.222   7.315
 4041SOL    HW112809   3.404   0.259   7.407
 4041SOL    HW212810   3.337   0.153   7.303
 4042SOL     OW12811   2.476   0.122   5.703
 4042SOL    HW112812   2.574   0.100   5.710
 4042SOL    HW212813   2.445   0.105   5.610
 4043SOL     OW12814   2.643   0.264   7.335
 4043SOL    HW112815   2.710   0.203   7.378
 4043SOL    HW212816   2.570   0.283   7.400
 4044SOL     OW12817   2.750   1.514   6.781
 4044SOL    HW112818   2.727   1.489   6.687
 4044SOL    HW212819   2.811   1.445   6.820
 4045SOL     OW12820   3.213   0.590   7.019
 4045SOL    HW112821   3.241   0.547   7.104
 4045SOL    HW212822   3.238   0.686   7.020
 4046SOL     OW12823   2.784   0.503   6.485
 4046SOL    HW112824   2.759   0.494   6.389
 4046SOL    HW212825   2.832   0.421   6.516
 4047SOL     OW12826   2.401   0.064   6.098
 4047SOL    HW112827   2.320   0.065   6.156
 4047SOL    HW212828   2.404   0.147   6.043
 4048SOL     OW12829   3.296   1.188   5.627
 4048SOL    HW112830   3.328   1.112   5.684
 4048SOL    HW212831   3.204   1.215   5.657
 4049SOL     OW12832   2.159   0.035   5.757
 4049SOL    HW112833   2.208   0.119   5.736
 4049SOL    HW212834   2.221  -0.030   5.802
 4050SOL     OW12835   2.797   0.236   6.066
 4050SOL    HW112836   2.749   0.277   5.988
 4050SOL    HW212837   2.896   0.234   6.047
 4051SOL     OW12838   2.938   0.683   7.050
 4051SOL    HW112839   2.858   0.622   7.053
 4051SOL    HW212840   3.019   0.630   7.026
 4052SOL     OW12841   3.089   1.570   6.379
 4052SOL    HW112842   3.110   1.644   6.314
 4052SOL    HW212843   3.157   1.570   6.452
 4053SOL     OW12844   3.133   1.797   6.177
 4053SOL    HW112845   3.177   1.861   6.113
 4053SOL    HW212846   3.083   1.849   6.247
 4054SOL     OW12847   2.894   0.549   5.602
 4054SOL    HW112848   2.853   0.631   5.563
 4054SOL    HW212849   2.958   0.575   5.675
 4055SOL     OW12850   1.940   0.556   6.972
 4055SOL    HW112851   2.032   0.555   6.931
 4055SOL    HW212852   1.934   0.630   7.039
 4056SOL     OW12853   2.423   0.222   6.733
 4056SOL    HW112854   2.461   0.138   6.770
 4056SOL    HW212855   2.335   0.241   6.777
 4057SOL     OW12856   2.728   0.454   6.228
 4057SOL    HW112857   2.696   0.526   6.166
 4057SOL    HW212858   2.752   0.373   6.175
 4058SOL     OW12859   2.879   0.039   6.339
 4058SOL    HW112860   2.807   0.044   6.270
 4058SOL    HW212861   2.855  -0.030   6.408
 4059SOL     OW12862   3.291   1.173   6.453
 4059SOL    HW112863   3.236   1.089   6.446
 4059SOL    HW212864   3.317   1.202   6.361
 4060SOL     OW12865   3.328   0.590   6.578
 4060SOL    HW112866   3.298   0.495   6.585
 4060SOL    HW212867   3.401   0.606   6.644
 4061SOL     OW12868   3.719   0.833   5.963
 4061SOL    HW112869   3.761   0.769   6.027
 4061SOL    HW212870   3.681   0.782   5.885
 4062SOL     OW12871   2.350   1.385   5.760
 4062SOL    HW112872   2.263   1.370   5.807
 4062SOL    HW212873   2.333   1.411   5.665
 4063SOL     OW12874   3.526   1.280   6.243
 4063SOL    HW112875   3.625   1.288   6.257
 4063SOL    HW212876   3.481   1.364   6.274
 4064SOL     OW12877   3.252   0.575   5.664
 4064SOL    HW112878   3.198   0.554   5.745
 4064SOL    HW212879   3.343   0.534   5.673
 4065SOL     OW12880   2.389   0.256   5.914
 4065SOL    HW112881   2.416   0.197   5.839
 4065SOL    HW212882   2.389   0.351   5.883
 4066SOL     OW12883   3.616   1.223   7.174
 4066SOL    HW112884   3.707   1.184   7.161
 4066SOL    HW212885   3.624   1.319   7.198
 4067SOL     OW12886   2.926   1.347   6.926
 4067SOL    HW112887   2.846   1.324   6.981
 4067SOL    HW212888   3.009   1.321   6.975
 4068SOL     OW12889   3.454   1.629   7.211
 4068SOL    HW112890   3.481   1.663   7.121
 4068SOL    HW212891   3.533   1.591   7.257
 4069SOL     OW12892   2.973   1.195   6.686
 4069SOL    HW112893   2.933   1.239   6.767
 4069SOL    HW212894   2.932   1.232   6.603
 4070SOL     OW12895   3.500   1.099   6.665
 4070SOL    HW112896   3.505   1.180   6.724
 4070SOL    HW212897   3.414   1.101   6.614
 4071SOL     OW12898   2.777   0.089   6.988
 4071SOL    HW112899   2.802   0.069   6.893
 4071SOL    HW212900   2.849   0.145   7.030
 4072SOL     OW12901   2.842   1.116   7.305
 4072SOL    HW112902   2.743   1.122   7.315
 4072SOL    HW212903   2.865   1.036   7.249
 4073SOL     OW12904   2.567   1.050   5.954
 4073SOL    HW112905   2.553   1.057   6.053
 4073SOL    HW212906   2.651   0.999   5.936
 4074SOL     OW12907   2.272   0.813   6.837
 4074SOL    HW112908   2.358   0.825   6.887
 4074SOL    HW212909   2.230   0.726   6.864
 4075SOL     OW12910   3.136   0.386   6.848
 4075SOL    HW112911   3.157   0.460   6.912
 4075SOL    HW212912   3.047   0.403   6.805
 4076SOL     OW12913   2.428   0.537   6.451
 4076SOL    HW112914   2.440   0.603   6.377
 4076SOL    HW212915   2.474   0.571   6.534
 4077SOL     OW12916   3.114   1.348   5.974
 4077SOL    HW112917   3.164   1.425   6.014
 4077SOL    HW212918   3.019   1.350   6.006
 4078SOL     OW12919   3.134   1.445   6.728
 4078SOL    HW112920   3.181   1.458   6.815
 4078SOL    HW212921   3.068   1.371   6.737
 4079SOL     OW12922   3.444   0.639   6.058
 4079SOL    HW112923   3.413   0.700   6.131
 4079SOL    HW212924   3.494   0.691   5.989
 4080SOL     OW12925   2.264   0.751   7.184
 4080SOL    HW112926   2.332   0.806   7.137
 4080SOL    HW212927   2.304   0.663   7.211
 4081SOL     OW12928   3.449   0.779   7.256
 4081SOL    HW112929   3.357   0.817   7.251
 4081SOL    HW212930   3.509   0.826   7.191
 4082SOL     OW12931   2.875   0.105   7.356
 4082SOL    HW112932   2.881   0.190   7.304
 4082SOL    HW212933   2.907   0.029   7.299
 4083SOL     OW12934   2.366   0.050   7.326
 4083SOL    HW112935   2.324  -0.007   7.256
 4083SOL    HW212936   2.300   0.119   7.358
 4084SOL     OW12937   2.435   0.870   6.615
 4084SOL    HW112938   2.479   0.959   6.606
 4084SOL    HW212939   2.372   0.870   6.692
 4085SOL     OW12940   3.222   0.862   6.631
 4085SOL    HW112941   3.147   0.862   6.565
 4085SOL    HW212942   3.259   0.770   6.640
 4086SOL     OW12943   3.071   0.525   5.861
 4086SOL    HW112944   3.084   0.441   5.915
 4086SOL    HW212945   3.042   0.599   5.921
 4087SOL     OW12946   2.169   0.213   6.817
 4087SOL    HW112947   2.146   0.250   6.907
 4087SOL    HW212948   2.139   0.118   6.811
 4088SOL     OW12949   2.594   0.634   6.650
 4088SOL    HW112950   2.653   0.608   6.574
 4088SOL    HW212951   2.566   0.730   6.639
 4089SOL     OW12952   3.590   0.935   7.440
 4089SOL    HW112953   3.544   0.928   7.351
 4089SOL    HW212954   3.528   0.979   7.506
 4090SOL     OW12955   2.169   0.063   6.204
 4090SOL    HW112956   2.158   0.157   6.237
 4090SOL    HW212957   2.164   0.000   6.281
 4091SOL     OW12958   3.484   0.367   5.960
 4091SOL    HW112959   3.486   0.291   6.024
 4091SOL    HW212960   3.436   0.444   6.000
 4092SOL     OW12961   2.885   0.766   6.552
 4092SOL    HW112962   2.900   0.787   6.648
 4092SOL    HW212963   2.855   0.671   6.543
 4093SOL     OW12964   3.721   1.518   7.191
 4093SOL    HW112965   3.735   1.545   7.096
 4093SOL    HW212966   3.804   1.540   7.244
 4094SOL     OW12967   2.212   0.898   7.390
 4094SOL    HW112968   2.288   0.942   7.438
 4094SOL    HW212969   2.247   0.851   7.308
 4095SOL     OW12970   3.402   0.274   5.711
 4095SOL    HW112971   3.341   0.199   5.734
 4095SOL    HW212972   3.424   0.326   5.794
 4096SOL     OW12973   3.165   0.838   5.628
 4096SOL    HW112974   3.199   0.745   5.643
 4096SOL    HW212975   3.183   0.865   5.533
 4097SOL     OW12976   2.930   1.333   6.435
 4097SOL    HW112977   2.937   1.249   6.380
 4097SOL    HW212978   2.992   1.402   6.399
 4098SOL     OW12979   2.181   0.810   6.535
 4098SOL    HW112980   2.274   0.846   6.540
 4098SOL    HW212981   2.175   0.725   6.587
 4099SOL     OW12982   2.201   0.509   6.592
 4099SOL    HW112983   2.149   0.426   6.575
 4099SOL    HW212984   2.278   0.514   6.528
 4100SOL     OW12985   3.000   0.380   7.264
 4100SOL    HW112986   2.955   0.443   7.328
 4100SOL    HW212987   3.093   0.411   7.247
 4101SOL     OW12988   3.022   0.207   7.063
 4101SOL    HW112989   3.022   0.271   7.140
 4101SOL    HW212990   3.050   0.255   6.980
 4102SOL     OW12991   1.870   1.326   5.786
 4102SOL    HW112992   1.777   1.347   5.755
 4102SOL    HW212993   1.880   1.227   5.799
 4103SOL     OW12994   1.950   1.801   6.513
 4103SOL    HW112995   1.908   1.715   6.486
 4103SOL    HW212996   2.044   1.804   6.479
 4104SOL     OW12997   2.864   0.796   6.824
 4104SOL    HW112998   2.905   0.764   6.910
 4104SOL    HW212999   2.768   0.769   6.821
 4105SOL     OW13000   1.902   0.544   6.700
 4105SOL    HW113001   1.987   0.511   6.659
 4105SOL    HW213002   1.915   0.559   6.798
 4106SOL     OW13003   2.051   0.520   7.308
 4106SOL    HW113004   2.110   0.480   7.238
 4106SOL    HW213005   1.993   0.591   7.267
 4107SOL     OW13006   3.231   0.950   7.246
 4107SOL    HW113007   3.270   1.039   7.266
 4107SOL    HW213008   3.241   0.930   7.149
 4108SOL     OW13009   2.677   0.572   5.911
 4108SOL    HW113010   2.684   0.483   5.865
 4108SOL    HW213011   2.583   0.606   5.903
 4109SOL     OW13012   3.519   0.604   6.792
 4109SOL    HW113013   3.481   0.535   6.854
 4109SOL    HW213014   3.601   0.568   6.748
 4110SOL     OW13015   2.533   0.464   6.855
 4110SOL    HW113016   2.499   0.375   6.825
 4110SOL    HW213017   2.559   0.518   6.775
 4111SOL     OW13018   2.335   0.500   5.777
 4111SOL    HW113019   2.396   0.580   5.781
 4111SOL    HW213020   2.240   0.531   5.784
 4112SOL     OW13021   3.209   1.059   6.820
 4112SOL    HW113022   3.233   0.996   6.746
 4112SOL    HW213023   3.119   1.099   6.802
 4113SOL     OW13024   3.164   0.855   5.895
 4113SOL    HW113025   3.078   0.824   5.937
 4113SOL    HW213026   3.160   0.841   5.796
 4114SOL     OW13027   3.621   1.747   6.740
 4114SOL    HW113028   3.682   1.777   6.667
 4114SOL    HW213029   3.583   1.658   6.718
 4115SOL     OW13030   3.114   1.731   6.714
 4115SOL    HW113031   3.198   1.736   6.660
 4115SOL    HW213032   3.091   1.635   6.732
 4116SOL     OW13033   1.945   1.258   6.608
 4116SOL    HW113034   1.940   1.257   6.708
 4116SOL    HW213035   1.862   1.217   6.570
 4117SOL     OW13036   3.588   0.135   6.109
 4117SOL    HW113037   3.661   0.118   6.042
 4117SOL    HW213038   3.557   0.048   6.147
 4118SOL     OW13039   3.250   1.573   6.063
 4118SOL    HW113040   3.317   1.585   5.989
 4118SOL    HW213041   3.210   1.662   6.086
 4119SOL     OW13042   1.992   1.794   7.437
 4119SOL    HW113043   1.951   1.720   7.490
 4119SOL    HW213044   2.056   1.845   7.495
 4120SOL     OW13045   3.142   0.927   6.258
 4120SOL    HW113046   3.202   0.846   6.260
 4120SOL    HW213047   3.182   0.996   6.198
 4121SOL     OW13048   2.692   1.273   7.008
 4121SOL    HW113049   2.687   1.306   7.103
 4121SOL    HW213050   2.606   1.292   6.962
 4122SOL     OW13051   2.534   1.616   5.740
 4122SOL    HW113052   2.543   1.626   5.641
 4122SOL    HW213053   2.494   1.527   5.761
 4123SOL     OW13054   3.512   1.720   6.980
 4123SOL    HW113055   3.565   1.730   6.896
 4123SOL    HW213056   3.485   1.810   7.014
 4124SOL     OW13057   3.703   0.175   6.549
 4124SOL    HW113058   3.742   0.090   6.513
 4124SOL    HW213059   3.605   0.177   6.530
 4125SOL     OW13060   2.125   0.326   6.306
 4125SOL    HW113061   2.046   0.377   6.272
 4125SOL    HW213062   2.116   0.311   6.404
 4126SOL     OW13063   3.056   1.612   5.617
 4126SOL    HW113064   3.062   1.519   5.654
 4126SOL    HW213065   2.997   1.612   5.537
 4127SOL     OW13066   2.684   1.002   6.958
 4127SOL    HW113067   2.724   1.001   6.866
 4127SOL    HW213068   2.694   1.094   6.998
 4128SOL     OW13069   2.778   0.910   5.877
 4128SOL    HW113070   2.841   0.948   5.809
 4128SOL    HW213071   2.818   0.827   5.916
 4129SOL     OW13072   3.366   1.607   5.630
 4129SOL    HW113073   3.274   1.644   5.637
 4129SOL    HW213074   3.404   1.627   5.540
 4130SOL     OW13075   3.476   1.292   6.875
 4130SOL    HW113076   3.536   1.295   6.955
 4130SOL    HW213077   3.401   1.356   6.888
 4131SOL     OW13078   2.901   1.098   6.282
 4131SOL    HW113079   2.831   1.051   6.336
 4131SOL    HW213080   2.960   1.030   6.239
 4132SOL     OW13081   2.876   0.236   6.557
 4132SOL    HW113082   2.868   0.200   6.464
 4132SOL    HW213083   2.874   0.160   6.622
 4133SOL     OW13084   2.452   1.487   6.077
 4133SOL    HW113085   2.494   1.429   6.007
 4133SOL    HW213086   2.408   1.566   6.033
 4134SOL     OW13087   3.571   0.385   6.967
 4134SOL    HW113088   3.644   0.454   6.971
 4134SOL    HW213089   3.599   0.310   6.908
 4135SOL     OW13090   1.967   1.013   7.312
 4135SOL    HW113091   1.890   0.980   7.366
 4135SOL    HW213092   2.052   0.983   7.354
 4136SOL     OW13093   2.534   0.203   7.075
 4136SOL    HW113094   2.624   0.187   7.035
 4136SOL    HW213095   2.542   0.208   7.174
 4137SOL     OW13096   1.937   0.345   5.619
 4137SOL    HW113097   1.845   0.317   5.590
 4137SOL    HW213098   1.968   0.422   5.563
 4138SOL     OW13099   3.302   0.856   6.984
 4138SOL    HW113100   3.245   0.908   6.921
 4138SOL    HW213101   3.398   0.868   6.960
 4139SOL     OW13102   1.934   0.166   5.904
 4139SOL    HW113103   1.917   0.249   5.850
 4139SOL    HW213104   2.024   0.129   5.882
 4140SOL     OW13105   3.045   1.335   5.705
 4140SOL    HW113106   2.946   1.324   5.707
 4140SOL    HW213107   3.079   1.350   5.798
 4141SOL     OW13108   2.475   0.842   7.017
 4141SOL    HW113109   2.531   0.923   7.000
 4141SOL    HW213110   2.534   0.762   7.020
 4142SOL     OW13111   3.355   1.767   6.545
 4142SOL    HW113112   3.388   1.831   6.476
 4142SOL    HW213113   3.421   1.761   6.620
 4143SOL     OW13114   2.578   0.565   7.294
 4143SOL    HW113115   2.597   0.630   7.368
 4143SOL    HW213116   2.638   0.485   7.303
 4144SOL     OW13117   3.312   1.220   7.219
 4144SOL    HW113118   3.303   1.210   7.318
 4144SOL    HW213119   3.408   1.213   7.193
 4145SOL     OW13120   2.252   1.741   7.146
 4145SOL    HW113121   2.161   1.782   7.144
 4145SOL    HW213122   2.245   1.647   7.178
 4146SOL     OW13123   3.536   0.883   6.840
 4146SOL    HW113124   3.509   0.794   6.803
 4146SOL    HW213125   3.537   0.951   6.767
 4147SOL     OW13126   3.087   0.325   6.035
 4147SOL    HW113127   3.152   0.251   6.024
 4147SOL    HW213128   3.107   0.375   6.119
 4148SOL     OW13129   2.456   0.745   6.238
 4148SOL    HW113130   2.506   0.830   6.219
 4148SOL    HW213131   2.368   0.747   6.190
 4149SOL     OW13132   3.639   0.342   7.228
 4149SOL    HW113133   3.622   0.373   7.134
 4149SOL    HW213134   3.555   0.305   7.266
 4150SOL     OW13135   3.592   0.934   7.103
 4150SOL    HW113136   3.630   1.025   7.118
 4150SOL    HW213137   3.584   0.917   7.004
 4151SOL     OW13138   2.721   1.374   5.602
 4151SOL    HW113139   2.675   1.389   5.690
 4151SOL    HW213140   2.765   1.459   5.572
 4152SOL     OW13141   2.721   0.956   6.447
 4152SOL    HW113142   2.775   0.887   6.495
 4152SOL    HW213143   2.689   1.025   6.513
 4153SOL     OW13144   2.945   0.984   5.673
 4153SOL    HW113145   2.922   1.037   5.591
 4153SOL    HW213146   3.026   0.928   5.654
 4154SOL     OW13147   3.723   1.569   6.437
 4154SOL    HW113148   3.652   1.557   6.367
 4154SOL    HW213149   3.724   1.490   6.497
 4155SOL     OW13150   3.686   0.192   6.813
 4155SOL    HW113151   3.682   0.102   6.857
 4155SOL    HW213152   3.689   0.181   6.714
 4156SOL     OW13153   2.290   0.424   6.106
 4156SOL    HW113154   2.320   0.352   6.044
 4156SOL    HW213155   2.251   0.384   6.189
 4157SOL     OW13156   3.567   1.487   6.690
 4157SOL    HW113157   3.474   1.462   6.663
 4157SOL    HW213158   3.593   1.437   6.772
 4158SOL     OW13159   2.179   0.547   6.866
 4158SOL    HW113160   2.217   0.488   6.938
 4158SOL    HW213161   2.219   0.521   6.778
 4159SOL     OW13162   3.286   0.214   6.698
 4159SOL    HW113163   3.338   0.149   6.753
 4159SOL    HW213164   3.237   0.277   6.759
 4160SOL     OW13165   2.863   0.034   6.740
 4160SOL    HW113166   2.800  -0.038   6.709
 4160SOL    HW213167   2.956  -0.002   6.740
 4161SOL     OW13168   2.632   1.330   5.887
 4161SOL    HW113169   2.586   1.243   5.904
 4161SOL    HW213170   2.723   1.327   5.928
 4162SOL     OW13171   3.214   0.052   5.754
 4162SOL    HW113172   3.249   0.011   5.670
 4162SOL    HW213173   3.124   0.014   5.774
 4163SOL     OW13174   3.162   0.453   6.277
 4163SOL    HW113175   3.103   0.533   6.281
 4163SOL    HW213176   3.177   0.418   6.370
 4164SOL     OW13177   3.455   0.221   6.468
 4164SOL    HW113178   3.371   0.220   6.522
 4164SOL    HW213179   3.457   0.304   6.412
 4165SOL     OW13180   1.901   1.077   5.886
 4165SOL    HW113181   2.000   1.066   5.877
 4165SOL    HW213182   1.861   0.991   5.918
 4166SOL     OW13183   2.737   1.646   5.923
 4166SOL    HW113184   2.660   1.611   5.869
 4166SOL    HW213185   2.705   1.717   5.985
 4167SOL     OW13186   2.092   0.628   7.561
 4167SOL    HW113187   1.999   0.626   7.598
 4167SOL    HW213188   2.093   0.589   7.469
 4168SOL     OW13189   2.087   0.275   8.444
 4168SOL    HW113190   2.122   0.258   8.536
 4168SOL    HW213191   1.999   0.230   8.432
 4169SOL     OW13192   1.881   0.368   8.095
 4169SOL    HW113193   1.799   0.411   8.134
 4169SOL    HW213194   1.853   0.295   8.032
 4170SOL     OW13195   2.431   1.275   8.613
 4170SOL    HW113196   2.338   1.268   8.576
 4170SOL    HW213197   2.442   1.364   8.657
 4171SOL     OW13198   3.417   1.511   8.151
 4171SOL    HW113199   3.360   1.495   8.232
 4171SOL    HW213200   3.358   1.521   8.071
 4172SOL     OW13201   2.997   0.703   8.165
 4172SOL    HW113202   3.054   0.781   8.140
 4172SOL    HW213203   2.937   0.729   8.241
 4173SOL     OW13204   3.617   0.607   7.679
 4173SOL    HW113205   3.605   0.594   7.580
 4173SOL    HW213206   3.587   0.526   7.728
 4174SOL     OW13207   2.630   1.144   8.471
 4174SOL    HW113208   2.552   1.161   8.531
 4174SOL    HW213209   2.664   1.231   8.435
 4175SOL     OW13210   2.712   0.798   9.271
 4175SOL    HW113211   2.708   0.874   9.336
 4175SOL    HW213212   2.734   0.834   9.180
 4176SOL     OW13213   2.547   1.012   8.113
 4176SOL    HW113214   2.616   0.996   8.183
 4176SOL    HW213215   2.474   1.069   8.151
 4177SOL     OW13216   2.548   1.161   9.251
 4177SOL    HW113217   2.608   1.240   9.265
 4177SOL    HW213218   2.462   1.192   9.210
 4178SOL     OW13219   2.197   1.435   8.509
 4178SOL    HW113220   2.119   1.404   8.456
 4178SOL    HW213221   2.255   1.493   8.452
 4179SOL     OW13222   3.322   1.505   8.787
 4179SOL    HW113223   3.346   1.599   8.813
 4179SOL    HW213224   3.306   1.451   8.869
 4180SOL     OW13225   2.300   0.392   8.947
 4180SOL    HW113226   2.382   0.336   8.956
 4180SOL    HW213227   2.219   0.334   8.951
 4181SOL     OW13228   3.465   0.447   8.185
 4181SOL    HW113229   3.391   0.493   8.135
 4181SOL    HW213230   3.516   0.515   8.238
 4182SOL     OW13231   2.989   1.341   9.138
 4182SOL    HW113232   3.036   1.341   9.226
 4182SOL    HW213233   2.941   1.254   9.127
 4183SOL     OW13234   2.102   1.091   8.334
 4183SOL    HW113235   2.116   1.007   8.386
 4183SOL    HW213236   2.047   1.155   8.389
 4184SOL     OW13237   2.482   1.786   8.887
 4184SOL    HW113238   2.390   1.769   8.922
 4184SOL    HW213239   2.510   1.878   8.913
 4185SOL     OW13240   2.468   0.964   7.571
 4185SOL    HW113241   2.475   1.048   7.517
 4185SOL    HW213242   2.514   0.977   7.659
 4186SOL     OW13243   3.456   0.114   8.928
 4186SOL    HW113244   3.438   0.181   8.856
 4186SOL    HW213245   3.453   0.160   9.017
 4187SOL     OW13246   1.984   0.643   8.011
 4187SOL    HW113247   1.939   0.555   8.028
 4187SOL    HW213248   1.983   0.697   8.095
 4188SOL     OW13249   3.704   1.767   7.807
 4188SOL    HW113250   3.758   1.738   7.887
 4188SOL    HW213251   3.734   1.857   7.778
 4189SOL     OW13252   3.551   0.922   8.060
 4189SOL    HW113253   3.646   0.893   8.068
 4189SOL    HW213254   3.543   0.987   7.985
 4190SOL     OW13255   3.503   1.108   7.880
 4190SOL    HW113256   3.589   1.110   7.828
 4190SOL    HW213257   3.517   1.155   7.968
 4191SOL     OW13258   1.975   0.737   9.045
 4191SOL    HW113259   2.063   0.724   9.090
 4191SOL    HW213260   1.962   0.834   9.023
 4192SOL     OW13261   2.475   1.365   8.174
 4192SOL    HW113262   2.426   1.278   8.183
 4192SOL    HW213263   2.452   1.408   8.087
 4193SOL     OW13264   3.155   1.228   8.871
 4193SOL    HW113265   3.192   1.155   8.813
 4193SOL    HW213266   3.207   1.233   8.956
 4194SOL     OW13267   2.671   0.004   7.950
 4194SOL    HW113268   2.711   0.095   7.941
 4194SOL    HW213269   2.571   0.012   7.956
 4195SOL     OW13270   2.059   0.976   8.712
 4195SOL    HW113271   2.148   0.931   8.698
 4195SOL    HW213272   1.986   0.911   8.693
 4196SOL     OW13273   3.387   0.999   7.638
 4196SOL    HW113274   3.324   0.923   7.651
 4196SOL    HW213275   3.435   1.017   7.724
 4197SOL     OW13276   3.049   1.792   9.064
 4197SOL    HW113277   3.073   1.852   8.988
 4197SOL    HW213278   3.056   1.697   9.034
 4198SOL     OW13279   2.179   0.251   9.249
 4198SOL    HW113280   2.250   0.322   9.255
 4198SOL    HW213281   2.091   0.290   9.277
 4199SOL     OW13282   3.328   1.417   8.401
 4199SOL    HW113283   3.269   1.423   8.481
 4199SOL    HW213284   3.313   1.329   8.355
 4200SOL     OW13285   3.529   1.714   8.020
 4200SOL    HW113286   3.488   1.691   7.932
 4200SOL    HW213287   3.511   1.640   8.085
 4201SOL     OW13288   2.460   0.729   7.718
 4201SOL    HW113289   2.484   0.798   7.650
 4201SOL    HW213290   2.382   0.762   7.772
 4202SOL     OW13291   3.143   0.345   8.392
 4202SOL    HW113292   3.057   0.295   8.379
 4202SOL    HW213293   3.205   0.291   8.448
 4203SOL     OW13294   3.438   1.662   7.755
 4203SOL    HW113295   3.527   1.708   7.758
 4203SOL    HW213296   3.417   1.638   7.660
 4204SOL     OW13297   2.669   0.605   8.913
 4204SOL    HW113298   2.622   0.602   9.002
 4204SOL    HW213299   2.618   0.550   8.847
 4205SOL     OW13300   3.256   0.469   9.122
 4205SOL    HW113301   3.236   0.512   9.210
 4205SOL    HW213302   3.334   0.407   9.131
 4206SOL     OW13303   2.835   0.890   9.020
 4206SOL    HW113304   2.881   0.806   8.991
 4206SOL    HW213305   2.779   0.924   8.945
 4207SOL     OW13306   2.853   0.410   8.690
 4207SOL    HW113307   2.776   0.444   8.744
 4207SOL    HW213308   2.819   0.359   8.611
 4208SOL     OW13309   2.903   0.701   7.877
 4208SOL    HW113310   2.929   0.697   7.973
 4208SOL    HW213311   2.818   0.650   7.863
 4209SOL     OW13312   1.938   0.811   8.237
 4209SOL    HW113313   2.037   0.799   8.246
 4209SOL    HW213314   1.914   0.906   8.258
 4210SOL     OW13315   2.727   0.348   7.643
 4210SOL    HW113316   2.786   0.411   7.594
 4210SOL    HW213317   2.746   0.254   7.614
 4211SOL     OW13318   3.581   0.585   9.279
 4211SOL    HW113319   3.555   0.674   9.243
 4211SOL    HW213320   3.579   0.517   9.206
 4212SOL     OW13321   3.224   1.144   7.993
 4212SOL    HW113322   3.307   1.115   7.945
 4212SOL    HW213323   3.175   1.211   7.937
 4213SOL     OW13324   2.412   0.196   8.333
 4213SOL    HW113325   2.407   0.191   8.433
 4213SOL    HW213326   2.414   0.292   8.304
 4214SOL     OW13327   2.870   1.456   7.925
 4214SOL    HW113328   2.824   1.528   7.873
 4214SOL    HW213329   2.866   1.476   8.023
 4215SOL     OW13330   2.213   1.801   8.301
 4215SOL    HW113331   2.263   1.715   8.307
 4215SOL    HW213332   2.278   1.878   8.298
 4216SOL     OW13333   3.657   1.066   8.321
 4216SOL    HW113334   3.595   1.051   8.245
 4216SOL    HW213335   3.605   1.077   8.406
 4217SOL     OW13336   3.089   1.550   8.954
 4217SOL    HW113337   3.095   1.473   9.018
 4217SOL    HW213338   3.037   1.524   8.874
 4218SOL     OW13339   2.183   0.943   7.690
 4218SOL    HW113340   2.265   0.982   7.648
 4218SOL    HW213341   2.156   0.861   7.641
 4219SOL     OW13342   3.320   0.735   8.176
 4219SOL    HW113343   3.315   0.670   8.251
 4219SOL    HW213344   3.400   0.794   8.189
 4220SOL     OW13345   2.323   1.266   9.175
 4220SOL    HW113346   2.273   1.267   9.089
 4220SOL    HW213347   2.260   1.248   9.251
 4221SOL     OW13348   2.973   1.776   7.685
 4221SOL    HW113349   2.913   1.714   7.735
 4221SOL    HW213350   3.004   1.732   7.600
 4222SOL     OW13351   2.064   0.285   8.946
 4222SOL    HW113352   1.984   0.345   8.933
 4222SOL    HW213353   2.054   0.236   9.032
 4223SOL     OW13354   3.494   1.377   7.529
 4223SOL    HW113355   3.462   1.471   7.519
 4223SOL    HW213356   3.418   1.314   7.517
 4224SOL     OW13357   3.262   0.107   7.874
 4224SOL    HW113358   3.238   0.070   7.784
 4224SOL    HW213359   3.361   0.123   7.878
 4225SOL     OW13360   2.111   1.785   8.689
 4225SOL    HW113361   2.168   1.720   8.739
 4225SOL    HW213362   2.095   1.752   8.596
 4226SOL     OW13363   2.802   1.698   8.352
 4226SOL    HW113364   2.882   1.641   8.373
 4226SOL    HW213365   2.753   1.658   8.275
 4227SOL     OW13366   2.244   0.700   7.928
 4227SOL    HW113367   2.289   0.610   7.925
 4227SOL    HW213368   2.150   0.689   7.961
 4228SOL     OW13369   3.409   0.222   9.177
 4228SOL    HW113370   3.404   0.259   9.269
 4228SOL    HW213371   3.337   0.153   9.165
 4229SOL     OW13372   2.476   0.122   7.565
 4229SOL    HW113373   2.574   0.100   7.572
 4229SOL    HW213374   2.445   0.105   7.472
 4230SOL     OW13375   2.643   0.264   9.197
 4230SOL    HW113376   2.710   0.203   9.240
 4230SOL    HW213377   2.570   0.283   9.262
 4231SOL     OW13378   2.750   1.514   8.643
 4231SOL    HW113379   2.727   1.489   8.549
 4231SOL    HW213380   2.811   1.445   8.682
 4232SOL     OW13381   3.213   0.590   8.881
 4232SOL    HW113382   3.241   0.547   8.966
 4232SOL    HW213383   3.238   0.686   8.882
 4233SOL     OW13384   2.665   1.402   8.372
 4233SOL    HW113385   2.755   1.416   8.330
 4233SOL    HW213386   2.594   1.404   8.301
 4234SOL     OW13387   2.784   0.503   8.347
 4234SOL    HW113388   2.759   0.494   8.251
 4234SOL    HW213389   2.832   0.421   8.378
 4235SOL     OW13390   2.401   0.064   7.960
 4235SOL    HW113391   2.320   0.065   8.018
 4235SOL    HW213392   2.404   0.147   7.905
 4236SOL     OW13393   3.296   1.188   7.489
 4236SOL    HW113394   3.328   1.112   7.546
 4236SOL    HW213395   3.204   1.215   7.519
 4237SOL     OW13396   2.159   0.035   7.619
 4237SOL    HW113397   2.208   0.119   7.598
 4237SOL    HW213398   2.221  -0.030   7.664
 4238SOL     OW13399   2.797   0.236   7.928
 4238SOL    HW113400   2.749   0.277   7.850
 4238SOL    HW213401   2.896   0.234   7.909
 4239SOL     OW13402   2.938   0.683   8.912
 4239SOL    HW113403   2.858   0.622   8.915
 4239SOL    HW213404   3.019   0.630   8.888
 4240SOL     OW13405   3.089   1.570   8.241
 4240SOL    HW113406   3.110   1.644   8.176
 4240SOL    HW213407   3.157   1.570   8.314
 4241SOL     OW13408   2.321   1.152   8.189
 4241SOL    HW113409   2.250   1.125   8.254
 4241SOL    HW213410   2.295   1.124   8.096
 4242SOL     OW13411   3.133   1.797   8.039
 4242SOL    HW113412   3.177   1.861   7.975
 4242SOL    HW213413   3.083   1.849   8.109
 4243SOL     OW13414   2.894   0.549   7.464
 4243SOL    HW113415   2.853   0.631   7.425
 4243SOL    HW213416   2.958   0.575   7.537
 4244SOL     OW13417   1.940   0.556   8.834
 4244SOL    HW113418   2.032   0.555   8.793
 4244SOL    HW213419   1.934   0.630   8.901
 4245SOL     OW13420   2.423   0.222   8.595
 4245SOL    HW113421   2.461   0.138   8.632
 4245SOL    HW213422   2.335   0.241   8.639
 4246SOL     OW13423   2.728   0.454   8.090
 4246SOL    HW113424   2.696   0.526   8.028
 4246SOL    HW213425   2.752   0.373   8.037
 4247SOL     OW13426   2.879   0.039   8.201
 4247SOL    HW113427   2.807   0.044   8.132
 4247SOL    HW213428   2.855  -0.030   8.270
 4248SOL     OW13429   3.291   1.173   8.315
 4248SOL    HW113430   3.236   1.089   8.308
 4248SOL    HW213431   3.317   1.202   8.223
 4249SOL     OW13432   3.328   0.590   8.440
 4249SOL    HW113433   3.298   0.495   8.447
 4249SOL    HW213434   3.401   0.606   8.506
 4250SOL     OW13435   3.719   0.833   7.825
 4250SOL    HW113436   3.761   0.769   7.889
 4250SOL    HW213437   3.681   0.782   7.747
 4251SOL     OW13438   3.526   1.280   8.105
 4251SOL    HW113439   3.625   1.288   8.119
 4251SOL    HW213440   3.481   1.364   8.136
 4252SOL     OW13441   3.252   0.575   7.526
 4252SOL    HW113442   3.198   0.554   7.607
 4252SOL    HW213443   3.343   0.534   7.535
 4253SOL     OW13444   2.389   0.256   7.776
 4253SOL    HW113445   2.416   0.197   7.701
 4253SOL    HW213446   2.389   0.351   7.745
 4254SOL     OW13447   3.616   1.223   9.036
 4254SOL    HW113448   3.707   1.184   9.023
 4254SOL    HW213449   3.624   1.319   9.060
 4255SOL     OW13450   2.926   1.347   8.788
 4255SOL    HW113451   2.846   1.324   8.843
 4255SOL    HW213452   3.009   1.321   8.837
 4256SOL     OW13453   3.454   1.629   9.073
 4256SOL    HW113454   3.481   1.663   8.983
 4256SOL    HW213455   3.533   1.591   9.119
 4257SOL     OW13456   2.973   1.195   8.548
 4257SOL    HW113457   2.933   1.239   8.629
 4257SOL    HW213458   2.932   1.232   8.465
 4258SOL     OW13459   3.500   1.099   8.527
 4258SOL    HW113460   3.505   1.180   8.586
 4258SOL    HW213461   3.414   1.101   8.476
 4259SOL     OW13462   2.777   0.089   8.850
 4259SOL    HW113463   2.802   0.069   8.755
 4259SOL    HW213464   2.849   0.145   8.892
 4260SOL     OW13465   2.842   1.116   9.167
 4260SOL    HW113466   2.743   1.122   9.177
 4260SOL    HW213467   2.865   1.036   9.111
 4261SOL     OW13468   2.567   1.050   7.816
 4261SOL    HW113469   2.553   1.057   7.915
 4261SOL    HW213470   2.651   0.999   7.798
 4262SOL     OW13471   2.272   0.813   8.699
 4262SOL    HW113472   2.358   0.825   8.749
 4262SOL    HW213473   2.230   0.726   8.726
 4263SOL     OW13474   3.136   0.386   8.710
 4263SOL    HW113475   3.157   0.460   8.774
 4263SOL    HW213476   3.047   0.403   8.667
 4264SOL     OW13477   1.926   1.564   8.779
 4264SOL    HW113478   1.880   1.646   8.745
 4264SOL    HW213479   2.024   1.583   8.788
 4265SOL     OW13480   2.229   1.100   7.949
 4265SOL    HW113481   2.222   1.183   7.893
 4265SOL    HW213482   2.233   1.020   7.889
 4266SOL     OW13483   2.428   0.537   8.313
 4266SOL    HW113484   2.440   0.603   8.239
 4266SOL    HW213485   2.474   0.571   8.396
 4267SOL     OW13486   3.114   1.348   7.836
 4267SOL    HW113487   3.164   1.425   7.876
 4267SOL    HW213488   3.019   1.350   7.868
 4268SOL     OW13489   3.134   1.445   8.590
 4268SOL    HW113490   3.181   1.458   8.677
 4268SOL    HW213491   3.068   1.371   8.599
 4269SOL     OW13492   3.444   0.639   7.920
 4269SOL    HW113493   3.413   0.700   7.993
 4269SOL    HW213494   3.494   0.691   7.851
 4270SOL     OW13495   2.216   1.510   8.777
 4270SOL    HW113496   2.195   1.466   8.690
 4270SOL    HW213497   2.313   1.536   8.780
 4271SOL     OW13498   2.264   0.751   9.046
 4271SOL    HW113499   2.332   0.806   8.999
 4271SOL    HW213500   2.304   0.663   9.073
 4272SOL     OW13501   3.449   0.779   9.118
 4272SOL    HW113502   3.357   0.817   9.113
 4272SOL    HW213503   3.509   0.826   9.053
 4273SOL     OW13504   2.875   0.105   9.218
 4273SOL    HW113505   2.881   0.190   9.166
 4273SOL    HW213506   2.907   0.029   9.161
 4274SOL     OW13507   2.366   0.050   9.188
 4274SOL    HW113508   2.324  -0.007   9.118
 4274SOL    HW213509   2.300   0.119   9.220
 4275SOL     OW13510   2.435   0.870   8.477
 4275SOL    HW113511   2.479   0.959   8.468
 4275SOL    HW213512   2.372   0.870   8.554
 4276SOL     OW13513   3.222   0.862   8.493
 4276SOL    HW113514   3.147   0.862   8.427
 4276SOL    HW213515   3.259   0.770   8.502
 4277SOL     OW13516   3.071   0.525   7.723
 4277SOL    HW113517   3.084   0.441   7.777
 4277SOL    HW213518   3.042   0.599   7.783
 4278SOL     OW13519   2.169   0.213   8.679
 4278SOL    HW113520   2.146   0.250   8.769
 4278SOL    HW213521   2.139   0.118   8.673
 4279SOL     OW13522   1.899   1.310   8.730
 4279SOL    HW113523   1.952   1.261   8.798
 4279SOL    HW213524   1.921   1.408   8.735
 4280SOL     OW13525   2.594   0.634   8.512
 4280SOL    HW113526   2.653   0.608   8.436
 4280SOL    HW213527   2.566   0.730   8.501
 4281SOL     OW13528   3.590   0.935   9.302
 4281SOL    HW113529   3.544   0.928   9.213
 4281SOL    HW213530   3.528   0.979   9.368
 4282SOL     OW13531   2.169   0.063   8.066
 4282SOL    HW113532   2.158   0.157   8.099
 4282SOL    HW213533   2.164   0.000   8.143
 4283SOL     OW13534   3.484   0.367   7.822
 4283SOL    HW113535   3.486   0.291   7.886
 4283SOL    HW213536   3.436   0.444   7.862
 4284SOL     OW13537   2.885   0.766   8.414
 4284SOL    HW113538   2.900   0.787   8.510
 4284SOL    HW213539   2.855   0.671   8.405
 4285SOL     OW13540   2.842   1.573   9.148
 4285SOL    HW113541   2.822   1.617   9.060
 4285SOL    HW213542   2.881   1.482   9.132
 4286SOL     OW13543   3.721   1.518   9.053
 4286SOL    HW113544   3.735   1.545   8.958
 4286SOL    HW213545   3.804   1.540   9.106
 4287SOL     OW13546   2.212   0.898   9.252
 4287SOL    HW113547   2.288   0.942   9.300
 4287SOL    HW213548   2.247   0.851   9.170
 4288SOL     OW13549   3.402   0.274   7.573
 4288SOL    HW113550   3.341   0.199   7.596
 4288SOL    HW213551   3.424   0.326   7.656
 4289SOL     OW13552   3.165   0.838   7.490
 4289SOL    HW113553   3.199   0.745   7.505
 4289SOL    HW213554   3.183   0.865   7.395
 4290SOL     OW13555   2.930   1.333   8.297
 4290SOL    HW113556   2.937   1.249   8.242
 4290SOL    HW213557   2.992   1.402   8.261
 4291SOL     OW13558   2.181   0.810   8.397
 4291SOL    HW113559   2.274   0.846   8.402
 4291SOL    HW213560   2.175   0.725   8.449
 4292SOL     OW13561   2.201   0.509   8.454
 4292SOL    HW113562   2.149   0.426   8.437
 4292SOL    HW213563   2.278   0.514   8.390
 4293SOL     OW13564   3.000   0.380   9.126
 4293SOL    HW113565   2.955   0.443   9.190
 4293SOL    HW213566   3.093   0.411   9.109
 4294SOL     OW13567   3.022   0.207   8.925
 4294SOL    HW113568   3.022   0.271   9.002
 4294SOL    HW213569   3.050   0.255   8.842
 4295SOL     OW13570   1.950   1.801   8.375
 4295SOL    HW113571   1.908   1.715   8.348
 4295SOL    HW213572   2.044   1.804   8.341
 4296SOL     OW13573   2.366   1.568   8.358
 4296SOL    HW113574   2.432   1.642   8.367
 4296SOL    HW213575   2.410   1.489   8.316
 4297SOL     OW13576   2.864   0.796   8.686
 4297SOL    HW113577   2.905   0.764   8.772
 4297SOL    HW213578   2.768   0.769   8.683
 4298SOL     OW13579   1.902   0.544   8.562
 4298SOL    HW113580   1.987   0.511   8.521
 4298SOL    HW213581   1.915   0.559   8.660
 4299SOL     OW13582   2.051   0.520   9.170
 4299SOL    HW113583   2.110   0.480   9.100
 4299SOL    HW213584   1.993   0.591   9.129
 4300SOL     OW13585   3.231   0.950   9.108
 4300SOL    HW113586   3.270   1.039   9.128
 4300SOL    HW213587   3.241   0.930   9.011
 4301SOL     OW13588   2.677   0.572   7.773
 4301SOL    HW113589   2.684   0.483   7.727
 4301SOL    HW213590   2.583   0.606   7.765
 4302SOL     OW13591   3.519   0.604   8.654
 4302SOL    HW113592   3.481   0.535   8.716
 4302SOL    HW213593   3.601   0.568   8.610
 4303SOL     OW13594   2.114   1.564   9.192
 4303SOL    HW113595   2.084   1.621   9.268
 4303SOL    HW213596   2.107   1.467   9.218
 4304SOL     OW13597   2.533   0.464   8.717
 4304SOL    HW113598   2.499   0.375   8.687
 4304SOL    HW213599   2.559   0.518   8.637
 4305SOL     OW13600   2.792   1.678   8.913
 4305SOL    HW113601   2.768   1.660   8.818
 4305SOL    HW213602   2.822   1.772   8.923
 4306SOL     OW13603   2.335   0.500   7.639
 4306SOL    HW113604   2.396   0.580   7.643
 4306SOL    HW213605   2.240   0.531   7.646
 4307SOL     OW13606   2.021   1.137   8.914
 4307SOL    HW113607   2.043   1.076   8.990
 4307SOL    HW213608   2.031   1.088   8.828
 4308SOL     OW13609   3.209   1.059   8.682
 4308SOL    HW113610   3.233   0.996   8.608
 4308SOL    HW213611   3.119   1.099   8.664
 4309SOL     OW13612   3.164   0.855   7.757
 4309SOL    HW113613   3.078   0.824   7.799
 4309SOL    HW213614   3.160   0.841   7.658
 4310SOL     OW13615   3.621   1.747   8.602
 4310SOL    HW113616   3.682   1.777   8.529
 4310SOL    HW213617   3.583   1.658   8.580
 4311SOL     OW13618   3.114   1.731   8.576
 4311SOL    HW113619   3.198   1.736   8.522
 4311SOL    HW213620   3.091   1.635   8.594
 4312SOL     OW13621   1.945   1.258   8.470
 4312SOL    HW113622   1.940   1.257   8.570
 4312SOL    HW213623   1.862   1.217   8.432
 4313SOL     OW13624   2.550   1.662   9.164
 4313SOL    HW113625   2.494   1.743   9.173
 4313SOL    HW213626   2.602   1.666   9.078
 4314SOL     OW13627   3.588   0.135   7.971
 4314SOL    HW113628   3.661   0.118   7.904
 4314SOL    HW213629   3.557   0.048   8.009
 4315SOL     OW13630   3.250   1.573   7.925
 4315SOL    HW113631   3.317   1.585   7.851
 4315SOL    HW213632   3.210   1.662   7.948
 4316SOL     OW13633   1.992   1.794   9.299
 4316SOL    HW113634   1.951   1.720   9.352
 4316SOL    HW213635   2.056   1.845   9.357
 4317SOL     OW13636   3.142   0.927   8.120
 4317SOL    HW113637   3.202   0.846   8.122
 4317SOL    HW213638   3.182   0.996   8.060
 4318SOL     OW13639   2.692   1.273   8.870
 4318SOL    HW113640   2.687   1.306   8.965
 4318SOL    HW213641   2.606   1.292   8.824
 4319SOL     OW13642   3.512   1.720   8.842
 4319SOL    HW113643   3.565   1.730   8.758
 4319SOL    HW213644   3.485   1.810   8.876
 4320SOL     OW13645   3.703   0.175   8.411
 4320SOL    HW113646   3.742   0.090   8.375
 4320SOL    HW213647   3.605   0.177   8.392
 4321SOL     OW13648   2.125   0.326   8.168
 4321SOL    HW113649   2.046   0.377   8.134
 4321SOL    HW213650   2.116   0.311   8.266
 4322SOL     OW13651   3.056   1.612   7.479
 4322SOL    HW113652   3.062   1.519   7.516
 4322SOL    HW213653   2.997   1.612   7.399
 4323SOL     OW13654   2.684   1.002   8.820
 4323SOL    HW113655   2.724   1.001   8.728
 4323SOL    HW213656   2.694   1.094   8.860
 4324SOL     OW13657   2.778   0.910   7.739
 4324SOL    HW113658   2.841   0.948   7.671
 4324SOL    HW213659   2.818   0.827   7.778
 4325SOL     OW13660   3.366   1.607   7.492
 4325SOL    HW113661   3.274   1.644   7.499
 4325SOL    HW213662   3.404   1.627   7.402
 4326SOL     OW13663   2.234   1.288   8.938
 4326SOL    HW113664   2.221   1.381   8.904
 4326SOL    HW213665   2.150   1.236   8.925
 4327SOL     OW13666   3.476   1.292   8.737
 4327SOL    HW113667   3.536   1.295   8.817
 4327SOL    HW213668   3.401   1.356   8.750
 4328SOL     OW13669   2.901   1.098   8.144
 4328SOL    HW113670   2.831   1.051   8.198
 4328SOL    HW213671   2.960   1.030   8.101
 4329SOL     OW13672   2.876   0.236   8.419
 4329SOL    HW113673   2.868   0.200   8.326
 4329SOL    HW213674   2.874   0.160   8.484
 4330SOL     OW13675   3.571   0.385   8.829
 4330SOL    HW113676   3.644   0.454   8.833
 4330SOL    HW213677   3.599   0.310   8.770
 4331SOL     OW13678   1.967   1.013   9.174
 4331SOL    HW113679   1.890   0.980   9.228
 4331SOL    HW213680   2.052   0.983   9.216
 4332SOL     OW13681   2.534   0.203   8.937
 4332SOL    HW113682   2.624   0.187   8.897
 4332SOL    HW213683   2.542   0.208   9.036
 4333SOL     OW13684   1.937   0.345   7.481
 4333SOL    HW113685   1.845   0.317   7.452
 4333SOL    HW213686   1.968   0.422   7.425
 4334SOL     OW13687   3.302   0.856   8.846
 4334SOL    HW113688   3.245   0.908   8.783
 4334SOL    HW213689   3.398   0.868   8.822
 4335SOL     OW13690   1.934   0.166   7.766
 4335SOL    HW113691   1.917   0.249   7.712
 4335SOL    HW213692   2.024   0.129   7.744
 4336SOL     OW13693   3.045   1.335   7.567
 4336SOL    HW113694   2.946   1.324   7.569
 4336SOL    HW213695   3.079   1.350   7.660
 4337SOL     OW13696   2.475   0.842   8.879
 4337SOL    HW113697   2.531   0.923   8.862
 4337SOL    HW213698   2.534   0.762   8.882
 4338SOL     OW13699   3.355   1.767   8.407
 4338SOL    HW113700   3.388   1.831   8.338
 4338SOL    HW213701   3.421   1.761   8.482
 4339SOL     OW13702   2.578   0.565   9.156
 4339SOL    HW113703   2.597   0.630   9.230
 4339SOL    HW213704   2.638   0.485   9.165
 4340SOL     OW13705   3.312   1.220   9.081
 4340SOL    HW113706   3.303   1.210   9.180
 4340SOL    HW213707   3.408   1.213   9.055
 4341SOL     OW13708   2.252   1.741   9.008
 4341SOL    HW113709   2.161   1.782   9.006
 4341SOL    HW213710   2.245   1.647   9.040
 4342SOL     OW13711   3.536   0.883   8.702
 4342SOL    HW113712   3.509   0.794   8.665
 4342SOL    HW213713   3.537   0.951   8.629
 4343SOL     OW13714   3.087   0.325   7.897
 4343SOL    HW113715   3.152   0.251   7.886
 4343SOL    HW213716   3.107   0.375   7.981
 4344SOL     OW13717   2.456   0.745   8.100
 4344SOL    HW113718   2.506   0.830   8.081
 4344SOL    HW213719   2.368   0.747   8.052
 4345SOL     OW13720   3.639   0.342   9.090
 4345SOL    HW113721   3.622   0.373   8.996
 4345SOL    HW213722   3.555   0.305   9.128
 4346SOL     OW13723   3.592   0.934   8.965
 4346SOL    HW113724   3.630   1.025   8.980
 4346SOL    HW213725   3.584   0.917   8.866
 4347SOL     OW13726   2.523   1.790   8.401
 4347SOL    HW113727   2.477   1.878   8.388
 4347SOL    HW213728   2.622   1.802   8.394
 4348SOL     OW13729   2.721   0.956   8.309
 4348SOL    HW113730   2.775   0.887   8.357
 4348SOL    HW213731   2.689   1.025   8.375
 4349SOL     OW13732   2.945   0.984   7.535
 4349SOL    HW113733   2.922   1.037   7.453
 4349SOL    HW213734   3.026   0.928   7.516
 4350SOL     OW13735   3.723   1.569   8.299
 4350SOL    HW113736   3.652   1.557   8.229
 4350SOL    HW213737   3.724   1.490   8.359
 4351SOL     OW13738   2.083   1.314   9.292
 4351SOL    HW113739   2.018   1.241   9.271
 4351SOL    HW213740   2.087   1.328   9.390
 4352SOL     OW13741   1.941   1.240   8.101
 4352SOL    HW113742   1.940   1.193   8.189
 4352SOL    HW213743   2.023   1.212   8.050
 4353SOL     OW13744   2.534   1.391   9.072
 4353SOL    HW113745   2.456   1.341   9.110
 4353SOL    HW213746   2.531   1.486   9.103
 4354SOL     OW13747   3.686   0.192   8.675
 4354SOL    HW113748   3.682   0.102   8.719
 4354SOL    HW213749   3.689   0.181   8.576
 4355SOL     OW13750   2.290   0.424   7.968
 4355SOL    HW113751   2.320   0.352   7.906
 4355SOL    HW213752   2.251   0.384   8.051
 4356SOL     OW13753   3.567   1.487   8.552
 4356SOL    HW113754   3.474   1.462   8.525
 4356SOL    HW213755   3.593   1.437   8.634
 4357SOL     OW13756   2.179   0.547   8.728
 4357SOL    HW113757   2.217   0.488   8.800
 4357SOL    HW213758   2.219   0.521   8.640
 4358SOL     OW13759   2.674   1.586   8.135
 4358SOL    HW113760   2.706   1.596   8.041
 4358SOL    HW213761   2.595   1.524   8.137
 4359SOL     OW13762   3.286   0.214   8.560
 4359SOL    HW113763   3.338   0.149   8.615
 4359SOL    HW213764   3.237   0.277   8.621
 4360SOL     OW13765   2.863   0.034   8.602
 4360SOL    HW113766   2.800  -0.038   8.571
 4360SOL    HW213767   2.956  -0.002   8.602
 4361SOL     OW13768   2.632   1.330   7.749
 4361SOL    HW113769   2.586   1.243   7.766
 4361SOL    HW213770   2.723   1.327   7.790
 4362SOL     OW13771   2.480   1.567   8.732
 4362SOL    HW113772   2.475   1.649   8.789
 4362SOL    HW213773   2.569   1.564   8.687
 4363SOL     OW13774   3.214   0.052   7.616
 4363SOL    HW113775   3.249   0.011   7.532
 4363SOL    HW213776   3.124   0.014   7.636
 4364SOL     OW13777   3.162   0.453   8.139
 4364SOL    HW113778   3.103   0.533   8.143
 4364SOL    HW213779   3.177   0.418   8.232
 4365SOL     OW13780   3.455   0.221   8.330
 4365SOL    HW113781   3.371   0.220   8.384
 4365SOL    HW213782   3.457   0.304   8.274
 4366SOL     OW13783   1.901   1.077   7.748
 4366SOL    HW113784   2.000   1.066   7.739
 4366SOL    HW213785   1.861   0.991   7.780
 4367SOL     OW13786   2.092   0.628   9.423
 4367SOL    HW113787   1.999   0.626   9.460
 4367SOL    HW213788   2.093   0.589   9.331
 4368SOL     OW13789   2.087   0.275  10.306
 4368SOL    HW113790   2.122   0.258  10.398
 4368SOL    HW213791   1.999   0.230  10.294
 4369SOL     OW13792   1.881   0.368   9.957
 4369SOL    HW113793   1.799   0.411   9.996
 4369SOL    HW213794   1.853   0.295   9.894
 4370SOL     OW13795   2.431   1.275  10.475
 4370SOL    HW113796   2.338   1.268  10.438
 4370SOL    HW213797   2.442   1.364  10.519
 4371SOL     OW13798   3.417   1.511  10.013
 4371SOL    HW113799   3.360   1.495  10.094
 4371SOL    HW213800   3.358   1.521   9.933
 4372SOL     OW13801   2.997   0.703  10.027
 4372SOL    HW113802   3.054   0.781  10.002
 4372SOL    HW213803   2.937   0.729  10.103
 4373SOL     OW13804   3.617   0.607   9.541
 4373SOL    HW113805   3.605   0.594   9.442
 4373SOL    HW213806   3.587   0.526   9.590
 4374SOL     OW13807   2.630   1.144  10.333
 4374SOL    HW113808   2.552   1.161  10.393
 4374SOL    HW213809   2.664   1.231  10.297
 4375SOL     OW13810   2.712   0.798  11.133
 4375SOL    HW113811   2.708   0.874  11.198
 4375SOL    HW213812   2.734   0.834  11.042
 4376SOL     OW13813   2.547   1.012   9.975
 4376SOL    HW113814   2.616   0.996  10.045
 4376SOL    HW213815   2.474   1.069  10.013
 4377SOL     OW13816   2.548   1.161  11.113
 4377SOL    HW113817   2.608   1.240  11.127
 4377SOL    HW213818   2.462   1.192  11.072
 4378SOL     OW13819   2.197   1.435  10.371
 4378SOL    HW113820   2.119   1.404  10.318
 4378SOL    HW213821   2.255   1.493  10.314
 4379SOL     OW13822   3.322   1.505  10.649
 4379SOL    HW113823   3.346   1.599  10.675
 4379SOL    HW213824   3.306   1.451  10.731
 4380SOL     OW13825   2.300   0.392  10.809
 4380SOL    HW113826   2.382   0.336  10.818
 4380SOL    HW213827   2.219   0.334  10.813
 4381SOL     OW13828   3.465   0.447  10.047
 4381SOL    HW113829   3.391   0.493   9.997
 4381SOL    HW213830   3.516   0.515  10.100
 4382SOL     OW13831   2.093   1.713   9.793
 4382SOL    HW113832   2.127   1.790   9.847
 4382SOL    HW213833   2.137   1.713   9.703
 4383SOL     OW13834   2.989   1.341  11.000
 4383SOL    HW113835   3.036   1.341  11.088
 4383SOL    HW213836   2.941   1.254  10.989
 4384SOL     OW13837   2.092   1.434   9.848
 4384SOL    HW113838   2.066   1.530   9.848
 4384SOL    HW213839   2.021   1.380   9.893
 4385SOL     OW13840   2.102   1.091  10.196
 4385SOL    HW113841   2.116   1.007  10.248
 4385SOL    HW213842   2.047   1.155  10.251
 4386SOL     OW13843   2.482   1.786  10.749
 4386SOL    HW113844   2.390   1.769  10.784
 4386SOL    HW213845   2.510   1.878  10.775
 4387SOL     OW13846   2.468   0.964   9.433
 4387SOL    HW113847   2.475   1.048   9.379
 4387SOL    HW213848   2.514   0.977   9.521
 4388SOL     OW13849   3.456   0.114  10.790
 4388SOL    HW113850   3.438   0.181  10.718
 4388SOL    HW213851   3.453   0.160  10.879
 4389SOL     OW13852   1.984   0.643   9.873
 4389SOL    HW113853   1.939   0.555   9.890
 4389SOL    HW213854   1.983   0.697   9.957
 4390SOL     OW13855   3.704   1.767   9.669
 4390SOL    HW113856   3.758   1.738   9.749
 4390SOL    HW213857   3.734   1.857   9.640
 4391SOL     OW13858   1.889   1.596   9.427
 4391SOL    HW113859   1.870   1.500   9.448
 4391SOL    HW213860   1.856   1.654   9.502
 4392SOL     OW13861   3.551   0.922   9.922
 4392SOL    HW113862   3.646   0.893   9.930
 4392SOL    HW213863   3.543   0.987   9.847
 4393SOL     OW13864   3.503   1.108   9.742
 4393SOL    HW113865   3.589   1.110   9.690
 4393SOL    HW213866   3.517   1.155   9.830
 4394SOL     OW13867   1.975   0.737  10.907
 4394SOL    HW113868   2.063   0.724  10.952
 4394SOL    HW213869   1.962   0.834  10.885
 4395SOL     OW13870   2.475   1.365  10.036
 4395SOL    HW113871   2.426   1.278  10.045
 4395SOL    HW213872   2.452   1.408   9.949
 4396SOL     OW13873   3.155   1.228  10.733
 4396SOL    HW113874   3.192   1.155  10.675
 4396SOL    HW213875   3.207   1.233  10.818
 4397SOL     OW13876   2.671   0.004   9.812
 4397SOL    HW113877   2.711   0.095   9.803
 4397SOL    HW213878   2.571   0.012   9.818
 4398SOL     OW13879   2.059   0.976  10.574
 4398SOL    HW113880   2.148   0.931  10.560
 4398SOL    HW213881   1.986   0.911  10.555
 4399SOL     OW13882   3.387   0.999   9.500
 4399SOL    HW113883   3.324   0.923   9.513
 4399SOL    HW213884   3.435   1.017   9.586
 4400SOL     OW13885   3.049   1.792  10.926
 4400SOL    HW113886   3.073   1.852  10.850
 4400SOL    HW213887   3.056   1.697  10.896
 4401SOL     OW13888   2.179   0.251  11.111
 4401SOL    HW113889   2.250   0.322  11.117
 4401SOL    HW213890   2.091   0.290  11.139
 4402SOL     OW13891   3.328   1.417  10.263
 4402SOL    HW113892   3.269   1.423  10.343
 4402SOL    HW213893   3.313   1.329  10.217
 4403SOL     OW13894   3.529   1.714   9.882
 4403SOL    HW113895   3.488   1.691   9.794
 4403SOL    HW213896   3.511   1.640   9.947
 4404SOL     OW13897   2.460   0.729   9.580
 4404SOL    HW113898   2.484   0.798   9.512
 4404SOL    HW213899   2.382   0.762   9.634
 4405SOL     OW13900   3.143   0.345  10.254
 4405SOL    HW113901   3.057   0.295  10.241
 4405SOL    HW213902   3.205   0.291  10.310
 4406SOL     OW13903   3.438   1.662   9.617
 4406SOL    HW113904   3.527   1.708   9.620
 4406SOL    HW213905   3.417   1.638   9.522
 4407SOL     OW13906   2.669   0.605  10.775
 4407SOL    HW113907   2.622   0.602  10.864
 4407SOL    HW213908   2.618   0.550  10.709
 4408SOL     OW13909   3.256   0.469  10.984
 4408SOL    HW113910   3.236   0.512  11.072
 4408SOL    HW213911   3.334   0.407  10.993
 4409SOL     OW13912   2.835   0.890  10.882
 4409SOL    HW113913   2.881   0.806  10.853
 4409SOL    HW213914   2.779   0.924  10.807
 4410SOL     OW13915   2.853   0.410  10.552
 4410SOL    HW113916   2.776   0.444  10.606
 4410SOL    HW213917   2.819   0.359  10.473
 4411SOL     OW13918   2.903   0.701   9.739
 4411SOL    HW113919   2.929   0.697   9.835
 4411SOL    HW213920   2.818   0.650   9.725
 4412SOL     OW13921   1.938   0.811  10.099
 4412SOL    HW113922   2.037   0.799  10.108
 4412SOL    HW213923   1.914   0.906  10.120
 4413SOL     OW13924   2.727   0.348   9.505
 4413SOL    HW113925   2.786   0.411   9.456
 4413SOL    HW213926   2.746   0.254   9.476
 4414SOL     OW13927   3.581   0.585  11.141
 4414SOL    HW113928   3.555   0.674  11.105
 4414SOL    HW213929   3.579   0.517  11.068
 4415SOL     OW13930   3.224   1.144   9.855
 4415SOL    HW113931   3.307   1.115   9.807
 4415SOL    HW213932   3.175   1.211   9.799
 4416SOL     OW13933   2.412   0.196  10.195
 4416SOL    HW113934   2.407   0.191  10.295
 4416SOL    HW213935   2.414   0.292  10.166
 4417SOL     OW13936   2.870   1.456   9.787
 4417SOL    HW113937   2.824   1.528   9.735
 4417SOL    HW213938   2.866   1.476   9.885
 4418SOL     OW13939   2.213   1.801  10.163
 4418SOL    HW113940   2.263   1.715  10.169
 4418SOL    HW213941   2.278   1.878  10.160
 4419SOL     OW13942   3.657   1.066  10.183
 4419SOL    HW113943   3.595   1.051  10.107
 4419SOL    HW213944   3.605   1.077  10.268
 4420SOL     OW13945   3.089   1.550  10.816
 4420SOL    HW113946   3.095   1.473  10.880
 4420SOL    HW213947   3.037   1.524  10.736
 4421SOL     OW13948   2.183   0.943   9.552
 4421SOL    HW113949   2.265   0.982   9.510
 4421SOL    HW213950   2.156   0.861   9.503
 4422SOL     OW13951   3.320   0.735  10.038
 4422SOL    HW113952   3.315   0.670  10.113
 4422SOL    HW213953   3.400   0.794  10.051
 4423SOL     OW13954   2.323   1.266  11.037
 4423SOL    HW113955   2.273   1.267  10.951
 4423SOL    HW213956   2.260   1.248  11.113
 4424SOL     OW13957   2.973   1.776   9.547
 4424SOL    HW113958   2.913   1.714   9.597
 4424SOL    HW213959   3.004   1.732   9.462
 4425SOL     OW13960   2.064   0.285  10.808
 4425SOL    HW113961   1.984   0.345  10.795
 4425SOL    HW213962   2.054   0.236  10.894
 4426SOL     OW13963   3.494   1.377   9.391
 4426SOL    HW113964   3.462   1.471   9.381
 4426SOL    HW213965   3.418   1.314   9.379
 4427SOL     OW13966   2.326   1.743   9.633
 4427SOL    HW113967   2.359   1.782   9.719
 4427SOL    HW213968   2.402   1.736   9.568
 4428SOL     OW13969   3.262   0.107   9.736
 4428SOL    HW113970   3.238   0.070   9.646
 4428SOL    HW213971   3.361   0.123   9.740
 4429SOL     OW13972   2.111   1.785  10.551
 4429SOL    HW113973   2.168   1.720  10.601
 4429SOL    HW213974   2.095   1.752  10.458
 4430SOL     OW13975   2.802   1.698  10.214
 4430SOL    HW113976   2.882   1.641  10.235
 4430SOL    HW213977   2.753   1.658  10.137
 4431SOL     OW13978   2.244   0.700   9.790
 4431SOL    HW113979   2.289   0.610   9.787
 4431SOL    HW213980   2.150   0.689   9.823
 4432SOL     OW13981   3.409   0.222  11.039
 4432SOL    HW113982   3.404   0.259  11.131
 4432SOL    HW213983   3.337   0.153  11.027
 4433SOL     OW13984   2.476   0.122   9.427
 4433SOL    HW113985   2.574   0.100   9.434
 4433SOL    HW213986   2.445   0.105   9.334
 4434SOL     OW13987   2.643   0.264  11.059
 4434SOL    HW113988   2.710   0.203  11.102
 4434SOL    HW213989   2.570   0.283  11.124
 4435SOL     OW13990   2.750   1.514  10.505
 4435SOL    HW113991   2.727   1.489  10.411
 4435SOL    HW213992   2.811   1.445  10.544
 4436SOL     OW13993   3.213   0.590  10.743
 4436SOL    HW113994   3.241   0.547  10.828
 4436SOL    HW213995   3.238   0.686  10.744
 4437SOL     OW13996   2.665   1.402  10.234
 4437SOL    HW113997   2.755   1.416  10.192
 4437SOL    HW213998   2.594   1.404  10.163
 4438SOL     OW13999   2.784   0.503  10.209
 4438SOL    HW114000   2.759   0.494  10.113
 4438SOL    HW214001   2.832   0.421  10.240
 4439SOL     OW14002   2.401   0.064   9.822
 4439SOL    HW114003   2.320   0.065   9.880
 4439SOL    HW214004   2.404   0.147   9.767
 4440SOL     OW14005   3.296   1.188   9.351
 4440SOL    HW114006   3.328   1.112   9.408
 4440SOL    HW214007   3.204   1.215   9.381
 4441SOL     OW14008   2.159   0.035   9.481
 4441SOL    HW114009   2.208   0.119   9.460
 4441SOL    HW214010   2.221  -0.030   9.526
 4442SOL     OW14011   2.797   0.236   9.790
 4442SOL    HW114012   2.749   0.277   9.712
 4442SOL    HW214013   2.896   0.234   9.771
 4443SOL     OW14014   2.938   0.683  10.774
 4443SOL    HW114015   2.858   0.622  10.777
 4443SOL    HW214016   3.019   0.630  10.750
 4444SOL     OW14017   3.089   1.570  10.103
 4444SOL    HW114018   3.110   1.644  10.038
 4444SOL    HW214019   3.157   1.570  10.176
 4445SOL     OW14020   2.321   1.152  10.051
 4445SOL    HW114021   2.250   1.125  10.116
 4445SOL    HW214022   2.295   1.124   9.958
 4446SOL     OW14023   3.133   1.797   9.901
 4446SOL    HW114024   3.177   1.861   9.837
 4446SOL    HW214025   3.083   1.849   9.971
 4447SOL     OW14026   2.894   0.549   9.326
 4447SOL    HW114027   2.853   0.631   9.287
 4447SOL    HW214028   2.958   0.575   9.399
 4448SOL     OW14029   1.940   0.556  10.696
 4448SOL    HW114030   2.032   0.555  10.655
 4448SOL    HW214031   1.934   0.630  10.763
 4449SOL     OW14032   2.423   0.222  10.457
 4449SOL    HW114033   2.461   0.138  10.494
 4449SOL    HW214034   2.335   0.241  10.501
 4450SOL     OW14035   2.728   0.454   9.952
 4450SOL    HW114036   2.696   0.526   9.890
 4450SOL    HW214037   2.752   0.373   9.899
 4451SOL     OW14038   2.879   0.039  10.063
 4451SOL    HW114039   2.807   0.044   9.994
 4451SOL    HW214040   2.855  -0.030  10.132
 4452SOL     OW14041   3.291   1.173  10.177
 4452SOL    HW114042   3.236   1.089  10.170
 4452SOL    HW214043   3.317   1.202  10.085
 4453SOL     OW14044   3.328   0.590  10.302
 4453SOL    HW114045   3.298   0.495  10.309
 4453SOL    HW214046   3.401   0.606  10.368
 4454SOL     OW14047   3.719   0.833   9.687
 4454SOL    HW114048   3.761   0.769   9.751
 4454SOL    HW214049   3.681   0.782   9.609
 4455SOL     OW14050   2.350   1.385   9.484
 4455SOL    HW114051   2.263   1.370   9.531
 4455SOL    HW214052   2.333   1.411   9.389
 4456SOL     OW14053   3.526   1.280   9.967
 4456SOL    HW114054   3.625   1.288   9.981
 4456SOL    HW214055   3.481   1.364   9.998
 4457SOL     OW14056   3.252   0.575   9.388
 4457SOL    HW114057   3.198   0.554   9.469
 4457SOL    HW214058   3.343   0.534   9.397
 4458SOL     OW14059   2.389   0.256   9.638
 4458SOL    HW114060   2.416   0.197   9.563
 4458SOL    HW214061   2.389   0.351   9.607
 4459SOL     OW14062   3.616   1.223  10.898
 4459SOL    HW114063   3.707   1.184  10.885
 4459SOL    HW214064   3.624   1.319  10.922
 4460SOL     OW14065   2.926   1.347  10.650
 4460SOL    HW114066   2.846   1.324  10.705
 4460SOL    HW214067   3.009   1.321  10.699
 4461SOL     OW14068   3.454   1.629  10.935
 4461SOL    HW114069   3.481   1.663  10.845
 4461SOL    HW214070   3.533   1.591  10.981
 4462SOL     OW14071   2.973   1.195  10.410
 4462SOL    HW114072   2.933   1.239  10.491
 4462SOL    HW214073   2.932   1.232  10.327
 4463SOL     OW14074   3.500   1.099  10.389
 4463SOL    HW114075   3.505   1.180  10.448
 4463SOL    HW214076   3.414   1.101  10.338
 4464SOL     OW14077   2.777   0.089  10.712
 4464SOL    HW114078   2.802   0.069  10.617
 4464SOL    HW214079   2.849   0.145  10.754
 4465SOL     OW14080   2.842   1.116  11.029
 4465SOL    HW114081   2.743   1.122  11.039
 4465SOL    HW214082   2.865   1.036  10.973
 4466SOL     OW14083   2.567   1.050   9.678
 4466SOL    HW114084   2.553   1.057   9.777
 4466SOL    HW214085   2.651   0.999   9.660
 4467SOL     OW14086   2.272   0.813  10.561
 4467SOL    HW114087   2.358   0.825  10.611
 4467SOL    HW214088   2.230   0.726  10.588
 4468SOL     OW14089   3.136   0.386  10.572
 4468SOL    HW114090   3.157   0.460  10.636
 4468SOL    HW214091   3.047   0.403  10.529
 4469SOL     OW14092   1.926   1.564  10.641
 4469SOL    HW114093   1.880   1.646  10.607
 4469SOL    HW214094   2.024   1.583  10.650
 4470SOL     OW14095   2.229   1.100   9.811
 4470SOL    HW114096   2.222   1.183   9.755
 4470SOL    HW214097   2.233   1.020   9.751
 4471SOL     OW14098   2.428   0.537  10.175
 4471SOL    HW114099   2.440   0.603  10.101
 4471SOL    HW214100   2.474   0.571  10.258
 4472SOL     OW14101   3.114   1.348   9.698
 4472SOL    HW114102   3.164   1.425   9.738
 4472SOL    HW214103   3.019   1.350   9.730
 4473SOL     OW14104   3.134   1.445  10.452
 4473SOL    HW114105   3.181   1.458  10.539
 4473SOL    HW214106   3.068   1.371  10.461
 4474SOL     OW14107   3.444   0.639   9.782
 4474SOL    HW114108   3.413   0.700   9.855
 4474SOL    HW214109   3.494   0.691   9.713
 4475SOL     OW14110   2.216   1.510  10.639
 4475SOL    HW114111   2.195   1.466  10.552
 4475SOL    HW214112   2.313   1.536  10.642
 4476SOL     OW14113   2.264   0.751  10.908
 4476SOL    HW114114   2.332   0.806  10.861
 4476SOL    HW214115   2.304   0.663  10.935
 4477SOL     OW14116   3.449   0.779  10.980
 4477SOL    HW114117   3.357   0.817  10.975
 4477SOL    HW214118   3.509   0.826  10.915
 4478SOL     OW14119   2.875   0.105  11.080
 4478SOL    HW114120   2.881   0.190  11.028
 4478SOL    HW214121   2.907   0.029  11.023
 4479SOL     OW14122   2.366   0.050  11.050
 4479SOL    HW114123   2.324  -0.007  10.980
 4479SOL    HW214124   2.300   0.119  11.082
 4480SOL     OW14125   2.435   0.870  10.339
 4480SOL    HW114126   2.479   0.959  10.330
 4480SOL    HW214127   2.372   0.870  10.416
 4481SOL     OW14128   3.222   0.862  10.355
 4481SOL    HW114129   3.147   0.862  10.289
 4481SOL    HW214130   3.259   0.770  10.364
 4482SOL     OW14131   3.071   0.525   9.585
 4482SOL    HW114132   3.084   0.441   9.639
 4482SOL    HW214133   3.042   0.599   9.645
 4483SOL     OW14134   2.169   0.213  10.541
 4483SOL    HW114135   2.146   0.250  10.631
 4483SOL    HW214136   2.139   0.118  10.535
 4484SOL     OW14137   1.899   1.310  10.592
 4484SOL    HW114138   1.952   1.261  10.660
 4484SOL    HW214139   1.921   1.408  10.597
 4485SOL     OW14140   2.594   0.634  10.374
 4485SOL    HW114141   2.653   0.608  10.298
 4485SOL    HW214142   2.566   0.730  10.363
 4486SOL     OW14143   3.590   0.935  11.164
 4486SOL    HW114144   3.544   0.928  11.075
 4486SOL    HW214145   3.528   0.979  11.230
 4487SOL     OW14146   2.169   0.063   9.928
 4487SOL    HW114147   2.158   0.157   9.961
 4487SOL    HW214148   2.164   0.000  10.005
 4488SOL     OW14149   3.484   0.367   9.684
 4488SOL    HW114150   3.486   0.291   9.748
 4488SOL    HW214151   3.436   0.444   9.724
 4489SOL     OW14152   2.885   0.766  10.276
 4489SOL    HW114153   2.900   0.787  10.372
 4489SOL    HW214154   2.855   0.671  10.267
 4490SOL     OW14155   2.842   1.573  11.010
 4490SOL    HW114156   2.822   1.617  10.922
 4490SOL    HW214157   2.881   1.482  10.994
 4491SOL     OW14158   3.721   1.518  10.915
 4491SOL    HW114159   3.735   1.545  10.820
 4491SOL    HW214160   3.804   1.540  10.968
 4492SOL     OW14161   2.212   0.898  11.114
 4492SOL    HW114162   2.288   0.942  11.162
 4492SOL    HW214163   2.247   0.851  11.032
 4493SOL     OW14164   3.402   0.274   9.435
 4493SOL    HW114165   3.341   0.199   9.458
 4493SOL    HW214166   3.424   0.326   9.518
 4494SOL     OW14167   3.165   0.838   9.352
 4494SOL    HW114168   3.199   0.745   9.367
 4494SOL    HW214169   3.183   0.865   9.257
 4495SOL     OW14170   2.930   1.333  10.159
 4495SOL    HW114171   2.937   1.249  10.104
 4495SOL    HW214172   2.992   1.402  10.123
 4496SOL     OW14173   2.181   0.810  10.259
 4496SOL    HW114174   2.274   0.846  10.264
 4496SOL    HW214175   2.175   0.725  10.311
 4497SOL     OW14176   2.201   0.509  10.316
 4497SOL    HW114177   2.149   0.426  10.299
 4497SOL    HW214178   2.278   0.514  10.252
 4498SOL     OW14179   3.000   0.380  10.988
 4498SOL    HW114180   2.955   0.443  11.052
 4498SOL    HW214181   3.093   0.411  10.971
 4499SOL     OW14182   3.022   0.207  10.787
 4499SOL    HW114183   3.022   0.271  10.864
 4499SOL    HW214184   3.050   0.255  10.704
 4500SOL     OW14185   1.870   1.326   9.510
 4500SOL    HW114186   1.777   1.347   9.479
 4500SOL    HW214187   1.880   1.227   9.523
 4501SOL     OW14188   1.950   1.801  10.237
 4501SOL    HW114189   1.908   1.715  10.210
 4501SOL    HW214190   2.044   1.804  10.203
 4502SOL     OW14191   2.366   1.568  10.220
 4502SOL    HW114192   2.432   1.642  10.229
 4502SOL    HW214193   2.410   1.489  10.178
 4503SOL     OW14194   2.864   0.796  10.548
 4503SOL    HW114195   2.905   0.764  10.634
 4503SOL    HW214196   2.768   0.769  10.545
 4504SOL     OW14197   1.902   0.544  10.424
 4504SOL    HW114198   1.987   0.511  10.383
 4504SOL    HW214199   1.915   0.559  10.522
 4505SOL     OW14200   2.051   0.520  11.032
 4505SOL    HW114201   2.110   0.480  10.962
 4505SOL    HW214202   1.993   0.591  10.991
 4506SOL     OW14203   3.231   0.950  10.970
 4506SOL    HW114204   3.270   1.039  10.990
 4506SOL    HW214205   3.241   0.930  10.873
 4507SOL     OW14206   2.677   0.572   9.635
 4507SOL    HW114207   2.684   0.483   9.589
 4507SOL    HW214208   2.583   0.606   9.627
 4508SOL     OW14209   3.519   0.604  10.516
 4508SOL    HW114210   3.481   0.535  10.578
 4508SOL    HW214211   3.601   0.568  10.472
 4509SOL     OW14212   2.114   1.564  11.054
 4509SOL    HW114213   2.084   1.621  11.130
 4509SOL    HW214214   2.107   1.467  11.080
 4510SOL     OW14215   2.533   0.464  10.579
 4510SOL    HW114216   2.499   0.375  10.549
 4510SOL    HW214217   2.559   0.518  10.499
 4511SOL     OW14218   2.792   1.678  10.775
 4511SOL    HW114219   2.768   1.660  10.680
 4511SOL    HW214220   2.822   1.772  10.785
 4512SOL     OW14221   2.335   0.500   9.501
 4512SOL    HW114222   2.396   0.580   9.505
 4512SOL    HW214223   2.240   0.531   9.508
 4513SOL     OW14224   2.021   1.137  10.776
 4513SOL    HW114225   2.043   1.076  10.852
 4513SOL    HW214226   2.031   1.088  10.690
 4514SOL     OW14227   3.209   1.059  10.544
 4514SOL    HW114228   3.233   0.996  10.470
 4514SOL    HW214229   3.119   1.099  10.526
 4515SOL     OW14230   3.164   0.855   9.619
 4515SOL    HW114231   3.078   0.824   9.661
 4515SOL    HW214232   3.160   0.841   9.520
 4516SOL     OW14233   3.621   1.747  10.464
 4516SOL    HW114234   3.682   1.777  10.391
 4516SOL    HW214235   3.583   1.658  10.442
 4517SOL     OW14236   3.114   1.731  10.438
 4517SOL    HW114237   3.198   1.736  10.384
 4517SOL    HW214238   3.091   1.635  10.456
 4518SOL     OW14239   1.945   1.258  10.332
 4518SOL    HW114240   1.940   1.257  10.432
 4518SOL    HW214241   1.862   1.217  10.294
 4519SOL     OW14242   2.550   1.662  11.026
 4519SOL    HW114243   2.494   1.743  11.035
 4519SOL    HW214244   2.602   1.666  10.940
 4520SOL     OW14245   3.588   0.135   9.833
 4520SOL    HW114246   3.661   0.118   9.766
 4520SOL    HW214247   3.557   0.048   9.871
 4521SOL     OW14248   3.250   1.573   9.787
 4521SOL    HW114249   3.317   1.585   9.713
 4521SOL    HW214250   3.210   1.662   9.810
 4522SOL     OW14251   1.992   1.794  11.161
 4522SOL    HW114252   1.951   1.720  11.214
 4522SOL    HW214253   2.056   1.845  11.219
 4523SOL     OW14254   3.142   0.927   9.982
 4523SOL    HW114255   3.202   0.846   9.984
 4523SOL    HW214256   3.182   0.996   9.922
 4524SOL     OW14257   2.692   1.273  10.732
 4524SOL    HW114258   2.687   1.306  10.827
 4524SOL    HW214259   2.606   1.292  10.686
 4525SOL     OW14260   2.534   1.616   9.464
 4525SOL    HW114261   2.543   1.626   9.365
 4525SOL    HW214262   2.494   1.527   9.485
 4526SOL     OW14263   3.512   1.720  10.704
 4526SOL    HW114264   3.565   1.730  10.620
 4526SOL    HW214265   3.485   1.810  10.738
 4527SOL     OW14266   3.703   0.175  10.273
 4527SOL    HW114267   3.742   0.090  10.237
 4527SOL    HW214268   3.605   0.177  10.254
 4528SOL     OW14269   2.125   0.326  10.030
 4528SOL    HW114270   2.046   0.377   9.996
 4528SOL    HW214271   2.116   0.311  10.128
 4529SOL     OW14272   3.056   1.612   9.341
 4529SOL    HW114273   3.062   1.519   9.378
 4529SOL    HW214274   2.997   1.612   9.261
 4530SOL     OW14275   2.684   1.002  10.682
 4530SOL    HW114276   2.724   1.001  10.590
 4530SOL    HW214277   2.694   1.094  10.722
 4531SOL     OW14278   2.778   0.910   9.601
 4531SOL    HW114279   2.841   0.948   9.533
 4531SOL    HW214280   2.818   0.827   9.640
 4532SOL     OW14281   3.366   1.607   9.354
 4532SOL    HW114282   3.274   1.644   9.361
 4532SOL    HW214283   3.404   1.627   9.264
 4533SOL     OW14284   2.234   1.288  10.800
 4533SOL    HW114285   2.221   1.381  10.766
 4533SOL    HW214286   2.150   1.236  10.787
 4534SOL     OW14287   3.476   1.292  10.599
 4534SOL    HW114288   3.536   1.295  10.679
 4534SOL    HW214289   3.401   1.356  10.612
 4535SOL     OW14290   2.901   1.098  10.006
 4535SOL    HW114291   2.831   1.051  10.060
 4535SOL    HW214292   2.960   1.030   9.963
 4536SOL     OW14293   2.876   0.236  10.281
 4536SOL    HW114294   2.868   0.200  10.188
 4536SOL    HW214295   2.874   0.160  10.346
 4537SOL     OW14296   2.452   1.487   9.801
 4537SOL    HW114297   2.494   1.429   9.731
 4537SOL    HW214298   2.408   1.566   9.757
 4538SOL     OW14299   3.571   0.385  10.691
 4538SOL    HW114300   3.644   0.454  10.695
 4538SOL    HW214301   3.599   0.310  10.632
 4539SOL     OW14302   2.117   1.348   9.600
 4539SOL    HW114303   2.021   1.349   9.573
 4539SOL    HW214304   2.129   1.401   9.684
 4540SOL     OW14305   1.967   1.013  11.036
 4540SOL    HW114306   1.890   0.980  11.090
 4540SOL    HW214307   2.052   0.983  11.078
 4541SOL     OW14308   2.534   0.203  10.799
 4541SOL    HW114309   2.624   0.187  10.759
 4541SOL    HW214310   2.542   0.208  10.898
 4542SOL     OW14311   1.937   0.345   9.343
 4542SOL    HW114312   1.845   0.317   9.314
 4542SOL    HW214313   1.968   0.422   9.287
 4543SOL     OW14314   3.302   0.856  10.708
 4543SOL    HW114315   3.245   0.908  10.645
 4543SOL    HW214316   3.398   0.868  10.684
 4544SOL     OW14317   1.934   0.166   9.628
 4544SOL    HW114318   1.917   0.249   9.574
 4544SOL    HW214319   2.024   0.129   9.606
 4545SOL     OW14320   3.045   1.335   9.429
 4545SOL    HW114321   2.946   1.324   9.431
 4545SOL    HW214322   3.079   1.350   9.522
 4546SOL     OW14323   2.475   0.842  10.741
 4546SOL    HW114324   2.531   0.923  10.724
 4546SOL    HW214325   2.534   0.762  10.744
 4547SOL     OW14326   3.355   1.767  10.269
 4547SOL    HW114327   3.388   1.831  10.200
 4547SOL    HW214328   3.421   1.761  10.344
 4548SOL     OW14329   2.578   0.565  11.018
 4548SOL    HW114330   2.597   0.630  11.092
 4548SOL    HW214331   2.638   0.485  11.027
 4549SOL     OW14332   3.312   1.220  10.943
 4549SOL    HW114333   3.303   1.210  11.042
 4549SOL    HW214334   3.408   1.213  10.917
 4550SOL     OW14335   2.252   1.741  10.870
 4550SOL    HW114336   2.161   1.782  10.868
 4550SOL    HW214337   2.245   1.647  10.902
 4551SOL     OW14338   3.536   0.883  10.564
 4551SOL    HW114339   3.509   0.794  10.527
 4551SOL    HW214340   3.537   0.951  10.491
 4552SOL     OW14341   3.087   0.325   9.759
 4552SOL    HW114342   3.152   0.251   9.748
 4552SOL    HW214343   3.107   0.375   9.843
 4553SOL     OW14344   2.456   0.745   9.962
 4553SOL    HW114345   2.506   0.830   9.943
 4553SOL    HW214346   2.368   0.747   9.914
 4554SOL     OW14347   3.639   0.342  10.952
 4554SOL    HW114348   3.622   0.373  10.858
 4554SOL    HW214349   3.555   0.305  10.990
 4555SOL     OW14350   3.592   0.934  10.827
 4555SOL    HW114351   3.630   1.025  10.842
 4555SOL    HW214352   3.584   0.917  10.728
 4556SOL     OW14353   2.721   1.374   9.326
 4556SOL    HW114354   2.675   1.389   9.414
 4556SOL    HW214355   2.765   1.459   9.296
 4557SOL     OW14356   2.523   1.790  10.263
 4557SOL    HW114357   2.477   1.878  10.250
 4557SOL    HW214358   2.622   1.802  10.256
 4558SOL     OW14359   2.721   0.956  10.171
 4558SOL    HW114360   2.775   0.887  10.219
 4558SOL    HW214361   2.689   1.025  10.237
 4559SOL     OW14362   2.945   0.984   9.397
 4559SOL    HW114363   2.922   1.037   9.315
 4559SOL    HW214364   3.026   0.928   9.378
 4560SOL     OW14365   3.723   1.569  10.161
 4560SOL    HW114366   3.652   1.557  10.091
 4560SOL    HW214367   3.724   1.490  10.221
 4561SOL     OW14368   2.083   1.314  11.154
 4561SOL    HW114369   2.018   1.241  11.133
 4561SOL    HW214370   2.087   1.328  11.252
 4562SOL     OW14371   1.941   1.240   9.963
 4562SOL    HW114372   1.940   1.193  10.051
 4562SOL    HW214373   2.023   1.212   9.912
 4563SOL     OW14374   2.534   1.391  10.934
 4563SOL    HW114375   2.456   1.341  10.972
 4563SOL    HW214376   2.531   1.486  10.965
 4564SOL     OW14377   3.686   0.192  10.537
 4564SOL    HW114378   3.682   0.102  10.581
 4564SOL    HW214379   3.689   0.181  10.438
 4565SOL     OW14380   2.290   0.424   9.830
 4565SOL    HW114381   2.320   0.352   9.768
 4565SOL    HW214382   2.251   0.384   9.913
 4566SOL     OW14383   3.567   1.487  10.414
 4566SOL    HW114384   3.474   1.462  10.387
 4566SOL    HW214385   3.593   1.437  10.496
 4567SOL     OW14386   2.179   0.547  10.590
 4567SOL    HW114387   2.217   0.488  10.662
 4567SOL    HW214388   2.219   0.521  10.502
 4568SOL     OW14389   2.674   1.586   9.997
 4568SOL    HW114390   2.706   1.596   9.903
 4568SOL    HW214391   2.595   1.524   9.999
 4569SOL     OW14392   3.286   0.214  10.422
 4569SOL    HW114393   3.338   0.149  10.477
 4569SOL    HW214394   3.237   0.277  10.483
 4570SOL     OW14395   2.863   0.034  10.464
 4570SOL    HW114396   2.800  -0.038  10.433
 4570SOL    HW214397   2.956  -0.002  10.464
 4571SOL     OW14398   2.632   1.330   9.611
 4571SOL    HW114399   2.586   1.243   9.628
 4571SOL    HW214400   2.723   1.327   9.652
 4572SOL     OW14401   2.480   1.567  10.594
 4572SOL    HW114402   2.475   1.649  10.651
 4572SOL    HW214403   2.569   1.564  10.549
 4573SOL     OW14404   3.214   0.052   9.478
 4573SOL    HW114405   3.249   0.011   9.394
 4573SOL    HW214406   3.124   0.014   9.498
 4574SOL     OW14407   3.162   0.453  10.001
 4574SOL    HW114408   3.103   0.533  10.005
 4574SOL    HW214409   3.177   0.418  10.094
 4575SOL     OW14410   3.455   0.221  10.192
 4575SOL    HW114411   3.371   0.220  10.246
 4575SOL    HW214412   3.457   0.304  10.136
 4576SOL     OW14413   1.901   1.077   9.610
 4576SOL    HW114414   2.000   1.066   9.601
 4576SOL    HW214415   1.861   0.991   9.642
 4577SOL     OW14416   2.737   1.646   9.647
 4577SOL    HW114417   2.660   1.611   9.593
 4577SOL    HW214418   2.705   1.717   9.709
 4578SOL     OW14419   2.092   0.628  11.285
 4578SOL    HW114420   1.999   0.626  11.322
 4578SOL    HW214421   2.093   0.589  11.193
 4579SOL     OW14422   2.087   0.275  12.168
 4579SOL    HW114423   2.122   0.258  12.260
 4579SOL    HW214424   1.999   0.230  12.156
 4580SOL     OW14425   1.881   0.368  11.819
 4580SOL    HW114426   1.799   0.411  11.858
 4580SOL    HW214427   1.853   0.295  11.756
 4581SOL     OW14428   2.431   1.275  12.337
 4581SOL    HW114429   2.338   1.268  12.300
 4581SOL    HW214430   2.442   1.364  12.381
 4582SOL     OW14431   3.417   1.511  11.875
 4582SOL    HW114432   3.360   1.495  11.956
 4582SOL    HW214433   3.358   1.521  11.795
 4583SOL     OW14434   2.997   0.703  11.889
 4583SOL    HW114435   3.054   0.781  11.864
 4583SOL    HW214436   2.937   0.729  11.965
 4584SOL     OW14437   3.617   0.607  11.403
 4584SOL    HW114438   3.605   0.594  11.304
 4584SOL    HW214439   3.587   0.526  11.452
 4585SOL     OW14440   2.630   1.144  12.195
 4585SOL    HW114441   2.552   1.161  12.255
 4585SOL    HW214442   2.664   1.231  12.159
 4586SOL     OW14443   2.712   0.798  12.995
 4586SOL    HW114444   2.708   0.874  13.060
 4586SOL    HW214445   2.734   0.834  12.904
 4587SOL     OW14446   2.547   1.012  11.837
 4587SOL    HW114447   2.616   0.996  11.907
 4587SOL    HW214448   2.474   1.069  11.875
 4588SOL     OW14449   2.548   1.161  12.975
 4588SOL    HW114450   2.608   1.240  12.989
 4588SOL    HW214451   2.462   1.192  12.934
 4589SOL     OW14452   2.197   1.435  12.233
 4589SOL    HW114453   2.119   1.404  12.180
 4589SOL    HW214454   2.255   1.493  12.176
 4590SOL     OW14455   3.322   1.505  12.511
 4590SOL    HW114456   3.346   1.599  12.537
 4590SOL    HW214457   3.306   1.451  12.593
 4591SOL     OW14458   2.300   0.392  12.671
 4591SOL    HW114459   2.382   0.336  12.680
 4591SOL    HW214460   2.219   0.334  12.675
 4592SOL     OW14461   3.465   0.447  11.909
 4592SOL    HW114462   3.391   0.493  11.859
 4592SOL    HW214463   3.516   0.515  11.962
 4593SOL     OW14464   2.093   1.713  11.655
 4593SOL    HW114465   2.127   1.790  11.709
 4593SOL    HW214466   2.137   1.713  11.565
 4594SOL     OW14467   2.989   1.341  12.862
 4594SOL    HW114468   3.036   1.341  12.950
 4594SOL    HW214469   2.941   1.254  12.851
 4595SOL     OW14470   2.092   1.434  11.710
 4595SOL    HW114471   2.066   1.530  11.710
 4595SOL    HW214472   2.021   1.380  11.755
 4596SOL     OW14473   2.102   1.091  12.058
 4596SOL    HW114474   2.116   1.007  12.110
 4596SOL    HW214475   2.047   1.155  12.113
 4597SOL     OW14476   2.482   1.786  12.611
 4597SOL    HW114477   2.390   1.769  12.646
 4597SOL    HW214478   2.510   1.878  12.637
 4598SOL     OW14479   2.468   0.964  11.295
 4598SOL    HW114480   2.475   1.048  11.241
 4598SOL    HW214481   2.514   0.977  11.383
 4599SOL     OW14482   3.456   0.114  12.652
 4599SOL    HW114483   3.438   0.181  12.580
 4599SOL    HW214484   3.453   0.160  12.741
 4600SOL     OW14485   1.984   0.643  11.735
 4600SOL    HW114486   1.939   0.555  11.752
 4600SOL    HW214487   1.983   0.697  11.819
 4601SOL     OW14488   3.704   1.767  11.531
 4601SOL    HW114489   3.758   1.738  11.611
 4601SOL    HW214490   3.734   1.857  11.502
 4602SOL     OW14491   1.889   1.596  11.289
 4602SOL    HW114492   1.870   1.500  11.310
 4602SOL    HW214493   1.856   1.654  11.364
 4603SOL     OW14494   3.551   0.922  11.784
 4603SOL    HW114495   3.646   0.893  11.792
 4603SOL    HW214496   3.543   0.987  11.709
 4604SOL     OW14497   3.503   1.108  11.604
 4604SOL    HW114498   3.589   1.110  11.552
 4604SOL    HW214499   3.517   1.155  11.692
 4605SOL     OW14500   1.975   0.737  12.769
 4605SOL    HW114501   2.063   0.724  12.814
 4605SOL    HW214502   1.962   0.834  12.747
 4606SOL     OW14503   2.475   1.365  11.898
 4606SOL    HW114504   2.426   1.278  11.907
 4606SOL    HW214505   2.452   1.408  11.811
 4607SOL     OW14506   3.155   1.228  12.595
 4607SOL    HW114507   3.192   1.155  12.537
 4607SOL    HW214508   3.207   1.233  12.680
 4608SOL     OW14509   2.671   0.004  11.674
 4608SOL    HW114510   2.711   0.095  11.665
 4608SOL    HW214511   2.571   0.012  11.680
 4609SOL     OW14512   2.059   0.976  12.436
 4609SOL    HW114513   2.148   0.931  12.422
 4609SOL    HW214514   1.986   0.911  12.417
 4610SOL     OW14515   3.387   0.999  11.362
 4610SOL    HW114516   3.324   0.923  11.375
 4610SOL    HW214517   3.435   1.017  11.448
 4611SOL     OW14518   3.049   1.792  12.788
 4611SOL    HW114519   3.073   1.852  12.712
 4611SOL    HW214520   3.056   1.697  12.758
 4612SOL     OW14521   2.179   0.251  12.973
 4612SOL    HW114522   2.250   0.322  12.979
 4612SOL    HW214523   2.091   0.290  13.001
 4613SOL     OW14524   3.328   1.417  12.125
 4613SOL    HW114525   3.269   1.423  12.205
 4613SOL    HW214526   3.313   1.329  12.079
 4614SOL     OW14527   3.529   1.714  11.744
 4614SOL    HW114528   3.488   1.691  11.656
 4614SOL    HW214529   3.511   1.640  11.809
 4615SOL     OW14530   2.460   0.729  11.442
 4615SOL    HW114531   2.484   0.798  11.374
 4615SOL    HW214532   2.382   0.762  11.496
 4616SOL     OW14533   3.143   0.345  12.116
 4616SOL    HW114534   3.057   0.295  12.103
 4616SOL    HW214535   3.205   0.291  12.172
 4617SOL     OW14536   3.438   1.662  11.479
 4617SOL    HW114537   3.527   1.708  11.482
 4617SOL    HW214538   3.417   1.638  11.384
 4618SOL     OW14539   2.669   0.605  12.637
 4618SOL    HW114540   2.622   0.602  12.726
 4618SOL    HW214541   2.618   0.550  12.571
 4619SOL     OW14542   3.256   0.469  12.846
 4619SOL    HW114543   3.236   0.512  12.934
 4619SOL    HW214544   3.334   0.407  12.855
 4620SOL     OW14545   2.835   0.890  12.744
 4620SOL    HW114546   2.881   0.806  12.715
 4620SOL    HW214547   2.779   0.924  12.669
 4621SOL     OW14548   2.853   0.410  12.414
 4621SOL    HW114549   2.776   0.444  12.468
 4621SOL    HW214550   2.819   0.359  12.335
 4622SOL     OW14551   2.903   0.701  11.601
 4622SOL    HW114552   2.929   0.697  11.697
 4622SOL    HW214553   2.818   0.650  11.587
 4623SOL     OW14554   1.938   0.811  11.961
 4623SOL    HW114555   2.037   0.799  11.970
 4623SOL    HW214556   1.914   0.906  11.982
 4624SOL     OW14557   2.727   0.348  11.367
 4624SOL    HW114558   2.786   0.411  11.318
 4624SOL    HW214559   2.746   0.254  11.338
 4625SOL     OW14560   3.581   0.585  13.003
 4625SOL    HW114561   3.555   0.674  12.967
 4625SOL    HW214562   3.579   0.517  12.930
 4626SOL     OW14563   3.224   1.144  11.717
 4626SOL    HW114564   3.307   1.115  11.669
 4626SOL    HW214565   3.175   1.211  11.661
 4627SOL     OW14566   2.412   0.196  12.057
 4627SOL    HW114567   2.407   0.191  12.157
 4627SOL    HW214568   2.414   0.292  12.028
 4628SOL     OW14569   2.870   1.456  11.649
 4628SOL    HW114570   2.824   1.528  11.597
 4628SOL    HW214571   2.866   1.476  11.747
 4629SOL     OW14572   2.213   1.801  12.025
 4629SOL    HW114573   2.263   1.715  12.031
 4629SOL    HW214574   2.278   1.878  12.022
 4630SOL     OW14575   3.657   1.066  12.045
 4630SOL    HW114576   3.595   1.051  11.969
 4630SOL    HW214577   3.605   1.077  12.130
 4631SOL     OW14578   3.089   1.550  12.678
 4631SOL    HW114579   3.095   1.473  12.742
 4631SOL    HW214580   3.037   1.524  12.598
 4632SOL     OW14581   2.183   0.943  11.414
 4632SOL    HW114582   2.265   0.982  11.372
 4632SOL    HW214583   2.156   0.861  11.365
 4633SOL     OW14584   3.320   0.735  11.900
 4633SOL    HW114585   3.315   0.670  11.975
 4633SOL    HW214586   3.400   0.794  11.913
 4634SOL     OW14587   2.323   1.266  12.899
 4634SOL    HW114588   2.273   1.267  12.813
 4634SOL    HW214589   2.260   1.248  12.975
 4635SOL     OW14590   2.973   1.776  11.409
 4635SOL    HW114591   2.913   1.714  11.459
 4635SOL    HW214592   3.004   1.732  11.324
 4636SOL     OW14593   2.064   0.285  12.670
 4636SOL    HW114594   1.984   0.345  12.657
 4636SOL    HW214595   2.054   0.236  12.756
 4637SOL     OW14596   3.494   1.377  11.253
 4637SOL    HW114597   3.462   1.471  11.243
 4637SOL    HW214598   3.418   1.314  11.241
 4638SOL     OW14599   2.326   1.743  11.495
 4638SOL    HW114600   2.359   1.782  11.581
 4638SOL    HW214601   2.402   1.736  11.430
 4639SOL     OW14602   3.262   0.107  11.598
 4639SOL    HW114603   3.238   0.070  11.508
 4639SOL    HW214604   3.361   0.123  11.602
 4640SOL     OW14605   2.111   1.785  12.413
 4640SOL    HW114606   2.168   1.720  12.463
 4640SOL    HW214607   2.095   1.752  12.320
 4641SOL     OW14608   2.802   1.698  12.076
 4641SOL    HW114609   2.882   1.641  12.097
 4641SOL    HW214610   2.753   1.658  11.999
 4642SOL     OW14611   2.244   0.700  11.652
 4642SOL    HW114612   2.289   0.610  11.649
 4642SOL    HW214613   2.150   0.689  11.685
 4643SOL     OW14614   3.409   0.222  12.901
 4643SOL    HW114615   3.404   0.259  12.993
 4643SOL    HW214616   3.337   0.153  12.889
 4644SOL     OW14617   2.476   0.122  11.289
 4644SOL    HW114618   2.574   0.100  11.296
 4644SOL    HW214619   2.445   0.105  11.196
 4645SOL     OW14620   2.643   0.264  12.921
 4645SOL    HW114621   2.710   0.203  12.964
 4645SOL    HW214622   2.570   0.283  12.986
 4646SOL     OW14623   2.750   1.514  12.367
 4646SOL    HW114624   2.727   1.489  12.273
 4646SOL    HW214625   2.811   1.445  12.406
 4647SOL     OW14626   3.213   0.590  12.605
 4647SOL    HW114627   3.241   0.547  12.690
 4647SOL    HW214628   3.238   0.686  12.606
 4648SOL     OW14629   2.665   1.402  12.096
 4648SOL    HW114630   2.755   1.416  12.054
 4648SOL    HW214631   2.594   1.404  12.025
 4649SOL     OW14632   2.784   0.503  12.071
 4649SOL    HW114633   2.759   0.494  11.975
 4649SOL    HW214634   2.832   0.421  12.102
 4650SOL     OW14635   2.401   0.064  11.684
 4650SOL    HW114636   2.320   0.065  11.742
 4650SOL    HW214637   2.404   0.147  11.629
 4651SOL     OW14638   3.296   1.188  11.213
 4651SOL    HW114639   3.328   1.112  11.270
 4651SOL    HW214640   3.204   1.215  11.243
 4652SOL     OW14641   2.159   0.035  11.343
 4652SOL    HW114642   2.208   0.119  11.322
 4652SOL    HW214643   2.221  -0.030  11.388
 4653SOL     OW14644   2.797   0.236  11.652
 4653SOL    HW114645   2.749   0.277  11.574
 4653SOL    HW214646   2.896   0.234  11.633
 4654SOL     OW14647   2.938   0.683  12.636
 4654SOL    HW114648   2.858   0.622  12.639
 4654SOL    HW214649   3.019   0.630  12.612
 4655SOL     OW14650   3.089   1.570  11.965
 4655SOL    HW114651   3.110   1.644  11.900
 4655SOL    HW214652   3.157   1.570  12.038
 4656SOL     OW14653   2.321   1.152  11.913
 4656SOL    HW114654   2.250   1.125  11.978
 4656SOL    HW214655   2.295   1.124  11.820
 4657SOL     OW14656   3.133   1.797  11.763
 4657SOL    HW114657   3.177   1.861  11.699
 4657SOL    HW214658   3.083   1.849  11.833
 4658SOL     OW14659   2.894   0.549  11.188
 4658SOL    HW114660   2.853   0.631  11.149
 4658SOL    HW214661   2.958   0.575  11.261
 4659SOL     OW14662   1.940   0.556  12.558
 4659SOL    HW114663   2.032   0.555  12.517
 4659SOL    HW214664   1.934   0.630  12.625
 4660SOL     OW14665   2.423   0.222  12.319
 4660SOL    HW114666   2.461   0.138  12.356
 4660SOL    HW214667   2.335   0.241  12.363
 4661SOL     OW14668   2.728   0.454  11.814
 4661SOL    HW114669   2.696   0.526  11.752
 4661SOL    HW214670   2.752   0.373  11.761
 4662SOL     OW14671   2.879   0.039  11.925
 4662SOL    HW114672   2.807   0.044  11.856
 4662SOL    HW214673   2.855  -0.030  11.994
 4663SOL     OW14674   3.291   1.173  12.039
 4663SOL    HW114675   3.236   1.089  12.032
 4663SOL    HW214676   3.317   1.202  11.947
 4664SOL     OW14677   3.328   0.590  12.164
 4664SOL    HW114678   3.298   0.495  12.171
 4664SOL    HW214679   3.401   0.606  12.230
 4665SOL     OW14680   3.719   0.833  11.549
 4665SOL    HW114681   3.761   0.769  11.613
 4665SOL    HW214682   3.681   0.782  11.471
 4666SOL     OW14683   2.350   1.385  11.346
 4666SOL    HW114684   2.263   1.370  11.393
 4666SOL    HW214685   2.333   1.411  11.251
 4667SOL     OW14686   3.526   1.280  11.829
 4667SOL    HW114687   3.625   1.288  11.843
 4667SOL    HW214688   3.481   1.364  11.860
 4668SOL     OW14689   3.252   0.575  11.250
 4668SOL    HW114690   3.198   0.554  11.331
 4668SOL    HW214691   3.343   0.534  11.259
 4669SOL     OW14692   2.389   0.256  11.500
 4669SOL    HW114693   2.416   0.197  11.425
 4669SOL    HW214694   2.389   0.351  11.469
 4670SOL     OW14695   3.616   1.223  12.760
 4670SOL    HW114696   3.707   1.184  12.747
 4670SOL    HW214697   3.624   1.319  12.784
 4671SOL     OW14698   2.926   1.347  12.512
 4671SOL    HW114699   2.846   1.324  12.567
 4671SOL    HW214700   3.009   1.321  12.561
 4672SOL     OW14701   3.454   1.629  12.797
 4672SOL    HW114702   3.481   1.663  12.707
 4672SOL    HW214703   3.533   1.591  12.843
 4673SOL     OW14704   2.973   1.195  12.272
 4673SOL    HW114705   2.933   1.239  12.353
 4673SOL    HW214706   2.932   1.232  12.189
 4674SOL     OW14707   3.500   1.099  12.251
 4674SOL    HW114708   3.505   1.180  12.310
 4674SOL    HW214709   3.414   1.101  12.200
 4675SOL     OW14710   2.777   0.089  12.574
 4675SOL    HW114711   2.802   0.069  12.479
 4675SOL    HW214712   2.849   0.145  12.616
 4676SOL     OW14713   2.842   1.116  12.891
 4676SOL    HW114714   2.743   1.122  12.901
 4676SOL    HW214715   2.865   1.036  12.835
 4677SOL     OW14716   2.567   1.050  11.540
 4677SOL    HW114717   2.553   1.057  11.639
 4677SOL    HW214718   2.651   0.999  11.522
 4678SOL     OW14719   2.272   0.813  12.423
 4678SOL    HW114720   2.358   0.825  12.473
 4678SOL    HW214721   2.230   0.726  12.450
 4679SOL     OW14722   3.136   0.386  12.434
 4679SOL    HW114723   3.157   0.460  12.498
 4679SOL    HW214724   3.047   0.403  12.391
 4680SOL     OW14725   1.926   1.564  12.503
 4680SOL    HW114726   1.880   1.646  12.469
 4680SOL    HW214727   2.024   1.583  12.512
 4681SOL     OW14728   2.229   1.100  11.673
 4681SOL    HW114729   2.222   1.183  11.617
 4681SOL    HW214730   2.233   1.020  11.613
 4682SOL     OW14731   2.428   0.537  12.037
 4682SOL    HW114732   2.440   0.603  11.963
 4682SOL    HW214733   2.474   0.571  12.120
 4683SOL     OW14734   3.114   1.348  11.560
 4683SOL    HW114735   3.164   1.425  11.600
 4683SOL    HW214736   3.019   1.350  11.592
 4684SOL     OW14737   3.134   1.445  12.314
 4684SOL    HW114738   3.181   1.458  12.401
 4684SOL    HW214739   3.068   1.371  12.323
 4685SOL     OW14740   3.444   0.639  11.644
 4685SOL    HW114741   3.413   0.700  11.717
 4685SOL    HW214742   3.494   0.691  11.575
 4686SOL     OW14743   2.216   1.510  12.501
 4686SOL    HW114744   2.195   1.466  12.414
 4686SOL    HW214745   2.313   1.536  12.504
 4687SOL     OW14746   2.264   0.751  12.770
 4687SOL    HW114747   2.332   0.806  12.723
 4687SOL    HW214748   2.304   0.663  12.797
 4688SOL     OW14749   3.449   0.779  12.842
 4688SOL    HW114750   3.357   0.817  12.837
 4688SOL    HW214751   3.509   0.826  12.777
 4689SOL     OW14752   2.875   0.105  12.942
 4689SOL    HW114753   2.881   0.190  12.890
 4689SOL    HW214754   2.907   0.029  12.885
 4690SOL     OW14755   2.366   0.050  12.912
 4690SOL    HW114756   2.324  -0.007  12.842
 4690SOL    HW214757   2.300   0.119  12.944
 4691SOL     OW14758   2.435   0.870  12.201
 4691SOL    HW114759   2.479   0.959  12.192
 4691SOL    HW214760   2.372   0.870  12.278
 4692SOL     OW14761   3.222   0.862  12.217
 4692SOL    HW114762   3.147   0.862  12.151
 4692SOL    HW214763   3.259   0.770  12.226
 4693SOL     OW14764   3.071   0.525  11.447
 4693SOL    HW114765   3.084   0.441  11.501
 4693SOL    HW214766   3.042   0.599  11.507
 4694SOL     OW14767   2.169   0.213  12.403
 4694SOL    HW114768   2.146   0.250  12.493
 4694SOL    HW214769   2.139   0.118  12.397
 4695SOL     OW14770   1.899   1.310  12.454
 4695SOL    HW114771   1.952   1.261  12.522
 4695SOL    HW214772   1.921   1.408  12.459
 4696SOL     OW14773   2.594   0.634  12.236
 4696SOL    HW114774   2.653   0.608  12.160
 4696SOL    HW214775   2.566   0.730  12.225
 4697SOL     OW14776   3.590   0.935  13.026
 4697SOL    HW114777   3.544   0.928  12.937
 4697SOL    HW214778   3.528   0.979  13.092
 4698SOL     OW14779   2.169   0.063  11.790
 4698SOL    HW114780   2.158   0.157  11.823
 4698SOL    HW214781   2.164   0.000  11.867
 4699SOL     OW14782   3.484   0.367  11.546
 4699SOL    HW114783   3.486   0.291  11.610
 4699SOL    HW214784   3.436   0.444  11.586
 4700SOL     OW14785   2.885   0.766  12.138
 4700SOL    HW114786   2.900   0.787  12.234
 4700SOL    HW214787   2.855   0.671  12.129
 4701SOL     OW14788   2.842   1.573  12.872
 4701SOL    HW114789   2.822   1.617  12.784
 4701SOL    HW214790   2.881   1.482  12.856
 4702SOL     OW14791   3.721   1.518  12.777
 4702SOL    HW114792   3.735   1.545  12.682
 4702SOL    HW214793   3.804   1.540  12.830
 4703SOL     OW14794   2.212   0.898  12.976
 4703SOL    HW114795   2.288   0.942  13.024
 4703SOL    HW214796   2.247   0.851  12.894
 4704SOL     OW14797   3.402   0.274  11.297
 4704SOL    HW114798   3.341   0.199  11.320
 4704SOL    HW214799   3.424   0.326  11.380
 4705SOL     OW14800   3.165   0.838  11.214
 4705SOL    HW114801   3.199   0.745  11.229
 4705SOL    HW214802   3.183   0.865  11.119
 4706SOL     OW14803   2.930   1.333  12.021
 4706SOL    HW114804   2.937   1.249  11.966
 4706SOL    HW214805   2.992   1.402  11.985
 4707SOL     OW14806   2.181   0.810  12.121
 4707SOL    HW114807   2.274   0.846  12.126
 4707SOL    HW214808   2.175   0.725  12.173
 4708SOL     OW14809   2.201   0.509  12.178
 4708SOL    HW114810   2.149   0.426  12.161
 4708SOL    HW214811   2.278   0.514  12.114
 4709SOL     OW14812   3.000   0.380  12.850
 4709SOL    HW114813   2.955   0.443  12.914
 4709SOL    HW214814   3.093   0.411  12.833
 4710SOL     OW14815   3.022   0.207  12.649
 4710SOL    HW114816   3.022   0.271  12.726
 4710SOL    HW214817   3.050   0.255  12.566
 4711SOL     OW14818   1.870   1.326  11.372
 4711SOL    HW114819   1.777   1.347  11.341
 4711SOL    HW214820   1.880   1.227  11.385
 4712SOL     OW14821   1.950   1.801  12.099
 4712SOL    HW114822   1.908   1.715  12.072
 4712SOL    HW214823   2.044   1.804  12.065
 4713SOL     OW14824   2.366   1.568  12.082
 4713SOL    HW114825   2.432   1.642  12.091
 4713SOL    HW214826   2.410   1.489  12.040
 4714SOL     OW14827   2.864   0.796  12.410
 4714SOL    HW114828   2.905   0.764  12.496
 4714SOL    HW214829   2.768   0.769  12.407
 4715SOL     OW14830   1.902   0.544  12.286
 4715SOL    HW114831   1.987   0.511  12.245
 4715SOL    HW214832   1.915   0.559  12.384
 4716SOL     OW14833   2.051   0.520  12.894
 4716SOL    HW114834   2.110   0.480  12.824
 4716SOL    HW214835   1.993   0.591  12.853
 4717SOL     OW14836   3.231   0.950  12.832
 4717SOL    HW114837   3.270   1.039  12.852
 4717SOL    HW214838   3.241   0.930  12.735
 4718SOL     OW14839   2.677   0.572  11.497
 4718SOL    HW114840   2.684   0.483  11.451
 4718SOL    HW214841   2.583   0.606  11.489
 4719SOL     OW14842   3.519   0.604  12.378
 4719SOL    HW114843   3.481   0.535  12.440
 4719SOL    HW214844   3.601   0.568  12.334
 4720SOL     OW14845   2.114   1.564  12.916
 4720SOL    HW114846   2.084   1.621  12.992
 4720SOL    HW214847   2.107   1.467  12.942
 4721SOL     OW14848   2.533   0.464  12.441
 4721SOL    HW114849   2.499   0.375  12.411
 4721SOL    HW214850   2.559   0.518  12.361
 4722SOL     OW14851   2.792   1.678  12.637
 4722SOL    HW114852   2.768   1.660  12.542
 4722SOL    HW214853   2.822   1.772  12.647
 4723SOL     OW14854   2.335   0.500  11.363
 4723SOL    HW114855   2.396   0.580  11.367
 4723SOL    HW214856   2.240   0.531  11.370
 4724SOL     OW14857   2.021   1.137  12.638
 4724SOL    HW114858   2.043   1.076  12.714
 4724SOL    HW214859   2.031   1.088  12.552
 4725SOL     OW14860   3.209   1.059  12.406
 4725SOL    HW114861   3.233   0.996  12.332
 4725SOL    HW214862   3.119   1.099  12.388
 4726SOL     OW14863   3.164   0.855  11.481
 4726SOL    HW114864   3.078   0.824  11.523
 4726SOL    HW214865   3.160   0.841  11.382
 4727SOL     OW14866   3.621   1.747  12.326
 4727SOL    HW114867   3.682   1.777  12.253
 4727SOL    HW214868   3.583   1.658  12.304
 4728SOL     OW14869   3.114   1.731  12.300
 4728SOL    HW114870   3.198   1.736  12.246
 4728SOL    HW214871   3.091   1.635  12.318
 4729SOL     OW14872   1.945   1.258  12.194
 4729SOL    HW114873   1.940   1.257  12.294
 4729SOL    HW214874   1.862   1.217  12.156
 4730SOL     OW14875   2.550   1.662  12.888
 4730SOL    HW114876   2.494   1.743  12.897
 4730SOL    HW214877   2.602   1.666  12.802
 4731SOL     OW14878   3.588   0.135  11.695
 4731SOL    HW114879   3.661   0.118  11.628
 4731SOL    HW214880   3.557   0.048  11.733
 4732SOL     OW14881   3.250   1.573  11.649
 4732SOL    HW114882   3.317   1.585  11.575
 4732SOL    HW214883   3.210   1.662  11.672
 4733SOL     OW14884   1.992   1.794  13.023
 4733SOL    HW114885   1.951   1.720  13.076
 4733SOL    HW214886   2.056   1.845  13.081
 4734SOL     OW14887   3.142   0.927  11.844
 4734SOL    HW114888   3.202   0.846  11.846
 4734SOL    HW214889   3.182   0.996  11.784
 4735SOL     OW14890   2.692   1.273  12.594
 4735SOL    HW114891   2.687   1.306  12.689
 4735SOL    HW214892   2.606   1.292  12.548
 4736SOL     OW14893   2.534   1.616  11.326
 4736SOL    HW114894   2.543   1.626  11.227
 4736SOL    HW214895   2.494   1.527  11.347
 4737SOL     OW14896   3.512   1.720  12.566
 4737SOL    HW114897   3.565   1.730  12.482
 4737SOL    HW214898   3.485   1.810  12.600
 4738SOL     OW14899   3.703   0.175  12.135
 4738SOL    HW114900   3.742   0.090  12.099
 4738SOL    HW214901   3.605   0.177  12.116
 4739SOL     OW14902   2.125   0.326  11.892
 4739SOL    HW114903   2.046   0.377  11.858
 4739SOL    HW214904   2.116   0.311  11.990
 4740SOL     OW14905   3.056   1.612  11.203
 4740SOL    HW114906   3.062   1.519  11.240
 4740SOL    HW214907   2.997   1.612  11.123
 4741SOL     OW14908   2.684   1.002  12.544
 4741SOL    HW114909   2.724   1.001  12.452
 4741SOL    HW214910   2.694   1.094  12.584
 4742SOL     OW14911   2.778   0.910  11.463
 4742SOL    HW114912   2.841   0.948  11.395
 4742SOL    HW214913   2.818   0.827  11.502
 4743SOL     OW14914   3.366   1.607  11.216
 4743SOL    HW114915   3.274   1.644  11.223
 4743SOL    HW214916   3.404   1.627  11.126
 4744SOL     OW14917   2.234   1.288  12.662
 4744SOL    HW114918   2.221   1.381  12.628
 4744SOL    HW214919   2.150   1.236  12.649
 4745SOL     OW14920   3.476   1.292  12.461
 4745SOL    HW114921   3.536   1.295  12.541
 4745SOL    HW214922   3.401   1.356  12.474
 4746SOL     OW14923   2.901   1.098  11.868
 4746SOL    HW114924   2.831   1.051  11.922
 4746SOL    HW214925   2.960   1.030  11.825
 4747SOL     OW14926   2.876   0.236  12.143
 4747SOL    HW114927   2.868   0.200  12.050
 4747SOL    HW214928   2.874   0.160  12.208
 4748SOL     OW14929   2.452   1.487  11.663
 4748SOL    HW114930   2.494   1.429  11.593
 4748SOL    HW214931   2.408   1.566  11.619
 4749SOL     OW14932   3.571   0.385  12.553
 4749SOL    HW114933   3.644   0.454  12.557
 4749SOL    HW214934   3.599   0.310  12.494
 4750SOL     OW14935   2.117   1.348  11.462
 4750SOL    HW114936   2.021   1.349  11.435
 4750SOL    HW214937   2.129   1.401  11.546
 4751SOL     OW14938   1.967   1.013  12.898
 4751SOL    HW114939   1.890   0.980  12.952
 4751SOL    HW214940   2.052   0.983  12.940
 4752SOL     OW14941   2.534   0.203  12.661
 4752SOL    HW114942   2.624   0.187  12.621
 4752SOL    HW214943   2.542   0.208  12.760
 4753SOL     OW14944   1.937   0.345  11.205
 4753SOL    HW114945   1.845   0.317  11.176
 4753SOL    HW214946   1.968   0.422  11.149
 4754SOL     OW14947   3.302   0.856  12.570
 4754SOL    HW114948   3.245   0.908  12.507
 4754SOL    HW214949   3.398   0.868  12.546
 4755SOL     OW14950   1.934   0.166  11.490
 4755SOL    HW114951   1.917   0.249  11.436
 4755SOL    HW214952   2.024   0.129  11.468
 4756SOL     OW14953   3.045   1.335  11.291
 4756SOL    HW114954   2.946   1.324  11.293
 4756SOL    HW214955   3.079   1.350  11.384
 4757SOL     OW14956   2.475   0.842  12.603
 4757SOL    HW114957   2.531   0.923  12.586
 4757SOL    HW214958   2.534   0.762  12.606
 4758SOL     OW14959   3.355   1.767  12.131
 4758SOL    HW114960   3.388   1.831  12.062
 4758SOL    HW214961   3.421   1.761  12.206
 4759SOL     OW14962   2.578   0.565  12.880
 4759SOL    HW114963   2.597   0.630  12.954
 4759SOL    HW214964   2.638   0.485  12.889
 4760SOL     OW14965   3.312   1.220  12.805
 4760SOL    HW114966   3.303   1.210  12.904
 4760SOL    HW214967   3.408   1.213  12.779
 4761SOL     OW14968   2.252   1.741  12.732
 4761SOL    HW114969   2.161   1.782  12.730
 4761SOL    HW214970   2.245   1.647  12.764
 4762SOL     OW14971   3.536   0.883  12.426
 4762SOL    HW114972   3.509   0.794  12.389
 4762SOL    HW214973   3.537   0.951  12.353
 4763SOL     OW14974   3.087   0.325  11.621
 4763SOL    HW114975   3.152   0.251  11.610
 4763SOL    HW214976   3.107   0.375  11.705
 4764SOL     OW14977   2.456   0.745  11.824
 4764SOL    HW114978   2.506   0.830  11.805
 4764SOL    HW214979   2.368   0.747  11.776
 4765SOL     OW14980   3.639   0.342  12.814
 4765SOL    HW114981   3.622   0.373  12.720
 4765SOL    HW214982   3.555   0.305  12.852
 4766SOL     OW14983   3.592   0.934  12.689
 4766SOL    HW114984   3.630   1.025  12.704
 4766SOL    HW214985   3.584   0.917  12.590
 4767SOL     OW14986   2.721   1.374  11.188
 4767SOL    HW114987   2.675   1.389  11.276
 4767SOL    HW214988   2.765   1.459  11.158
 4768SOL     OW14989   2.523   1.790  12.125
 4768SOL    HW114990   2.477   1.878  12.112
 4768SOL    HW214991   2.622   1.802  12.118
 4769SOL     OW14992   2.721   0.956  12.033
 4769SOL    HW114993   2.775   0.887  12.081
 4769SOL    HW214994   2.689   1.025  12.099
 4770SOL     OW14995   2.945   0.984  11.259
 4770SOL    HW114996   2.922   1.037  11.177
 4770SOL    HW214997   3.026   0.928  11.240
 4771SOL     OW14998   3.723   1.569  12.023
 4771SOL    HW114999   3.652   1.557  11.953
 4771SOL    HW215000   3.724   1.490  12.083
 4772SOL     OW15001   2.083   1.314  13.016
 4772SOL    HW115002   2.018   1.241  12.995
 4772SOL    HW215003   2.087   1.328  13.114
 4773SOL     OW15004   1.941   1.240  11.825
 4773SOL    HW115005   1.940   1.193  11.913
 4773SOL    HW215006   2.023   1.212  11.774
 4774SOL     OW15007   2.534   1.391  12.796
 4774SOL    HW115008   2.456   1.341  12.834
 4774SOL    HW215009   2.531   1.486  12.827
 4775SOL     OW15010   3.686   0.192  12.399
 4775SOL    HW115011   3.682   0.102  12.443
 4775SOL    HW215012   3.689   0.181  12.300
 4776SOL     OW15013   2.290   0.424  11.692
 4776SOL    HW115014   2.320   0.352  11.630
 4776SOL    HW215015   2.251   0.384  11.775
 4777SOL     OW15016   3.567   1.487  12.276
 4777SOL    HW115017   3.474   1.462  12.249
 4777SOL    HW215018   3.593   1.437  12.358
 4778SOL     OW15019   2.179   0.547  12.452
 4778SOL    HW115020   2.217   0.488  12.524
 4778SOL    HW215021   2.219   0.521  12.364
 4779SOL     OW15022   2.674   1.586  11.859
 4779SOL    HW115023   2.706   1.596  11.765
 4779SOL    HW215024   2.595   1.524  11.861
 4780SOL     OW15025   3.286   0.214  12.284
 4780SOL    HW115026   3.338   0.149  12.339
 4780SOL    HW215027   3.237   0.277  12.345
 4781SOL     OW15028   2.863   0.034  12.326
 4781SOL    HW115029   2.800  -0.038  12.295
 4781SOL    HW215030   2.956  -0.002  12.326
 4782SOL     OW15031   2.632   1.330  11.473
 4782SOL    HW115032   2.586   1.243  11.490
 4782SOL    HW215033   2.723   1.327  11.514
 4783SOL     OW15034   2.480   1.567  12.456
 4783SOL    HW115035   2.475   1.649  12.513
 4783SOL    HW215036   2.569   1.564  12.411
 4784SOL     OW15037   3.214   0.052  11.340
 4784SOL    HW115038   3.249   0.011  11.256
 4784SOL    HW215039   3.124   0.014  11.360
 4785SOL     OW15040   3.162   0.453  11.863
 4785SOL    HW115041   3.103   0.533  11.867
 4785SOL    HW215042   3.177   0.418  11.956
 4786SOL     OW15043   3.455   0.221  12.054
 4786SOL    HW115044   3.371   0.220  12.108
 4786SOL    HW215045   3.457   0.304  11.998
 4787SOL     OW15046   1.901   1.077  11.472
 4787SOL    HW115047   2.000   1.066  11.463
 4787SOL    HW215048   1.861   0.991  11.504
 4788SOL     OW15049   2.737   1.646  11.509
 4788SOL    HW115050   2.660   1.611  11.455
 4788SOL    HW215051   2.705   1.717  11.571
 4789SOL     OW15052   2.092   0.628  13.147
 4789SOL    HW115053   1.999   0.626  13.184
 4789SOL    HW215054   2.093   0.589  13.055
 4790SOL     OW15055   2.087   0.275  14.030
 4790SOL    HW115056   2.122   0.258  14.122
 4790SOL    HW215057   1.999   0.230  14.018
 4791SOL     OW15058   1.881   0.368  13.681
 4791SOL    HW115059   1.799   0.411  13.720
 4791SOL    HW215060   1.853   0.295  13.618
 4792SOL     OW15061   3.417   1.511  13.737
 4792SOL    HW115062   3.360   1.495  13.818
 4792SOL    HW215063   3.358   1.521  13.657
 4793SOL     OW15064   2.997   0.703  13.751
 4793SOL    HW115065   3.054   0.781  13.726
 4793SOL    HW215066   2.937   0.729  13.827
 4794SOL     OW15067   3.617   0.607  13.265
 4794SOL    HW115068   3.605   0.594  13.166
 4794SOL    HW215069   3.587   0.526  13.314
 4795SOL     OW15070   2.547   1.012  13.699
 4795SOL    HW115071   2.616   0.996  13.769
 4795SOL    HW215072   2.474   1.069  13.737
 4796SOL     OW15073   3.465   0.447  13.771
 4796SOL    HW115074   3.391   0.493  13.721
 4796SOL    HW215075   3.516   0.515  13.824
 4797SOL     OW15076   2.093   1.713  13.517
 4797SOL    HW115077   2.127   1.790  13.571
 4797SOL    HW215078   2.137   1.713  13.427
 4798SOL     OW15079   2.092   1.434  13.572
 4798SOL    HW115080   2.066   1.530  13.572
 4798SOL    HW215081   2.021   1.380  13.617
 4799SOL     OW15082   2.102   1.091  13.920
 4799SOL    HW115083   2.116   1.007  13.972
 4799SOL    HW215084   2.047   1.155  13.975
 4800SOL     OW15085   2.468   0.964  13.157
 4800SOL    HW115086   2.475   1.048  13.103
 4800SOL    HW215087   2.514   0.977  13.245
 4801SOL     OW15088   1.984   0.643  13.597
 4801SOL    HW115089   1.939   0.555  13.614
 4801SOL    HW215090   1.983   0.697  13.681
 4802SOL     OW15091   3.704   1.767  13.393
 4802SOL    HW115092   3.758   1.738  13.473
 4802SOL    HW215093   3.734   1.857  13.364
 4803SOL     OW15094   1.889   1.596  13.151
 4803SOL    HW115095   1.870   1.500  13.172
 4803SOL    HW215096   1.856   1.654  13.226
 4804SOL     OW15097   3.551   0.922  13.646
 4804SOL    HW115098   3.646   0.893  13.654
 4804SOL    HW215099   3.543   0.987  13.571
 4805SOL     OW15100   3.503   1.108  13.466
 4805SOL    HW115101   3.589   1.110  13.414
 4805SOL    HW215102   3.517   1.155  13.554
 4806SOL     OW15103   2.475   1.365  13.760
 4806SOL    HW115104   2.426   1.278  13.769
 4806SOL    HW215105   2.452   1.408  13.673
 4807SOL     OW15106   2.671   0.004  13.536
 4807SOL    HW115107   2.711   0.095  13.527
 4807SOL    HW215108   2.571   0.012  13.542
 4808SOL     OW15109   3.387   0.999  13.224
 4808SOL    HW115110   3.324   0.923  13.237
 4808SOL    HW215111   3.435   1.017  13.310
 4809SOL     OW15112   3.529   1.714  13.606
 4809SOL    HW115113   3.488   1.691  13.518
 4809SOL    HW215114   3.511   1.640  13.671
 4810SOL     OW15115   2.460   0.729  13.304
 4810SOL    HW115116   2.484   0.798  13.236
 4810SOL    HW215117   2.382   0.762  13.358
 4811SOL     OW15118   3.143   0.345  13.978
 4811SOL    HW115119   3.057   0.295  13.965
 4811SOL    HW215120   3.205   0.291  14.034
 4812SOL     OW15121   3.438   1.662  13.341
 4812SOL    HW115122   3.527   1.708  13.344
 4812SOL    HW215123   3.417   1.638  13.246
 4813SOL     OW15124   2.903   0.701  13.463
 4813SOL    HW115125   2.929   0.697  13.559
 4813SOL    HW215126   2.818   0.650  13.449
 4814SOL     OW15127   1.938   0.811  13.823
 4814SOL    HW115128   2.037   0.799  13.832
 4814SOL    HW215129   1.914   0.906  13.844
 4815SOL     OW15130   2.727   0.348  13.229
 4815SOL    HW115131   2.786   0.411  13.180
 4815SOL    HW215132   2.746   0.254  13.200
 4816SOL     OW15133   3.224   1.144  13.579
 4816SOL    HW115134   3.307   1.115  13.531
 4816SOL    HW215135   3.175   1.211  13.523
 4817SOL     OW15136   2.870   1.456  13.511
 4817SOL    HW115137   2.824   1.528  13.459
 4817SOL    HW215138   2.866   1.476  13.609
 4818SOL     OW15139   2.213   1.801  13.887
 4818SOL    HW115140   2.263   1.715  13.893
 4818SOL    HW215141   2.278   1.878  13.884
 4819SOL     OW15142   3.657   1.066  13.907
 4819SOL    HW115143   3.595   1.051  13.831
 4819SOL    HW215144   3.605   1.077  13.992
 4820SOL     OW15145   2.183   0.943  13.276
 4820SOL    HW115146   2.265   0.982  13.234
 4820SOL    HW215147   2.156   0.861  13.227
 4821SOL     OW15148   3.320   0.735  13.762
 4821SOL    HW115149   3.315   0.670  13.837
 4821SOL    HW215150   3.400   0.794  13.775
 4822SOL     OW15151   2.973   1.776  13.271
 4822SOL    HW115152   2.913   1.714  13.321
 4822SOL    HW215153   3.004   1.732  13.186
 4823SOL     OW15154   3.494   1.377  13.115
 4823SOL    HW115155   3.462   1.471  13.105
 4823SOL    HW215156   3.418   1.314  13.103
 4824SOL     OW15157   2.326   1.743  13.357
 4824SOL    HW115158   2.359   1.782  13.443
 4824SOL    HW215159   2.402   1.736  13.292
 4825SOL     OW15160   3.262   0.107  13.460
 4825SOL    HW115161   3.238   0.070  13.370
 4825SOL    HW215162   3.361   0.123  13.464
 4826SOL     OW15163   2.802   1.698  13.938
 4826SOL    HW115164   2.882   1.641  13.959
 4826SOL    HW215165   2.753   1.658  13.861
 4827SOL     OW15166   2.244   0.700  13.514
 4827SOL    HW115167   2.289   0.610  13.511
 4827SOL    HW215168   2.150   0.689  13.547
 4828SOL     OW15169   2.476   0.122  13.151
 4828SOL    HW115170   2.574   0.100  13.158
 4828SOL    HW215171   2.445   0.105  13.058
 4829SOL     OW15172   2.401   0.064  13.546
 4829SOL    HW115173   2.320   0.065  13.604
 4829SOL    HW215174   2.404   0.147  13.491
 4830SOL     OW15175   3.296   1.188  13.075
 4830SOL    HW115176   3.328   1.112  13.132
 4830SOL    HW215177   3.204   1.215  13.105
 4831SOL     OW15178   2.159   0.035  13.205
 4831SOL    HW115179   2.208   0.119  13.184
 4831SOL    HW215180   2.221  -0.030  13.250
 4832SOL     OW15181   2.797   0.236  13.514
 4832SOL    HW115182   2.749   0.277  13.436
 4832SOL    HW215183   2.896   0.234  13.495
 4833SOL     OW15184   2.321   1.152  13.775
 4833SOL    HW115185   2.250   1.125  13.840
 4833SOL    HW215186   2.295   1.124  13.682
 4834SOL     OW15187   3.133   1.797  13.625
 4834SOL    HW115188   3.177   1.861  13.561
 4834SOL    HW215189   3.083   1.849  13.695
 4835SOL     OW15190   2.894   0.549  13.050
 4835SOL    HW115191   2.853   0.631  13.011
 4835SOL    HW215192   2.958   0.575  13.123
 4836SOL     OW15193   2.728   0.454  13.676
 4836SOL    HW115194   2.696   0.526  13.614
 4836SOL    HW215195   2.752   0.373  13.623
 4837SOL     OW15196   2.879   0.039  13.787
 4837SOL    HW115197   2.807   0.044  13.718
 4837SOL    HW215198   2.855  -0.030  13.856
 4838SOL     OW15199   3.719   0.833  13.411
 4838SOL    HW115200   3.761   0.769  13.475
 4838SOL    HW215201   3.681   0.782  13.333
 4839SOL     OW15202   2.350   1.385  13.208
 4839SOL    HW115203   2.263   1.370  13.255
 4839SOL    HW215204   2.333   1.411  13.113
 4840SOL     OW15205   3.526   1.280  13.691
 4840SOL    HW115206   3.625   1.288  13.705
 4840SOL    HW215207   3.481   1.364  13.722
 4841SOL     OW15208   3.252   0.575  13.112
 4841SOL    HW115209   3.198   0.554  13.193
 4841SOL    HW215210   3.343   0.534  13.121
 4842SOL     OW15211   2.389   0.256  13.362
 4842SOL    HW115212   2.416   0.197  13.287
 4842SOL    HW215213   2.389   0.351  13.331
 4843SOL     OW15214   2.567   1.050  13.402
 4843SOL    HW115215   2.553   1.057  13.501
 4843SOL    HW215216   2.651   0.999  13.384
 4844SOL     OW15217   2.229   1.100  13.535
 4844SOL    HW115218   2.222   1.183  13.479
 4844SOL    HW215219   2.233   1.020  13.475
 4845SOL     OW15220   2.428   0.537  13.899
 4845SOL    HW115221   2.440   0.603  13.825
 4845SOL    HW215222   2.474   0.571  13.982
 4846SOL     OW15223   3.114   1.348  13.422
 4846SOL    HW115224   3.164   1.425  13.462
 4846SOL    HW215225   3.019   1.350  13.454
 4847SOL     OW15226   3.444   0.639  13.506
 4847SOL    HW115227   3.413   0.700  13.579
 4847SOL    HW215228   3.494   0.691  13.437
 4848SOL     OW15229   3.071   0.525  13.309
 4848SOL    HW115230   3.084   0.441  13.363
 4848SOL    HW215231   3.042   0.599  13.369
 4849SOL     OW15232   2.169   0.063  13.652
 4849SOL    HW115233   2.158   0.157  13.685
 4849SOL    HW215234   2.164   0.000  13.729
 4850SOL     OW15235   3.484   0.367  13.408
 4850SOL    HW115236   3.486   0.291  13.472
 4850SOL    HW215237   3.436   0.444  13.448
 4851SOL     OW15238   3.402   0.274  13.159
 4851SOL    HW115239   3.341   0.199  13.182
 4851SOL    HW215240   3.424   0.326  13.242
 4852SOL     OW15241   3.165   0.838  13.076
 4852SOL    HW115242   3.199   0.745  13.091
 4852SOL    HW215243   3.183   0.865  12.981
 4853SOL     OW15244   1.870   1.326  13.234
 4853SOL    HW115245   1.777   1.347  13.203
 4853SOL    HW215246   1.880   1.227  13.247
 4854SOL     OW15247   2.677   0.572  13.359
 4854SOL    HW115248   2.684   0.483  13.313
 4854SOL    HW215249   2.583   0.606  13.351
 4855SOL     OW15250   2.335   0.500  13.225
 4855SOL    HW115251   2.396   0.580  13.229
 4855SOL    HW215252   2.240   0.531  13.232
 4856SOL     OW15253   3.164   0.855  13.343
 4856SOL    HW115254   3.078   0.824  13.385
 4856SOL    HW215255   3.160   0.841  13.244
 4857SOL     OW15256   3.588   0.135  13.557
 4857SOL    HW115257   3.661   0.118  13.490
 4857SOL    HW215258   3.557   0.048  13.595
 4858SOL     OW15259   3.250   1.573  13.511
 4858SOL    HW115260   3.317   1.585  13.437
 4858SOL    HW215261   3.210   1.662  13.534
 4859SOL     OW15262   3.142   0.927  13.706
 4859SOL    HW115263   3.202   0.846  13.708
 4859SOL    HW215264   3.182   0.996  13.646
 4860SOL     OW15265   2.534   1.616  13.188
 4860SOL    HW115266   2.543   1.626  13.089
 4860SOL    HW215267   2.494   1.527  13.209
 4861SOL     OW15268   3.703   0.175  13.997
 4861SOL    HW115269   3.742   0.090  13.961
 4861SOL    HW215270   3.605   0.177  13.978
 4862SOL     OW15271   2.125   0.326  13.754
 4862SOL    HW115272   2.046   0.377  13.720
 4862SOL    HW215273   2.116   0.311  13.852
 4863SOL     OW15274   3.056   1.612  13.065
 4863SOL    HW115275   3.062   1.519  13.102
 4863SOL    HW215276   2.997   1.612  12.985
 4864SOL     OW15277   2.778   0.910  13.325
 4864SOL    HW115278   2.841   0.948  13.257
 4864SOL    HW215279   2.818   0.827  13.364
 4865SOL     OW15280   3.366   1.607  13.078
 4865SOL    HW115281   3.274   1.644  13.085
 4865SOL    HW215282   3.404   1.627  12.988
 4866SOL     OW15283   2.901   1.098  13.730
 4866SOL    HW115284   2.831   1.051  13.784
 4866SOL    HW215285   2.960   1.030  13.687
 4867SOL     OW15286   2.452   1.487  13.525
 4867SOL    HW115287   2.494   1.429  13.455
 4867SOL    HW215288   2.408   1.566  13.481
 4868SOL     OW15289   2.117   1.348  13.324
 4868SOL    HW115290   2.021   1.349  13.297
 4868SOL    HW215291   2.129   1.401  13.408
 4869SOL     OW15292   1.937   0.345  13.067
 4869SOL    HW115293   1.845   0.317  13.038
 4869SOL    HW215294   1.968   0.422  13.011
 4870SOL     OW15295   1.934   0.166  13.352
 4870SOL    HW115296   1.917   0.249  13.298
 4870SOL    HW215297   2.024   0.129  13.330
 4871SOL     OW15298   3.045   1.335  13.153
 4871SOL    HW115299   2.946   1.324  13.155
 4871SOL    HW215300   3.079   1.350  13.246
 4872SOL     OW15301   3.087   0.325  13.483
 4872SOL    HW115302   3.152   0.251  13.472
 4872SOL    HW215303   3.107   0.375  13.567
 4873SOL     OW15304   2.456   0.745  13.686
 4873SOL    HW115305   2.506   0.830  13.667
 4873SOL    HW215306   2.368   0.747  13.638
 4874SOL     OW15307   2.721   1.374  13.050
 4874SOL    HW115308   2.675   1.389  13.138
 4874SOL    HW215309   2.765   1.459  13.020
 4875SOL     OW15310   2.523   1.790  13.987
 4875SOL    HW115311   2.477   1.878  13.974
 4875SOL    HW215312   2.622   1.802  13.980
 4876SOL     OW15313   2.721   0.956  13.895
 4876SOL    HW115314   2.775   0.887  13.943
 4876SOL    HW215315   2.689   1.025  13.961
 4877SOL     OW15316   2.945   0.984  13.121
 4877SOL    HW115317   2.922   1.037  13.039
 4877SOL    HW215318   3.026   0.928  13.102
 4878SOL     OW15319   1.941   1.240  13.687
 4878SOL    HW115320   1.940   1.193  13.775
 4878SOL    HW215321   2.023   1.212  13.636
 4879SOL     OW15322   2.290   0.424  13.554
 4879SOL    HW115323   2.320   0.352  13.492
 4879SOL    HW215324   2.251   0.384  13.637
 4880SOL     OW15325   3.567   1.487  14.138
 4880SOL    HW115326   3.474   1.462  14.111
 4880SOL    HW215327   3.593   1.437  14.220
 4881SOL     OW15328   2.674   1.586  13.721
 4881SOL    HW115329   2.706   1.596  13.627
 4881SOL    HW215330   2.595   1.524  13.723
 4882SOL     OW15331   2.632   1.330  13.335
 4882SOL    HW115332   2.586   1.243  13.352
 4882SOL    HW215333   2.723   1.327  13.376
 4883SOL     OW15334   3.214   0.052  13.202
 4883SOL    HW115335   3.249   0.011  13.118
 4883SOL    HW215336   3.124   0.014  13.222
 4884SOL     OW15337   3.162   0.453  13.725
 4884SOL    HW115338   3.103   0.533  13.729
 4884SOL    HW215339   3.177   0.418  13.818
 4885SOL     OW15340   1.901   1.077  13.334
 4885SOL    HW115341   2.000   1.066  13.325
 4885SOL    HW215342   1.861   0.991  13.366
 4886SOL     OW15343   2.737   1.646  13.371
 4886SOL    HW115344   2.660   1.611  13.317
 4886SOL    HW215345   2.705   1.717  13.433
 4887SOL     OW15346   2.092   2.490   0.113
 4887SOL    HW115347   1.999   2.488   0.150
 4887SOL    HW215348   2.093   2.451   0.021
 4888SOL     OW15349   1.881   2.230   0.647
 4888SOL    HW115350   1.799   2.273   0.686
 4888SOL    HW215351   1.853   2.157   0.584
 4889SOL     OW15352   2.431   3.137   1.165
 4889SOL    HW115353   2.338   3.130   1.128
 4889SOL    HW215354   2.442   3.226   1.209
 4890SOL     OW15355   3.417   3.373   0.703
 4890SOL    HW115356   3.360   3.357   0.784
 4890SOL    HW215357   3.358   3.383   0.623
 4891SOL     OW15358   2.997   2.565   0.717
 4891SOL    HW115359   3.054   2.643   0.692
 4891SOL    HW215360   2.937   2.591   0.793
 4892SOL     OW15361   3.617   2.469   0.231
 4892SOL    HW115362   3.605   2.456   0.132
 4892SOL    HW215363   3.587   2.388   0.280
 4893SOL     OW15364   2.630   3.006   1.023
 4893SOL    HW115365   2.552   3.023   1.083
 4893SOL    HW215366   2.664   3.093   0.987
 4894SOL     OW15367   2.712   2.660   1.823
 4894SOL    HW115368   2.708   2.736   1.888
 4894SOL    HW215369   2.734   2.696   1.732
 4895SOL     OW15370   2.547   2.874   0.665
 4895SOL    HW115371   2.616   2.858   0.735
 4895SOL    HW215372   2.474   2.931   0.703
 4896SOL     OW15373   2.548   3.023   1.803
 4896SOL    HW115374   2.608   3.102   1.817
 4896SOL    HW215375   2.462   3.054   1.762
 4897SOL     OW15376   2.197   3.297   1.061
 4897SOL    HW115377   2.119   3.266   1.008
 4897SOL    HW215378   2.255   3.355   1.004
 4898SOL     OW15379   3.322   3.367   1.339
 4898SOL    HW115380   3.346   3.461   1.365
 4898SOL    HW215381   3.306   3.313   1.421
 4899SOL     OW15382   2.300   2.254   1.499
 4899SOL    HW115383   2.382   2.198   1.508
 4899SOL    HW215384   2.219   2.196   1.503
 4900SOL     OW15385   3.465   2.309   0.737
 4900SOL    HW115386   3.391   2.355   0.687
 4900SOL    HW215387   3.516   2.377   0.790
 4901SOL     OW15388   2.093   3.575   0.483
 4901SOL    HW115389   2.127   3.652   0.537
 4901SOL    HW215390   2.137   3.575   0.393
 4902SOL     OW15391   2.989   3.203   1.690
 4902SOL    HW115392   3.036   3.203   1.778
 4902SOL    HW215393   2.941   3.116   1.679
 4903SOL     OW15394   2.092   3.296   0.538
 4903SOL    HW115395   2.066   3.392   0.538
 4903SOL    HW215396   2.021   3.242   0.583
 4904SOL     OW15397   2.102   2.953   0.886
 4904SOL    HW115398   2.116   2.869   0.938
 4904SOL    HW215399   2.047   3.017   0.941
 4905SOL     OW15400   2.482   3.648   1.439
 4905SOL    HW115401   2.390   3.631   1.474
 4905SOL    HW215402   2.510   3.740   1.465
 4906SOL     OW15403   2.468   2.826   0.123
 4906SOL    HW115404   2.475   2.910   0.069
 4906SOL    HW215405   2.514   2.839   0.211
 4907SOL     OW15406   3.456   1.976   1.480
 4907SOL    HW115407   3.438   2.043   1.408
 4907SOL    HW215408   3.453   2.022   1.569
 4908SOL     OW15409   1.984   2.505   0.563
 4908SOL    HW115410   1.939   2.417   0.580
 4908SOL    HW215411   1.983   2.559   0.647
 4909SOL     OW15412   3.704   3.629   0.359
 4909SOL    HW115413   3.758   3.600   0.439
 4909SOL    HW215414   3.734   3.719   0.330
 4910SOL     OW15415   1.889   3.458   0.117
 4910SOL    HW115416   1.870   3.362   0.138
 4910SOL    HW215417   1.856   3.516   0.192
 4911SOL     OW15418   3.551   2.784   0.612
 4911SOL    HW115419   3.646   2.755   0.620
 4911SOL    HW215420   3.543   2.849   0.537
 4912SOL     OW15421   3.503   2.970   0.432
 4912SOL    HW115422   3.589   2.972   0.380
 4912SOL    HW215423   3.517   3.017   0.520
 4913SOL     OW15424   1.975   2.599   1.597
 4913SOL    HW115425   2.063   2.586   1.642
 4913SOL    HW215426   1.962   2.696   1.575
 4914SOL     OW15427   2.475   3.227   0.726
 4914SOL    HW115428   2.426   3.140   0.735
 4914SOL    HW215429   2.452   3.270   0.639
 4915SOL     OW15430   3.155   3.090   1.423
 4915SOL    HW115431   3.192   3.017   1.365
 4915SOL    HW215432   3.207   3.095   1.508
 4916SOL     OW15433   2.671   1.866   0.502
 4916SOL    HW115434   2.711   1.957   0.493
 4916SOL    HW215435   2.571   1.874   0.508
 4917SOL     OW15436   2.059   2.838   1.264
 4917SOL    HW115437   2.148   2.793   1.250
 4917SOL    HW215438   1.986   2.773   1.245
 4918SOL     OW15439   3.387   2.861   0.190
 4918SOL    HW115440   3.324   2.785   0.203
 4918SOL    HW215441   3.435   2.879   0.276
 4919SOL     OW15442   3.049   3.654   1.616
 4919SOL    HW115443   3.073   3.714   1.540
 4919SOL    HW215444   3.056   3.559   1.586
 4920SOL     OW15445   3.328   3.279   0.953
 4920SOL    HW115446   3.269   3.285   1.033
 4920SOL    HW215447   3.313   3.191   0.907
 4921SOL     OW15448   3.529   3.576   0.572
 4921SOL    HW115449   3.488   3.553   0.484
 4921SOL    HW215450   3.511   3.502   0.637
 4922SOL     OW15451   2.460   2.591   0.270
 4922SOL    HW115452   2.484   2.660   0.202
 4922SOL    HW215453   2.382   2.624   0.324
 4923SOL     OW15454   3.143   2.207   0.944
 4923SOL    HW115455   3.057   2.157   0.931
 4923SOL    HW215456   3.205   2.153   1.000
 4924SOL     OW15457   3.438   3.524   0.307
 4924SOL    HW115458   3.527   3.570   0.310
 4924SOL    HW215459   3.417   3.500   0.212
 4925SOL     OW15460   2.669   2.467   1.465
 4925SOL    HW115461   2.622   2.464   1.554
 4925SOL    HW215462   2.618   2.412   1.399
 4926SOL     OW15463   3.256   2.331   1.674
 4926SOL    HW115464   3.236   2.374   1.762
 4926SOL    HW215465   3.334   2.269   1.683
 4927SOL     OW15466   2.835   2.752   1.572
 4927SOL    HW115467   2.881   2.668   1.543
 4927SOL    HW215468   2.779   2.786   1.497
 4928SOL     OW15469   2.853   2.272   1.242
 4928SOL    HW115470   2.776   2.306   1.296
 4928SOL    HW215471   2.819   2.221   1.163
 4929SOL     OW15472   2.903   2.563   0.429
 4929SOL    HW115473   2.929   2.559   0.525
 4929SOL    HW215474   2.818   2.512   0.415
 4930SOL     OW15475   1.938   2.673   0.789
 4930SOL    HW115476   2.037   2.661   0.798
 4930SOL    HW215477   1.914   2.768   0.810
 4931SOL     OW15478   1.992   3.683   1.571
 4931SOL    HW115479   1.982   3.668   1.670
 4931SOL    HW215480   1.906   3.719   1.535
 4932SOL     OW15481   2.727   2.210   0.195
 4932SOL    HW115482   2.786   2.273   0.146
 4932SOL    HW215483   2.746   2.116   0.166
 4933SOL     OW15484   3.581   2.447   1.831
 4933SOL    HW115485   3.555   2.536   1.795
 4933SOL    HW215486   3.579   2.379   1.758
 4934SOL     OW15487   3.224   3.006   0.545
 4934SOL    HW115488   3.307   2.977   0.497
 4934SOL    HW215489   3.175   3.073   0.489
 4935SOL     OW15490   2.412   2.058   0.885
 4935SOL    HW115491   2.407   2.053   0.985
 4935SOL    HW215492   2.414   2.154   0.856
 4936SOL     OW15493   2.870   3.318   0.477
 4936SOL    HW115494   2.824   3.390   0.425
 4936SOL    HW215495   2.866   3.338   0.575
 4937SOL     OW15496   2.213   3.663   0.853
 4937SOL    HW115497   2.263   3.577   0.859
 4937SOL    HW215498   2.278   3.740   0.850
 4938SOL     OW15499   3.657   2.928   0.873
 4938SOL    HW115500   3.595   2.913   0.797
 4938SOL    HW215501   3.605   2.939   0.958
 4939SOL     OW15502   3.089   3.412   1.506
 4939SOL    HW115503   3.095   3.335   1.570
 4939SOL    HW215504   3.037   3.386   1.426
 4940SOL     OW15505   2.183   2.805   0.242
 4940SOL    HW115506   2.265   2.844   0.200
 4940SOL    HW215507   2.156   2.723   0.193
 4941SOL     OW15508   3.320   2.597   0.728
 4941SOL    HW115509   3.315   2.532   0.803
 4941SOL    HW215510   3.400   2.656   0.741
 4942SOL     OW15511   2.323   3.128   1.727
 4942SOL    HW115512   2.273   3.129   1.641
 4942SOL    HW215513   2.260   3.110   1.803
 4943SOL     OW15514   2.973   3.638   0.237
 4943SOL    HW115515   2.913   3.576   0.287
 4943SOL    HW215516   3.004   3.594   0.152
 4944SOL     OW15517   3.494   3.239   0.081
 4944SOL    HW115518   3.462   3.333   0.071
 4944SOL    HW215519   3.418   3.176   0.069
 4945SOL     OW15520   2.326   3.605   0.323
 4945SOL    HW115521   2.359   3.644   0.409
 4945SOL    HW215522   2.402   3.598   0.258
 4946SOL     OW15523   3.262   1.969   0.426
 4946SOL    HW115524   3.238   1.932   0.336
 4946SOL    HW215525   3.361   1.985   0.430
 4947SOL     OW15526   2.111   3.647   1.241
 4947SOL    HW115527   2.168   3.582   1.291
 4947SOL    HW215528   2.095   3.614   1.148
 4948SOL     OW15529   2.802   3.560   0.904
 4948SOL    HW115530   2.882   3.503   0.925
 4948SOL    HW215531   2.753   3.520   0.827
 4949SOL     OW15532   2.244   2.562   0.480
 4949SOL    HW115533   2.289   2.472   0.477
 4949SOL    HW215534   2.150   2.551   0.513
 4950SOL     OW15535   3.409   2.084   1.729
 4950SOL    HW115536   3.404   2.121   1.821
 4950SOL    HW215537   3.337   2.015   1.717
 4951SOL     OW15538   2.643   2.126   1.749
 4951SOL    HW115539   2.710   2.065   1.792
 4951SOL    HW215540   2.570   2.145   1.814
 4952SOL     OW15541   2.750   3.376   1.195
 4952SOL    HW115542   2.727   3.351   1.101
 4952SOL    HW215543   2.811   3.307   1.234
 4953SOL     OW15544   3.213   2.452   1.433
 4953SOL    HW115545   3.241   2.409   1.518
 4953SOL    HW215546   3.238   2.548   1.434
 4954SOL     OW15547   2.665   3.264   0.924
 4954SOL    HW115548   2.755   3.278   0.882
 4954SOL    HW215549   2.594   3.266   0.853
 4955SOL     OW15550   2.784   2.365   0.899
 4955SOL    HW115551   2.759   2.356   0.803
 4955SOL    HW215552   2.832   2.283   0.930
 4956SOL     OW15553   2.401   1.926   0.512
 4956SOL    HW115554   2.320   1.927   0.570
 4956SOL    HW215555   2.404   2.009   0.457
 4957SOL     OW15556   3.296   3.050   0.041
 4957SOL    HW115557   3.328   2.974   0.098
 4957SOL    HW215558   3.204   3.077   0.071
 4958SOL     OW15559   2.797   2.098   0.480
 4958SOL    HW115560   2.749   2.139   0.402
 4958SOL    HW215561   2.896   2.096   0.461
 4959SOL     OW15562   2.938   2.545   1.464
 4959SOL    HW115563   2.858   2.484   1.467
 4959SOL    HW215564   3.019   2.492   1.440
 4960SOL     OW15565   3.089   3.432   0.793
 4960SOL    HW115566   3.110   3.506   0.728
 4960SOL    HW215567   3.157   3.432   0.866
 4961SOL     OW15568   2.321   3.014   0.741
 4961SOL    HW115569   2.250   2.987   0.806
 4961SOL    HW215570   2.295   2.986   0.648
 4962SOL     OW15571   3.133   3.659   0.591
 4962SOL    HW115572   3.177   3.723   0.527
 4962SOL    HW215573   3.083   3.711   0.661
 4963SOL     OW15574   2.894   2.411   0.016
 4963SOL    HW115575   2.853   2.493  -0.023
 4963SOL    HW215576   2.958   2.437   0.089
 4964SOL     OW15577   1.940   2.418   1.386
 4964SOL    HW115578   2.032   2.417   1.345
 4964SOL    HW215579   1.934   2.492   1.453
 4965SOL     OW15580   2.423   2.084   1.147
 4965SOL    HW115581   2.461   2.000   1.184
 4965SOL    HW215582   2.335   2.103   1.191
 4966SOL     OW15583   2.728   2.316   0.642
 4966SOL    HW115584   2.696   2.388   0.580
 4966SOL    HW215585   2.752   2.235   0.589
 4967SOL     OW15586   2.879   1.901   0.753
 4967SOL    HW115587   2.807   1.906   0.684
 4967SOL    HW215588   2.855   1.832   0.822
 4968SOL     OW15589   3.291   3.035   0.867
 4968SOL    HW115590   3.236   2.951   0.860
 4968SOL    HW215591   3.317   3.064   0.775
 4969SOL     OW15592   3.328   2.452   0.992
 4969SOL    HW115593   3.298   2.357   0.999
 4969SOL    HW215594   3.401   2.468   1.058
 4970SOL     OW15595   3.719   2.695   0.377
 4970SOL    HW115596   3.761   2.631   0.441
 4970SOL    HW215597   3.681   2.644   0.299
 4971SOL     OW15598   2.350   3.247   0.174
 4971SOL    HW115599   2.263   3.232   0.221
 4971SOL    HW215600   2.333   3.273   0.079
 4972SOL     OW15601   3.526   3.142   0.657
 4972SOL    HW115602   3.625   3.150   0.671
 4972SOL    HW215603   3.481   3.226   0.688
 4973SOL     OW15604   3.252   2.437   0.078
 4973SOL    HW115605   3.198   2.416   0.159
 4973SOL    HW215606   3.343   2.396   0.087
 4974SOL     OW15607   2.389   2.118   0.328
 4974SOL    HW115608   2.416   2.059   0.253
 4974SOL    HW215609   2.389   2.213   0.297
 4975SOL     OW15610   3.616   3.085   1.588
 4975SOL    HW115611   3.707   3.046   1.575
 4975SOL    HW215612   3.624   3.181   1.612
 4976SOL     OW15613   2.926   3.209   1.340
 4976SOL    HW115614   2.846   3.186   1.395
 4976SOL    HW215615   3.009   3.183   1.389
 4977SOL     OW15616   3.454   3.491   1.625
 4977SOL    HW115617   3.481   3.525   1.535
 4977SOL    HW215618   3.533   3.453   1.671
 4978SOL     OW15619   2.973   3.057   1.100
 4978SOL    HW115620   2.933   3.101   1.181
 4978SOL    HW215621   2.932   3.094   1.017
 4979SOL     OW15622   3.500   2.961   1.079
 4979SOL    HW115623   3.505   3.042   1.138
 4979SOL    HW215624   3.414   2.963   1.028
 4980SOL     OW15625   2.777   1.951   1.402
 4980SOL    HW115626   2.802   1.931   1.307
 4980SOL    HW215627   2.849   2.007   1.444
 4981SOL     OW15628   2.842   2.978   1.719
 4981SOL    HW115629   2.743   2.984   1.729
 4981SOL    HW215630   2.865   2.898   1.663
 4982SOL     OW15631   2.567   2.912   0.368
 4982SOL    HW115632   2.553   2.919   0.467
 4982SOL    HW215633   2.651   2.861   0.350
 4983SOL     OW15634   2.272   2.675   1.251
 4983SOL    HW115635   2.358   2.687   1.301
 4983SOL    HW215636   2.230   2.588   1.278
 4984SOL     OW15637   3.136   2.248   1.262
 4984SOL    HW115638   3.157   2.322   1.326
 4984SOL    HW215639   3.047   2.265   1.219
 4985SOL     OW15640   1.926   3.426   1.331
 4985SOL    HW115641   1.880   3.508   1.297
 4985SOL    HW215642   2.024   3.445   1.340
 4986SOL     OW15643   2.229   2.962   0.501
 4986SOL    HW115644   2.222   3.045   0.445
 4986SOL    HW215645   2.233   2.882   0.441
 4987SOL     OW15646   2.428   2.399   0.865
 4987SOL    HW115647   2.440   2.465   0.791
 4987SOL    HW215648   2.474   2.433   0.948
 4988SOL     OW15649   3.114   3.210   0.388
 4988SOL    HW115650   3.164   3.287   0.428
 4988SOL    HW215651   3.019   3.212   0.420
 4989SOL     OW15652   3.134   3.307   1.142
 4989SOL    HW115653   3.181   3.320   1.229
 4989SOL    HW215654   3.068   3.233   1.151
 4990SOL     OW15655   3.444   2.501   0.472
 4990SOL    HW115656   3.413   2.562   0.545
 4990SOL    HW215657   3.494   2.553   0.403
 4991SOL     OW15658   2.216   3.372   1.329
 4991SOL    HW115659   2.195   3.328   1.242
 4991SOL    HW215660   2.313   3.398   1.332
 4992SOL     OW15661   2.264   2.613   1.598
 4992SOL    HW115662   2.332   2.668   1.551
 4992SOL    HW215663   2.304   2.525   1.625
 4993SOL     OW15664   3.449   2.641   1.670
 4993SOL    HW115665   3.357   2.679   1.665
 4993SOL    HW215666   3.509   2.688   1.605
 4994SOL     OW15667   2.875   1.967   1.770
 4994SOL    HW115668   2.881   2.052   1.718
 4994SOL    HW215669   2.907   1.891   1.713
 4995SOL     OW15670   2.366   1.912   1.740
 4995SOL    HW115671   2.324   1.855   1.670
 4995SOL    HW215672   2.300   1.981   1.772
 4996SOL     OW15673   2.435   2.732   1.029
 4996SOL    HW115674   2.479   2.821   1.020
 4996SOL    HW215675   2.372   2.732   1.106
 4997SOL     OW15676   3.222   2.724   1.045
 4997SOL    HW115677   3.147   2.724   0.979
 4997SOL    HW215678   3.259   2.632   1.054
 4998SOL     OW15679   3.071   2.387   0.275
 4998SOL    HW115680   3.084   2.303   0.329
 4998SOL    HW215681   3.042   2.461   0.335
 4999SOL     OW15682   1.899   3.172   1.282
 4999SOL    HW115683   1.952   3.123   1.350
 4999SOL    HW215684   1.921   3.270   1.287
 5000SOL     OW15685   2.594   2.496   1.064
 5000SOL    HW115686   2.653   2.470   0.988
 5000SOL    HW215687   2.566   2.592   1.053
 5001SOL     OW15688   3.590   2.797   1.854
 5001SOL    HW115689   3.544   2.790   1.765
 5001SOL    HW215690   3.528   2.841   1.920
 5002SOL     OW15691   2.169   1.925   0.618
 5002SOL    HW115692   2.158   2.019   0.651
 5002SOL    HW215693   2.164   1.862   0.695
 5003SOL     OW15694   3.484   2.229   0.374
 5003SOL    HW115695   3.486   2.153   0.438
 5003SOL    HW215696   3.436   2.306   0.414
 5004SOL     OW15697   2.885   2.628   0.966
 5004SOL    HW115698   2.900   2.649   1.062
 5004SOL    HW215699   2.855   2.533   0.957
 5005SOL     OW15700   2.842   3.435   1.700
 5005SOL    HW115701   2.822   3.479   1.612
 5005SOL    HW215702   2.881   3.344   1.684
 5006SOL     OW15703   3.721   3.380   1.605
 5006SOL    HW115704   3.735   3.407   1.510
 5006SOL    HW215705   3.804   3.402   1.658
 5007SOL     OW15706   2.212   2.760   1.804
 5007SOL    HW115707   2.288   2.804   1.852
 5007SOL    HW215708   2.247   2.713   1.722
 5008SOL     OW15709   3.402   2.136   0.125
 5008SOL    HW115710   3.341   2.061   0.148
 5008SOL    HW215711   3.424   2.188   0.208
 5009SOL     OW15712   3.165   2.700   0.042
 5009SOL    HW115713   3.199   2.607   0.057
 5009SOL    HW215714   3.183   2.727  -0.053
 5010SOL     OW15715   2.930   3.195   0.849
 5010SOL    HW115716   2.937   3.111   0.794
 5010SOL    HW215717   2.992   3.264   0.813
 5011SOL     OW15718   2.181   2.672   0.949
 5011SOL    HW115719   2.274   2.708   0.954
 5011SOL    HW215720   2.175   2.587   1.001
 5012SOL     OW15721   2.201   2.371   1.006
 5012SOL    HW115722   2.149   2.288   0.989
 5012SOL    HW215723   2.278   2.376   0.942
 5013SOL     OW15724   3.000   2.242   1.678
 5013SOL    HW115725   2.955   2.305   1.742
 5013SOL    HW215726   3.093   2.273   1.661
 5014SOL     OW15727   3.022   2.069   1.477
 5014SOL    HW115728   3.022   2.133   1.554
 5014SOL    HW215729   3.050   2.117   1.394
 5015SOL     OW15730   1.870   3.188   0.200
 5015SOL    HW115731   1.777   3.209   0.169
 5015SOL    HW215732   1.880   3.089   0.213
 5016SOL     OW15733   1.950   3.663   0.927
 5016SOL    HW115734   1.908   3.577   0.900
 5016SOL    HW215735   2.044   3.666   0.893
 5017SOL     OW15736   2.366   3.430   0.910
 5017SOL    HW115737   2.432   3.504   0.919
 5017SOL    HW215738   2.410   3.351   0.868
 5018SOL     OW15739   2.864   2.658   1.238
 5018SOL    HW115740   2.905   2.626   1.324
 5018SOL    HW215741   2.768   2.631   1.235
 5019SOL     OW15742   1.902   2.406   1.114
 5019SOL    HW115743   1.987   2.373   1.073
 5019SOL    HW215744   1.915   2.421   1.212
 5020SOL     OW15745   2.051   2.382   1.722
 5020SOL    HW115746   2.110   2.342   1.652
 5020SOL    HW215747   1.993   2.453   1.681
 5021SOL     OW15748   3.231   2.812   1.660
 5021SOL    HW115749   3.270   2.901   1.680
 5021SOL    HW215750   3.241   2.792   1.563
 5022SOL     OW15751   2.677   2.434   0.325
 5022SOL    HW115752   2.684   2.345   0.279
 5022SOL    HW215753   2.583   2.468   0.317
 5023SOL     OW15754   3.519   2.466   1.206
 5023SOL    HW115755   3.481   2.397   1.268
 5023SOL    HW215756   3.601   2.430   1.162
 5024SOL     OW15757   2.114   3.426   1.744
 5024SOL    HW115758   2.084   3.483   1.820
 5024SOL    HW215759   2.107   3.329   1.770
 5025SOL     OW15760   2.533   2.326   1.269
 5025SOL    HW115761   2.499   2.237   1.239
 5025SOL    HW215762   2.559   2.380   1.189
 5026SOL     OW15763   2.792   3.540   1.465
 5026SOL    HW115764   2.768   3.522   1.370
 5026SOL    HW215765   2.822   3.634   1.475
 5027SOL     OW15766   2.335   2.362   0.191
 5027SOL    HW115767   2.396   2.442   0.195
 5027SOL    HW215768   2.240   2.393   0.198
 5028SOL     OW15769   2.021   2.999   1.466
 5028SOL    HW115770   2.043   2.938   1.542
 5028SOL    HW215771   2.031   2.950   1.380
 5029SOL     OW15772   3.209   2.921   1.234
 5029SOL    HW115773   3.233   2.858   1.160
 5029SOL    HW215774   3.119   2.961   1.216
 5030SOL     OW15775   3.164   2.717   0.309
 5030SOL    HW115776   3.078   2.686   0.351
 5030SOL    HW215777   3.160   2.703   0.210
 5031SOL     OW15778   3.621   3.609   1.154
 5031SOL    HW115779   3.682   3.639   1.081
 5031SOL    HW215780   3.583   3.520   1.132
 5032SOL     OW15781   3.114   3.593   1.128
 5032SOL    HW115782   3.198   3.598   1.074
 5032SOL    HW215783   3.091   3.497   1.146
 5033SOL     OW15784   1.945   3.120   1.022
 5033SOL    HW115785   1.940   3.119   1.122
 5033SOL    HW215786   1.862   3.079   0.984
 5034SOL     OW15787   2.550   3.524   1.716
 5034SOL    HW115788   2.494   3.605   1.725
 5034SOL    HW215789   2.602   3.528   1.630
 5035SOL     OW15790   2.765   1.948   0.133
 5035SOL    HW115791   2.816   1.949   0.047
 5035SOL    HW215792   2.821   1.906   0.204
 5036SOL     OW15793   3.588   1.997   0.523
 5036SOL    HW115794   3.661   1.980   0.456
 5036SOL    HW215795   3.557   1.910   0.561
 5037SOL     OW15796   3.250   3.435   0.477
 5037SOL    HW115797   3.317   3.447   0.403
 5037SOL    HW215798   3.210   3.524   0.500
 5038SOL     OW15799   1.992   3.656   1.851
 5038SOL    HW115800   1.951   3.582   1.904
 5038SOL    HW215801   2.056   3.707   1.909
 5039SOL     OW15802   3.142   2.789   0.672
 5039SOL    HW115803   3.202   2.708   0.674
 5039SOL    HW215804   3.182   2.858   0.612
 5040SOL     OW15805   2.692   3.135   1.422
 5040SOL    HW115806   2.687   3.168   1.517
 5040SOL    HW215807   2.606   3.154   1.376
 5041SOL     OW15808   2.534   3.478   0.154
 5041SOL    HW115809   2.543   3.488   0.055
 5041SOL    HW215810   2.494   3.389   0.175
 5042SOL     OW15811   3.512   3.582   1.394
 5042SOL    HW115812   3.565   3.592   1.310
 5042SOL    HW215813   3.485   3.672   1.428
 5043SOL     OW15814   3.703   2.037   0.963
 5043SOL    HW115815   3.742   1.952   0.927
 5043SOL    HW215816   3.605   2.039   0.944
 5044SOL     OW15817   3.056   3.474   0.031
 5044SOL    HW115818   3.062   3.381   0.068
 5044SOL    HW215819   2.997   3.474  -0.049
 5045SOL     OW15820   2.684   2.864   1.372
 5045SOL    HW115821   2.724   2.863   1.280
 5045SOL    HW215822   2.694   2.956   1.412
 5046SOL     OW15823   2.778   2.772   0.291
 5046SOL    HW115824   2.841   2.810   0.223
 5046SOL    HW215825   2.818   2.689   0.330
 5047SOL     OW15826   3.366   3.469   0.044
 5047SOL    HW115827   3.274   3.506   0.051
 5047SOL    HW215828   3.404   3.489  -0.046
 5048SOL     OW15829   2.234   3.150   1.490
 5048SOL    HW115830   2.221   3.243   1.456
 5048SOL    HW215831   2.150   3.098   1.477
 5049SOL     OW15832   3.476   3.154   1.289
 5049SOL    HW115833   3.536   3.157   1.369
 5049SOL    HW215834   3.401   3.218   1.302
 5050SOL     OW15835   2.901   2.960   0.696
 5050SOL    HW115836   2.831   2.913   0.750
 5050SOL    HW215837   2.960   2.892   0.653
 5051SOL     OW15838   2.876   2.098   0.971
 5051SOL    HW115839   2.868   2.062   0.878
 5051SOL    HW215840   2.874   2.022   1.036
 5052SOL     OW15841   2.452   3.349   0.491
 5052SOL    HW115842   2.494   3.291   0.421
 5052SOL    HW215843   2.408   3.428   0.447
 5053SOL     OW15844   3.571   2.247   1.381
 5053SOL    HW115845   3.644   2.316   1.385
 5053SOL    HW215846   3.599   2.172   1.322
 5054SOL     OW15847   2.117   3.210   0.290
 5054SOL    HW115848   2.021   3.211   0.263
 5054SOL    HW215849   2.129   3.263   0.374
 5055SOL     OW15850   1.967   2.875   1.726
 5055SOL    HW115851   1.890   2.842   1.780
 5055SOL    HW215852   2.052   2.845   1.768
 5056SOL     OW15853   2.534   2.065   1.489
 5056SOL    HW115854   2.624   2.049   1.449
 5056SOL    HW215855   2.542   2.070   1.588
 5057SOL     OW15856   1.937   2.207   0.033
 5057SOL    HW115857   1.845   2.179   0.004
 5057SOL    HW215858   1.968   2.284  -0.023
 5058SOL     OW15859   3.302   2.718   1.398
 5058SOL    HW115860   3.245   2.770   1.335
 5058SOL    HW215861   3.398   2.730   1.374
 5059SOL     OW15862   3.045   3.197   0.119
 5059SOL    HW115863   2.946   3.186   0.121
 5059SOL    HW215864   3.079   3.212   0.212
 5060SOL     OW15865   2.475   2.704   1.431
 5060SOL    HW115866   2.531   2.785   1.414
 5060SOL    HW215867   2.534   2.624   1.434
 5061SOL     OW15868   3.355   3.629   0.959
 5061SOL    HW115869   3.388   3.693   0.890
 5061SOL    HW215870   3.421   3.623   1.034
 5062SOL     OW15871   2.578   2.427   1.708
 5062SOL    HW115872   2.597   2.492   1.782
 5062SOL    HW215873   2.638   2.347   1.717
 5063SOL     OW15874   3.312   3.082   1.633
 5063SOL    HW115875   3.303   3.072   1.732
 5063SOL    HW215876   3.408   3.075   1.607
 5064SOL     OW15877   2.252   3.603   1.560
 5064SOL    HW115878   2.161   3.644   1.558
 5064SOL    HW215879   2.245   3.509   1.592
 5065SOL     OW15880   3.536   2.745   1.254
 5065SOL    HW115881   3.509   2.656   1.217
 5065SOL    HW215882   3.537   2.813   1.181
 5066SOL     OW15883   3.087   2.187   0.449
 5066SOL    HW115884   3.152   2.113   0.438
 5066SOL    HW215885   3.107   2.237   0.533
 5067SOL     OW15886   2.456   2.607   0.652
 5067SOL    HW115887   2.506   2.692   0.633
 5067SOL    HW215888   2.368   2.609   0.604
 5068SOL     OW15889   3.639   2.204   1.642
 5068SOL    HW115890   3.622   2.235   1.548
 5068SOL    HW215891   3.555   2.167   1.680
 5069SOL     OW15892   3.592   2.796   1.517
 5069SOL    HW115893   3.630   2.887   1.532
 5069SOL    HW215894   3.584   2.779   1.418
 5070SOL     OW15895   2.721   3.236   0.016
 5070SOL    HW115896   2.675   3.251   0.104
 5070SOL    HW215897   2.765   3.321  -0.014
 5071SOL     OW15898   2.523   3.652   0.953
 5071SOL    HW115899   2.477   3.740   0.940
 5071SOL    HW215900   2.622   3.664   0.946
 5072SOL     OW15901   2.721   2.818   0.861
 5072SOL    HW115902   2.775   2.749   0.909
 5072SOL    HW215903   2.689   2.887   0.927
 5073SOL     OW15904   2.945   2.846   0.087
 5073SOL    HW115905   2.922   2.899   0.005
 5073SOL    HW215906   3.026   2.790   0.068
 5074SOL     OW15907   3.723   3.431   0.851
 5074SOL    HW115908   3.652   3.419   0.781
 5074SOL    HW215909   3.724   3.352   0.911
 5075SOL     OW15910   2.083   3.176   1.844
 5075SOL    HW115911   2.018   3.103   1.823
 5075SOL    HW215912   2.087   3.190   1.942
 5076SOL     OW15913   1.941   3.102   0.653
 5076SOL    HW115914   1.940   3.055   0.741
 5076SOL    HW215915   2.023   3.074   0.602
 5077SOL     OW15916   2.534   3.253   1.624
 5077SOL    HW115917   2.456   3.203   1.662
 5077SOL    HW215918   2.531   3.348   1.655
 5078SOL     OW15919   3.686   2.054   1.227
 5078SOL    HW115920   3.682   1.964   1.271
 5078SOL    HW215921   3.689   2.043   1.128
 5079SOL     OW15922   2.290   2.286   0.520
 5079SOL    HW115923   2.320   2.214   0.458
 5079SOL    HW215924   2.251   2.246   0.603
 5080SOL     OW15925   3.567   3.349   1.104
 5080SOL    HW115926   3.474   3.324   1.077
 5080SOL    HW215927   3.593   3.299   1.186
 5081SOL     OW15928   2.179   2.409   1.280
 5081SOL    HW115929   2.217   2.350   1.352
 5081SOL    HW215930   2.219   2.383   1.192
 5082SOL     OW15931   2.674   3.448   0.687
 5082SOL    HW115932   2.706   3.458   0.593
 5082SOL    HW215933   2.595   3.386   0.689
 5083SOL     OW15934   3.286   2.076   1.112
 5083SOL    HW115935   3.338   2.011   1.167
 5083SOL    HW215936   3.237   2.139   1.173
 5084SOL     OW15937   2.863   1.896   1.154
 5084SOL    HW115938   2.800   1.824   1.123
 5084SOL    HW215939   2.956   1.860   1.154
 5085SOL     OW15940   2.632   3.192   0.301
 5085SOL    HW115941   2.586   3.105   0.318
 5085SOL    HW215942   2.723   3.189   0.342
 5086SOL     OW15943   2.480   3.429   1.284
 5086SOL    HW115944   2.475   3.511   1.341
 5086SOL    HW215945   2.569   3.426   1.239
 5087SOL     OW15946   3.214   1.914   0.168
 5087SOL    HW115947   3.249   1.873   0.084
 5087SOL    HW215948   3.124   1.876   0.188
 5088SOL     OW15949   3.162   2.315   0.691
 5088SOL    HW115950   3.103   2.395   0.695
 5088SOL    HW215951   3.177   2.280   0.784
 5089SOL     OW15952   3.455   2.083   0.882
 5089SOL    HW115953   3.371   2.082   0.936
 5089SOL    HW215954   3.457   2.166   0.826
 5090SOL     OW15955   1.901   2.939   0.300
 5090SOL    HW115956   2.000   2.928   0.291
 5090SOL    HW215957   1.861   2.853   0.332
 5091SOL     OW15958   2.737   3.508   0.337
 5091SOL    HW115959   2.660   3.473   0.283
 5091SOL    HW215960   2.705   3.579   0.399
 5092SOL     OW15961   2.092   2.490   1.975
 5092SOL    HW115962   1.999   2.488   2.012
 5092SOL    HW215963   2.093   2.451   1.883
 5093SOL     OW15964   1.881   2.230   2.509
 5093SOL    HW115965   1.799   2.273   2.548
 5093SOL    HW215966   1.853   2.157   2.446
 5094SOL     OW15967   2.431   3.137   3.027
 5094SOL    HW115968   2.338   3.130   2.990
 5094SOL    HW215969   2.442   3.226   3.071
 5095SOL     OW15970   3.417   3.373   2.565
 5095SOL    HW115971   3.360   3.357   2.646
 5095SOL    HW215972   3.358   3.383   2.485
 5096SOL     OW15973   2.997   2.565   2.579
 5096SOL    HW115974   3.054   2.643   2.554
 5096SOL    HW215975   2.937   2.591   2.655
 5097SOL     OW15976   3.617   2.469   2.093
 5097SOL    HW115977   3.605   2.456   1.994
 5097SOL    HW215978   3.587   2.388   2.142
 5098SOL     OW15979   2.630   3.006   2.885
 5098SOL    HW115980   2.552   3.023   2.945
 5098SOL    HW215981   2.664   3.093   2.849
 5099SOL     OW15982   2.712   2.660   3.685
 5099SOL    HW115983   2.708   2.736   3.750
 5099SOL    HW215984   2.734   2.696   3.594
 5100SOL     OW15985   2.547   2.874   2.527
 5100SOL    HW115986   2.616   2.858   2.597
 5100SOL    HW215987   2.474   2.931   2.565
 5101SOL     OW15988   2.548   3.023   3.665
 5101SOL    HW115989   2.608   3.102   3.679
 5101SOL    HW215990   2.462   3.054   3.624
 5102SOL     OW15991   2.197   3.297   2.923
 5102SOL    HW115992   2.119   3.266   2.870
 5102SOL    HW215993   2.255   3.355   2.866
 5103SOL     OW15994   3.322   3.367   3.201
 5103SOL    HW115995   3.346   3.461   3.227
 5103SOL    HW215996   3.306   3.313   3.283
 5104SOL     OW15997   2.300   2.254   3.361
 5104SOL    HW115998   2.382   2.198   3.370
 5104SOL    HW215999   2.219   2.196   3.365
 5105SOL     OW16000   3.465   2.309   2.599
 5105SOL    HW116001   3.391   2.355   2.549
 5105SOL    HW216002   3.516   2.377   2.652
 5106SOL     OW16003   2.093   3.575   2.345
 5106SOL    HW116004   2.127   3.652   2.399
 5106SOL    HW216005   2.137   3.575   2.255
 5107SOL     OW16006   2.989   3.203   3.552
 5107SOL    HW116007   3.036   3.203   3.640
 5107SOL    HW216008   2.941   3.116   3.541
 5108SOL     OW16009   2.092   3.296   2.400
 5108SOL    HW116010   2.066   3.392   2.400
 5108SOL    HW216011   2.021   3.242   2.445
 5109SOL     OW16012   2.102   2.953   2.748
 5109SOL    HW116013   2.116   2.869   2.800
 5109SOL    HW216014   2.047   3.017   2.803
 5110SOL     OW16015   2.482   3.648   3.301
 5110SOL    HW116016   2.390   3.631   3.336
 5110SOL    HW216017   2.510   3.740   3.327
 5111SOL     OW16018   2.468   2.826   1.985
 5111SOL    HW116019   2.475   2.910   1.931
 5111SOL    HW216020   2.514   2.839   2.073
 5112SOL     OW16021   3.456   1.976   3.342
 5112SOL    HW116022   3.438   2.043   3.270
 5112SOL    HW216023   3.453   2.022   3.431
 5113SOL     OW16024   1.984   2.505   2.425
 5113SOL    HW116025   1.939   2.417   2.442
 5113SOL    HW216026   1.983   2.559   2.509
 5114SOL     OW16027   3.704   3.629   2.221
 5114SOL    HW116028   3.758   3.600   2.301
 5114SOL    HW216029   3.734   3.719   2.192
 5115SOL     OW16030   1.889   3.458   1.979
 5115SOL    HW116031   1.870   3.362   2.000
 5115SOL    HW216032   1.856   3.516   2.054
 5116SOL     OW16033   3.551   2.784   2.474
 5116SOL    HW116034   3.646   2.755   2.482
 5116SOL    HW216035   3.543   2.849   2.399
 5117SOL     OW16036   3.503   2.970   2.294
 5117SOL    HW116037   3.589   2.972   2.242
 5117SOL    HW216038   3.517   3.017   2.382
 5118SOL     OW16039   1.975   2.599   3.459
 5118SOL    HW116040   2.063   2.586   3.504
 5118SOL    HW216041   1.962   2.696   3.437
 5119SOL     OW16042   2.475   3.227   2.588
 5119SOL    HW116043   2.426   3.140   2.597
 5119SOL    HW216044   2.452   3.270   2.501
 5120SOL     OW16045   3.155   3.090   3.285
 5120SOL    HW116046   3.192   3.017   3.227
 5120SOL    HW216047   3.207   3.095   3.370
 5121SOL     OW16048   2.671   1.866   2.364
 5121SOL    HW116049   2.711   1.957   2.355
 5121SOL    HW216050   2.571   1.874   2.370
 5122SOL     OW16051   2.059   2.838   3.126
 5122SOL    HW116052   2.148   2.793   3.112
 5122SOL    HW216053   1.986   2.773   3.107
 5123SOL     OW16054   3.387   2.861   2.052
 5123SOL    HW116055   3.324   2.785   2.065
 5123SOL    HW216056   3.435   2.879   2.138
 5124SOL     OW16057   3.049   3.654   3.478
 5124SOL    HW116058   3.073   3.714   3.402
 5124SOL    HW216059   3.056   3.559   3.448
 5125SOL     OW16060   3.328   3.279   2.815
 5125SOL    HW116061   3.269   3.285   2.895
 5125SOL    HW216062   3.313   3.191   2.769
 5126SOL     OW16063   3.529   3.576   2.434
 5126SOL    HW116064   3.488   3.553   2.346
 5126SOL    HW216065   3.511   3.502   2.499
 5127SOL     OW16066   2.460   2.591   2.132
 5127SOL    HW116067   2.484   2.660   2.064
 5127SOL    HW216068   2.382   2.624   2.186
 5128SOL     OW16069   3.143   2.207   2.806
 5128SOL    HW116070   3.057   2.157   2.793
 5128SOL    HW216071   3.205   2.153   2.862
 5129SOL     OW16072   3.438   3.524   2.169
 5129SOL    HW116073   3.527   3.570   2.172
 5129SOL    HW216074   3.417   3.500   2.074
 5130SOL     OW16075   2.669   2.467   3.327
 5130SOL    HW116076   2.622   2.464   3.416
 5130SOL    HW216077   2.618   2.412   3.261
 5131SOL     OW16078   3.256   2.331   3.536
 5131SOL    HW116079   3.236   2.374   3.624
 5131SOL    HW216080   3.334   2.269   3.545
 5132SOL     OW16081   2.835   2.752   3.434
 5132SOL    HW116082   2.881   2.668   3.405
 5132SOL    HW216083   2.779   2.786   3.359
 5133SOL     OW16084   2.853   2.272   3.104
 5133SOL    HW116085   2.776   2.306   3.158
 5133SOL    HW216086   2.819   2.221   3.025
 5134SOL     OW16087   2.903   2.563   2.291
 5134SOL    HW116088   2.929   2.559   2.387
 5134SOL    HW216089   2.818   2.512   2.277
 5135SOL     OW16090   1.938   2.673   2.651
 5135SOL    HW116091   2.037   2.661   2.660
 5135SOL    HW216092   1.914   2.768   2.672
 5136SOL     OW16093   1.992   3.683   3.433
 5136SOL    HW116094   1.982   3.668   3.532
 5136SOL    HW216095   1.906   3.719   3.397
 5137SOL     OW16096   2.727   2.210   2.057
 5137SOL    HW116097   2.786   2.273   2.008
 5137SOL    HW216098   2.746   2.116   2.028
 5138SOL     OW16099   3.581   2.447   3.693
 5138SOL    HW116100   3.555   2.536   3.657
 5138SOL    HW216101   3.579   2.379   3.620
 5139SOL     OW16102   3.224   3.006   2.407
 5139SOL    HW116103   3.307   2.977   2.359
 5139SOL    HW216104   3.175   3.073   2.351
 5140SOL     OW16105   2.412   2.058   2.747
 5140SOL    HW116106   2.407   2.053   2.847
 5140SOL    HW216107   2.414   2.154   2.718
 5141SOL     OW16108   2.870   3.318   2.339
 5141SOL    HW116109   2.824   3.390   2.287
 5141SOL    HW216110   2.866   3.338   2.437
 5142SOL     OW16111   2.213   3.663   2.715
 5142SOL    HW116112   2.263   3.577   2.721
 5142SOL    HW216113   2.278   3.740   2.712
 5143SOL     OW16114   3.657   2.928   2.735
 5143SOL    HW116115   3.595   2.913   2.659
 5143SOL    HW216116   3.605   2.939   2.820
 5144SOL     OW16117   3.089   3.412   3.368
 5144SOL    HW116118   3.095   3.335   3.432
 5144SOL    HW216119   3.037   3.386   3.288
 5145SOL     OW16120   2.183   2.805   2.104
 5145SOL    HW116121   2.265   2.844   2.062
 5145SOL    HW216122   2.156   2.723   2.055
 5146SOL     OW16123   3.320   2.597   2.590
 5146SOL    HW116124   3.315   2.532   2.665
 5146SOL    HW216125   3.400   2.656   2.603
 5147SOL     OW16126   2.323   3.128   3.589
 5147SOL    HW116127   2.273   3.129   3.503
 5147SOL    HW216128   2.260   3.110   3.665
 5148SOL     OW16129   2.973   3.638   2.099
 5148SOL    HW116130   2.913   3.576   2.149
 5148SOL    HW216131   3.004   3.594   2.014
 5149SOL     OW16132   3.494   3.239   1.943
 5149SOL    HW116133   3.462   3.333   1.933
 5149SOL    HW216134   3.418   3.176   1.931
 5150SOL     OW16135   2.326   3.605   2.185
 5150SOL    HW116136   2.359   3.644   2.271
 5150SOL    HW216137   2.402   3.598   2.120
 5151SOL     OW16138   3.262   1.969   2.288
 5151SOL    HW116139   3.238   1.932   2.198
 5151SOL    HW216140   3.361   1.985   2.292
 5152SOL     OW16141   2.111   3.647   3.103
 5152SOL    HW116142   2.168   3.582   3.153
 5152SOL    HW216143   2.095   3.614   3.010
 5153SOL     OW16144   2.802   3.560   2.766
 5153SOL    HW116145   2.882   3.503   2.787
 5153SOL    HW216146   2.753   3.520   2.689
 5154SOL     OW16147   2.244   2.562   2.342
 5154SOL    HW116148   2.289   2.472   2.339
 5154SOL    HW216149   2.150   2.551   2.375
 5155SOL     OW16150   3.409   2.084   3.591
 5155SOL    HW116151   3.404   2.121   3.683
 5155SOL    HW216152   3.337   2.015   3.579
 5156SOL     OW16153   2.476   1.984   1.979
 5156SOL    HW116154   2.574   1.962   1.986
 5156SOL    HW216155   2.445   1.967   1.886
 5157SOL     OW16156   2.643   2.126   3.611
 5157SOL    HW116157   2.710   2.065   3.654
 5157SOL    HW216158   2.570   2.145   3.676
 5158SOL     OW16159   2.750   3.376   3.057
 5158SOL    HW116160   2.727   3.351   2.963
 5158SOL    HW216161   2.811   3.307   3.096
 5159SOL     OW16162   3.213   2.452   3.295
 5159SOL    HW116163   3.241   2.409   3.380
 5159SOL    HW216164   3.238   2.548   3.296
 5160SOL     OW16165   2.665   3.264   2.786
 5160SOL    HW116166   2.755   3.278   2.744
 5160SOL    HW216167   2.594   3.266   2.715
 5161SOL     OW16168   2.784   2.365   2.761
 5161SOL    HW116169   2.759   2.356   2.665
 5161SOL    HW216170   2.832   2.283   2.792
 5162SOL     OW16171   2.401   1.926   2.374
 5162SOL    HW116172   2.320   1.927   2.432
 5162SOL    HW216173   2.404   2.009   2.319
 5163SOL     OW16174   3.296   3.050   1.903
 5163SOL    HW116175   3.328   2.974   1.960
 5163SOL    HW216176   3.204   3.077   1.933
 5164SOL     OW16177   2.797   2.098   2.342
 5164SOL    HW116178   2.749   2.139   2.264
 5164SOL    HW216179   2.896   2.096   2.323
 5165SOL     OW16180   2.938   2.545   3.326
 5165SOL    HW116181   2.858   2.484   3.329
 5165SOL    HW216182   3.019   2.492   3.302
 5166SOL     OW16183   3.089   3.432   2.655
 5166SOL    HW116184   3.110   3.506   2.590
 5166SOL    HW216185   3.157   3.432   2.728
 5167SOL     OW16186   2.321   3.014   2.603
 5167SOL    HW116187   2.250   2.987   2.668
 5167SOL    HW216188   2.295   2.986   2.510
 5168SOL     OW16189   3.133   3.659   2.453
 5168SOL    HW116190   3.177   3.723   2.389
 5168SOL    HW216191   3.083   3.711   2.523
 5169SOL     OW16192   2.894   2.411   1.878
 5169SOL    HW116193   2.853   2.493   1.839
 5169SOL    HW216194   2.958   2.437   1.951
 5170SOL     OW16195   1.940   2.418   3.248
 5170SOL    HW116196   2.032   2.417   3.207
 5170SOL    HW216197   1.934   2.492   3.315
 5171SOL     OW16198   2.423   2.084   3.009
 5171SOL    HW116199   2.461   2.000   3.046
 5171SOL    HW216200   2.335   2.103   3.053
 5172SOL     OW16201   2.728   2.316   2.504
 5172SOL    HW116202   2.696   2.388   2.442
 5172SOL    HW216203   2.752   2.235   2.451
 5173SOL     OW16204   2.879   1.901   2.615
 5173SOL    HW116205   2.807   1.906   2.546
 5173SOL    HW216206   2.855   1.832   2.684
 5174SOL     OW16207   3.291   3.035   2.729
 5174SOL    HW116208   3.236   2.951   2.722
 5174SOL    HW216209   3.317   3.064   2.637
 5175SOL     OW16210   3.328   2.452   2.854
 5175SOL    HW116211   3.298   2.357   2.861
 5175SOL    HW216212   3.401   2.468   2.920
 5176SOL     OW16213   3.719   2.695   2.239
 5176SOL    HW116214   3.761   2.631   2.303
 5176SOL    HW216215   3.681   2.644   2.161
 5177SOL     OW16216   2.350   3.247   2.036
 5177SOL    HW116217   2.263   3.232   2.083
 5177SOL    HW216218   2.333   3.273   1.941
 5178SOL     OW16219   3.526   3.142   2.519
 5178SOL    HW116220   3.625   3.150   2.533
 5178SOL    HW216221   3.481   3.226   2.550
 5179SOL     OW16222   3.252   2.437   1.940
 5179SOL    HW116223   3.198   2.416   2.021
 5179SOL    HW216224   3.343   2.396   1.949
 5180SOL     OW16225   2.389   2.118   2.190
 5180SOL    HW116226   2.416   2.059   2.115
 5180SOL    HW216227   2.389   2.213   2.159
 5181SOL     OW16228   3.616   3.085   3.450
 5181SOL    HW116229   3.707   3.046   3.437
 5181SOL    HW216230   3.624   3.181   3.474
 5182SOL     OW16231   2.926   3.209   3.202
 5182SOL    HW116232   2.846   3.186   3.257
 5182SOL    HW216233   3.009   3.183   3.251
 5183SOL     OW16234   3.454   3.491   3.487
 5183SOL    HW116235   3.481   3.525   3.397
 5183SOL    HW216236   3.533   3.453   3.533
 5184SOL     OW16237   2.973   3.057   2.962
 5184SOL    HW116238   2.933   3.101   3.043
 5184SOL    HW216239   2.932   3.094   2.879
 5185SOL     OW16240   3.500   2.961   2.941
 5185SOL    HW116241   3.505   3.042   3.000
 5185SOL    HW216242   3.414   2.963   2.890
 5186SOL     OW16243   2.777   1.951   3.264
 5186SOL    HW116244   2.802   1.931   3.169
 5186SOL    HW216245   2.849   2.007   3.306
 5187SOL     OW16246   2.842   2.978   3.581
 5187SOL    HW116247   2.743   2.984   3.591
 5187SOL    HW216248   2.865   2.898   3.525
 5188SOL     OW16249   2.567   2.912   2.230
 5188SOL    HW116250   2.553   2.919   2.329
 5188SOL    HW216251   2.651   2.861   2.212
 5189SOL     OW16252   2.272   2.675   3.113
 5189SOL    HW116253   2.358   2.687   3.163
 5189SOL    HW216254   2.230   2.588   3.140
 5190SOL     OW16255   3.136   2.248   3.124
 5190SOL    HW116256   3.157   2.322   3.188
 5190SOL    HW216257   3.047   2.265   3.081
 5191SOL     OW16258   1.926   3.426   3.193
 5191SOL    HW116259   1.880   3.508   3.159
 5191SOL    HW216260   2.024   3.445   3.202
 5192SOL     OW16261   2.229   2.962   2.363
 5192SOL    HW116262   2.222   3.045   2.307
 5192SOL    HW216263   2.233   2.882   2.303
 5193SOL     OW16264   2.428   2.399   2.727
 5193SOL    HW116265   2.440   2.465   2.653
 5193SOL    HW216266   2.474   2.433   2.810
 5194SOL     OW16267   3.114   3.210   2.250
 5194SOL    HW116268   3.164   3.287   2.290
 5194SOL    HW216269   3.019   3.212   2.282
 5195SOL     OW16270   3.134   3.307   3.004
 5195SOL    HW116271   3.181   3.320   3.091
 5195SOL    HW216272   3.068   3.233   3.013
 5196SOL     OW16273   3.444   2.501   2.334
 5196SOL    HW116274   3.413   2.562   2.407
 5196SOL    HW216275   3.494   2.553   2.265
 5197SOL     OW16276   2.216   3.372   3.191
 5197SOL    HW116277   2.195   3.328   3.104
 5197SOL    HW216278   2.313   3.398   3.194
 5198SOL     OW16279   2.264   2.613   3.460
 5198SOL    HW116280   2.332   2.668   3.413
 5198SOL    HW216281   2.304   2.525   3.487
 5199SOL     OW16282   3.449   2.641   3.532
 5199SOL    HW116283   3.357   2.679   3.527
 5199SOL    HW216284   3.509   2.688   3.467
 5200SOL     OW16285   2.875   1.967   3.632
 5200SOL    HW116286   2.881   2.052   3.580
 5200SOL    HW216287   2.907   1.891   3.575
 5201SOL     OW16288   2.366   1.912   3.602
 5201SOL    HW116289   2.324   1.855   3.532
 5201SOL    HW216290   2.300   1.981   3.634
 5202SOL     OW16291   2.435   2.732   2.891
 5202SOL    HW116292   2.479   2.821   2.882
 5202SOL    HW216293   2.372   2.732   2.968
 5203SOL     OW16294   3.222   2.724   2.907
 5203SOL    HW116295   3.147   2.724   2.841
 5203SOL    HW216296   3.259   2.632   2.916
 5204SOL     OW16297   3.071   2.387   2.137
 5204SOL    HW116298   3.084   2.303   2.191
 5204SOL    HW216299   3.042   2.461   2.197
 5205SOL     OW16300   1.899   3.172   3.144
 5205SOL    HW116301   1.952   3.123   3.212
 5205SOL    HW216302   1.921   3.270   3.149
 5206SOL     OW16303   2.594   2.496   2.926
 5206SOL    HW116304   2.653   2.470   2.850
 5206SOL    HW216305   2.566   2.592   2.915
 5207SOL     OW16306   3.590   2.797   3.716
 5207SOL    HW116307   3.544   2.790   3.627
 5207SOL    HW216308   3.528   2.841   3.782
 5208SOL     OW16309   2.169   1.925   2.480
 5208SOL    HW116310   2.158   2.019   2.513
 5208SOL    HW216311   2.164   1.862   2.557
 5209SOL     OW16312   3.484   2.229   2.236
 5209SOL    HW116313   3.486   2.153   2.300
 5209SOL    HW216314   3.436   2.306   2.276
 5210SOL     OW16315   2.885   2.628   2.828
 5210SOL    HW116316   2.900   2.649   2.924
 5210SOL    HW216317   2.855   2.533   2.819
 5211SOL     OW16318   2.842   3.435   3.562
 5211SOL    HW116319   2.822   3.479   3.474
 5211SOL    HW216320   2.881   3.344   3.546
 5212SOL     OW16321   3.721   3.380   3.467
 5212SOL    HW116322   3.735   3.407   3.372
 5212SOL    HW216323   3.804   3.402   3.520
 5213SOL     OW16324   2.212   2.760   3.666
 5213SOL    HW116325   2.288   2.804   3.714
 5213SOL    HW216326   2.247   2.713   3.584
 5214SOL     OW16327   3.402   2.136   1.987
 5214SOL    HW116328   3.341   2.061   2.010
 5214SOL    HW216329   3.424   2.188   2.070
 5215SOL     OW16330   3.165   2.700   1.904
 5215SOL    HW116331   3.199   2.607   1.919
 5215SOL    HW216332   3.183   2.727   1.809
 5216SOL     OW16333   2.930   3.195   2.711
 5216SOL    HW116334   2.937   3.111   2.656
 5216SOL    HW216335   2.992   3.264   2.675
 5217SOL     OW16336   2.181   2.672   2.811
 5217SOL    HW116337   2.274   2.708   2.816
 5217SOL    HW216338   2.175   2.587   2.863
 5218SOL     OW16339   2.201   2.371   2.868
 5218SOL    HW116340   2.149   2.288   2.851
 5218SOL    HW216341   2.278   2.376   2.804
 5219SOL     OW16342   3.000   2.242   3.540
 5219SOL    HW116343   2.955   2.305   3.604
 5219SOL    HW216344   3.093   2.273   3.523
 5220SOL     OW16345   3.022   2.069   3.339
 5220SOL    HW116346   3.022   2.133   3.416
 5220SOL    HW216347   3.050   2.117   3.256
 5221SOL     OW16348   1.870   3.188   2.062
 5221SOL    HW116349   1.777   3.209   2.031
 5221SOL    HW216350   1.880   3.089   2.075
 5222SOL     OW16351   1.950   3.663   2.789
 5222SOL    HW116352   1.908   3.577   2.762
 5222SOL    HW216353   2.044   3.666   2.755
 5223SOL     OW16354   2.366   3.430   2.772
 5223SOL    HW116355   2.432   3.504   2.781
 5223SOL    HW216356   2.410   3.351   2.730
 5224SOL     OW16357   2.864   2.658   3.100
 5224SOL    HW116358   2.905   2.626   3.186
 5224SOL    HW216359   2.768   2.631   3.097
 5225SOL     OW16360   1.902   2.406   2.976
 5225SOL    HW116361   1.987   2.373   2.935
 5225SOL    HW216362   1.915   2.421   3.074
 5226SOL     OW16363   2.051   2.382   3.584
 5226SOL    HW116364   2.110   2.342   3.514
 5226SOL    HW216365   1.993   2.453   3.543
 5227SOL     OW16366   3.231   2.812   3.522
 5227SOL    HW116367   3.270   2.901   3.542
 5227SOL    HW216368   3.241   2.792   3.425
 5228SOL     OW16369   2.677   2.434   2.187
 5228SOL    HW116370   2.684   2.345   2.141
 5228SOL    HW216371   2.583   2.468   2.179
 5229SOL     OW16372   3.519   2.466   3.068
 5229SOL    HW116373   3.481   2.397   3.130
 5229SOL    HW216374   3.601   2.430   3.024
 5230SOL     OW16375   2.114   3.426   3.606
 5230SOL    HW116376   2.084   3.483   3.682
 5230SOL    HW216377   2.107   3.329   3.632
 5231SOL     OW16378   2.533   2.326   3.131
 5231SOL    HW116379   2.499   2.237   3.101
 5231SOL    HW216380   2.559   2.380   3.051
 5232SOL     OW16381   2.792   3.540   3.327
 5232SOL    HW116382   2.768   3.522   3.232
 5232SOL    HW216383   2.822   3.634   3.337
 5233SOL     OW16384   2.335   2.362   2.053
 5233SOL    HW116385   2.396   2.442   2.057
 5233SOL    HW216386   2.240   2.393   2.060
 5234SOL     OW16387   2.021   2.999   3.328
 5234SOL    HW116388   2.043   2.938   3.404
 5234SOL    HW216389   2.031   2.950   3.242
 5235SOL     OW16390   3.209   2.921   3.096
 5235SOL    HW116391   3.233   2.858   3.022
 5235SOL    HW216392   3.119   2.961   3.078
 5236SOL     OW16393   3.164   2.717   2.171
 5236SOL    HW116394   3.078   2.686   2.213
 5236SOL    HW216395   3.160   2.703   2.072
 5237SOL     OW16396   3.621   3.609   3.016
 5237SOL    HW116397   3.682   3.639   2.943
 5237SOL    HW216398   3.583   3.520   2.994
 5238SOL     OW16399   3.114   3.593   2.990
 5238SOL    HW116400   3.198   3.598   2.936
 5238SOL    HW216401   3.091   3.497   3.008
 5239SOL     OW16402   1.945   3.120   2.884
 5239SOL    HW116403   1.940   3.119   2.984
 5239SOL    HW216404   1.862   3.079   2.846
 5240SOL     OW16405   2.550   3.524   3.578
 5240SOL    HW116406   2.494   3.605   3.587
 5240SOL    HW216407   2.602   3.528   3.492
 5241SOL     OW16408   3.588   1.997   2.385
 5241SOL    HW116409   3.661   1.980   2.318
 5241SOL    HW216410   3.557   1.910   2.423
 5242SOL     OW16411   3.250   3.435   2.339
 5242SOL    HW116412   3.317   3.447   2.265
 5242SOL    HW216413   3.210   3.524   2.362
 5243SOL     OW16414   1.992   3.656   3.713
 5243SOL    HW116415   1.951   3.582   3.766
 5243SOL    HW216416   2.056   3.707   3.771
 5244SOL     OW16417   3.142   2.789   2.534
 5244SOL    HW116418   3.202   2.708   2.536
 5244SOL    HW216419   3.182   2.858   2.474
 5245SOL     OW16420   2.692   3.135   3.284
 5245SOL    HW116421   2.687   3.168   3.379
 5245SOL    HW216422   2.606   3.154   3.238
 5246SOL     OW16423   2.534   3.478   2.016
 5246SOL    HW116424   2.543   3.488   1.917
 5246SOL    HW216425   2.494   3.389   2.037
 5247SOL     OW16426   3.512   3.582   3.256
 5247SOL    HW116427   3.565   3.592   3.172
 5247SOL    HW216428   3.485   3.672   3.290
 5248SOL     OW16429   3.703   2.037   2.825
 5248SOL    HW116430   3.742   1.952   2.789
 5248SOL    HW216431   3.605   2.039   2.806
 5249SOL     OW16432   3.056   3.474   1.893
 5249SOL    HW116433   3.062   3.381   1.930
 5249SOL    HW216434   2.997   3.474   1.813
 5250SOL     OW16435   2.684   2.864   3.234
 5250SOL    HW116436   2.724   2.863   3.142
 5250SOL    HW216437   2.694   2.956   3.274
 5251SOL     OW16438   2.778   2.772   2.153
 5251SOL    HW116439   2.841   2.810   2.085
 5251SOL    HW216440   2.818   2.689   2.192
 5252SOL     OW16441   3.366   3.469   1.906
 5252SOL    HW116442   3.274   3.506   1.913
 5252SOL    HW216443   3.404   3.489   1.816
 5253SOL     OW16444   2.234   3.150   3.352
 5253SOL    HW116445   2.221   3.243   3.318
 5253SOL    HW216446   2.150   3.098   3.339
 5254SOL     OW16447   3.476   3.154   3.151
 5254SOL    HW116448   3.536   3.157   3.231
 5254SOL    HW216449   3.401   3.218   3.164
 5255SOL     OW16450   2.901   2.960   2.558
 5255SOL    HW116451   2.831   2.913   2.612
 5255SOL    HW216452   2.960   2.892   2.515
 5256SOL     OW16453   2.876   2.098   2.833
 5256SOL    HW116454   2.868   2.062   2.740
 5256SOL    HW216455   2.874   2.022   2.898
 5257SOL     OW16456   2.452   3.349   2.353
 5257SOL    HW116457   2.494   3.291   2.283
 5257SOL    HW216458   2.408   3.428   2.309
 5258SOL     OW16459   3.571   2.247   3.243
 5258SOL    HW116460   3.644   2.316   3.247
 5258SOL    HW216461   3.599   2.172   3.184
 5259SOL     OW16462   2.117   3.210   2.152
 5259SOL    HW116463   2.021   3.211   2.125
 5259SOL    HW216464   2.129   3.263   2.236
 5260SOL     OW16465   1.967   2.875   3.588
 5260SOL    HW116466   1.890   2.842   3.642
 5260SOL    HW216467   2.052   2.845   3.630
 5261SOL     OW16468   2.534   2.065   3.351
 5261SOL    HW116469   2.624   2.049   3.311
 5261SOL    HW216470   2.542   2.070   3.450
 5262SOL     OW16471   1.937   2.207   1.895
 5262SOL    HW116472   1.845   2.179   1.866
 5262SOL    HW216473   1.968   2.284   1.839
 5263SOL     OW16474   3.302   2.718   3.260
 5263SOL    HW116475   3.245   2.770   3.197
 5263SOL    HW216476   3.398   2.730   3.236
 5264SOL     OW16477   3.045   3.197   1.981
 5264SOL    HW116478   2.946   3.186   1.983
 5264SOL    HW216479   3.079   3.212   2.074
 5265SOL     OW16480   2.475   2.704   3.293
 5265SOL    HW116481   2.531   2.785   3.276
 5265SOL    HW216482   2.534   2.624   3.296
 5266SOL     OW16483   3.355   3.629   2.821
 5266SOL    HW116484   3.388   3.693   2.752
 5266SOL    HW216485   3.421   3.623   2.896
 5267SOL     OW16486   2.578   2.427   3.570
 5267SOL    HW116487   2.597   2.492   3.644
 5267SOL    HW216488   2.638   2.347   3.579
 5268SOL     OW16489   3.312   3.082   3.495
 5268SOL    HW116490   3.303   3.072   3.594
 5268SOL    HW216491   3.408   3.075   3.469
 5269SOL     OW16492   2.252   3.603   3.422
 5269SOL    HW116493   2.161   3.644   3.420
 5269SOL    HW216494   2.245   3.509   3.454
 5270SOL     OW16495   3.536   2.745   3.116
 5270SOL    HW116496   3.509   2.656   3.079
 5270SOL    HW216497   3.537   2.813   3.043
 5271SOL     OW16498   3.087   2.187   2.311
 5271SOL    HW116499   3.152   2.113   2.300
 5271SOL    HW216500   3.107   2.237   2.395
 5272SOL     OW16501   2.456   2.607   2.514
 5272SOL    HW116502   2.506   2.692   2.495
 5272SOL    HW216503   2.368   2.609   2.466
 5273SOL     OW16504   3.639   2.204   3.504
 5273SOL    HW116505   3.622   2.235   3.410
 5273SOL    HW216506   3.555   2.167   3.542
 5274SOL     OW16507   3.592   2.796   3.379
 5274SOL    HW116508   3.630   2.887   3.394
 5274SOL    HW216509   3.584   2.779   3.280
 5275SOL     OW16510   2.721   3.236   1.878
 5275SOL    HW116511   2.675   3.251   1.966
 5275SOL    HW216512   2.765   3.321   1.848
 5276SOL     OW16513   2.523   3.652   2.815
 5276SOL    HW116514   2.477   3.740   2.802
 5276SOL    HW216515   2.622   3.664   2.808
 5277SOL     OW16516   2.721   2.818   2.723
 5277SOL    HW116517   2.775   2.749   2.771
 5277SOL    HW216518   2.689   2.887   2.789
 5278SOL     OW16519   2.945   2.846   1.949
 5278SOL    HW116520   2.922   2.899   1.867
 5278SOL    HW216521   3.026   2.790   1.930
 5279SOL     OW16522   3.723   3.431   2.713
 5279SOL    HW116523   3.652   3.419   2.643
 5279SOL    HW216524   3.724   3.352   2.773
 5280SOL     OW16525   2.083   3.176   3.706
 5280SOL    HW116526   2.018   3.103   3.685
 5280SOL    HW216527   2.087   3.190   3.804
 5281SOL     OW16528   1.941   3.102   2.515
 5281SOL    HW116529   1.940   3.055   2.603
 5281SOL    HW216530   2.023   3.074   2.464
 5282SOL     OW16531   2.534   3.253   3.486
 5282SOL    HW116532   2.456   3.203   3.524
 5282SOL    HW216533   2.531   3.348   3.517
 5283SOL     OW16534   3.686   2.054   3.089
 5283SOL    HW116535   3.682   1.964   3.133
 5283SOL    HW216536   3.689   2.043   2.990
 5284SOL     OW16537   2.290   2.286   2.382
 5284SOL    HW116538   2.320   2.214   2.320
 5284SOL    HW216539   2.251   2.246   2.465
 5285SOL     OW16540   3.567   3.349   2.966
 5285SOL    HW116541   3.474   3.324   2.939
 5285SOL    HW216542   3.593   3.299   3.048
 5286SOL     OW16543   2.179   2.409   3.142
 5286SOL    HW116544   2.217   2.350   3.214
 5286SOL    HW216545   2.219   2.383   3.054
 5287SOL     OW16546   2.674   3.448   2.549
 5287SOL    HW116547   2.706   3.458   2.455
 5287SOL    HW216548   2.595   3.386   2.551
 5288SOL     OW16549   3.286   2.076   2.974
 5288SOL    HW116550   3.338   2.011   3.029
 5288SOL    HW216551   3.237   2.139   3.035
 5289SOL     OW16552   2.863   1.896   3.016
 5289SOL    HW116553   2.800   1.824   2.985
 5289SOL    HW216554   2.956   1.860   3.016
 5290SOL     OW16555   2.632   3.192   2.163
 5290SOL    HW116556   2.586   3.105   2.180
 5290SOL    HW216557   2.723   3.189   2.204
 5291SOL     OW16558   2.480   3.429   3.146
 5291SOL    HW116559   2.475   3.511   3.203
 5291SOL    HW216560   2.569   3.426   3.101
 5292SOL     OW16561   3.214   1.914   2.030
 5292SOL    HW116562   3.249   1.873   1.946
 5292SOL    HW216563   3.124   1.876   2.050
 5293SOL     OW16564   3.162   2.315   2.553
 5293SOL    HW116565   3.103   2.395   2.557
 5293SOL    HW216566   3.177   2.280   2.646
 5294SOL     OW16567   3.455   2.083   2.744
 5294SOL    HW116568   3.371   2.082   2.798
 5294SOL    HW216569   3.457   2.166   2.688
 5295SOL     OW16570   1.901   2.939   2.162
 5295SOL    HW116571   2.000   2.928   2.153
 5295SOL    HW216572   1.861   2.853   2.194
 5296SOL     OW16573   2.737   3.508   2.199
 5296SOL    HW116574   2.660   3.473   2.145
 5296SOL    HW216575   2.705   3.579   2.261
 5297SOL     OW16576   2.092   2.490   3.837
 5297SOL    HW116577   1.999   2.488   3.874
 5297SOL    HW216578   2.093   2.451   3.745
 5298SOL     OW16579   1.881   2.230   4.371
 5298SOL    HW116580   1.799   2.273   4.410
 5298SOL    HW216581   1.853   2.157   4.308
 5299SOL     OW16582   2.431   3.137   4.889
 5299SOL    HW116583   2.338   3.130   4.852
 5299SOL    HW216584   2.442   3.226   4.933
 5300SOL     OW16585   3.417   3.373   4.427
 5300SOL    HW116586   3.360   3.357   4.508
 5300SOL    HW216587   3.358   3.383   4.347
 5301SOL     OW16588   2.997   2.565   4.441
 5301SOL    HW116589   3.054   2.643   4.416
 5301SOL    HW216590   2.937   2.591   4.517
 5302SOL     OW16591   3.617   2.469   3.955
 5302SOL    HW116592   3.605   2.456   3.856
 5302SOL    HW216593   3.587   2.388   4.004
 5303SOL     OW16594   2.630   3.006   4.747
 5303SOL    HW116595   2.552   3.023   4.807
 5303SOL    HW216596   2.664   3.093   4.711
 5304SOL     OW16597   2.712   2.660   5.547
 5304SOL    HW116598   2.708   2.736   5.612
 5304SOL    HW216599   2.734   2.696   5.456
 5305SOL     OW16600   2.547   2.874   4.389
 5305SOL    HW116601   2.616   2.858   4.459
 5305SOL    HW216602   2.474   2.931   4.427
 5306SOL     OW16603   2.548   3.023   5.527
 5306SOL    HW116604   2.608   3.102   5.541
 5306SOL    HW216605   2.462   3.054   5.486
 5307SOL     OW16606   2.197   3.297   4.785
 5307SOL    HW116607   2.119   3.266   4.732
 5307SOL    HW216608   2.255   3.355   4.728
 5308SOL     OW16609   3.322   3.367   5.063
 5308SOL    HW116610   3.346   3.461   5.089
 5308SOL    HW216611   3.306   3.313   5.145
 5309SOL     OW16612   2.300   2.254   5.223
 5309SOL    HW116613   2.382   2.198   5.232
 5309SOL    HW216614   2.219   2.196   5.227
 5310SOL     OW16615   3.465   2.309   4.461
 5310SOL    HW116616   3.391   2.355   4.411
 5310SOL    HW216617   3.516   2.377   4.514
 5311SOL     OW16618   2.093   3.575   4.207
 5311SOL    HW116619   2.127   3.652   4.261
 5311SOL    HW216620   2.137   3.575   4.117
 5312SOL     OW16621   2.989   3.203   5.414
 5312SOL    HW116622   3.036   3.203   5.502
 5312SOL    HW216623   2.941   3.116   5.403
 5313SOL     OW16624   2.092   3.296   4.262
 5313SOL    HW116625   2.066   3.392   4.262
 5313SOL    HW216626   2.021   3.242   4.307
 5314SOL     OW16627   2.102   2.953   4.610
 5314SOL    HW116628   2.116   2.869   4.662
 5314SOL    HW216629   2.047   3.017   4.665
 5315SOL     OW16630   2.482   3.648   5.163
 5315SOL    HW116631   2.390   3.631   5.198
 5315SOL    HW216632   2.510   3.740   5.189
 5316SOL     OW16633   2.468   2.826   3.847
 5316SOL    HW116634   2.475   2.910   3.793
 5316SOL    HW216635   2.514   2.839   3.935
 5317SOL     OW16636   3.456   1.976   5.204
 5317SOL    HW116637   3.438   2.043   5.132
 5317SOL    HW216638   3.453   2.022   5.293
 5318SOL     OW16639   1.984   2.505   4.287
 5318SOL    HW116640   1.939   2.417   4.304
 5318SOL    HW216641   1.983   2.559   4.371
 5319SOL     OW16642   3.704   3.629   4.083
 5319SOL    HW116643   3.758   3.600   4.163
 5319SOL    HW216644   3.734   3.719   4.054
 5320SOL     OW16645   1.889   3.458   3.841
 5320SOL    HW116646   1.870   3.362   3.862
 5320SOL    HW216647   1.856   3.516   3.916
 5321SOL     OW16648   3.551   2.784   4.336
 5321SOL    HW116649   3.646   2.755   4.344
 5321SOL    HW216650   3.543   2.849   4.261
 5322SOL     OW16651   3.503   2.970   4.156
 5322SOL    HW116652   3.589   2.972   4.104
 5322SOL    HW216653   3.517   3.017   4.244
 5323SOL     OW16654   1.975   2.599   5.321
 5323SOL    HW116655   2.063   2.586   5.366
 5323SOL    HW216656   1.962   2.696   5.299
 5324SOL     OW16657   2.475   3.227   4.450
 5324SOL    HW116658   2.426   3.140   4.459
 5324SOL    HW216659   2.452   3.270   4.363
 5325SOL     OW16660   3.155   3.090   5.147
 5325SOL    HW116661   3.192   3.017   5.089
 5325SOL    HW216662   3.207   3.095   5.232
 5326SOL     OW16663   2.671   1.866   4.226
 5326SOL    HW116664   2.711   1.957   4.217
 5326SOL    HW216665   2.571   1.874   4.232
 5327SOL     OW16666   2.059   2.838   4.988
 5327SOL    HW116667   2.148   2.793   4.974
 5327SOL    HW216668   1.986   2.773   4.969
 5328SOL     OW16669   3.387   2.861   3.914
 5328SOL    HW116670   3.324   2.785   3.927
 5328SOL    HW216671   3.435   2.879   4.000
 5329SOL     OW16672   3.049   3.654   5.340
 5329SOL    HW116673   3.073   3.714   5.264
 5329SOL    HW216674   3.056   3.559   5.310
 5330SOL     OW16675   3.328   3.279   4.677
 5330SOL    HW116676   3.269   3.285   4.757
 5330SOL    HW216677   3.313   3.191   4.631
 5331SOL     OW16678   3.529   3.576   4.296
 5331SOL    HW116679   3.488   3.553   4.208
 5331SOL    HW216680   3.511   3.502   4.361
 5332SOL     OW16681   2.460   2.591   3.994
 5332SOL    HW116682   2.484   2.660   3.926
 5332SOL    HW216683   2.382   2.624   4.048
 5333SOL     OW16684   3.143   2.207   4.668
 5333SOL    HW116685   3.057   2.157   4.655
 5333SOL    HW216686   3.205   2.153   4.724
 5334SOL     OW16687   3.438   3.524   4.031
 5334SOL    HW116688   3.527   3.570   4.034
 5334SOL    HW216689   3.417   3.500   3.936
 5335SOL     OW16690   2.669   2.467   5.189
 5335SOL    HW116691   2.622   2.464   5.278
 5335SOL    HW216692   2.618   2.412   5.123
 5336SOL     OW16693   3.256   2.331   5.398
 5336SOL    HW116694   3.236   2.374   5.486
 5336SOL    HW216695   3.334   2.269   5.407
 5337SOL     OW16696   2.835   2.752   5.296
 5337SOL    HW116697   2.881   2.668   5.267
 5337SOL    HW216698   2.779   2.786   5.221
 5338SOL     OW16699   2.853   2.272   4.966
 5338SOL    HW116700   2.776   2.306   5.020
 5338SOL    HW216701   2.819   2.221   4.887
 5339SOL     OW16702   2.903   2.563   4.153
 5339SOL    HW116703   2.929   2.559   4.249
 5339SOL    HW216704   2.818   2.512   4.139
 5340SOL     OW16705   1.938   2.673   4.513
 5340SOL    HW116706   2.037   2.661   4.522
 5340SOL    HW216707   1.914   2.768   4.534
 5341SOL     OW16708   1.992   3.683   5.295
 5341SOL    HW116709   1.982   3.668   5.394
 5341SOL    HW216710   1.906   3.719   5.259
 5342SOL     OW16711   2.727   2.210   3.919
 5342SOL    HW116712   2.786   2.273   3.870
 5342SOL    HW216713   2.746   2.116   3.890
 5343SOL     OW16714   3.581   2.447   5.555
 5343SOL    HW116715   3.555   2.536   5.519
 5343SOL    HW216716   3.579   2.379   5.482
 5344SOL     OW16717   3.224   3.006   4.269
 5344SOL    HW116718   3.307   2.977   4.221
 5344SOL    HW216719   3.175   3.073   4.213
 5345SOL     OW16720   2.412   2.058   4.609
 5345SOL    HW116721   2.407   2.053   4.709
 5345SOL    HW216722   2.414   2.154   4.580
 5346SOL     OW16723   2.870   3.318   4.201
 5346SOL    HW116724   2.824   3.390   4.149
 5346SOL    HW216725   2.866   3.338   4.299
 5347SOL     OW16726   2.213   3.663   4.577
 5347SOL    HW116727   2.263   3.577   4.583
 5347SOL    HW216728   2.278   3.740   4.574
 5348SOL     OW16729   3.657   2.928   4.597
 5348SOL    HW116730   3.595   2.913   4.521
 5348SOL    HW216731   3.605   2.939   4.682
 5349SOL     OW16732   3.089   3.412   5.230
 5349SOL    HW116733   3.095   3.335   5.294
 5349SOL    HW216734   3.037   3.386   5.150
 5350SOL     OW16735   2.183   2.805   3.966
 5350SOL    HW116736   2.265   2.844   3.924
 5350SOL    HW216737   2.156   2.723   3.917
 5351SOL     OW16738   3.320   2.597   4.452
 5351SOL    HW116739   3.315   2.532   4.527
 5351SOL    HW216740   3.400   2.656   4.465
 5352SOL     OW16741   2.323   3.128   5.451
 5352SOL    HW116742   2.273   3.129   5.365
 5352SOL    HW216743   2.260   3.110   5.527
 5353SOL     OW16744   2.973   3.638   3.961
 5353SOL    HW116745   2.913   3.576   4.011
 5353SOL    HW216746   3.004   3.594   3.876
 5354SOL     OW16747   3.494   3.239   3.805
 5354SOL    HW116748   3.462   3.333   3.795
 5354SOL    HW216749   3.418   3.176   3.793
 5355SOL     OW16750   2.326   3.605   4.047
 5355SOL    HW116751   2.359   3.644   4.133
 5355SOL    HW216752   2.402   3.598   3.982
 5356SOL     OW16753   3.262   1.969   4.150
 5356SOL    HW116754   3.238   1.932   4.060
 5356SOL    HW216755   3.361   1.985   4.154
 5357SOL     OW16756   2.111   3.647   4.965
 5357SOL    HW116757   2.168   3.582   5.015
 5357SOL    HW216758   2.095   3.614   4.872
 5358SOL     OW16759   2.802   3.560   4.628
 5358SOL    HW116760   2.882   3.503   4.649
 5358SOL    HW216761   2.753   3.520   4.551
 5359SOL     OW16762   2.244   2.562   4.204
 5359SOL    HW116763   2.289   2.472   4.201
 5359SOL    HW216764   2.150   2.551   4.237
 5360SOL     OW16765   3.409   2.084   5.453
 5360SOL    HW116766   3.404   2.121   5.545
 5360SOL    HW216767   3.337   2.015   5.441
 5361SOL     OW16768   2.476   1.984   3.841
 5361SOL    HW116769   2.574   1.962   3.848
 5361SOL    HW216770   2.445   1.967   3.748
 5362SOL     OW16771   2.643   2.126   5.473
 5362SOL    HW116772   2.710   2.065   5.516
 5362SOL    HW216773   2.570   2.145   5.538
 5363SOL     OW16774   2.750   3.376   4.919
 5363SOL    HW116775   2.727   3.351   4.825
 5363SOL    HW216776   2.811   3.307   4.958
 5364SOL     OW16777   3.213   2.452   5.157
 5364SOL    HW116778   3.241   2.409   5.242
 5364SOL    HW216779   3.238   2.548   5.158
 5365SOL     OW16780   2.665   3.264   4.648
 5365SOL    HW116781   2.755   3.278   4.606
 5365SOL    HW216782   2.594   3.266   4.577
 5366SOL     OW16783   2.784   2.365   4.623
 5366SOL    HW116784   2.759   2.356   4.527
 5366SOL    HW216785   2.832   2.283   4.654
 5367SOL     OW16786   2.401   1.926   4.236
 5367SOL    HW116787   2.320   1.927   4.294
 5367SOL    HW216788   2.404   2.009   4.181
 5368SOL     OW16789   3.296   3.050   3.765
 5368SOL    HW116790   3.328   2.974   3.822
 5368SOL    HW216791   3.204   3.077   3.795
 5369SOL     OW16792   2.797   2.098   4.204
 5369SOL    HW116793   2.749   2.139   4.126
 5369SOL    HW216794   2.896   2.096   4.185
 5370SOL     OW16795   2.938   2.545   5.188
 5370SOL    HW116796   2.858   2.484   5.191
 5370SOL    HW216797   3.019   2.492   5.164
 5371SOL     OW16798   3.089   3.432   4.517
 5371SOL    HW116799   3.110   3.506   4.452
 5371SOL    HW216800   3.157   3.432   4.590
 5372SOL     OW16801   2.321   3.014   4.465
 5372SOL    HW116802   2.250   2.987   4.530
 5372SOL    HW216803   2.295   2.986   4.372
 5373SOL     OW16804   3.133   3.659   4.315
 5373SOL    HW116805   3.177   3.723   4.251
 5373SOL    HW216806   3.083   3.711   4.385
 5374SOL     OW16807   2.894   2.411   3.740
 5374SOL    HW116808   2.853   2.493   3.701
 5374SOL    HW216809   2.958   2.437   3.813
 5375SOL     OW16810   1.940   2.418   5.110
 5375SOL    HW116811   2.032   2.417   5.069
 5375SOL    HW216812   1.934   2.492   5.177
 5376SOL     OW16813   2.423   2.084   4.871
 5376SOL    HW116814   2.461   2.000   4.908
 5376SOL    HW216815   2.335   2.103   4.915
 5377SOL     OW16816   2.728   2.316   4.366
 5377SOL    HW116817   2.696   2.388   4.304
 5377SOL    HW216818   2.752   2.235   4.313
 5378SOL     OW16819   2.879   1.901   4.477
 5378SOL    HW116820   2.807   1.906   4.408
 5378SOL    HW216821   2.855   1.832   4.546
 5379SOL     OW16822   3.291   3.035   4.591
 5379SOL    HW116823   3.236   2.951   4.584
 5379SOL    HW216824   3.317   3.064   4.499
 5380SOL     OW16825   3.328   2.452   4.716
 5380SOL    HW116826   3.298   2.357   4.723
 5380SOL    HW216827   3.401   2.468   4.782
 5381SOL     OW16828   3.719   2.695   4.101
 5381SOL    HW116829   3.761   2.631   4.165
 5381SOL    HW216830   3.681   2.644   4.023
 5382SOL     OW16831   2.350   3.247   3.898
 5382SOL    HW116832   2.263   3.232   3.945
 5382SOL    HW216833   2.333   3.273   3.803
 5383SOL     OW16834   3.526   3.142   4.381
 5383SOL    HW116835   3.625   3.150   4.395
 5383SOL    HW216836   3.481   3.226   4.412
 5384SOL     OW16837   3.252   2.437   3.802
 5384SOL    HW116838   3.198   2.416   3.883
 5384SOL    HW216839   3.343   2.396   3.811
 5385SOL     OW16840   2.389   2.118   4.052
 5385SOL    HW116841   2.416   2.059   3.977
 5385SOL    HW216842   2.389   2.213   4.021
 5386SOL     OW16843   3.616   3.085   5.312
 5386SOL    HW116844   3.707   3.046   5.299
 5386SOL    HW216845   3.624   3.181   5.336
 5387SOL     OW16846   2.926   3.209   5.064
 5387SOL    HW116847   2.846   3.186   5.119
 5387SOL    HW216848   3.009   3.183   5.113
 5388SOL     OW16849   3.454   3.491   5.349
 5388SOL    HW116850   3.481   3.525   5.259
 5388SOL    HW216851   3.533   3.453   5.395
 5389SOL     OW16852   2.973   3.057   4.824
 5389SOL    HW116853   2.933   3.101   4.905
 5389SOL    HW216854   2.932   3.094   4.741
 5390SOL     OW16855   3.500   2.961   4.803
 5390SOL    HW116856   3.505   3.042   4.862
 5390SOL    HW216857   3.414   2.963   4.752
 5391SOL     OW16858   2.777   1.951   5.126
 5391SOL    HW116859   2.802   1.931   5.031
 5391SOL    HW216860   2.849   2.007   5.168
 5392SOL     OW16861   2.842   2.978   5.443
 5392SOL    HW116862   2.743   2.984   5.453
 5392SOL    HW216863   2.865   2.898   5.387
 5393SOL     OW16864   2.567   2.912   4.092
 5393SOL    HW116865   2.553   2.919   4.191
 5393SOL    HW216866   2.651   2.861   4.074
 5394SOL     OW16867   2.272   2.675   4.975
 5394SOL    HW116868   2.358   2.687   5.025
 5394SOL    HW216869   2.230   2.588   5.002
 5395SOL     OW16870   3.136   2.248   4.986
 5395SOL    HW116871   3.157   2.322   5.050
 5395SOL    HW216872   3.047   2.265   4.943
 5396SOL     OW16873   1.926   3.426   5.055
 5396SOL    HW116874   1.880   3.508   5.021
 5396SOL    HW216875   2.024   3.445   5.064
 5397SOL     OW16876   2.229   2.962   4.225
 5397SOL    HW116877   2.222   3.045   4.169
 5397SOL    HW216878   2.233   2.882   4.165
 5398SOL     OW16879   2.428   2.399   4.589
 5398SOL    HW116880   2.440   2.465   4.515
 5398SOL    HW216881   2.474   2.433   4.672
 5399SOL     OW16882   3.114   3.210   4.112
 5399SOL    HW116883   3.164   3.287   4.152
 5399SOL    HW216884   3.019   3.212   4.144
 5400SOL     OW16885   3.134   3.307   4.866
 5400SOL    HW116886   3.181   3.320   4.953
 5400SOL    HW216887   3.068   3.233   4.875
 5401SOL     OW16888   3.444   2.501   4.196
 5401SOL    HW116889   3.413   2.562   4.269
 5401SOL    HW216890   3.494   2.553   4.127
 5402SOL     OW16891   2.216   3.372   5.053
 5402SOL    HW116892   2.195   3.328   4.966
 5402SOL    HW216893   2.313   3.398   5.056
 5403SOL     OW16894   2.264   2.613   5.322
 5403SOL    HW116895   2.332   2.668   5.275
 5403SOL    HW216896   2.304   2.525   5.349
 5404SOL     OW16897   3.449   2.641   5.394
 5404SOL    HW116898   3.357   2.679   5.389
 5404SOL    HW216899   3.509   2.688   5.329
 5405SOL     OW16900   2.875   1.967   5.494
 5405SOL    HW116901   2.881   2.052   5.442
 5405SOL    HW216902   2.907   1.891   5.437
 5406SOL     OW16903   2.366   1.912   5.464
 5406SOL    HW116904   2.324   1.855   5.394
 5406SOL    HW216905   2.300   1.981   5.496
 5407SOL     OW16906   2.435   2.732   4.753
 5407SOL    HW116907   2.479   2.821   4.744
 5407SOL    HW216908   2.372   2.732   4.830
 5408SOL     OW16909   3.222   2.724   4.769
 5408SOL    HW116910   3.147   2.724   4.703
 5408SOL    HW216911   3.259   2.632   4.778
 5409SOL     OW16912   3.071   2.387   3.999
 5409SOL    HW116913   3.084   2.303   4.053
 5409SOL    HW216914   3.042   2.461   4.059
 5410SOL     OW16915   1.899   3.172   5.006
 5410SOL    HW116916   1.952   3.123   5.074
 5410SOL    HW216917   1.921   3.270   5.011
 5411SOL     OW16918   2.594   2.496   4.788
 5411SOL    HW116919   2.653   2.470   4.712
 5411SOL    HW216920   2.566   2.592   4.777
 5412SOL     OW16921   3.590   2.797   5.578
 5412SOL    HW116922   3.544   2.790   5.489
 5412SOL    HW216923   3.528   2.841   5.644
 5413SOL     OW16924   2.169   1.925   4.342
 5413SOL    HW116925   2.158   2.019   4.375
 5413SOL    HW216926   2.164   1.862   4.419
 5414SOL     OW16927   3.484   2.229   4.098
 5414SOL    HW116928   3.486   2.153   4.162
 5414SOL    HW216929   3.436   2.306   4.138
 5415SOL     OW16930   2.885   2.628   4.690
 5415SOL    HW116931   2.900   2.649   4.786
 5415SOL    HW216932   2.855   2.533   4.681
 5416SOL     OW16933   2.842   3.435   5.424
 5416SOL    HW116934   2.822   3.479   5.336
 5416SOL    HW216935   2.881   3.344   5.408
 5417SOL     OW16936   3.721   3.380   5.329
 5417SOL    HW116937   3.735   3.407   5.234
 5417SOL    HW216938   3.804   3.402   5.382
 5418SOL     OW16939   2.212   2.760   5.528
 5418SOL    HW116940   2.288   2.804   5.576
 5418SOL    HW216941   2.247   2.713   5.446
 5419SOL     OW16942   3.402   2.136   3.849
 5419SOL    HW116943   3.341   2.061   3.872
 5419SOL    HW216944   3.424   2.188   3.932
 5420SOL     OW16945   3.165   2.700   3.766
 5420SOL    HW116946   3.199   2.607   3.781
 5420SOL    HW216947   3.183   2.727   3.671
 5421SOL     OW16948   2.930   3.195   4.573
 5421SOL    HW116949   2.937   3.111   4.518
 5421SOL    HW216950   2.992   3.264   4.537
 5422SOL     OW16951   2.181   2.672   4.673
 5422SOL    HW116952   2.274   2.708   4.678
 5422SOL    HW216953   2.175   2.587   4.725
 5423SOL     OW16954   2.201   2.371   4.730
 5423SOL    HW116955   2.149   2.288   4.713
 5423SOL    HW216956   2.278   2.376   4.666
 5424SOL     OW16957   3.000   2.242   5.402
 5424SOL    HW116958   2.955   2.305   5.466
 5424SOL    HW216959   3.093   2.273   5.385
 5425SOL     OW16960   3.022   2.069   5.201
 5425SOL    HW116961   3.022   2.133   5.278
 5425SOL    HW216962   3.050   2.117   5.118
 5426SOL     OW16963   1.870   3.188   3.924
 5426SOL    HW116964   1.777   3.209   3.893
 5426SOL    HW216965   1.880   3.089   3.937
 5427SOL     OW16966   1.950   3.663   4.651
 5427SOL    HW116967   1.908   3.577   4.624
 5427SOL    HW216968   2.044   3.666   4.617
 5428SOL     OW16969   2.366   3.430   4.634
 5428SOL    HW116970   2.432   3.504   4.643
 5428SOL    HW216971   2.410   3.351   4.592
 5429SOL     OW16972   2.864   2.658   4.962
 5429SOL    HW116973   2.905   2.626   5.048
 5429SOL    HW216974   2.768   2.631   4.959
 5430SOL     OW16975   1.902   2.406   4.838
 5430SOL    HW116976   1.987   2.373   4.797
 5430SOL    HW216977   1.915   2.421   4.936
 5431SOL     OW16978   2.051   2.382   5.446
 5431SOL    HW116979   2.110   2.342   5.376
 5431SOL    HW216980   1.993   2.453   5.405
 5432SOL     OW16981   3.231   2.812   5.384
 5432SOL    HW116982   3.270   2.901   5.404
 5432SOL    HW216983   3.241   2.792   5.287
 5433SOL     OW16984   2.677   2.434   4.049
 5433SOL    HW116985   2.684   2.345   4.003
 5433SOL    HW216986   2.583   2.468   4.041
 5434SOL     OW16987   3.519   2.466   4.930
 5434SOL    HW116988   3.481   2.397   4.992
 5434SOL    HW216989   3.601   2.430   4.886
 5435SOL     OW16990   2.114   3.426   5.468
 5435SOL    HW116991   2.084   3.483   5.544
 5435SOL    HW216992   2.107   3.329   5.494
 5436SOL     OW16993   2.533   2.326   4.993
 5436SOL    HW116994   2.499   2.237   4.963
 5436SOL    HW216995   2.559   2.380   4.913
 5437SOL     OW16996   2.792   3.540   5.189
 5437SOL    HW116997   2.768   3.522   5.094
 5437SOL    HW216998   2.822   3.634   5.199
 5438SOL     OW16999   2.335   2.362   3.915
 5438SOL    HW117000   2.396   2.442   3.919
 5438SOL    HW217001   2.240   2.393   3.922
 5439SOL     OW17002   2.021   2.999   5.190
 5439SOL    HW117003   2.043   2.938   5.266
 5439SOL    HW217004   2.031   2.950   5.104
 5440SOL     OW17005   3.209   2.921   4.958
 5440SOL    HW117006   3.233   2.858   4.884
 5440SOL    HW217007   3.119   2.961   4.940
 5441SOL     OW17008   3.164   2.717   4.033
 5441SOL    HW117009   3.078   2.686   4.075
 5441SOL    HW217010   3.160   2.703   3.934
 5442SOL     OW17011   3.621   3.609   4.878
 5442SOL    HW117012   3.682   3.639   4.805
 5442SOL    HW217013   3.583   3.520   4.856
 5443SOL     OW17014   3.114   3.593   4.852
 5443SOL    HW117015   3.198   3.598   4.798
 5443SOL    HW217016   3.091   3.497   4.870
 5444SOL     OW17017   1.945   3.120   4.746
 5444SOL    HW117018   1.940   3.119   4.846
 5444SOL    HW217019   1.862   3.079   4.708
 5445SOL     OW17020   2.550   3.524   5.440
 5445SOL    HW117021   2.494   3.605   5.449
 5445SOL    HW217022   2.602   3.528   5.354
 5446SOL     OW17023   3.588   1.997   4.247
 5446SOL    HW117024   3.661   1.980   4.180
 5446SOL    HW217025   3.557   1.910   4.285
 5447SOL     OW17026   3.250   3.435   4.201
 5447SOL    HW117027   3.317   3.447   4.127
 5447SOL    HW217028   3.210   3.524   4.224
 5448SOL     OW17029   1.992   3.656   5.575
 5448SOL    HW117030   1.951   3.582   5.628
 5448SOL    HW217031   2.056   3.707   5.633
 5449SOL     OW17032   3.142   2.789   4.396
 5449SOL    HW117033   3.202   2.708   4.398
 5449SOL    HW217034   3.182   2.858   4.336
 5450SOL     OW17035   2.692   3.135   5.146
 5450SOL    HW117036   2.687   3.168   5.241
 5450SOL    HW217037   2.606   3.154   5.100
 5451SOL     OW17038   2.534   3.478   3.878
 5451SOL    HW117039   2.543   3.488   3.779
 5451SOL    HW217040   2.494   3.389   3.899
 5452SOL     OW17041   3.512   3.582   5.118
 5452SOL    HW117042   3.565   3.592   5.034
 5452SOL    HW217043   3.485   3.672   5.152
 5453SOL     OW17044   3.703   2.037   4.687
 5453SOL    HW117045   3.742   1.952   4.651
 5453SOL    HW217046   3.605   2.039   4.668
 5454SOL     OW17047   3.056   3.474   3.755
 5454SOL    HW117048   3.062   3.381   3.792
 5454SOL    HW217049   2.997   3.474   3.675
 5455SOL     OW17050   2.684   2.864   5.096
 5455SOL    HW117051   2.724   2.863   5.004
 5455SOL    HW217052   2.694   2.956   5.136
 5456SOL     OW17053   2.778   2.772   4.015
 5456SOL    HW117054   2.841   2.810   3.947
 5456SOL    HW217055   2.818   2.689   4.054
 5457SOL     OW17056   3.366   3.469   3.768
 5457SOL    HW117057   3.274   3.506   3.775
 5457SOL    HW217058   3.404   3.489   3.678
 5458SOL     OW17059   2.234   3.150   5.214
 5458SOL    HW117060   2.221   3.243   5.180
 5458SOL    HW217061   2.150   3.098   5.201
 5459SOL     OW17062   3.476   3.154   5.013
 5459SOL    HW117063   3.536   3.157   5.093
 5459SOL    HW217064   3.401   3.218   5.026
 5460SOL     OW17065   2.901   2.960   4.420
 5460SOL    HW117066   2.831   2.913   4.474
 5460SOL    HW217067   2.960   2.892   4.377
 5461SOL     OW17068   2.876   2.098   4.695
 5461SOL    HW117069   2.868   2.062   4.602
 5461SOL    HW217070   2.874   2.022   4.760
 5462SOL     OW17071   2.452   3.349   4.215
 5462SOL    HW117072   2.494   3.291   4.145
 5462SOL    HW217073   2.408   3.428   4.171
 5463SOL     OW17074   3.571   2.247   5.105
 5463SOL    HW117075   3.644   2.316   5.109
 5463SOL    HW217076   3.599   2.172   5.046
 5464SOL     OW17077   2.117   3.210   4.014
 5464SOL    HW117078   2.021   3.211   3.987
 5464SOL    HW217079   2.129   3.263   4.098
 5465SOL     OW17080   1.967   2.875   5.450
 5465SOL    HW117081   1.890   2.842   5.504
 5465SOL    HW217082   2.052   2.845   5.492
 5466SOL     OW17083   2.534   2.065   5.213
 5466SOL    HW117084   2.624   2.049   5.173
 5466SOL    HW217085   2.542   2.070   5.312
 5467SOL     OW17086   1.937   2.207   3.757
 5467SOL    HW117087   1.845   2.179   3.728
 5467SOL    HW217088   1.968   2.284   3.701
 5468SOL     OW17089   3.302   2.718   5.122
 5468SOL    HW117090   3.245   2.770   5.059
 5468SOL    HW217091   3.398   2.730   5.098
 5469SOL     OW17092   3.045   3.197   3.843
 5469SOL    HW117093   2.946   3.186   3.845
 5469SOL    HW217094   3.079   3.212   3.936
 5470SOL     OW17095   2.475   2.704   5.155
 5470SOL    HW117096   2.531   2.785   5.138
 5470SOL    HW217097   2.534   2.624   5.158
 5471SOL     OW17098   3.355   3.629   4.683
 5471SOL    HW117099   3.388   3.693   4.614
 5471SOL    HW217100   3.421   3.623   4.758
 5472SOL     OW17101   2.578   2.427   5.432
 5472SOL    HW117102   2.597   2.492   5.506
 5472SOL    HW217103   2.638   2.347   5.441
 5473SOL     OW17104   3.312   3.082   5.357
 5473SOL    HW117105   3.303   3.072   5.456
 5473SOL    HW217106   3.408   3.075   5.331
 5474SOL     OW17107   2.252   3.603   5.284
 5474SOL    HW117108   2.161   3.644   5.282
 5474SOL    HW217109   2.245   3.509   5.316
 5475SOL     OW17110   3.536   2.745   4.978
 5475SOL    HW117111   3.509   2.656   4.941
 5475SOL    HW217112   3.537   2.813   4.905
 5476SOL     OW17113   3.087   2.187   4.173
 5476SOL    HW117114   3.152   2.113   4.162
 5476SOL    HW217115   3.107   2.237   4.257
 5477SOL     OW17116   2.456   2.607   4.376
 5477SOL    HW117117   2.506   2.692   4.357
 5477SOL    HW217118   2.368   2.609   4.328
 5478SOL     OW17119   3.639   2.204   5.366
 5478SOL    HW117120   3.622   2.235   5.272
 5478SOL    HW217121   3.555   2.167   5.404
 5479SOL     OW17122   3.592   2.796   5.241
 5479SOL    HW117123   3.630   2.887   5.256
 5479SOL    HW217124   3.584   2.779   5.142
 5480SOL     OW17125   2.721   3.236   3.740
 5480SOL    HW117126   2.675   3.251   3.828
 5480SOL    HW217127   2.765   3.321   3.710
 5481SOL     OW17128   2.523   3.652   4.677
 5481SOL    HW117129   2.477   3.740   4.664
 5481SOL    HW217130   2.622   3.664   4.670
 5482SOL     OW17131   2.721   2.818   4.585
 5482SOL    HW117132   2.775   2.749   4.633
 5482SOL    HW217133   2.689   2.887   4.651
 5483SOL     OW17134   2.945   2.846   3.811
 5483SOL    HW117135   2.922   2.899   3.729
 5483SOL    HW217136   3.026   2.790   3.792
 5484SOL     OW17137   3.723   3.431   4.575
 5484SOL    HW117138   3.652   3.419   4.505
 5484SOL    HW217139   3.724   3.352   4.635
 5485SOL     OW17140   2.083   3.176   5.568
 5485SOL    HW117141   2.018   3.103   5.547
 5485SOL    HW217142   2.087   3.190   5.666
 5486SOL     OW17143   1.941   3.102   4.377
 5486SOL    HW117144   1.940   3.055   4.465
 5486SOL    HW217145   2.023   3.074   4.326
 5487SOL     OW17146   2.534   3.253   5.348
 5487SOL    HW117147   2.456   3.203   5.386
 5487SOL    HW217148   2.531   3.348   5.379
 5488SOL     OW17149   3.686   2.054   4.951
 5488SOL    HW117150   3.682   1.964   4.995
 5488SOL    HW217151   3.689   2.043   4.852
 5489SOL     OW17152   2.290   2.286   4.244
 5489SOL    HW117153   2.320   2.214   4.182
 5489SOL    HW217154   2.251   2.246   4.327
 5490SOL     OW17155   3.567   3.349   4.828
 5490SOL    HW117156   3.474   3.324   4.801
 5490SOL    HW217157   3.593   3.299   4.910
 5491SOL     OW17158   2.179   2.409   5.004
 5491SOL    HW117159   2.217   2.350   5.076
 5491SOL    HW217160   2.219   2.383   4.916
 5492SOL     OW17161   2.674   3.448   4.411
 5492SOL    HW117162   2.706   3.458   4.317
 5492SOL    HW217163   2.595   3.386   4.413
 5493SOL     OW17164   3.286   2.076   4.836
 5493SOL    HW117165   3.338   2.011   4.891
 5493SOL    HW217166   3.237   2.139   4.897
 5494SOL     OW17167   2.863   1.896   4.878
 5494SOL    HW117168   2.800   1.824   4.847
 5494SOL    HW217169   2.956   1.860   4.878
 5495SOL     OW17170   2.632   3.192   4.025
 5495SOL    HW117171   2.586   3.105   4.042
 5495SOL    HW217172   2.723   3.189   4.066
 5496SOL     OW17173   2.480   3.429   5.008
 5496SOL    HW117174   2.475   3.511   5.065
 5496SOL    HW217175   2.569   3.426   4.963
 5497SOL     OW17176   3.214   1.914   3.892
 5497SOL    HW117177   3.249   1.873   3.808
 5497SOL    HW217178   3.124   1.876   3.912
 5498SOL     OW17179   3.162   2.315   4.415
 5498SOL    HW117180   3.103   2.395   4.419
 5498SOL    HW217181   3.177   2.280   4.508
 5499SOL     OW17182   3.455   2.083   4.606
 5499SOL    HW117183   3.371   2.082   4.660
 5499SOL    HW217184   3.457   2.166   4.550
 5500SOL     OW17185   1.901   2.939   4.024
 5500SOL    HW117186   2.000   2.928   4.015
 5500SOL    HW217187   1.861   2.853   4.056
 5501SOL     OW17188   2.737   3.508   4.061
 5501SOL    HW117189   2.660   3.473   4.007
 5501SOL    HW217190   2.705   3.579   4.123
 5502SOL     OW17191   2.092   2.490   5.699
 5502SOL    HW117192   1.999   2.488   5.736
 5502SOL    HW217193   2.093   2.451   5.607
 5503SOL     OW17194   1.881   2.230   6.233
 5503SOL    HW117195   1.799   2.273   6.272
 5503SOL    HW217196   1.853   2.157   6.170
 5504SOL     OW17197   2.431   3.137   6.751
 5504SOL    HW117198   2.338   3.130   6.714
 5504SOL    HW217199   2.442   3.226   6.795
 5505SOL     OW17200   3.417   3.373   6.289
 5505SOL    HW117201   3.360   3.357   6.370
 5505SOL    HW217202   3.358   3.383   6.209
 5506SOL     OW17203   2.997   2.565   6.303
 5506SOL    HW117204   3.054   2.643   6.278
 5506SOL    HW217205   2.937   2.591   6.379
 5507SOL     OW17206   3.617   2.469   5.817
 5507SOL    HW117207   3.605   2.456   5.718
 5507SOL    HW217208   3.587   2.388   5.866
 5508SOL     OW17209   2.630   3.006   6.609
 5508SOL    HW117210   2.552   3.023   6.669
 5508SOL    HW217211   2.664   3.093   6.573
 5509SOL     OW17212   2.712   2.660   7.409
 5509SOL    HW117213   2.708   2.736   7.474
 5509SOL    HW217214   2.734   2.696   7.318
 5510SOL     OW17215   2.547   2.874   6.251
 5510SOL    HW117216   2.616   2.858   6.321
 5510SOL    HW217217   2.474   2.931   6.289
 5511SOL     OW17218   2.548   3.023   7.389
 5511SOL    HW117219   2.608   3.102   7.403
 5511SOL    HW217220   2.462   3.054   7.348
 5512SOL     OW17221   2.197   3.297   6.647
 5512SOL    HW117222   2.119   3.266   6.594
 5512SOL    HW217223   2.255   3.355   6.590
 5513SOL     OW17224   3.322   3.367   6.925
 5513SOL    HW117225   3.346   3.461   6.951
 5513SOL    HW217226   3.306   3.313   7.007
 5514SOL     OW17227   3.465   2.309   6.323
 5514SOL    HW117228   3.391   2.355   6.273
 5514SOL    HW217229   3.516   2.377   6.376
 5515SOL     OW17230   2.093   3.575   6.069
 5515SOL    HW117231   2.127   3.652   6.123
 5515SOL    HW217232   2.137   3.575   5.979
 5516SOL     OW17233   2.989   3.203   7.276
 5516SOL    HW117234   3.036   3.203   7.364
 5516SOL    HW217235   2.941   3.116   7.265
 5517SOL     OW17236   2.092   3.296   6.124
 5517SOL    HW117237   2.066   3.392   6.124
 5517SOL    HW217238   2.021   3.242   6.169
 5518SOL     OW17239   2.102   2.953   6.472
 5518SOL    HW117240   2.116   2.869   6.524
 5518SOL    HW217241   2.047   3.017   6.527
 5519SOL     OW17242   2.482   3.648   7.025
 5519SOL    HW117243   2.390   3.631   7.060
 5519SOL    HW217244   2.510   3.740   7.051
 5520SOL     OW17245   2.468   2.826   5.709
 5520SOL    HW117246   2.475   2.910   5.655
 5520SOL    HW217247   2.514   2.839   5.797
 5521SOL     OW17248   3.456   1.976   7.066
 5521SOL    HW117249   3.438   2.043   6.994
 5521SOL    HW217250   3.453   2.022   7.155
 5522SOL     OW17251   3.704   3.629   5.945
 5522SOL    HW117252   3.758   3.600   6.025
 5522SOL    HW217253   3.734   3.719   5.916
 5523SOL     OW17254   1.889   3.458   5.703
 5523SOL    HW117255   1.870   3.362   5.724
 5523SOL    HW217256   1.856   3.516   5.778
 5524SOL     OW17257   3.551   2.784   6.198
 5524SOL    HW117258   3.646   2.755   6.206
 5524SOL    HW217259   3.543   2.849   6.123
 5525SOL     OW17260   3.503   2.970   6.018
 5525SOL    HW117261   3.589   2.972   5.966
 5525SOL    HW217262   3.517   3.017   6.106
 5526SOL     OW17263   2.475   3.227   6.312
 5526SOL    HW117264   2.426   3.140   6.321
 5526SOL    HW217265   2.452   3.270   6.225
 5527SOL     OW17266   3.155   3.090   7.009
 5527SOL    HW117267   3.192   3.017   6.951
 5527SOL    HW217268   3.207   3.095   7.094
 5528SOL     OW17269   2.059   2.838   6.850
 5528SOL    HW117270   2.148   2.793   6.836
 5528SOL    HW217271   1.986   2.773   6.831
 5529SOL     OW17272   3.387   2.861   5.776
 5529SOL    HW117273   3.324   2.785   5.789
 5529SOL    HW217274   3.435   2.879   5.862
 5530SOL     OW17275   3.049   3.654   7.202
 5530SOL    HW117276   3.073   3.714   7.126
 5530SOL    HW217277   3.056   3.559   7.172
 5531SOL     OW17278   2.179   2.113   7.387
 5531SOL    HW117279   2.250   2.184   7.393
 5531SOL    HW217280   2.091   2.152   7.415
 5532SOL     OW17281   3.328   3.279   6.539
 5532SOL    HW117282   3.269   3.285   6.619
 5532SOL    HW217283   3.313   3.191   6.493
 5533SOL     OW17284   3.529   3.576   6.158
 5533SOL    HW117285   3.488   3.553   6.070
 5533SOL    HW217286   3.511   3.502   6.223
 5534SOL     OW17287   2.460   2.591   5.856
 5534SOL    HW117288   2.484   2.660   5.788
 5534SOL    HW217289   2.382   2.624   5.910
 5535SOL     OW17290   3.143   2.207   6.530
 5535SOL    HW117291   3.057   2.157   6.517
 5535SOL    HW217292   3.205   2.153   6.586
 5536SOL     OW17293   3.438   3.524   5.893
 5536SOL    HW117294   3.527   3.570   5.896
 5536SOL    HW217295   3.417   3.500   5.798
 5537SOL     OW17296   3.256   2.331   7.260
 5537SOL    HW117297   3.236   2.374   7.348
 5537SOL    HW217298   3.334   2.269   7.269
 5538SOL     OW17299   2.835   2.752   7.158
 5538SOL    HW117300   2.881   2.668   7.129
 5538SOL    HW217301   2.779   2.786   7.083
 5539SOL     OW17302   2.903   2.563   6.015
 5539SOL    HW117303   2.929   2.559   6.111
 5539SOL    HW217304   2.818   2.512   6.001
 5540SOL     OW17305   1.992   3.683   7.157
 5540SOL    HW117306   1.982   3.668   7.256
 5540SOL    HW217307   1.906   3.719   7.121
 5541SOL     OW17308   2.727   2.210   5.781
 5541SOL    HW117309   2.786   2.273   5.732
 5541SOL    HW217310   2.746   2.116   5.752
 5542SOL     OW17311   3.581   2.447   7.417
 5542SOL    HW117312   3.555   2.536   7.381
 5542SOL    HW217313   3.579   2.379   7.344
 5543SOL     OW17314   3.224   3.006   6.131
 5543SOL    HW117315   3.307   2.977   6.083
 5543SOL    HW217316   3.175   3.073   6.075
 5544SOL     OW17317   2.870   3.318   6.063
 5544SOL    HW117318   2.824   3.390   6.011
 5544SOL    HW217319   2.866   3.338   6.161
 5545SOL     OW17320   2.213   3.663   6.439
 5545SOL    HW117321   2.263   3.577   6.445
 5545SOL    HW217322   2.278   3.740   6.436
 5546SOL     OW17323   3.657   2.928   6.459
 5546SOL    HW117324   3.595   2.913   6.383
 5546SOL    HW217325   3.605   2.939   6.544
 5547SOL     OW17326   3.089   3.412   7.092
 5547SOL    HW117327   3.095   3.335   7.156
 5547SOL    HW217328   3.037   3.386   7.012
 5548SOL     OW17329   2.183   2.805   5.828
 5548SOL    HW117330   2.265   2.844   5.786
 5548SOL    HW217331   2.156   2.723   5.779
 5549SOL     OW17332   3.320   2.597   6.314
 5549SOL    HW117333   3.315   2.532   6.389
 5549SOL    HW217334   3.400   2.656   6.327
 5550SOL     OW17335   2.323   3.128   7.313
 5550SOL    HW117336   2.273   3.129   7.227
 5550SOL    HW217337   2.260   3.110   7.389
 5551SOL     OW17338   2.973   3.638   5.823
 5551SOL    HW117339   2.913   3.576   5.873
 5551SOL    HW217340   3.004   3.594   5.738
 5552SOL     OW17341   3.494   3.239   5.667
 5552SOL    HW117342   3.462   3.333   5.657
 5552SOL    HW217343   3.418   3.176   5.655
 5553SOL     OW17344   2.326   3.605   5.909
 5553SOL    HW117345   2.359   3.644   5.995
 5553SOL    HW217346   2.402   3.598   5.844
 5554SOL     OW17347   3.262   1.969   6.012
 5554SOL    HW117348   3.238   1.932   5.922
 5554SOL    HW217349   3.361   1.985   6.016
 5555SOL     OW17350   2.111   3.647   6.827
 5555SOL    HW117351   2.168   3.582   6.877
 5555SOL    HW217352   2.095   3.614   6.734
 5556SOL     OW17353   2.802   3.560   6.490
 5556SOL    HW117354   2.882   3.503   6.511
 5556SOL    HW217355   2.753   3.520   6.413
 5557SOL     OW17356   3.409   2.084   7.315
 5557SOL    HW117357   3.404   2.121   7.407
 5557SOL    HW217358   3.337   2.015   7.303
 5558SOL     OW17359   2.476   1.984   5.703
 5558SOL    HW117360   2.574   1.962   5.710
 5558SOL    HW217361   2.445   1.967   5.610
 5559SOL     OW17362   2.750   3.376   6.781
 5559SOL    HW117363   2.727   3.351   6.687
 5559SOL    HW217364   2.811   3.307   6.820
 5560SOL     OW17365   3.213   2.452   7.019
 5560SOL    HW117366   3.241   2.409   7.104
 5560SOL    HW217367   3.238   2.548   7.020
 5561SOL     OW17368   2.665   3.264   6.510
 5561SOL    HW117369   2.755   3.278   6.468
 5561SOL    HW217370   2.594   3.266   6.439
 5562SOL     OW17371   2.401   1.926   6.098
 5562SOL    HW117372   2.320   1.927   6.156
 5562SOL    HW217373   2.404   2.009   6.043
 5563SOL     OW17374   3.296   3.050   5.627
 5563SOL    HW117375   3.328   2.974   5.684
 5563SOL    HW217376   3.204   3.077   5.657
 5564SOL     OW17377   2.938   2.545   7.050
 5564SOL    HW117378   2.858   2.484   7.053
 5564SOL    HW217379   3.019   2.492   7.026
 5565SOL     OW17380   3.089   3.432   6.379
 5565SOL    HW117381   3.110   3.506   6.314
 5565SOL    HW217382   3.157   3.432   6.452
 5566SOL     OW17383   2.321   3.014   6.327
 5566SOL    HW117384   2.250   2.987   6.392
 5566SOL    HW217385   2.295   2.986   6.234
 5567SOL     OW17386   3.133   3.659   6.177
 5567SOL    HW117387   3.177   3.723   6.113
 5567SOL    HW217388   3.083   3.711   6.247
 5568SOL     OW17389   2.894   2.411   5.602
 5568SOL    HW117390   2.853   2.493   5.563
 5568SOL    HW217391   2.958   2.437   5.675
 5569SOL     OW17392   3.291   3.035   6.453
 5569SOL    HW117393   3.236   2.951   6.446
 5569SOL    HW217394   3.317   3.064   6.361
 5570SOL     OW17395   3.328   2.452   6.578
 5570SOL    HW117396   3.298   2.357   6.585
 5570SOL    HW217397   3.401   2.468   6.644
 5571SOL     OW17398   3.719   2.695   5.963
 5571SOL    HW117399   3.761   2.631   6.027
 5571SOL    HW217400   3.681   2.644   5.885
 5572SOL     OW17401   2.350   3.247   5.760
 5572SOL    HW117402   2.263   3.232   5.807
 5572SOL    HW217403   2.333   3.273   5.665
 5573SOL     OW17404   3.526   3.142   6.243
 5573SOL    HW117405   3.625   3.150   6.257
 5573SOL    HW217406   3.481   3.226   6.274
 5574SOL     OW17407   3.252   2.437   5.664
 5574SOL    HW117408   3.198   2.416   5.745
 5574SOL    HW217409   3.343   2.396   5.673
 5575SOL     OW17410   2.389   2.118   5.914
 5575SOL    HW117411   2.416   2.059   5.839
 5575SOL    HW217412   2.389   2.213   5.883
 5576SOL     OW17413   3.616   3.085   7.174
 5576SOL    HW117414   3.707   3.046   7.161
 5576SOL    HW217415   3.624   3.181   7.198
 5577SOL     OW17416   2.926   3.209   6.926
 5577SOL    HW117417   2.846   3.186   6.981
 5577SOL    HW217418   3.009   3.183   6.975
 5578SOL     OW17419   3.454   3.491   7.211
 5578SOL    HW117420   3.481   3.525   7.121
 5578SOL    HW217421   3.533   3.453   7.257
 5579SOL     OW17422   2.973   3.057   6.686
 5579SOL    HW117423   2.933   3.101   6.767
 5579SOL    HW217424   2.932   3.094   6.603
 5580SOL     OW17425   3.500   2.961   6.665
 5580SOL    HW117426   3.505   3.042   6.724
 5580SOL    HW217427   3.414   2.963   6.614
 5581SOL     OW17428   2.842   2.978   7.305
 5581SOL    HW117429   2.743   2.984   7.315
 5581SOL    HW217430   2.865   2.898   7.249
 5582SOL     OW17431   2.567   2.912   5.954
 5582SOL    HW117432   2.553   2.919   6.053
 5582SOL    HW217433   2.651   2.861   5.936
 5583SOL     OW17434   3.136   2.248   6.848
 5583SOL    HW117435   3.157   2.322   6.912
 5583SOL    HW217436   3.047   2.265   6.805
 5584SOL     OW17437   1.926   3.426   6.917
 5584SOL    HW117438   1.880   3.508   6.883
 5584SOL    HW217439   2.024   3.445   6.926
 5585SOL     OW17440   2.229   2.962   6.087
 5585SOL    HW117441   2.222   3.045   6.031
 5585SOL    HW217442   2.233   2.882   6.027
 5586SOL     OW17443   3.114   3.210   5.974
 5586SOL    HW117444   3.164   3.287   6.014
 5586SOL    HW217445   3.019   3.212   6.006
 5587SOL     OW17446   3.134   3.307   6.728
 5587SOL    HW117447   3.181   3.320   6.815
 5587SOL    HW217448   3.068   3.233   6.737
 5588SOL     OW17449   3.444   2.501   6.058
 5588SOL    HW117450   3.413   2.562   6.131
 5588SOL    HW217451   3.494   2.553   5.989
 5589SOL     OW17452   2.216   3.372   6.915
 5589SOL    HW117453   2.195   3.328   6.828
 5589SOL    HW217454   2.313   3.398   6.918
 5590SOL     OW17455   3.449   2.641   7.256
 5590SOL    HW117456   3.357   2.679   7.251
 5590SOL    HW217457   3.509   2.688   7.191
 5591SOL     OW17458   2.366   1.912   7.326
 5591SOL    HW117459   2.324   1.855   7.256
 5591SOL    HW217460   2.300   1.981   7.358
 5592SOL     OW17461   3.222   2.724   6.631
 5592SOL    HW117462   3.147   2.724   6.565
 5592SOL    HW217463   3.259   2.632   6.640
 5593SOL     OW17464   3.071   2.387   5.861
 5593SOL    HW117465   3.084   2.303   5.915
 5593SOL    HW217466   3.042   2.461   5.921
 5594SOL     OW17467   2.169   2.075   6.817
 5594SOL    HW117468   2.146   2.112   6.907
 5594SOL    HW217469   2.139   1.980   6.811
 5595SOL     OW17470   1.899   3.172   6.868
 5595SOL    HW117471   1.952   3.123   6.936
 5595SOL    HW217472   1.921   3.270   6.873
 5596SOL     OW17473   3.590   2.797   7.440
 5596SOL    HW117474   3.544   2.790   7.351
 5596SOL    HW217475   3.528   2.841   7.506
 5597SOL     OW17476   3.484   2.229   5.960
 5597SOL    HW117477   3.486   2.153   6.024
 5597SOL    HW217478   3.436   2.306   6.000
 5598SOL     OW17479   2.885   2.628   6.552
 5598SOL    HW117480   2.900   2.649   6.648
 5598SOL    HW217481   2.855   2.533   6.543
 5599SOL     OW17482   2.842   3.435   7.286
 5599SOL    HW117483   2.822   3.479   7.198
 5599SOL    HW217484   2.881   3.344   7.270
 5600SOL     OW17485   3.721   3.380   7.191
 5600SOL    HW117486   3.735   3.407   7.096
 5600SOL    HW217487   3.804   3.402   7.244
 5601SOL     OW17488   3.402   2.136   5.711
 5601SOL    HW117489   3.341   2.061   5.734
 5601SOL    HW217490   3.424   2.188   5.794
 5602SOL     OW17491   3.165   2.700   5.628
 5602SOL    HW117492   3.199   2.607   5.643
 5602SOL    HW217493   3.183   2.727   5.533
 5603SOL     OW17494   2.930   3.195   6.435
 5603SOL    HW117495   2.937   3.111   6.380
 5603SOL    HW217496   2.992   3.264   6.399
 5604SOL     OW17497   3.000   2.242   7.264
 5604SOL    HW117498   2.955   2.305   7.328
 5604SOL    HW217499   3.093   2.273   7.247
 5605SOL     OW17500   3.022   2.069   7.063
 5605SOL    HW117501   3.022   2.133   7.140
 5605SOL    HW217502   3.050   2.117   6.980
 5606SOL     OW17503   1.870   3.188   5.786
 5606SOL    HW117504   1.777   3.209   5.755
 5606SOL    HW217505   1.880   3.089   5.799
 5607SOL     OW17506   1.950   3.663   6.513
 5607SOL    HW117507   1.908   3.577   6.486
 5607SOL    HW217508   2.044   3.666   6.479
 5608SOL     OW17509   2.366   3.430   6.496
 5608SOL    HW117510   2.432   3.504   6.505
 5608SOL    HW217511   2.410   3.351   6.454
 5609SOL     OW17512   2.864   2.658   6.824
 5609SOL    HW117513   2.905   2.626   6.910
 5609SOL    HW217514   2.768   2.631   6.821
 5610SOL     OW17515   3.231   2.812   7.246
 5610SOL    HW117516   3.270   2.901   7.266
 5610SOL    HW217517   3.241   2.792   7.149
 5611SOL     OW17518   3.519   2.466   6.792
 5611SOL    HW117519   3.481   2.397   6.854
 5611SOL    HW217520   3.601   2.430   6.748
 5612SOL     OW17521   2.114   3.426   7.330
 5612SOL    HW117522   2.084   3.483   7.406
 5612SOL    HW217523   2.107   3.329   7.356
 5613SOL     OW17524   2.792   3.540   7.051
 5613SOL    HW117525   2.768   3.522   6.956
 5613SOL    HW217526   2.822   3.634   7.061
 5614SOL     OW17527   2.335   2.362   5.777
 5614SOL    HW117528   2.396   2.442   5.781
 5614SOL    HW217529   2.240   2.393   5.784
 5615SOL     OW17530   2.021   2.999   7.052
 5615SOL    HW117531   2.043   2.938   7.128
 5615SOL    HW217532   2.031   2.950   6.966
 5616SOL     OW17533   3.209   2.921   6.820
 5616SOL    HW117534   3.233   2.858   6.746
 5616SOL    HW217535   3.119   2.961   6.802
 5617SOL     OW17536   3.164   2.717   5.895
 5617SOL    HW117537   3.078   2.686   5.937
 5617SOL    HW217538   3.160   2.703   5.796
 5618SOL     OW17539   3.621   3.609   6.740
 5618SOL    HW117540   3.682   3.639   6.667
 5618SOL    HW217541   3.583   3.520   6.718
 5619SOL     OW17542   3.114   3.593   6.714
 5619SOL    HW117543   3.198   3.598   6.660
 5619SOL    HW217544   3.091   3.497   6.732
 5620SOL     OW17545   1.945   3.120   6.608
 5620SOL    HW117546   1.940   3.119   6.708
 5620SOL    HW217547   1.862   3.079   6.570
 5621SOL     OW17548   2.550   3.524   7.302
 5621SOL    HW117549   2.494   3.605   7.311
 5621SOL    HW217550   2.602   3.528   7.216
 5622SOL     OW17551   3.588   1.997   6.109
 5622SOL    HW117552   3.661   1.980   6.042
 5622SOL    HW217553   3.557   1.910   6.147
 5623SOL     OW17554   3.250   3.435   6.063
 5623SOL    HW117555   3.317   3.447   5.989
 5623SOL    HW217556   3.210   3.524   6.086
 5624SOL     OW17557   1.992   3.656   7.437
 5624SOL    HW117558   1.951   3.582   7.490
 5624SOL    HW217559   2.056   3.707   7.495
 5625SOL     OW17560   3.142   2.789   6.258
 5625SOL    HW117561   3.202   2.708   6.260
 5625SOL    HW217562   3.182   2.858   6.198
 5626SOL     OW17563   2.692   3.135   7.008
 5626SOL    HW117564   2.687   3.168   7.103
 5626SOL    HW217565   2.606   3.154   6.962
 5627SOL     OW17566   2.534   3.478   5.740
 5627SOL    HW117567   2.543   3.488   5.641
 5627SOL    HW217568   2.494   3.389   5.761
 5628SOL     OW17569   3.512   3.582   6.980
 5628SOL    HW117570   3.565   3.592   6.896
 5628SOL    HW217571   3.485   3.672   7.014
 5629SOL     OW17572   3.703   2.037   6.549
 5629SOL    HW117573   3.742   1.952   6.513
 5629SOL    HW217574   3.605   2.039   6.530
 5630SOL     OW17575   3.056   3.474   5.617
 5630SOL    HW117576   3.062   3.381   5.654
 5630SOL    HW217577   2.997   3.474   5.537
 5631SOL     OW17578   2.684   2.864   6.958
 5631SOL    HW117579   2.724   2.863   6.866
 5631SOL    HW217580   2.694   2.956   6.998
 5632SOL     OW17581   2.778   2.772   5.877
 5632SOL    HW117582   2.841   2.810   5.809
 5632SOL    HW217583   2.818   2.689   5.916
 5633SOL     OW17584   3.366   3.469   5.630
 5633SOL    HW117585   3.274   3.506   5.637
 5633SOL    HW217586   3.404   3.489   5.540
 5634SOL     OW17587   2.234   3.150   7.076
 5634SOL    HW117588   2.221   3.243   7.042
 5634SOL    HW217589   2.150   3.098   7.063
 5635SOL     OW17590   3.476   3.154   6.875
 5635SOL    HW117591   3.536   3.157   6.955
 5635SOL    HW217592   3.401   3.218   6.888
 5636SOL     OW17593   2.901   2.960   6.282
 5636SOL    HW117594   2.831   2.913   6.336
 5636SOL    HW217595   2.960   2.892   6.239
 5637SOL     OW17596   2.452   3.349   6.077
 5637SOL    HW117597   2.494   3.291   6.007
 5637SOL    HW217598   2.408   3.428   6.033
 5638SOL     OW17599   3.571   2.247   6.967
 5638SOL    HW117600   3.644   2.316   6.971
 5638SOL    HW217601   3.599   2.172   6.908
 5639SOL     OW17602   2.117   3.210   5.876
 5639SOL    HW117603   2.021   3.211   5.849
 5639SOL    HW217604   2.129   3.263   5.960
 5640SOL     OW17605   1.937   2.207   5.619
 5640SOL    HW117606   1.845   2.179   5.590
 5640SOL    HW217607   1.968   2.284   5.563
 5641SOL     OW17608   3.302   2.718   6.984
 5641SOL    HW117609   3.245   2.770   6.921
 5641SOL    HW217610   3.398   2.730   6.960
 5642SOL     OW17611   3.045   3.197   5.705
 5642SOL    HW117612   2.946   3.186   5.707
 5642SOL    HW217613   3.079   3.212   5.798
 5643SOL     OW17614   3.355   3.629   6.545
 5643SOL    HW117615   3.388   3.693   6.476
 5643SOL    HW217616   3.421   3.623   6.620
 5644SOL     OW17617   3.312   3.082   7.219
 5644SOL    HW117618   3.303   3.072   7.318
 5644SOL    HW217619   3.408   3.075   7.193
 5645SOL     OW17620   2.252   3.603   7.146
 5645SOL    HW117621   2.161   3.644   7.144
 5645SOL    HW217622   2.245   3.509   7.178
 5646SOL     OW17623   3.536   2.745   6.840
 5646SOL    HW117624   3.509   2.656   6.803
 5646SOL    HW217625   3.537   2.813   6.767
 5647SOL     OW17626   3.087   2.187   6.035
 5647SOL    HW117627   3.152   2.113   6.024
 5647SOL    HW217628   3.107   2.237   6.119
 5648SOL     OW17629   3.639   2.204   7.228
 5648SOL    HW117630   3.622   2.235   7.134
 5648SOL    HW217631   3.555   2.167   7.266
 5649SOL     OW17632   3.592   2.796   7.103
 5649SOL    HW117633   3.630   2.887   7.118
 5649SOL    HW217634   3.584   2.779   7.004
 5650SOL     OW17635   2.721   3.236   5.602
 5650SOL    HW117636   2.675   3.251   5.690
 5650SOL    HW217637   2.765   3.321   5.572
 5651SOL     OW17638   2.523   3.652   6.539
 5651SOL    HW117639   2.477   3.740   6.526
 5651SOL    HW217640   2.622   3.664   6.532
 5652SOL     OW17641   2.721   2.818   6.447
 5652SOL    HW117642   2.775   2.749   6.495
 5652SOL    HW217643   2.689   2.887   6.513
 5653SOL     OW17644   2.945   2.846   5.673
 5653SOL    HW117645   2.922   2.899   5.591
 5653SOL    HW217646   3.026   2.790   5.654
 5654SOL     OW17647   3.723   3.431   6.437
 5654SOL    HW117648   3.652   3.419   6.367
 5654SOL    HW217649   3.724   3.352   6.497
 5655SOL     OW17650   2.083   3.176   7.430
 5655SOL    HW117651   2.018   3.103   7.409
 5655SOL    HW217652   2.087   3.190   7.528
 5656SOL     OW17653   1.941   3.102   6.239
 5656SOL    HW117654   1.940   3.055   6.327
 5656SOL    HW217655   2.023   3.074   6.188
 5657SOL     OW17656   2.534   3.253   7.210
 5657SOL    HW117657   2.456   3.203   7.248
 5657SOL    HW217658   2.531   3.348   7.241
 5658SOL     OW17659   3.686   2.054   6.813
 5658SOL    HW117660   3.682   1.964   6.857
 5658SOL    HW217661   3.689   2.043   6.714
 5659SOL     OW17662   3.567   3.349   6.690
 5659SOL    HW117663   3.474   3.324   6.663
 5659SOL    HW217664   3.593   3.299   6.772
 5660SOL     OW17665   2.674   3.448   6.273
 5660SOL    HW117666   2.706   3.458   6.179
 5660SOL    HW217667   2.595   3.386   6.275
 5661SOL     OW17668   3.286   2.076   6.698
 5661SOL    HW117669   3.338   2.011   6.753
 5661SOL    HW217670   3.237   2.139   6.759
 5662SOL     OW17671   2.863   1.896   6.740
 5662SOL    HW117672   2.800   1.824   6.709
 5662SOL    HW217673   2.956   1.860   6.740
 5663SOL     OW17674   2.632   3.192   5.887
 5663SOL    HW117675   2.586   3.105   5.904
 5663SOL    HW217676   2.723   3.189   5.928
 5664SOL     OW17677   2.480   3.429   6.870
 5664SOL    HW117678   2.475   3.511   6.927
 5664SOL    HW217679   2.569   3.426   6.825
 5665SOL     OW17680   3.214   1.914   5.754
 5665SOL    HW117681   3.249   1.873   5.670
 5665SOL    HW217682   3.124   1.876   5.774
 5666SOL     OW17683   3.162   2.315   6.277
 5666SOL    HW117684   3.103   2.395   6.281
 5666SOL    HW217685   3.177   2.280   6.370
 5667SOL     OW17686   3.455   2.083   6.468
 5667SOL    HW117687   3.371   2.082   6.522
 5667SOL    HW217688   3.457   2.166   6.412
 5668SOL     OW17689   1.901   2.939   5.886
 5668SOL    HW117690   2.000   2.928   5.877
 5668SOL    HW217691   1.861   2.853   5.918
 5669SOL     OW17692   2.737   3.508   5.923
 5669SOL    HW117693   2.660   3.473   5.869
 5669SOL    HW217694   2.705   3.579   5.985
 5670SOL     OW17695   1.881   2.230   8.095
 5670SOL    HW117696   1.799   2.273   8.134
 5670SOL    HW217697   1.853   2.157   8.032
 5671SOL     OW17698   2.431   3.137   8.613
 5671SOL    HW117699   2.338   3.130   8.576
 5671SOL    HW217700   2.442   3.226   8.657
 5672SOL     OW17701   3.417   3.373   8.151
 5672SOL    HW117702   3.360   3.357   8.232
 5672SOL    HW217703   3.358   3.383   8.071
 5673SOL     OW17704   2.997   2.565   8.165
 5673SOL    HW117705   3.054   2.643   8.140
 5673SOL    HW217706   2.937   2.591   8.241
 5674SOL     OW17707   3.617   2.469   7.679
 5674SOL    HW117708   3.605   2.456   7.580
 5674SOL    HW217709   3.587   2.388   7.728
 5675SOL     OW17710   2.630   3.006   8.471
 5675SOL    HW117711   2.552   3.023   8.531
 5675SOL    HW217712   2.664   3.093   8.435
 5676SOL     OW17713   2.712   2.660   9.271
 5676SOL    HW117714   2.708   2.736   9.336
 5676SOL    HW217715   2.734   2.696   9.180
 5677SOL     OW17716   2.547   2.874   8.113
 5677SOL    HW117717   2.616   2.858   8.183
 5677SOL    HW217718   2.474   2.931   8.151
 5678SOL     OW17719   2.548   3.023   9.251
 5678SOL    HW117720   2.608   3.102   9.265
 5678SOL    HW217721   2.462   3.054   9.210
 5679SOL     OW17722   2.197   3.297   8.509
 5679SOL    HW117723   2.119   3.266   8.456
 5679SOL    HW217724   2.255   3.355   8.452
 5680SOL     OW17725   3.322   3.367   8.787
 5680SOL    HW117726   3.346   3.461   8.813
 5680SOL    HW217727   3.306   3.313   8.869
 5681SOL     OW17728   2.300   2.254   8.947
 5681SOL    HW117729   2.382   2.198   8.956
 5681SOL    HW217730   2.219   2.196   8.951
 5682SOL     OW17731   3.465   2.309   8.185
 5682SOL    HW117732   3.391   2.355   8.135
 5682SOL    HW217733   3.516   2.377   8.238
 5683SOL     OW17734   2.093   3.575   7.931
 5683SOL    HW117735   2.127   3.652   7.985
 5683SOL    HW217736   2.137   3.575   7.841
 5684SOL     OW17737   2.989   3.203   9.138
 5684SOL    HW117738   3.036   3.203   9.226
 5684SOL    HW217739   2.941   3.116   9.127
 5685SOL     OW17740   2.092   3.296   7.986
 5685SOL    HW117741   2.066   3.392   7.986
 5685SOL    HW217742   2.021   3.242   8.031
 5686SOL     OW17743   2.102   2.953   8.334
 5686SOL    HW117744   2.116   2.869   8.386
 5686SOL    HW217745   2.047   3.017   8.389
 5687SOL     OW17746   2.482   3.648   8.887
 5687SOL    HW117747   2.390   3.631   8.922
 5687SOL    HW217748   2.510   3.740   8.913
 5688SOL     OW17749   3.456   1.976   8.928
 5688SOL    HW117750   3.438   2.043   8.856
 5688SOL    HW217751   3.453   2.022   9.017
 5689SOL     OW17752   1.984   2.505   8.011
 5689SOL    HW117753   1.939   2.417   8.028
 5689SOL    HW217754   1.983   2.559   8.095
 5690SOL     OW17755   3.704   3.629   7.807
 5690SOL    HW117756   3.758   3.600   7.887
 5690SOL    HW217757   3.734   3.719   7.778
 5691SOL     OW17758   1.889   3.458   7.565
 5691SOL    HW117759   1.870   3.362   7.586
 5691SOL    HW217760   1.856   3.516   7.640
 5692SOL     OW17761   3.551   2.784   8.060
 5692SOL    HW117762   3.646   2.755   8.068
 5692SOL    HW217763   3.543   2.849   7.985
 5693SOL     OW17764   3.503   2.970   7.880
 5693SOL    HW117765   3.589   2.972   7.828
 5693SOL    HW217766   3.517   3.017   7.968
 5694SOL     OW17767   1.975   2.599   9.045
 5694SOL    HW117768   2.063   2.586   9.090
 5694SOL    HW217769   1.962   2.696   9.023
 5695SOL     OW17770   2.475   3.227   8.174
 5695SOL    HW117771   2.426   3.140   8.183
 5695SOL    HW217772   2.452   3.270   8.087
 5696SOL     OW17773   3.155   3.090   8.871
 5696SOL    HW117774   3.192   3.017   8.813
 5696SOL    HW217775   3.207   3.095   8.956
 5697SOL     OW17776   2.671   1.866   7.950
 5697SOL    HW117777   2.711   1.957   7.941
 5697SOL    HW217778   2.571   1.874   7.956
 5698SOL     OW17779   2.059   2.838   8.712
 5698SOL    HW117780   2.148   2.793   8.698
 5698SOL    HW217781   1.986   2.773   8.693
 5699SOL     OW17782   3.387   2.861   7.638
 5699SOL    HW117783   3.324   2.785   7.651
 5699SOL    HW217784   3.435   2.879   7.724
 5700SOL     OW17785   3.049   3.654   9.064
 5700SOL    HW117786   3.073   3.714   8.988
 5700SOL    HW217787   3.056   3.559   9.034
 5701SOL     OW17788   2.179   2.113   9.249
 5701SOL    HW117789   2.250   2.184   9.255
 5701SOL    HW217790   2.091   2.152   9.277
 5702SOL     OW17791   3.328   3.279   8.401
 5702SOL    HW117792   3.269   3.285   8.481
 5702SOL    HW217793   3.313   3.191   8.355
 5703SOL     OW17794   3.529   3.576   8.020
 5703SOL    HW117795   3.488   3.553   7.932
 5703SOL    HW217796   3.511   3.502   8.085
 5704SOL     OW17797   3.143   2.207   8.392
 5704SOL    HW117798   3.057   2.157   8.379
 5704SOL    HW217799   3.205   2.153   8.448
 5705SOL     OW17800   3.438   3.524   7.755
 5705SOL    HW117801   3.527   3.570   7.758
 5705SOL    HW217802   3.417   3.500   7.660
 5706SOL     OW17803   2.669   2.467   8.913
 5706SOL    HW117804   2.622   2.464   9.002
 5706SOL    HW217805   2.618   2.412   8.847
 5707SOL     OW17806   3.256   2.331   9.122
 5707SOL    HW117807   3.236   2.374   9.210
 5707SOL    HW217808   3.334   2.269   9.131
 5708SOL     OW17809   2.835   2.752   9.020
 5708SOL    HW117810   2.881   2.668   8.991
 5708SOL    HW217811   2.779   2.786   8.945
 5709SOL     OW17812   2.853   2.272   8.690
 5709SOL    HW117813   2.776   2.306   8.744
 5709SOL    HW217814   2.819   2.221   8.611
 5710SOL     OW17815   2.903   2.563   7.877
 5710SOL    HW117816   2.929   2.559   7.973
 5710SOL    HW217817   2.818   2.512   7.863
 5711SOL     OW17818   1.938   2.673   8.237
 5711SOL    HW117819   2.037   2.661   8.246
 5711SOL    HW217820   1.914   2.768   8.258
 5712SOL     OW17821   1.992   3.683   9.019
 5712SOL    HW117822   1.982   3.668   9.118
 5712SOL    HW217823   1.906   3.719   8.983
 5713SOL     OW17824   3.581   2.447   9.279
 5713SOL    HW117825   3.555   2.536   9.243
 5713SOL    HW217826   3.579   2.379   9.206
 5714SOL     OW17827   3.224   3.006   7.993
 5714SOL    HW117828   3.307   2.977   7.945
 5714SOL    HW217829   3.175   3.073   7.937
 5715SOL     OW17830   2.412   2.058   8.333
 5715SOL    HW117831   2.407   2.053   8.433
 5715SOL    HW217832   2.414   2.154   8.304
 5716SOL     OW17833   2.870   3.318   7.925
 5716SOL    HW117834   2.824   3.390   7.873
 5716SOL    HW217835   2.866   3.338   8.023
 5717SOL     OW17836   2.213   3.663   8.301
 5717SOL    HW117837   2.263   3.577   8.307
 5717SOL    HW217838   2.278   3.740   8.298
 5718SOL     OW17839   3.657   2.928   8.321
 5718SOL    HW117840   3.595   2.913   8.245
 5718SOL    HW217841   3.605   2.939   8.406
 5719SOL     OW17842   3.089   3.412   8.954
 5719SOL    HW117843   3.095   3.335   9.018
 5719SOL    HW217844   3.037   3.386   8.874
 5720SOL     OW17845   3.320   2.597   8.176
 5720SOL    HW117846   3.315   2.532   8.251
 5720SOL    HW217847   3.400   2.656   8.189
 5721SOL     OW17848   2.323   3.128   9.175
 5721SOL    HW117849   2.273   3.129   9.089
 5721SOL    HW217850   2.260   3.110   9.251
 5722SOL     OW17851   2.973   3.638   7.685
 5722SOL    HW117852   2.913   3.576   7.735
 5722SOL    HW217853   3.004   3.594   7.600
 5723SOL     OW17854   3.494   3.239   7.529
 5723SOL    HW117855   3.462   3.333   7.519
 5723SOL    HW217856   3.418   3.176   7.517
 5724SOL     OW17857   2.326   3.605   7.771
 5724SOL    HW117858   2.359   3.644   7.857
 5724SOL    HW217859   2.402   3.598   7.706
 5725SOL     OW17860   3.262   1.969   7.874
 5725SOL    HW117861   3.238   1.932   7.784
 5725SOL    HW217862   3.361   1.985   7.878
 5726SOL     OW17863   2.111   3.647   8.689
 5726SOL    HW117864   2.168   3.582   8.739
 5726SOL    HW217865   2.095   3.614   8.596
 5727SOL     OW17866   2.802   3.560   8.352
 5727SOL    HW117867   2.882   3.503   8.373
 5727SOL    HW217868   2.753   3.520   8.275
 5728SOL     OW17869   3.409   2.084   9.177
 5728SOL    HW117870   3.404   2.121   9.269
 5728SOL    HW217871   3.337   2.015   9.165
 5729SOL     OW17872   2.643   2.126   9.197
 5729SOL    HW117873   2.710   2.065   9.240
 5729SOL    HW217874   2.570   2.145   9.262
 5730SOL     OW17875   2.750   3.376   8.643
 5730SOL    HW117876   2.727   3.351   8.549
 5730SOL    HW217877   2.811   3.307   8.682
 5731SOL     OW17878   3.213   2.452   8.881
 5731SOL    HW117879   3.241   2.409   8.966
 5731SOL    HW217880   3.238   2.548   8.882
 5732SOL     OW17881   2.665   3.264   8.372
 5732SOL    HW117882   2.755   3.278   8.330
 5732SOL    HW217883   2.594   3.266   8.301
 5733SOL     OW17884   2.784   2.365   8.347
 5733SOL    HW117885   2.759   2.356   8.251
 5733SOL    HW217886   2.832   2.283   8.378
 5734SOL     OW17887   2.401   1.926   7.960
 5734SOL    HW117888   2.320   1.927   8.018
 5734SOL    HW217889   2.404   2.009   7.905
 5735SOL     OW17890   3.296   3.050   7.489
 5735SOL    HW117891   3.328   2.974   7.546
 5735SOL    HW217892   3.204   3.077   7.519
 5736SOL     OW17893   2.938   2.545   8.912
 5736SOL    HW117894   2.858   2.484   8.915
 5736SOL    HW217895   3.019   2.492   8.888
 5737SOL     OW17896   3.089   3.432   8.241
 5737SOL    HW117897   3.110   3.506   8.176
 5737SOL    HW217898   3.157   3.432   8.314
 5738SOL     OW17899   2.321   3.014   8.189
 5738SOL    HW117900   2.250   2.987   8.254
 5738SOL    HW217901   2.295   2.986   8.096
 5739SOL     OW17902   3.133   3.659   8.039
 5739SOL    HW117903   3.177   3.723   7.975
 5739SOL    HW217904   3.083   3.711   8.109
 5740SOL     OW17905   2.894   2.411   7.464
 5740SOL    HW117906   2.853   2.493   7.425
 5740SOL    HW217907   2.958   2.437   7.537
 5741SOL     OW17908   1.940   2.418   8.834
 5741SOL    HW117909   2.032   2.417   8.793
 5741SOL    HW217910   1.934   2.492   8.901
 5742SOL     OW17911   2.423   2.084   8.595
 5742SOL    HW117912   2.461   2.000   8.632
 5742SOL    HW217913   2.335   2.103   8.639
 5743SOL     OW17914   2.728   2.316   8.090
 5743SOL    HW117915   2.696   2.388   8.028
 5743SOL    HW217916   2.752   2.235   8.037
 5744SOL     OW17917   2.879   1.901   8.201
 5744SOL    HW117918   2.807   1.906   8.132
 5744SOL    HW217919   2.855   1.832   8.270
 5745SOL     OW17920   3.291   3.035   8.315
 5745SOL    HW117921   3.236   2.951   8.308
 5745SOL    HW217922   3.317   3.064   8.223
 5746SOL     OW17923   3.328   2.452   8.440
 5746SOL    HW117924   3.298   2.357   8.447
 5746SOL    HW217925   3.401   2.468   8.506
 5747SOL     OW17926   3.719   2.695   7.825
 5747SOL    HW117927   3.761   2.631   7.889
 5747SOL    HW217928   3.681   2.644   7.747
 5748SOL     OW17929   2.350   3.247   7.622
 5748SOL    HW117930   2.263   3.232   7.669
 5748SOL    HW217931   2.333   3.273   7.527
 5749SOL     OW17932   3.526   3.142   8.105
 5749SOL    HW117933   3.625   3.150   8.119
 5749SOL    HW217934   3.481   3.226   8.136
 5750SOL     OW17935   3.252   2.437   7.526
 5750SOL    HW117936   3.198   2.416   7.607
 5750SOL    HW217937   3.343   2.396   7.535
 5751SOL     OW17938   3.616   3.085   9.036
 5751SOL    HW117939   3.707   3.046   9.023
 5751SOL    HW217940   3.624   3.181   9.060
 5752SOL     OW17941   2.926   3.209   8.788
 5752SOL    HW117942   2.846   3.186   8.843
 5752SOL    HW217943   3.009   3.183   8.837
 5753SOL     OW17944   3.454   3.491   9.073
 5753SOL    HW117945   3.481   3.525   8.983
 5753SOL    HW217946   3.533   3.453   9.119
 5754SOL     OW17947   2.973   3.057   8.548
 5754SOL    HW117948   2.933   3.101   8.629
 5754SOL    HW217949   2.932   3.094   8.465
 5755SOL     OW17950   3.500   2.961   8.527
 5755SOL    HW117951   3.505   3.042   8.586
 5755SOL    HW217952   3.414   2.963   8.476
 5756SOL     OW17953   2.777   1.951   8.850
 5756SOL    HW117954   2.802   1.931   8.755
 5756SOL    HW217955   2.849   2.007   8.892
 5757SOL     OW17956   2.842   2.978   9.167
 5757SOL    HW117957   2.743   2.984   9.177
 5757SOL    HW217958   2.865   2.898   9.111
 5758SOL     OW17959   2.567   2.912   7.816
 5758SOL    HW117960   2.553   2.919   7.915
 5758SOL    HW217961   2.651   2.861   7.798
 5759SOL     OW17962   2.272   2.675   8.699
 5759SOL    HW117963   2.358   2.687   8.749
 5759SOL    HW217964   2.230   2.588   8.726
 5760SOL     OW17965   3.136   2.248   8.710
 5760SOL    HW117966   3.157   2.322   8.774
 5760SOL    HW217967   3.047   2.265   8.667
 5761SOL     OW17968   1.926   3.426   8.779
 5761SOL    HW117969   1.880   3.508   8.745
 5761SOL    HW217970   2.024   3.445   8.788
 5762SOL     OW17971   2.229   2.962   7.949
 5762SOL    HW117972   2.222   3.045   7.893
 5762SOL    HW217973   2.233   2.882   7.889
 5763SOL     OW17974   2.428   2.399   8.313
 5763SOL    HW117975   2.440   2.465   8.239
 5763SOL    HW217976   2.474   2.433   8.396
 5764SOL     OW17977   3.114   3.210   7.836
 5764SOL    HW117978   3.164   3.287   7.876
 5764SOL    HW217979   3.019   3.212   7.868
 5765SOL     OW17980   3.134   3.307   8.590
 5765SOL    HW117981   3.181   3.320   8.677
 5765SOL    HW217982   3.068   3.233   8.599
 5766SOL     OW17983   3.444   2.501   7.920
 5766SOL    HW117984   3.413   2.562   7.993
 5766SOL    HW217985   3.494   2.553   7.851
 5767SOL     OW17986   2.216   3.372   8.777
 5767SOL    HW117987   2.195   3.328   8.690
 5767SOL    HW217988   2.313   3.398   8.780
 5768SOL     OW17989   2.264   2.613   9.046
 5768SOL    HW117990   2.332   2.668   8.999
 5768SOL    HW217991   2.304   2.525   9.073
 5769SOL     OW17992   3.449   2.641   9.118
 5769SOL    HW117993   3.357   2.679   9.113
 5769SOL    HW217994   3.509   2.688   9.053
 5770SOL     OW17995   2.875   1.967   9.218
 5770SOL    HW117996   2.881   2.052   9.166
 5770SOL    HW217997   2.907   1.891   9.161
 5771SOL     OW17998   2.366   1.912   9.188
 5771SOL    HW117999   2.324   1.855   9.118
 5771SOL    HW218000   2.300   1.981   9.220
 5772SOL     OW18001   2.435   2.732   8.477
 5772SOL    HW118002   2.479   2.821   8.468
 5772SOL    HW218003   2.372   2.732   8.554
 5773SOL     OW18004   3.222   2.724   8.493
 5773SOL    HW118005   3.147   2.724   8.427
 5773SOL    HW218006   3.259   2.632   8.502
 5774SOL     OW18007   3.071   2.387   7.723
 5774SOL    HW118008   3.084   2.303   7.777
 5774SOL    HW218009   3.042   2.461   7.783
 5775SOL     OW18010   2.169   2.075   8.679
 5775SOL    HW118011   2.146   2.112   8.769
 5775SOL    HW218012   2.139   1.980   8.673
 5776SOL     OW18013   1.899   3.172   8.730
 5776SOL    HW118014   1.952   3.123   8.798
 5776SOL    HW218015   1.921   3.270   8.735
 5777SOL     OW18016   2.594   2.496   8.512
 5777SOL    HW118017   2.653   2.470   8.436
 5777SOL    HW218018   2.566   2.592   8.501
 5778SOL     OW18019   3.590   2.797   9.302
 5778SOL    HW118020   3.544   2.790   9.213
 5778SOL    HW218021   3.528   2.841   9.368
 5779SOL     OW18022   3.484   2.229   7.822
 5779SOL    HW118023   3.486   2.153   7.886
 5779SOL    HW218024   3.436   2.306   7.862
 5780SOL     OW18025   2.885   2.628   8.414
 5780SOL    HW118026   2.900   2.649   8.510
 5780SOL    HW218027   2.855   2.533   8.405
 5781SOL     OW18028   2.842   3.435   9.148
 5781SOL    HW118029   2.822   3.479   9.060
 5781SOL    HW218030   2.881   3.344   9.132
 5782SOL     OW18031   3.721   3.380   9.053
 5782SOL    HW118032   3.735   3.407   8.958
 5782SOL    HW218033   3.804   3.402   9.106
 5783SOL     OW18034   2.212   2.760   9.252
 5783SOL    HW118035   2.288   2.804   9.300
 5783SOL    HW218036   2.247   2.713   9.170
 5784SOL     OW18037   3.402   2.136   7.573
 5784SOL    HW118038   3.341   2.061   7.596
 5784SOL    HW218039   3.424   2.188   7.656
 5785SOL     OW18040   3.165   2.700   7.490
 5785SOL    HW118041   3.199   2.607   7.505
 5785SOL    HW218042   3.183   2.727   7.395
 5786SOL     OW18043   2.930   3.195   8.297
 5786SOL    HW118044   2.937   3.111   8.242
 5786SOL    HW218045   2.992   3.264   8.261
 5787SOL     OW18046   2.181   2.672   8.397
 5787SOL    HW118047   2.274   2.708   8.402
 5787SOL    HW218048   2.175   2.587   8.449
 5788SOL     OW18049   2.201   2.371   8.454
 5788SOL    HW118050   2.149   2.288   8.437
 5788SOL    HW218051   2.278   2.376   8.390
 5789SOL     OW18052   3.000   2.242   9.126
 5789SOL    HW118053   2.955   2.305   9.190
 5789SOL    HW218054   3.093   2.273   9.109
 5790SOL     OW18055   3.022   2.069   8.925
 5790SOL    HW118056   3.022   2.133   9.002
 5790SOL    HW218057   3.050   2.117   8.842
 5791SOL     OW18058   1.870   3.188   7.648
 5791SOL    HW118059   1.777   3.209   7.617
 5791SOL    HW218060   1.880   3.089   7.661
 5792SOL     OW18061   1.950   3.663   8.375
 5792SOL    HW118062   1.908   3.577   8.348
 5792SOL    HW218063   2.044   3.666   8.341
 5793SOL     OW18064   2.366   3.430   8.358
 5793SOL    HW118065   2.432   3.504   8.367
 5793SOL    HW218066   2.410   3.351   8.316
 5794SOL     OW18067   2.864   2.658   8.686
 5794SOL    HW118068   2.905   2.626   8.772
 5794SOL    HW218069   2.768   2.631   8.683
 5795SOL     OW18070   1.902   2.406   8.562
 5795SOL    HW118071   1.987   2.373   8.521
 5795SOL    HW218072   1.915   2.421   8.660
 5796SOL     OW18073   2.051   2.382   9.170
 5796SOL    HW118074   2.110   2.342   9.100
 5796SOL    HW218075   1.993   2.453   9.129
 5797SOL     OW18076   3.231   2.812   9.108
 5797SOL    HW118077   3.270   2.901   9.128
 5797SOL    HW218078   3.241   2.792   9.011
 5798SOL     OW18079   3.519   2.466   8.654
 5798SOL    HW118080   3.481   2.397   8.716
 5798SOL    HW218081   3.601   2.430   8.610
 5799SOL     OW18082   2.114   3.426   9.192
 5799SOL    HW118083   2.084   3.483   9.268
 5799SOL    HW218084   2.107   3.329   9.218
 5800SOL     OW18085   2.533   2.326   8.717
 5800SOL    HW118086   2.499   2.237   8.687
 5800SOL    HW218087   2.559   2.380   8.637
 5801SOL     OW18088   2.792   3.540   8.913
 5801SOL    HW118089   2.768   3.522   8.818
 5801SOL    HW218090   2.822   3.634   8.923
 5802SOL     OW18091   2.021   2.999   8.914
 5802SOL    HW118092   2.043   2.938   8.990
 5802SOL    HW218093   2.031   2.950   8.828
 5803SOL     OW18094   3.209   2.921   8.682
 5803SOL    HW118095   3.233   2.858   8.608
 5803SOL    HW218096   3.119   2.961   8.664
 5804SOL     OW18097   3.164   2.717   7.757
 5804SOL    HW118098   3.078   2.686   7.799
 5804SOL    HW218099   3.160   2.703   7.658
 5805SOL     OW18100   3.621   3.609   8.602
 5805SOL    HW118101   3.682   3.639   8.529
 5805SOL    HW218102   3.583   3.520   8.580
 5806SOL     OW18103   3.114   3.593   8.576
 5806SOL    HW118104   3.198   3.598   8.522
 5806SOL    HW218105   3.091   3.497   8.594
 5807SOL     OW18106   1.945   3.120   8.470
 5807SOL    HW118107   1.940   3.119   8.570
 5807SOL    HW218108   1.862   3.079   8.432
 5808SOL     OW18109   2.550   3.524   9.164
 5808SOL    HW118110   2.494   3.605   9.173
 5808SOL    HW218111   2.602   3.528   9.078
 5809SOL     OW18112   3.588   1.997   7.971
 5809SOL    HW118113   3.661   1.980   7.904
 5809SOL    HW218114   3.557   1.910   8.009
 5810SOL     OW18115   3.250   3.435   7.925
 5810SOL    HW118116   3.317   3.447   7.851
 5810SOL    HW218117   3.210   3.524   7.948
 5811SOL     OW18118   1.992   3.656   9.299
 5811SOL    HW118119   1.951   3.582   9.352
 5811SOL    HW218120   2.056   3.707   9.357
 5812SOL     OW18121   3.142   2.789   8.120
 5812SOL    HW118122   3.202   2.708   8.122
 5812SOL    HW218123   3.182   2.858   8.060
 5813SOL     OW18124   2.692   3.135   8.870
 5813SOL    HW118125   2.687   3.168   8.965
 5813SOL    HW218126   2.606   3.154   8.824
 5814SOL     OW18127   2.534   3.478   7.602
 5814SOL    HW118128   2.543   3.488   7.503
 5814SOL    HW218129   2.494   3.389   7.623
 5815SOL     OW18130   3.512   3.582   8.842
 5815SOL    HW118131   3.565   3.592   8.758
 5815SOL    HW218132   3.485   3.672   8.876
 5816SOL     OW18133   3.703   2.037   8.411
 5816SOL    HW118134   3.742   1.952   8.375
 5816SOL    HW218135   3.605   2.039   8.392
 5817SOL     OW18136   3.056   3.474   7.479
 5817SOL    HW118137   3.062   3.381   7.516
 5817SOL    HW218138   2.997   3.474   7.399
 5818SOL     OW18139   2.684   2.864   8.820
 5818SOL    HW118140   2.724   2.863   8.728
 5818SOL    HW218141   2.694   2.956   8.860
 5819SOL     OW18142   2.778   2.772   7.739
 5819SOL    HW118143   2.841   2.810   7.671
 5819SOL    HW218144   2.818   2.689   7.778
 5820SOL     OW18145   3.366   3.469   7.492
 5820SOL    HW118146   3.274   3.506   7.499
 5820SOL    HW218147   3.404   3.489   7.402
 5821SOL     OW18148   2.234   3.150   8.938
 5821SOL    HW118149   2.221   3.243   8.904
 5821SOL    HW218150   2.150   3.098   8.925
 5822SOL     OW18151   3.476   3.154   8.737
 5822SOL    HW118152   3.536   3.157   8.817
 5822SOL    HW218153   3.401   3.218   8.750
 5823SOL     OW18154   2.901   2.960   8.144
 5823SOL    HW118155   2.831   2.913   8.198
 5823SOL    HW218156   2.960   2.892   8.101
 5824SOL     OW18157   2.876   2.098   8.419
 5824SOL    HW118158   2.868   2.062   8.326
 5824SOL    HW218159   2.874   2.022   8.484
 5825SOL     OW18160   2.452   3.349   7.939
 5825SOL    HW118161   2.494   3.291   7.869
 5825SOL    HW218162   2.408   3.428   7.895
 5826SOL     OW18163   3.571   2.247   8.829
 5826SOL    HW118164   3.644   2.316   8.833
 5826SOL    HW218165   3.599   2.172   8.770
 5827SOL     OW18166   2.117   3.210   7.738
 5827SOL    HW118167   2.021   3.211   7.711
 5827SOL    HW218168   2.129   3.263   7.822
 5828SOL     OW18169   1.967   2.875   9.174
 5828SOL    HW118170   1.890   2.842   9.228
 5828SOL    HW218171   2.052   2.845   9.216
 5829SOL     OW18172   2.534   2.065   8.937
 5829SOL    HW118173   2.624   2.049   8.897
 5829SOL    HW218174   2.542   2.070   9.036
 5830SOL     OW18175   1.937   2.207   7.481
 5830SOL    HW118176   1.845   2.179   7.452
 5830SOL    HW218177   1.968   2.284   7.425
 5831SOL     OW18178   3.302   2.718   8.846
 5831SOL    HW118179   3.245   2.770   8.783
 5831SOL    HW218180   3.398   2.730   8.822
 5832SOL     OW18181   3.045   3.197   7.567
 5832SOL    HW118182   2.946   3.186   7.569
 5832SOL    HW218183   3.079   3.212   7.660
 5833SOL     OW18184   2.475   2.704   8.879
 5833SOL    HW118185   2.531   2.785   8.862
 5833SOL    HW218186   2.534   2.624   8.882
 5834SOL     OW18187   3.355   3.629   8.407
 5834SOL    HW118188   3.388   3.693   8.338
 5834SOL    HW218189   3.421   3.623   8.482
 5835SOL     OW18190   2.578   2.427   9.156
 5835SOL    HW118191   2.597   2.492   9.230
 5835SOL    HW218192   2.638   2.347   9.165
 5836SOL     OW18193   3.312   3.082   9.081
 5836SOL    HW118194   3.303   3.072   9.180
 5836SOL    HW218195   3.408   3.075   9.055
 5837SOL     OW18196   2.252   3.603   9.008
 5837SOL    HW118197   2.161   3.644   9.006
 5837SOL    HW218198   2.245   3.509   9.040
 5838SOL     OW18199   3.536   2.745   8.702
 5838SOL    HW118200   3.509   2.656   8.665
 5838SOL    HW218201   3.537   2.813   8.629
 5839SOL     OW18202   3.087   2.187   7.897
 5839SOL    HW118203   3.152   2.113   7.886
 5839SOL    HW218204   3.107   2.237   7.981
 5840SOL     OW18205   2.456   2.607   8.100
 5840SOL    HW118206   2.506   2.692   8.081
 5840SOL    HW218207   2.368   2.609   8.052
 5841SOL     OW18208   3.639   2.204   9.090
 5841SOL    HW118209   3.622   2.235   8.996
 5841SOL    HW218210   3.555   2.167   9.128
 5842SOL     OW18211   3.592   2.796   8.965
 5842SOL    HW118212   3.630   2.887   8.980
 5842SOL    HW218213   3.584   2.779   8.866
 5843SOL     OW18214   2.721   3.236   7.464
 5843SOL    HW118215   2.675   3.251   7.552
 5843SOL    HW218216   2.765   3.321   7.434
 5844SOL     OW18217   2.523   3.652   8.401
 5844SOL    HW118218   2.477   3.740   8.388
 5844SOL    HW218219   2.622   3.664   8.394
 5845SOL     OW18220   2.721   2.818   8.309
 5845SOL    HW118221   2.775   2.749   8.357
 5845SOL    HW218222   2.689   2.887   8.375
 5846SOL     OW18223   2.945   2.846   7.535
 5846SOL    HW118224   2.922   2.899   7.453
 5846SOL    HW218225   3.026   2.790   7.516
 5847SOL     OW18226   3.723   3.431   8.299
 5847SOL    HW118227   3.652   3.419   8.229
 5847SOL    HW218228   3.724   3.352   8.359
 5848SOL     OW18229   2.083   3.176   9.292
 5848SOL    HW118230   2.018   3.103   9.271
 5848SOL    HW218231   2.087   3.190   9.390
 5849SOL     OW18232   1.941   3.102   8.101
 5849SOL    HW118233   1.940   3.055   8.189
 5849SOL    HW218234   2.023   3.074   8.050
 5850SOL     OW18235   2.534   3.253   9.072
 5850SOL    HW118236   2.456   3.203   9.110
 5850SOL    HW218237   2.531   3.348   9.103
 5851SOL     OW18238   3.686   2.054   8.675
 5851SOL    HW118239   3.682   1.964   8.719
 5851SOL    HW218240   3.689   2.043   8.576
 5852SOL     OW18241   2.290   2.286   7.968
 5852SOL    HW118242   2.320   2.214   7.906
 5852SOL    HW218243   2.251   2.246   8.051
 5853SOL     OW18244   3.567   3.349   8.552
 5853SOL    HW118245   3.474   3.324   8.525
 5853SOL    HW218246   3.593   3.299   8.634
 5854SOL     OW18247   2.179   2.409   8.728
 5854SOL    HW118248   2.217   2.350   8.800
 5854SOL    HW218249   2.219   2.383   8.640
 5855SOL     OW18250   2.674   3.448   8.135
 5855SOL    HW118251   2.706   3.458   8.041
 5855SOL    HW218252   2.595   3.386   8.137
 5856SOL     OW18253   3.286   2.076   8.560
 5856SOL    HW118254   3.338   2.011   8.615
 5856SOL    HW218255   3.237   2.139   8.621
 5857SOL     OW18256   2.863   1.896   8.602
 5857SOL    HW118257   2.800   1.824   8.571
 5857SOL    HW218258   2.956   1.860   8.602
 5858SOL     OW18259   2.632   3.192   7.749
 5858SOL    HW118260   2.586   3.105   7.766
 5858SOL    HW218261   2.723   3.189   7.790
 5859SOL     OW18262   2.480   3.429   8.732
 5859SOL    HW118263   2.475   3.511   8.789
 5859SOL    HW218264   2.569   3.426   8.687
 5860SOL     OW18265   3.214   1.914   7.616
 5860SOL    HW118266   3.249   1.873   7.532
 5860SOL    HW218267   3.124   1.876   7.636
 5861SOL     OW18268   3.162   2.315   8.139
 5861SOL    HW118269   3.103   2.395   8.143
 5861SOL    HW218270   3.177   2.280   8.232
 5862SOL     OW18271   3.455   2.083   8.330
 5862SOL    HW118272   3.371   2.082   8.384
 5862SOL    HW218273   3.457   2.166   8.274
 5863SOL     OW18274   1.901   2.939   7.748
 5863SOL    HW118275   2.000   2.928   7.739
 5863SOL    HW218276   1.861   2.853   7.780
 5864SOL     OW18277   2.737   3.508   7.785
 5864SOL    HW118278   2.660   3.473   7.731
 5864SOL    HW218279   2.705   3.579   7.847
 5865SOL     OW18280   2.092   2.490   9.423
 5865SOL    HW118281   1.999   2.488   9.460
 5865SOL    HW218282   2.093   2.451   9.331
 5866SOL     OW18283   1.881   2.230   9.957
 5866SOL    HW118284   1.799   2.273   9.996
 5866SOL    HW218285   1.853   2.157   9.894
 5867SOL     OW18286   2.431   3.137  10.475
 5867SOL    HW118287   2.338   3.130  10.438
 5867SOL    HW218288   2.442   3.226  10.519
 5868SOL     OW18289   3.417   3.373  10.013
 5868SOL    HW118290   3.360   3.357  10.094
 5868SOL    HW218291   3.358   3.383   9.933
 5869SOL     OW18292   2.997   2.565  10.027
 5869SOL    HW118293   3.054   2.643  10.002
 5869SOL    HW218294   2.937   2.591  10.103
 5870SOL     OW18295   3.617   2.469   9.541
 5870SOL    HW118296   3.605   2.456   9.442
 5870SOL    HW218297   3.587   2.388   9.590
 5871SOL     OW18298   2.630   3.006  10.333
 5871SOL    HW118299   2.552   3.023  10.393
 5871SOL    HW218300   2.664   3.093  10.297
 5872SOL     OW18301   2.712   2.660  11.133
 5872SOL    HW118302   2.708   2.736  11.198
 5872SOL    HW218303   2.734   2.696  11.042
 5873SOL     OW18304   2.547   2.874   9.975
 5873SOL    HW118305   2.616   2.858  10.045
 5873SOL    HW218306   2.474   2.931  10.013
 5874SOL     OW18307   2.548   3.023  11.113
 5874SOL    HW118308   2.608   3.102  11.127
 5874SOL    HW218309   2.462   3.054  11.072
 5875SOL     OW18310   2.197   3.297  10.371
 5875SOL    HW118311   2.119   3.266  10.318
 5875SOL    HW218312   2.255   3.355  10.314
 5876SOL     OW18313   3.322   3.367  10.649
 5876SOL    HW118314   3.346   3.461  10.675
 5876SOL    HW218315   3.306   3.313  10.731
 5877SOL     OW18316   2.300   2.254  10.809
 5877SOL    HW118317   2.382   2.198  10.818
 5877SOL    HW218318   2.219   2.196  10.813
 5878SOL     OW18319   3.465   2.309  10.047
 5878SOL    HW118320   3.391   2.355   9.997
 5878SOL    HW218321   3.516   2.377  10.100
 5879SOL     OW18322   2.093   3.575   9.793
 5879SOL    HW118323   2.127   3.652   9.847
 5879SOL    HW218324   2.137   3.575   9.703
 5880SOL     OW18325   2.989   3.203  11.000
 5880SOL    HW118326   3.036   3.203  11.088
 5880SOL    HW218327   2.941   3.116  10.989
 5881SOL     OW18328   2.092   3.296   9.848
 5881SOL    HW118329   2.066   3.392   9.848
 5881SOL    HW218330   2.021   3.242   9.893
 5882SOL     OW18331   2.102   2.953  10.196
 5882SOL    HW118332   2.116   2.869  10.248
 5882SOL    HW218333   2.047   3.017  10.251
 5883SOL     OW18334   2.482   3.648  10.749
 5883SOL    HW118335   2.390   3.631  10.784
 5883SOL    HW218336   2.510   3.740  10.775
 5884SOL     OW18337   2.468   2.826   9.433
 5884SOL    HW118338   2.475   2.910   9.379
 5884SOL    HW218339   2.514   2.839   9.521
 5885SOL     OW18340   3.456   1.976  10.790
 5885SOL    HW118341   3.438   2.043  10.718
 5885SOL    HW218342   3.453   2.022  10.879
 5886SOL     OW18343   1.984   2.505   9.873
 5886SOL    HW118344   1.939   2.417   9.890
 5886SOL    HW218345   1.983   2.559   9.957
 5887SOL     OW18346   3.704   3.629   9.669
 5887SOL    HW118347   3.758   3.600   9.749
 5887SOL    HW218348   3.734   3.719   9.640
 5888SOL     OW18349   1.889   3.458   9.427
 5888SOL    HW118350   1.870   3.362   9.448
 5888SOL    HW218351   1.856   3.516   9.502
 5889SOL     OW18352   3.551   2.784   9.922
 5889SOL    HW118353   3.646   2.755   9.930
 5889SOL    HW218354   3.543   2.849   9.847
 5890SOL     OW18355   3.503   2.970   9.742
 5890SOL    HW118356   3.589   2.972   9.690
 5890SOL    HW218357   3.517   3.017   9.830
 5891SOL     OW18358   1.975   2.599  10.907
 5891SOL    HW118359   2.063   2.586  10.952
 5891SOL    HW218360   1.962   2.696  10.885
 5892SOL     OW18361   2.475   3.227  10.036
 5892SOL    HW118362   2.426   3.140  10.045
 5892SOL    HW218363   2.452   3.270   9.949
 5893SOL     OW18364   3.155   3.090  10.733
 5893SOL    HW118365   3.192   3.017  10.675
 5893SOL    HW218366   3.207   3.095  10.818
 5894SOL     OW18367   2.671   1.866   9.812
 5894SOL    HW118368   2.711   1.957   9.803
 5894SOL    HW218369   2.571   1.874   9.818
 5895SOL     OW18370   2.059   2.838  10.574
 5895SOL    HW118371   2.148   2.793  10.560
 5895SOL    HW218372   1.986   2.773  10.555
 5896SOL     OW18373   3.387   2.861   9.500
 5896SOL    HW118374   3.324   2.785   9.513
 5896SOL    HW218375   3.435   2.879   9.586
 5897SOL     OW18376   3.049   3.654  10.926
 5897SOL    HW118377   3.073   3.714  10.850
 5897SOL    HW218378   3.056   3.559  10.896
 5898SOL     OW18379   2.179   2.113  11.111
 5898SOL    HW118380   2.250   2.184  11.117
 5898SOL    HW218381   2.091   2.152  11.139
 5899SOL     OW18382   3.328   3.279  10.263
 5899SOL    HW118383   3.269   3.285  10.343
 5899SOL    HW218384   3.313   3.191  10.217
 5900SOL     OW18385   3.529   3.576   9.882
 5900SOL    HW118386   3.488   3.553   9.794
 5900SOL    HW218387   3.511   3.502   9.947
 5901SOL     OW18388   2.460   2.591   9.580
 5901SOL    HW118389   2.484   2.660   9.512
 5901SOL    HW218390   2.382   2.624   9.634
 5902SOL     OW18391   3.143   2.207  10.254
 5902SOL    HW118392   3.057   2.157  10.241
 5902SOL    HW218393   3.205   2.153  10.310
 5903SOL     OW18394   3.438   3.524   9.617
 5903SOL    HW118395   3.527   3.570   9.620
 5903SOL    HW218396   3.417   3.500   9.522
 5904SOL     OW18397   2.669   2.467  10.775
 5904SOL    HW118398   2.622   2.464  10.864
 5904SOL    HW218399   2.618   2.412  10.709
 5905SOL     OW18400   3.256   2.331  10.984
 5905SOL    HW118401   3.236   2.374  11.072
 5905SOL    HW218402   3.334   2.269  10.993
 5906SOL     OW18403   2.835   2.752  10.882
 5906SOL    HW118404   2.881   2.668  10.853
 5906SOL    HW218405   2.779   2.786  10.807
 5907SOL     OW18406   2.853   2.272  10.552
 5907SOL    HW118407   2.776   2.306  10.606
 5907SOL    HW218408   2.819   2.221  10.473
 5908SOL     OW18409   2.903   2.563   9.739
 5908SOL    HW118410   2.929   2.559   9.835
 5908SOL    HW218411   2.818   2.512   9.725
 5909SOL     OW18412   1.938   2.673  10.099
 5909SOL    HW118413   2.037   2.661  10.108
 5909SOL    HW218414   1.914   2.768  10.120
 5910SOL     OW18415   1.992   3.683  10.881
 5910SOL    HW118416   1.982   3.668  10.980
 5910SOL    HW218417   1.906   3.719  10.845
 5911SOL     OW18418   2.727   2.210   9.505
 5911SOL    HW118419   2.786   2.273   9.456
 5911SOL    HW218420   2.746   2.116   9.476
 5912SOL     OW18421   3.581   2.447  11.141
 5912SOL    HW118422   3.555   2.536  11.105
 5912SOL    HW218423   3.579   2.379  11.068
 5913SOL     OW18424   3.224   3.006   9.855
 5913SOL    HW118425   3.307   2.977   9.807
 5913SOL    HW218426   3.175   3.073   9.799
 5914SOL     OW18427   2.412   2.058  10.195
 5914SOL    HW118428   2.407   2.053  10.295
 5914SOL    HW218429   2.414   2.154  10.166
 5915SOL     OW18430   2.870   3.318   9.787
 5915SOL    HW118431   2.824   3.390   9.735
 5915SOL    HW218432   2.866   3.338   9.885
 5916SOL     OW18433   2.213   3.663  10.163
 5916SOL    HW118434   2.263   3.577  10.169
 5916SOL    HW218435   2.278   3.740  10.160
 5917SOL     OW18436   3.657   2.928  10.183
 5917SOL    HW118437   3.595   2.913  10.107
 5917SOL    HW218438   3.605   2.939  10.268
 5918SOL     OW18439   3.089   3.412  10.816
 5918SOL    HW118440   3.095   3.335  10.880
 5918SOL    HW218441   3.037   3.386  10.736
 5919SOL     OW18442   2.183   2.805   9.552
 5919SOL    HW118443   2.265   2.844   9.510
 5919SOL    HW218444   2.156   2.723   9.503
 5920SOL     OW18445   3.320   2.597  10.038
 5920SOL    HW118446   3.315   2.532  10.113
 5920SOL    HW218447   3.400   2.656  10.051
 5921SOL     OW18448   2.323   3.128  11.037
 5921SOL    HW118449   2.273   3.129  10.951
 5921SOL    HW218450   2.260   3.110  11.113
 5922SOL     OW18451   2.973   3.638   9.547
 5922SOL    HW118452   2.913   3.576   9.597
 5922SOL    HW218453   3.004   3.594   9.462
 5923SOL     OW18454   3.494   3.239   9.391
 5923SOL    HW118455   3.462   3.333   9.381
 5923SOL    HW218456   3.418   3.176   9.379
 5924SOL     OW18457   2.326   3.605   9.633
 5924SOL    HW118458   2.359   3.644   9.719
 5924SOL    HW218459   2.402   3.598   9.568
 5925SOL     OW18460   3.262   1.969   9.736
 5925SOL    HW118461   3.238   1.932   9.646
 5925SOL    HW218462   3.361   1.985   9.740
 5926SOL     OW18463   2.111   3.647  10.551
 5926SOL    HW118464   2.168   3.582  10.601
 5926SOL    HW218465   2.095   3.614  10.458
 5927SOL     OW18466   2.802   3.560  10.214
 5927SOL    HW118467   2.882   3.503  10.235
 5927SOL    HW218468   2.753   3.520  10.137
 5928SOL     OW18469   2.244   2.562   9.790
 5928SOL    HW118470   2.289   2.472   9.787
 5928SOL    HW218471   2.150   2.551   9.823
 5929SOL     OW18472   3.409   2.084  11.039
 5929SOL    HW118473   3.404   2.121  11.131
 5929SOL    HW218474   3.337   2.015  11.027
 5930SOL     OW18475   2.476   1.984   9.427
 5930SOL    HW118476   2.574   1.962   9.434
 5930SOL    HW218477   2.445   1.967   9.334
 5931SOL     OW18478   2.643   2.126  11.059
 5931SOL    HW118479   2.710   2.065  11.102
 5931SOL    HW218480   2.570   2.145  11.124
 5932SOL     OW18481   2.750   3.376  10.505
 5932SOL    HW118482   2.727   3.351  10.411
 5932SOL    HW218483   2.811   3.307  10.544
 5933SOL     OW18484   3.213   2.452  10.743
 5933SOL    HW118485   3.241   2.409  10.828
 5933SOL    HW218486   3.238   2.548  10.744
 5934SOL     OW18487   2.665   3.264  10.234
 5934SOL    HW118488   2.755   3.278  10.192
 5934SOL    HW218489   2.594   3.266  10.163
 5935SOL     OW18490   2.784   2.365  10.209
 5935SOL    HW118491   2.759   2.356  10.113
 5935SOL    HW218492   2.832   2.283  10.240
 5936SOL     OW18493   2.401   1.926   9.822
 5936SOL    HW118494   2.320   1.927   9.880
 5936SOL    HW218495   2.404   2.009   9.767
 5937SOL     OW18496   3.296   3.050   9.351
 5937SOL    HW118497   3.328   2.974   9.408
 5937SOL    HW218498   3.204   3.077   9.381
 5938SOL     OW18499   2.797   2.098   9.790
 5938SOL    HW118500   2.749   2.139   9.712
 5938SOL    HW218501   2.896   2.096   9.771
 5939SOL     OW18502   2.938   2.545  10.774
 5939SOL    HW118503   2.858   2.484  10.777
 5939SOL    HW218504   3.019   2.492  10.750
 5940SOL     OW18505   3.089   3.432  10.103
 5940SOL    HW118506   3.110   3.506  10.038
 5940SOL    HW218507   3.157   3.432  10.176
 5941SOL     OW18508   2.321   3.014  10.051
 5941SOL    HW118509   2.250   2.987  10.116
 5941SOL    HW218510   2.295   2.986   9.958
 5942SOL     OW18511   3.133   3.659   9.901
 5942SOL    HW118512   3.177   3.723   9.837
 5942SOL    HW218513   3.083   3.711   9.971
 5943SOL     OW18514   2.894   2.411   9.326
 5943SOL    HW118515   2.853   2.493   9.287
 5943SOL    HW218516   2.958   2.437   9.399
 5944SOL     OW18517   1.940   2.418  10.696
 5944SOL    HW118518   2.032   2.417  10.655
 5944SOL    HW218519   1.934   2.492  10.763
 5945SOL     OW18520   2.423   2.084  10.457
 5945SOL    HW118521   2.461   2.000  10.494
 5945SOL    HW218522   2.335   2.103  10.501
 5946SOL     OW18523   2.728   2.316   9.952
 5946SOL    HW118524   2.696   2.388   9.890
 5946SOL    HW218525   2.752   2.235   9.899
 5947SOL     OW18526   2.879   1.901  10.063
 5947SOL    HW118527   2.807   1.906   9.994
 5947SOL    HW218528   2.855   1.832  10.132
 5948SOL     OW18529   3.291   3.035  10.177
 5948SOL    HW118530   3.236   2.951  10.170
 5948SOL    HW218531   3.317   3.064  10.085
 5949SOL     OW18532   3.328   2.452  10.302
 5949SOL    HW118533   3.298   2.357  10.309
 5949SOL    HW218534   3.401   2.468  10.368
 5950SOL     OW18535   3.719   2.695   9.687
 5950SOL    HW118536   3.761   2.631   9.751
 5950SOL    HW218537   3.681   2.644   9.609
 5951SOL     OW18538   2.350   3.247   9.484
 5951SOL    HW118539   2.263   3.232   9.531
 5951SOL    HW218540   2.333   3.273   9.389
 5952SOL     OW18541   3.526   3.142   9.967
 5952SOL    HW118542   3.625   3.150   9.981
 5952SOL    HW218543   3.481   3.226   9.998
 5953SOL     OW18544   3.252   2.437   9.388
 5953SOL    HW118545   3.198   2.416   9.469
 5953SOL    HW218546   3.343   2.396   9.397
 5954SOL     OW18547   2.389   2.118   9.638
 5954SOL    HW118548   2.416   2.059   9.563
 5954SOL    HW218549   2.389   2.213   9.607
 5955SOL     OW18550   3.616   3.085  10.898
 5955SOL    HW118551   3.707   3.046  10.885
 5955SOL    HW218552   3.624   3.181  10.922
 5956SOL     OW18553   2.926   3.209  10.650
 5956SOL    HW118554   2.846   3.186  10.705
 5956SOL    HW218555   3.009   3.183  10.699
 5957SOL     OW18556   3.454   3.491  10.935
 5957SOL    HW118557   3.481   3.525  10.845
 5957SOL    HW218558   3.533   3.453  10.981
 5958SOL     OW18559   2.973   3.057  10.410
 5958SOL    HW118560   2.933   3.101  10.491
 5958SOL    HW218561   2.932   3.094  10.327
 5959SOL     OW18562   3.500   2.961  10.389
 5959SOL    HW118563   3.505   3.042  10.448
 5959SOL    HW218564   3.414   2.963  10.338
 5960SOL     OW18565   2.777   1.951  10.712
 5960SOL    HW118566   2.802   1.931  10.617
 5960SOL    HW218567   2.849   2.007  10.754
 5961SOL     OW18568   2.842   2.978  11.029
 5961SOL    HW118569   2.743   2.984  11.039
 5961SOL    HW218570   2.865   2.898  10.973
 5962SOL     OW18571   2.567   2.912   9.678
 5962SOL    HW118572   2.553   2.919   9.777
 5962SOL    HW218573   2.651   2.861   9.660
 5963SOL     OW18574   2.272   2.675  10.561
 5963SOL    HW118575   2.358   2.687  10.611
 5963SOL    HW218576   2.230   2.588  10.588
 5964SOL     OW18577   3.136   2.248  10.572
 5964SOL    HW118578   3.157   2.322  10.636
 5964SOL    HW218579   3.047   2.265  10.529
 5965SOL     OW18580   1.926   3.426  10.641
 5965SOL    HW118581   1.880   3.508  10.607
 5965SOL    HW218582   2.024   3.445  10.650
 5966SOL     OW18583   2.229   2.962   9.811
 5966SOL    HW118584   2.222   3.045   9.755
 5966SOL    HW218585   2.233   2.882   9.751
 5967SOL     OW18586   2.428   2.399  10.175
 5967SOL    HW118587   2.440   2.465  10.101
 5967SOL    HW218588   2.474   2.433  10.258
 5968SOL     OW18589   3.114   3.210   9.698
 5968SOL    HW118590   3.164   3.287   9.738
 5968SOL    HW218591   3.019   3.212   9.730
 5969SOL     OW18592   3.134   3.307  10.452
 5969SOL    HW118593   3.181   3.320  10.539
 5969SOL    HW218594   3.068   3.233  10.461
 5970SOL     OW18595   3.444   2.501   9.782
 5970SOL    HW118596   3.413   2.562   9.855
 5970SOL    HW218597   3.494   2.553   9.713
 5971SOL     OW18598   2.216   3.372  10.639
 5971SOL    HW118599   2.195   3.328  10.552
 5971SOL    HW218600   2.313   3.398  10.642
 5972SOL     OW18601   2.264   2.613  10.908
 5972SOL    HW118602   2.332   2.668  10.861
 5972SOL    HW218603   2.304   2.525  10.935
 5973SOL     OW18604   3.449   2.641  10.980
 5973SOL    HW118605   3.357   2.679  10.975
 5973SOL    HW218606   3.509   2.688  10.915
 5974SOL     OW18607   2.875   1.967  11.080
 5974SOL    HW118608   2.881   2.052  11.028
 5974SOL    HW218609   2.907   1.891  11.023
 5975SOL     OW18610   2.366   1.912  11.050
 5975SOL    HW118611   2.324   1.855  10.980
 5975SOL    HW218612   2.300   1.981  11.082
 5976SOL     OW18613   2.435   2.732  10.339
 5976SOL    HW118614   2.479   2.821  10.330
 5976SOL    HW218615   2.372   2.732  10.416
 5977SOL     OW18616   3.222   2.724  10.355
 5977SOL    HW118617   3.147   2.724  10.289
 5977SOL    HW218618   3.259   2.632  10.364
 5978SOL     OW18619   3.071   2.387   9.585
 5978SOL    HW118620   3.084   2.303   9.639
 5978SOL    HW218621   3.042   2.461   9.645
 5979SOL     OW18622   1.899   3.172  10.592
 5979SOL    HW118623   1.952   3.123  10.660
 5979SOL    HW218624   1.921   3.270  10.597
 5980SOL     OW18625   2.594   2.496  10.374
 5980SOL    HW118626   2.653   2.470  10.298
 5980SOL    HW218627   2.566   2.592  10.363
 5981SOL     OW18628   3.590   2.797  11.164
 5981SOL    HW118629   3.544   2.790  11.075
 5981SOL    HW218630   3.528   2.841  11.230
 5982SOL     OW18631   3.484   2.229   9.684
 5982SOL    HW118632   3.486   2.153   9.748
 5982SOL    HW218633   3.436   2.306   9.724
 5983SOL     OW18634   2.885   2.628  10.276
 5983SOL    HW118635   2.900   2.649  10.372
 5983SOL    HW218636   2.855   2.533  10.267
 5984SOL     OW18637   2.842   3.435  11.010
 5984SOL    HW118638   2.822   3.479  10.922
 5984SOL    HW218639   2.881   3.344  10.994
 5985SOL     OW18640   3.721   3.380  10.915
 5985SOL    HW118641   3.735   3.407  10.820
 5985SOL    HW218642   3.804   3.402  10.968
 5986SOL     OW18643   2.212   2.760  11.114
 5986SOL    HW118644   2.288   2.804  11.162
 5986SOL    HW218645   2.247   2.713  11.032
 5987SOL     OW18646   3.402   2.136   9.435
 5987SOL    HW118647   3.341   2.061   9.458
 5987SOL    HW218648   3.424   2.188   9.518
 5988SOL     OW18649   3.165   2.700   9.352
 5988SOL    HW118650   3.199   2.607   9.367
 5988SOL    HW218651   3.183   2.727   9.257
 5989SOL     OW18652   2.930   3.195  10.159
 5989SOL    HW118653   2.937   3.111  10.104
 5989SOL    HW218654   2.992   3.264  10.123
 5990SOL     OW18655   2.181   2.672  10.259
 5990SOL    HW118656   2.274   2.708  10.264
 5990SOL    HW218657   2.175   2.587  10.311
 5991SOL     OW18658   2.201   2.371  10.316
 5991SOL    HW118659   2.149   2.288  10.299
 5991SOL    HW218660   2.278   2.376  10.252
 5992SOL     OW18661   3.000   2.242  10.988
 5992SOL    HW118662   2.955   2.305  11.052
 5992SOL    HW218663   3.093   2.273  10.971
 5993SOL     OW18664   3.022   2.069  10.787
 5993SOL    HW118665   3.022   2.133  10.864
 5993SOL    HW218666   3.050   2.117  10.704
 5994SOL     OW18667   1.870   3.188   9.510
 5994SOL    HW118668   1.777   3.209   9.479
 5994SOL    HW218669   1.880   3.089   9.523
 5995SOL     OW18670   1.950   3.663  10.237
 5995SOL    HW118671   1.908   3.577  10.210
 5995SOL    HW218672   2.044   3.666  10.203
 5996SOL     OW18673   2.366   3.430  10.220
 5996SOL    HW118674   2.432   3.504  10.229
 5996SOL    HW218675   2.410   3.351  10.178
 5997SOL     OW18676   2.864   2.658  10.548
 5997SOL    HW118677   2.905   2.626  10.634
 5997SOL    HW218678   2.768   2.631  10.545
 5998SOL     OW18679   1.902   2.406  10.424
 5998SOL    HW118680   1.987   2.373  10.383
 5998SOL    HW218681   1.915   2.421  10.522
 5999SOL     OW18682   2.051   2.382  11.032
 5999SOL    HW118683   2.110   2.342  10.962
 5999SOL    HW218684   1.993   2.453  10.991
 6000SOL     OW18685   3.231   2.812  10.970
 6000SOL    HW118686   3.270   2.901  10.990
 6000SOL    HW218687   3.241   2.792  10.873
 6001SOL     OW18688   2.677   2.434   9.635
 6001SOL    HW118689   2.684   2.345   9.589
 6001SOL    HW218690   2.583   2.468   9.627
 6002SOL     OW18691   3.519   2.466  10.516
 6002SOL    HW118692   3.481   2.397  10.578
 6002SOL    HW218693   3.601   2.430  10.472
 6003SOL     OW18694   2.114   3.426  11.054
 6003SOL    HW118695   2.084   3.483  11.130
 6003SOL    HW218696   2.107   3.329  11.080
 6004SOL     OW18697   2.533   2.326  10.579
 6004SOL    HW118698   2.499   2.237  10.549
 6004SOL    HW218699   2.559   2.380  10.499
 6005SOL     OW18700   2.792   3.540  10.775
 6005SOL    HW118701   2.768   3.522  10.680
 6005SOL    HW218702   2.822   3.634  10.785
 6006SOL     OW18703   2.335   2.362   9.501
 6006SOL    HW118704   2.396   2.442   9.505
 6006SOL    HW218705   2.240   2.393   9.508
 6007SOL     OW18706   2.021   2.999  10.776
 6007SOL    HW118707   2.043   2.938  10.852
 6007SOL    HW218708   2.031   2.950  10.690
 6008SOL     OW18709   3.209   2.921  10.544
 6008SOL    HW118710   3.233   2.858  10.470
 6008SOL    HW218711   3.119   2.961  10.526
 6009SOL     OW18712   3.164   2.717   9.619
 6009SOL    HW118713   3.078   2.686   9.661
 6009SOL    HW218714   3.160   2.703   9.520
 6010SOL     OW18715   3.621   3.609  10.464
 6010SOL    HW118716   3.682   3.639  10.391
 6010SOL    HW218717   3.583   3.520  10.442
 6011SOL     OW18718   3.114   3.593  10.438
 6011SOL    HW118719   3.198   3.598  10.384
 6011SOL    HW218720   3.091   3.497  10.456
 6012SOL     OW18721   1.945   3.120  10.332
 6012SOL    HW118722   1.940   3.119  10.432
 6012SOL    HW218723   1.862   3.079  10.294
 6013SOL     OW18724   2.550   3.524  11.026
 6013SOL    HW118725   2.494   3.605  11.035
 6013SOL    HW218726   2.602   3.528  10.940
 6014SOL     OW18727   3.588   1.997   9.833
 6014SOL    HW118728   3.661   1.980   9.766
 6014SOL    HW218729   3.557   1.910   9.871
 6015SOL     OW18730   3.250   3.435   9.787
 6015SOL    HW118731   3.317   3.447   9.713
 6015SOL    HW218732   3.210   3.524   9.810
 6016SOL     OW18733   1.992   3.656  11.161
 6016SOL    HW118734   1.951   3.582  11.214
 6016SOL    HW218735   2.056   3.707  11.219
 6017SOL     OW18736   3.142   2.789   9.982
 6017SOL    HW118737   3.202   2.708   9.984
 6017SOL    HW218738   3.182   2.858   9.922
 6018SOL     OW18739   2.692   3.135  10.732
 6018SOL    HW118740   2.687   3.168  10.827
 6018SOL    HW218741   2.606   3.154  10.686
 6019SOL     OW18742   2.534   3.478   9.464
 6019SOL    HW118743   2.543   3.488   9.365
 6019SOL    HW218744   2.494   3.389   9.485
 6020SOL     OW18745   3.512   3.582  10.704
 6020SOL    HW118746   3.565   3.592  10.620
 6020SOL    HW218747   3.485   3.672  10.738
 6021SOL     OW18748   3.703   2.037  10.273
 6021SOL    HW118749   3.742   1.952  10.237
 6021SOL    HW218750   3.605   2.039  10.254
 6022SOL     OW18751   3.056   3.474   9.341
 6022SOL    HW118752   3.062   3.381   9.378
 6022SOL    HW218753   2.997   3.474   9.261
 6023SOL     OW18754   2.684   2.864  10.682
 6023SOL    HW118755   2.724   2.863  10.590
 6023SOL    HW218756   2.694   2.956  10.722
 6024SOL     OW18757   2.778   2.772   9.601
 6024SOL    HW118758   2.841   2.810   9.533
 6024SOL    HW218759   2.818   2.689   9.640
 6025SOL     OW18760   3.366   3.469   9.354
 6025SOL    HW118761   3.274   3.506   9.361
 6025SOL    HW218762   3.404   3.489   9.264
 6026SOL     OW18763   2.234   3.150  10.800
 6026SOL    HW118764   2.221   3.243  10.766
 6026SOL    HW218765   2.150   3.098  10.787
 6027SOL     OW18766   3.476   3.154  10.599
 6027SOL    HW118767   3.536   3.157  10.679
 6027SOL    HW218768   3.401   3.218  10.612
 6028SOL     OW18769   2.901   2.960  10.006
 6028SOL    HW118770   2.831   2.913  10.060
 6028SOL    HW218771   2.960   2.892   9.963
 6029SOL     OW18772   2.876   2.098  10.281
 6029SOL    HW118773   2.868   2.062  10.188
 6029SOL    HW218774   2.874   2.022  10.346
 6030SOL     OW18775   2.452   3.349   9.801
 6030SOL    HW118776   2.494   3.291   9.731
 6030SOL    HW218777   2.408   3.428   9.757
 6031SOL     OW18778   3.571   2.247  10.691
 6031SOL    HW118779   3.644   2.316  10.695
 6031SOL    HW218780   3.599   2.172  10.632
 6032SOL     OW18781   2.117   3.210   9.600
 6032SOL    HW118782   2.021   3.211   9.573
 6032SOL    HW218783   2.129   3.263   9.684
 6033SOL     OW18784   1.967   2.875  11.036
 6033SOL    HW118785   1.890   2.842  11.090
 6033SOL    HW218786   2.052   2.845  11.078
 6034SOL     OW18787   2.534   2.065  10.799
 6034SOL    HW118788   2.624   2.049  10.759
 6034SOL    HW218789   2.542   2.070  10.898
 6035SOL     OW18790   3.302   2.718  10.708
 6035SOL    HW118791   3.245   2.770  10.645
 6035SOL    HW218792   3.398   2.730  10.684
 6036SOL     OW18793   3.045   3.197   9.429
 6036SOL    HW118794   2.946   3.186   9.431
 6036SOL    HW218795   3.079   3.212   9.522
 6037SOL     OW18796   2.475   2.704  10.741
 6037SOL    HW118797   2.531   2.785  10.724
 6037SOL    HW218798   2.534   2.624  10.744
 6038SOL     OW18799   3.355   3.629  10.269
 6038SOL    HW118800   3.388   3.693  10.200
 6038SOL    HW218801   3.421   3.623  10.344
 6039SOL     OW18802   2.578   2.427  11.018
 6039SOL    HW118803   2.597   2.492  11.092
 6039SOL    HW218804   2.638   2.347  11.027
 6040SOL     OW18805   3.312   3.082  10.943
 6040SOL    HW118806   3.303   3.072  11.042
 6040SOL    HW218807   3.408   3.075  10.917
 6041SOL     OW18808   2.252   3.603  10.870
 6041SOL    HW118809   2.161   3.644  10.868
 6041SOL    HW218810   2.245   3.509  10.902
 6042SOL     OW18811   3.536   2.745  10.564
 6042SOL    HW118812   3.509   2.656  10.527
 6042SOL    HW218813   3.537   2.813  10.491
 6043SOL     OW18814   3.087   2.187   9.759
 6043SOL    HW118815   3.152   2.113   9.748
 6043SOL    HW218816   3.107   2.237   9.843
 6044SOL     OW18817   2.456   2.607   9.962
 6044SOL    HW118818   2.506   2.692   9.943
 6044SOL    HW218819   2.368   2.609   9.914
 6045SOL     OW18820   3.639   2.204  10.952
 6045SOL    HW118821   3.622   2.235  10.858
 6045SOL    HW218822   3.555   2.167  10.990
 6046SOL     OW18823   3.592   2.796  10.827
 6046SOL    HW118824   3.630   2.887  10.842
 6046SOL    HW218825   3.584   2.779  10.728
 6047SOL     OW18826   2.721   3.236   9.326
 6047SOL    HW118827   2.675   3.251   9.414
 6047SOL    HW218828   2.765   3.321   9.296
 6048SOL     OW18829   2.523   3.652  10.263
 6048SOL    HW118830   2.477   3.740  10.250
 6048SOL    HW218831   2.622   3.664  10.256
 6049SOL     OW18832   2.721   2.818  10.171
 6049SOL    HW118833   2.775   2.749  10.219
 6049SOL    HW218834   2.689   2.887  10.237
 6050SOL     OW18835   2.945   2.846   9.397
 6050SOL    HW118836   2.922   2.899   9.315
 6050SOL    HW218837   3.026   2.790   9.378
 6051SOL     OW18838   3.723   3.431  10.161
 6051SOL    HW118839   3.652   3.419  10.091
 6051SOL    HW218840   3.724   3.352  10.221
 6052SOL     OW18841   2.083   3.176  11.154
 6052SOL    HW118842   2.018   3.103  11.133
 6052SOL    HW218843   2.087   3.190  11.252
 6053SOL     OW18844   1.941   3.102   9.963
 6053SOL    HW118845   1.940   3.055  10.051
 6053SOL    HW218846   2.023   3.074   9.912
 6054SOL     OW18847   2.534   3.253  10.934
 6054SOL    HW118848   2.456   3.203  10.972
 6054SOL    HW218849   2.531   3.348  10.965
 6055SOL     OW18850   3.686   2.054  10.537
 6055SOL    HW118851   3.682   1.964  10.581
 6055SOL    HW218852   3.689   2.043  10.438
 6056SOL     OW18853   2.290   2.286   9.830
 6056SOL    HW118854   2.320   2.214   9.768
 6056SOL    HW218855   2.251   2.246   9.913
 6057SOL     OW18856   3.567   3.349  10.414
 6057SOL    HW118857   3.474   3.324  10.387
 6057SOL    HW218858   3.593   3.299  10.496
 6058SOL     OW18859   2.179   2.409  10.590
 6058SOL    HW118860   2.217   2.350  10.662
 6058SOL    HW218861   2.219   2.383  10.502
 6059SOL     OW18862   2.674   3.448   9.997
 6059SOL    HW118863   2.706   3.458   9.903
 6059SOL    HW218864   2.595   3.386   9.999
 6060SOL     OW18865   3.286   2.076  10.422
 6060SOL    HW118866   3.338   2.011  10.477
 6060SOL    HW218867   3.237   2.139  10.483
 6061SOL     OW18868   2.863   1.896  10.464
 6061SOL    HW118869   2.800   1.824  10.433
 6061SOL    HW218870   2.956   1.860  10.464
 6062SOL     OW18871   2.632   3.192   9.611
 6062SOL    HW118872   2.586   3.105   9.628
 6062SOL    HW218873   2.723   3.189   9.652
 6063SOL     OW18874   2.480   3.429  10.594
 6063SOL    HW118875   2.475   3.511  10.651
 6063SOL    HW218876   2.569   3.426  10.549
 6064SOL     OW18877   3.214   1.914   9.478
 6064SOL    HW118878   3.249   1.873   9.394
 6064SOL    HW218879   3.124   1.876   9.498
 6065SOL     OW18880   3.162   2.315  10.001
 6065SOL    HW118881   3.103   2.395  10.005
 6065SOL    HW218882   3.177   2.280  10.094
 6066SOL     OW18883   3.455   2.083  10.192
 6066SOL    HW118884   3.371   2.082  10.246
 6066SOL    HW218885   3.457   2.166  10.136
 6067SOL     OW18886   1.901   2.939   9.610
 6067SOL    HW118887   2.000   2.928   9.601
 6067SOL    HW218888   1.861   2.853   9.642
 6068SOL     OW18889   2.737   3.508   9.647
 6068SOL    HW118890   2.660   3.473   9.593
 6068SOL    HW218891   2.705   3.579   9.709
 6069SOL     OW18892   2.092   2.490  11.285
 6069SOL    HW118893   1.999   2.488  11.322
 6069SOL    HW218894   2.093   2.451  11.193
 6070SOL     OW18895   1.881   2.230  11.819
 6070SOL    HW118896   1.799   2.273  11.858
 6070SOL    HW218897   1.853   2.157  11.756
 6071SOL     OW18898   2.431   3.137  12.337
 6071SOL    HW118899   2.338   3.130  12.300
 6071SOL    HW218900   2.442   3.226  12.381
 6072SOL     OW18901   3.417   3.373  11.875
 6072SOL    HW118902   3.360   3.357  11.956
 6072SOL    HW218903   3.358   3.383  11.795
 6073SOL     OW18904   2.997   2.565  11.889
 6073SOL    HW118905   3.054   2.643  11.864
 6073SOL    HW218906   2.937   2.591  11.965
 6074SOL     OW18907   3.617   2.469  11.403
 6074SOL    HW118908   3.605   2.456  11.304
 6074SOL    HW218909   3.587   2.388  11.452
 6075SOL     OW18910   2.630   3.006  12.195
 6075SOL    HW118911   2.552   3.023  12.255
 6075SOL    HW218912   2.664   3.093  12.159
 6076SOL     OW18913   2.712   2.660  12.995
 6076SOL    HW118914   2.708   2.736  13.060
 6076SOL    HW218915   2.734   2.696  12.904
 6077SOL     OW18916   2.547   2.874  11.837
 6077SOL    HW118917   2.616   2.858  11.907
 6077SOL    HW218918   2.474   2.931  11.875
 6078SOL     OW18919   2.548   3.023  12.975
 6078SOL    HW118920   2.608   3.102  12.989
 6078SOL    HW218921   2.462   3.054  12.934
 6079SOL     OW18922   2.197   3.297  12.233
 6079SOL    HW118923   2.119   3.266  12.180
 6079SOL    HW218924   2.255   3.355  12.176
 6080SOL     OW18925   3.322   3.367  12.511
 6080SOL    HW118926   3.346   3.461  12.537
 6080SOL    HW218927   3.306   3.313  12.593
 6081SOL     OW18928   2.300   2.254  12.671
 6081SOL    HW118929   2.382   2.198  12.680
 6081SOL    HW218930   2.219   2.196  12.675
 6082SOL     OW18931   3.465   2.309  11.909
 6082SOL    HW118932   3.391   2.355  11.859
 6082SOL    HW218933   3.516   2.377  11.962
 6083SOL     OW18934   2.093   3.575  11.655
 6083SOL    HW118935   2.127   3.652  11.709
 6083SOL    HW218936   2.137   3.575  11.565
 6084SOL     OW18937   2.989   3.203  12.862
 6084SOL    HW118938   3.036   3.203  12.950
 6084SOL    HW218939   2.941   3.116  12.851
 6085SOL     OW18940   2.092   3.296  11.710
 6085SOL    HW118941   2.066   3.392  11.710
 6085SOL    HW218942   2.021   3.242  11.755
 6086SOL     OW18943   2.102   2.953  12.058
 6086SOL    HW118944   2.116   2.869  12.110
 6086SOL    HW218945   2.047   3.017  12.113
 6087SOL     OW18946   2.482   3.648  12.611
 6087SOL    HW118947   2.390   3.631  12.646
 6087SOL    HW218948   2.510   3.740  12.637
 6088SOL     OW18949   2.468   2.826  11.295
 6088SOL    HW118950   2.475   2.910  11.241
 6088SOL    HW218951   2.514   2.839  11.383
 6089SOL     OW18952   3.456   1.976  12.652
 6089SOL    HW118953   3.438   2.043  12.580
 6089SOL    HW218954   3.453   2.022  12.741
 6090SOL     OW18955   1.984   2.505  11.735
 6090SOL    HW118956   1.939   2.417  11.752
 6090SOL    HW218957   1.983   2.559  11.819
 6091SOL     OW18958   3.704   3.629  11.531
 6091SOL    HW118959   3.758   3.600  11.611
 6091SOL    HW218960   3.734   3.719  11.502
 6092SOL     OW18961   1.889   3.458  11.289
 6092SOL    HW118962   1.870   3.362  11.310
 6092SOL    HW218963   1.856   3.516  11.364
 6093SOL     OW18964   3.551   2.784  11.784
 6093SOL    HW118965   3.646   2.755  11.792
 6093SOL    HW218966   3.543   2.849  11.709
 6094SOL     OW18967   3.503   2.970  11.604
 6094SOL    HW118968   3.589   2.972  11.552
 6094SOL    HW218969   3.517   3.017  11.692
 6095SOL     OW18970   1.975   2.599  12.769
 6095SOL    HW118971   2.063   2.586  12.814
 6095SOL    HW218972   1.962   2.696  12.747
 6096SOL     OW18973   2.475   3.227  11.898
 6096SOL    HW118974   2.426   3.140  11.907
 6096SOL    HW218975   2.452   3.270  11.811
 6097SOL     OW18976   3.155   3.090  12.595
 6097SOL    HW118977   3.192   3.017  12.537
 6097SOL    HW218978   3.207   3.095  12.680
 6098SOL     OW18979   2.671   1.866  11.674
 6098SOL    HW118980   2.711   1.957  11.665
 6098SOL    HW218981   2.571   1.874  11.680
 6099SOL     OW18982   2.059   2.838  12.436
 6099SOL    HW118983   2.148   2.793  12.422
 6099SOL    HW218984   1.986   2.773  12.417
 6100SOL     OW18985   3.387   2.861  11.362
 6100SOL    HW118986   3.324   2.785  11.375
 6100SOL    HW218987   3.435   2.879  11.448
 6101SOL     OW18988   3.049   3.654  12.788
 6101SOL    HW118989   3.073   3.714  12.712
 6101SOL    HW218990   3.056   3.559  12.758
 6102SOL     OW18991   2.179   2.113  12.973
 6102SOL    HW118992   2.250   2.184  12.979
 6102SOL    HW218993   2.091   2.152  13.001
 6103SOL     OW18994   3.328   3.279  12.125
 6103SOL    HW118995   3.269   3.285  12.205
 6103SOL    HW218996   3.313   3.191  12.079
 6104SOL     OW18997   3.529   3.576  11.744
 6104SOL    HW118998   3.488   3.553  11.656
 6104SOL    HW218999   3.511   3.502  11.809
 6105SOL     OW19000   2.460   2.591  11.442
 6105SOL    HW119001   2.484   2.660  11.374
 6105SOL    HW219002   2.382   2.624  11.496
 6106SOL     OW19003   3.143   2.207  12.116
 6106SOL    HW119004   3.057   2.157  12.103
 6106SOL    HW219005   3.205   2.153  12.172
 6107SOL     OW19006   3.438   3.524  11.479
 6107SOL    HW119007   3.527   3.570  11.482
 6107SOL    HW219008   3.417   3.500  11.384
 6108SOL     OW19009   2.669   2.467  12.637
 6108SOL    HW119010   2.622   2.464  12.726
 6108SOL    HW219011   2.618   2.412  12.571
 6109SOL     OW19012   3.256   2.331  12.846
 6109SOL    HW119013   3.236   2.374  12.934
 6109SOL    HW219014   3.334   2.269  12.855
 6110SOL     OW19015   2.835   2.752  12.744
 6110SOL    HW119016   2.881   2.668  12.715
 6110SOL    HW219017   2.779   2.786  12.669
 6111SOL     OW19018   2.853   2.272  12.414
 6111SOL    HW119019   2.776   2.306  12.468
 6111SOL    HW219020   2.819   2.221  12.335
 6112SOL     OW19021   2.903   2.563  11.601
 6112SOL    HW119022   2.929   2.559  11.697
 6112SOL    HW219023   2.818   2.512  11.587
 6113SOL     OW19024   1.938   2.673  11.961
 6113SOL    HW119025   2.037   2.661  11.970
 6113SOL    HW219026   1.914   2.768  11.982
 6114SOL     OW19027   1.992   3.683  12.743
 6114SOL    HW119028   1.982   3.668  12.842
 6114SOL    HW219029   1.906   3.719  12.707
 6115SOL     OW19030   2.727   2.210  11.367
 6115SOL    HW119031   2.786   2.273  11.318
 6115SOL    HW219032   2.746   2.116  11.338
 6116SOL     OW19033   3.581   2.447  13.003
 6116SOL    HW119034   3.555   2.536  12.967
 6116SOL    HW219035   3.579   2.379  12.930
 6117SOL     OW19036   3.224   3.006  11.717
 6117SOL    HW119037   3.307   2.977  11.669
 6117SOL    HW219038   3.175   3.073  11.661
 6118SOL     OW19039   2.412   2.058  12.057
 6118SOL    HW119040   2.407   2.053  12.157
 6118SOL    HW219041   2.414   2.154  12.028
 6119SOL     OW19042   2.870   3.318  11.649
 6119SOL    HW119043   2.824   3.390  11.597
 6119SOL    HW219044   2.866   3.338  11.747
 6120SOL     OW19045   2.213   3.663  12.025
 6120SOL    HW119046   2.263   3.577  12.031
 6120SOL    HW219047   2.278   3.740  12.022
 6121SOL     OW19048   3.657   2.928  12.045
 6121SOL    HW119049   3.595   2.913  11.969
 6121SOL    HW219050   3.605   2.939  12.130
 6122SOL     OW19051   3.089   3.412  12.678
 6122SOL    HW119052   3.095   3.335  12.742
 6122SOL    HW219053   3.037   3.386  12.598
 6123SOL     OW19054   2.183   2.805  11.414
 6123SOL    HW119055   2.265   2.844  11.372
 6123SOL    HW219056   2.156   2.723  11.365
 6124SOL     OW19057   3.320   2.597  11.900
 6124SOL    HW119058   3.315   2.532  11.975
 6124SOL    HW219059   3.400   2.656  11.913
 6125SOL     OW19060   2.323   3.128  12.899
 6125SOL    HW119061   2.273   3.129  12.813
 6125SOL    HW219062   2.260   3.110  12.975
 6126SOL     OW19063   2.973   3.638  11.409
 6126SOL    HW119064   2.913   3.576  11.459
 6126SOL    HW219065   3.004   3.594  11.324
 6127SOL     OW19066   3.494   3.239  11.253
 6127SOL    HW119067   3.462   3.333  11.243
 6127SOL    HW219068   3.418   3.176  11.241
 6128SOL     OW19069   2.326   3.605  11.495
 6128SOL    HW119070   2.359   3.644  11.581
 6128SOL    HW219071   2.402   3.598  11.430
 6129SOL     OW19072   3.262   1.969  11.598
 6129SOL    HW119073   3.238   1.932  11.508
 6129SOL    HW219074   3.361   1.985  11.602
 6130SOL     OW19075   2.111   3.647  12.413
 6130SOL    HW119076   2.168   3.582  12.463
 6130SOL    HW219077   2.095   3.614  12.320
 6131SOL     OW19078   2.802   3.560  12.076
 6131SOL    HW119079   2.882   3.503  12.097
 6131SOL    HW219080   2.753   3.520  11.999
 6132SOL     OW19081   2.244   2.562  11.652
 6132SOL    HW119082   2.289   2.472  11.649
 6132SOL    HW219083   2.150   2.551  11.685
 6133SOL     OW19084   3.409   2.084  12.901
 6133SOL    HW119085   3.404   2.121  12.993
 6133SOL    HW219086   3.337   2.015  12.889
 6134SOL     OW19087   2.476   1.984  11.289
 6134SOL    HW119088   2.574   1.962  11.296
 6134SOL    HW219089   2.445   1.967  11.196
 6135SOL     OW19090   2.643   2.126  12.921
 6135SOL    HW119091   2.710   2.065  12.964
 6135SOL    HW219092   2.570   2.145  12.986
 6136SOL     OW19093   2.750   3.376  12.367
 6136SOL    HW119094   2.727   3.351  12.273
 6136SOL    HW219095   2.811   3.307  12.406
 6137SOL     OW19096   3.213   2.452  12.605
 6137SOL    HW119097   3.241   2.409  12.690
 6137SOL    HW219098   3.238   2.548  12.606
 6138SOL     OW19099   2.665   3.264  12.096
 6138SOL    HW119100   2.755   3.278  12.054
 6138SOL    HW219101   2.594   3.266  12.025
 6139SOL     OW19102   2.784   2.365  12.071
 6139SOL    HW119103   2.759   2.356  11.975
 6139SOL    HW219104   2.832   2.283  12.102
 6140SOL     OW19105   2.401   1.926  11.684
 6140SOL    HW119106   2.320   1.927  11.742
 6140SOL    HW219107   2.404   2.009  11.629
 6141SOL     OW19108   3.296   3.050  11.213
 6141SOL    HW119109   3.328   2.974  11.270
 6141SOL    HW219110   3.204   3.077  11.243
 6142SOL     OW19111   2.797   2.098  11.652
 6142SOL    HW119112   2.749   2.139  11.574
 6142SOL    HW219113   2.896   2.096  11.633
 6143SOL     OW19114   2.938   2.545  12.636
 6143SOL    HW119115   2.858   2.484  12.639
 6143SOL    HW219116   3.019   2.492  12.612
 6144SOL     OW19117   3.089   3.432  11.965
 6144SOL    HW119118   3.110   3.506  11.900
 6144SOL    HW219119   3.157   3.432  12.038
 6145SOL     OW19120   2.321   3.014  11.913
 6145SOL    HW119121   2.250   2.987  11.978
 6145SOL    HW219122   2.295   2.986  11.820
 6146SOL     OW19123   3.133   3.659  11.763
 6146SOL    HW119124   3.177   3.723  11.699
 6146SOL    HW219125   3.083   3.711  11.833
 6147SOL     OW19126   2.894   2.411  11.188
 6147SOL    HW119127   2.853   2.493  11.149
 6147SOL    HW219128   2.958   2.437  11.261
 6148SOL     OW19129   1.940   2.418  12.558
 6148SOL    HW119130   2.032   2.417  12.517
 6148SOL    HW219131   1.934   2.492  12.625
 6149SOL     OW19132   2.423   2.084  12.319
 6149SOL    HW119133   2.461   2.000  12.356
 6149SOL    HW219134   2.335   2.103  12.363
 6150SOL     OW19135   2.728   2.316  11.814
 6150SOL    HW119136   2.696   2.388  11.752
 6150SOL    HW219137   2.752   2.235  11.761
 6151SOL     OW19138   2.879   1.901  11.925
 6151SOL    HW119139   2.807   1.906  11.856
 6151SOL    HW219140   2.855   1.832  11.994
 6152SOL     OW19141   3.291   3.035  12.039
 6152SOL    HW119142   3.236   2.951  12.032
 6152SOL    HW219143   3.317   3.064  11.947
 6153SOL     OW19144   3.328   2.452  12.164
 6153SOL    HW119145   3.298   2.357  12.171
 6153SOL    HW219146   3.401   2.468  12.230
 6154SOL     OW19147   3.719   2.695  11.549
 6154SOL    HW119148   3.761   2.631  11.613
 6154SOL    HW219149   3.681   2.644  11.471
 6155SOL     OW19150   2.350   3.247  11.346
 6155SOL    HW119151   2.263   3.232  11.393
 6155SOL    HW219152   2.333   3.273  11.251
 6156SOL     OW19153   3.526   3.142  11.829
 6156SOL    HW119154   3.625   3.150  11.843
 6156SOL    HW219155   3.481   3.226  11.860
 6157SOL     OW19156   3.252   2.437  11.250
 6157SOL    HW119157   3.198   2.416  11.331
 6157SOL    HW219158   3.343   2.396  11.259
 6158SOL     OW19159   2.389   2.118  11.500
 6158SOL    HW119160   2.416   2.059  11.425
 6158SOL    HW219161   2.389   2.213  11.469
 6159SOL     OW19162   3.616   3.085  12.760
 6159SOL    HW119163   3.707   3.046  12.747
 6159SOL    HW219164   3.624   3.181  12.784
 6160SOL     OW19165   2.926   3.209  12.512
 6160SOL    HW119166   2.846   3.186  12.567
 6160SOL    HW219167   3.009   3.183  12.561
 6161SOL     OW19168   3.454   3.491  12.797
 6161SOL    HW119169   3.481   3.525  12.707
 6161SOL    HW219170   3.533   3.453  12.843
 6162SOL     OW19171   2.973   3.057  12.272
 6162SOL    HW119172   2.933   3.101  12.353
 6162SOL    HW219173   2.932   3.094  12.189
 6163SOL     OW19174   3.500   2.961  12.251
 6163SOL    HW119175   3.505   3.042  12.310
 6163SOL    HW219176   3.414   2.963  12.200
 6164SOL     OW19177   2.777   1.951  12.574
 6164SOL    HW119178   2.802   1.931  12.479
 6164SOL    HW219179   2.849   2.007  12.616
 6165SOL     OW19180   2.842   2.978  12.891
 6165SOL    HW119181   2.743   2.984  12.901
 6165SOL    HW219182   2.865   2.898  12.835
 6166SOL     OW19183   2.567   2.912  11.540
 6166SOL    HW119184   2.553   2.919  11.639
 6166SOL    HW219185   2.651   2.861  11.522
 6167SOL     OW19186   2.272   2.675  12.423
 6167SOL    HW119187   2.358   2.687  12.473
 6167SOL    HW219188   2.230   2.588  12.450
 6168SOL     OW19189   3.136   2.248  12.434
 6168SOL    HW119190   3.157   2.322  12.498
 6168SOL    HW219191   3.047   2.265  12.391
 6169SOL     OW19192   1.926   3.426  12.503
 6169SOL    HW119193   1.880   3.508  12.469
 6169SOL    HW219194   2.024   3.445  12.512
 6170SOL     OW19195   2.229   2.962  11.673
 6170SOL    HW119196   2.222   3.045  11.617
 6170SOL    HW219197   2.233   2.882  11.613
 6171SOL     OW19198   2.428   2.399  12.037
 6171SOL    HW119199   2.440   2.465  11.963
 6171SOL    HW219200   2.474   2.433  12.120
 6172SOL     OW19201   3.114   3.210  11.560
 6172SOL    HW119202   3.164   3.287  11.600
 6172SOL    HW219203   3.019   3.212  11.592
 6173SOL     OW19204   3.134   3.307  12.314
 6173SOL    HW119205   3.181   3.320  12.401
 6173SOL    HW219206   3.068   3.233  12.323
 6174SOL     OW19207   3.444   2.501  11.644
 6174SOL    HW119208   3.413   2.562  11.717
 6174SOL    HW219209   3.494   2.553  11.575
 6175SOL     OW19210   2.216   3.372  12.501
 6175SOL    HW119211   2.195   3.328  12.414
 6175SOL    HW219212   2.313   3.398  12.504
 6176SOL     OW19213   2.264   2.613  12.770
 6176SOL    HW119214   2.332   2.668  12.723
 6176SOL    HW219215   2.304   2.525  12.797
 6177SOL     OW19216   3.449   2.641  12.842
 6177SOL    HW119217   3.357   2.679  12.837
 6177SOL    HW219218   3.509   2.688  12.777
 6178SOL     OW19219   2.875   1.967  12.942
 6178SOL    HW119220   2.881   2.052  12.890
 6178SOL    HW219221   2.907   1.891  12.885
 6179SOL     OW19222   2.366   1.912  12.912
 6179SOL    HW119223   2.324   1.855  12.842
 6179SOL    HW219224   2.300   1.981  12.944
 6180SOL     OW19225   2.435   2.732  12.201
 6180SOL    HW119226   2.479   2.821  12.192
 6180SOL    HW219227   2.372   2.732  12.278
 6181SOL     OW19228   3.222   2.724  12.217
 6181SOL    HW119229   3.147   2.724  12.151
 6181SOL    HW219230   3.259   2.632  12.226
 6182SOL     OW19231   3.071   2.387  11.447
 6182SOL    HW119232   3.084   2.303  11.501
 6182SOL    HW219233   3.042   2.461  11.507
 6183SOL     OW19234   1.899   3.172  12.454
 6183SOL    HW119235   1.952   3.123  12.522
 6183SOL    HW219236   1.921   3.270  12.459
 6184SOL     OW19237   2.594   2.496  12.236
 6184SOL    HW119238   2.653   2.470  12.160
 6184SOL    HW219239   2.566   2.592  12.225
 6185SOL     OW19240   3.590   2.797  13.026
 6185SOL    HW119241   3.544   2.790  12.937
 6185SOL    HW219242   3.528   2.841  13.092
 6186SOL     OW19243   3.484   2.229  11.546
 6186SOL    HW119244   3.486   2.153  11.610
 6186SOL    HW219245   3.436   2.306  11.586
 6187SOL     OW19246   2.885   2.628  12.138
 6187SOL    HW119247   2.900   2.649  12.234
 6187SOL    HW219248   2.855   2.533  12.129
 6188SOL     OW19249   2.842   3.435  12.872
 6188SOL    HW119250   2.822   3.479  12.784
 6188SOL    HW219251   2.881   3.344  12.856
 6189SOL     OW19252   3.721   3.380  12.777
 6189SOL    HW119253   3.735   3.407  12.682
 6189SOL    HW219254   3.804   3.402  12.830
 6190SOL     OW19255   2.212   2.760  12.976
 6190SOL    HW119256   2.288   2.804  13.024
 6190SOL    HW219257   2.247   2.713  12.894
 6191SOL     OW19258   3.402   2.136  11.297
 6191SOL    HW119259   3.341   2.061  11.320
 6191SOL    HW219260   3.424   2.188  11.380
 6192SOL     OW19261   3.165   2.700  11.214
 6192SOL    HW119262   3.199   2.607  11.229
 6192SOL    HW219263   3.183   2.727  11.119
 6193SOL     OW19264   2.930   3.195  12.021
 6193SOL    HW119265   2.937   3.111  11.966
 6193SOL    HW219266   2.992   3.264  11.985
 6194SOL     OW19267   2.181   2.672  12.121
 6194SOL    HW119268   2.274   2.708  12.126
 6194SOL    HW219269   2.175   2.587  12.173
 6195SOL     OW19270   2.201   2.371  12.178
 6195SOL    HW119271   2.149   2.288  12.161
 6195SOL    HW219272   2.278   2.376  12.114
 6196SOL     OW19273   3.000   2.242  12.850
 6196SOL    HW119274   2.955   2.305  12.914
 6196SOL    HW219275   3.093   2.273  12.833
 6197SOL     OW19276   3.022   2.069  12.649
 6197SOL    HW119277   3.022   2.133  12.726
 6197SOL    HW219278   3.050   2.117  12.566
 6198SOL     OW19279   1.870   3.188  11.372
 6198SOL    HW119280   1.777   3.209  11.341
 6198SOL    HW219281   1.880   3.089  11.385
 6199SOL     OW19282   1.950   3.663  12.099
 6199SOL    HW119283   1.908   3.577  12.072
 6199SOL    HW219284   2.044   3.666  12.065
 6200SOL     OW19285   2.366   3.430  12.082
 6200SOL    HW119286   2.432   3.504  12.091
 6200SOL    HW219287   2.410   3.351  12.040
 6201SOL     OW19288   2.864   2.658  12.410
 6201SOL    HW119289   2.905   2.626  12.496
 6201SOL    HW219290   2.768   2.631  12.407
 6202SOL     OW19291   1.902   2.406  12.286
 6202SOL    HW119292   1.987   2.373  12.245
 6202SOL    HW219293   1.915   2.421  12.384
 6203SOL     OW19294   2.051   2.382  12.894
 6203SOL    HW119295   2.110   2.342  12.824
 6203SOL    HW219296   1.993   2.453  12.853
 6204SOL     OW19297   3.231   2.812  12.832
 6204SOL    HW119298   3.270   2.901  12.852
 6204SOL    HW219299   3.241   2.792  12.735
 6205SOL     OW19300   2.677   2.434  11.497
 6205SOL    HW119301   2.684   2.345  11.451
 6205SOL    HW219302   2.583   2.468  11.489
 6206SOL     OW19303   3.519   2.466  12.378
 6206SOL    HW119304   3.481   2.397  12.440
 6206SOL    HW219305   3.601   2.430  12.334
 6207SOL     OW19306   2.114   3.426  12.916
 6207SOL    HW119307   2.084   3.483  12.992
 6207SOL    HW219308   2.107   3.329  12.942
 6208SOL     OW19309   2.533   2.326  12.441
 6208SOL    HW119310   2.499   2.237  12.411
 6208SOL    HW219311   2.559   2.380  12.361
 6209SOL     OW19312   2.792   3.540  12.637
 6209SOL    HW119313   2.768   3.522  12.542
 6209SOL    HW219314   2.822   3.634  12.647
 6210SOL     OW19315   2.335   2.362  11.363
 6210SOL    HW119316   2.396   2.442  11.367
 6210SOL    HW219317   2.240   2.393  11.370
 6211SOL     OW19318   2.021   2.999  12.638
 6211SOL    HW119319   2.043   2.938  12.714
 6211SOL    HW219320   2.031   2.950  12.552
 6212SOL     OW19321   3.209   2.921  12.406
 6212SOL    HW119322   3.233   2.858  12.332
 6212SOL    HW219323   3.119   2.961  12.388
 6213SOL     OW19324   3.164   2.717  11.481
 6213SOL    HW119325   3.078   2.686  11.523
 6213SOL    HW219326   3.160   2.703  11.382
 6214SOL     OW19327   3.621   3.609  12.326
 6214SOL    HW119328   3.682   3.639  12.253
 6214SOL    HW219329   3.583   3.520  12.304
 6215SOL     OW19330   3.114   3.593  12.300
 6215SOL    HW119331   3.198   3.598  12.246
 6215SOL    HW219332   3.091   3.497  12.318
 6216SOL     OW19333   1.945   3.120  12.194
 6216SOL    HW119334   1.940   3.119  12.294
 6216SOL    HW219335   1.862   3.079  12.156
 6217SOL     OW19336   2.550   3.524  12.888
 6217SOL    HW119337   2.494   3.605  12.897
 6217SOL    HW219338   2.602   3.528  12.802
 6218SOL     OW19339   3.588   1.997  11.695
 6218SOL    HW119340   3.661   1.980  11.628
 6218SOL    HW219341   3.557   1.910  11.733
 6219SOL     OW19342   3.250   3.435  11.649
 6219SOL    HW119343   3.317   3.447  11.575
 6219SOL    HW219344   3.210   3.524  11.672
 6220SOL     OW19345   1.992   3.656  13.023
 6220SOL    HW119346   1.951   3.582  13.076
 6220SOL    HW219347   2.056   3.707  13.081
 6221SOL     OW19348   3.142   2.789  11.844
 6221SOL    HW119349   3.202   2.708  11.846
 6221SOL    HW219350   3.182   2.858  11.784
 6222SOL     OW19351   2.692   3.135  12.594
 6222SOL    HW119352   2.687   3.168  12.689
 6222SOL    HW219353   2.606   3.154  12.548
 6223SOL     OW19354   2.534   3.478  11.326
 6223SOL    HW119355   2.543   3.488  11.227
 6223SOL    HW219356   2.494   3.389  11.347
 6224SOL     OW19357   3.512   3.582  12.566
 6224SOL    HW119358   3.565   3.592  12.482
 6224SOL    HW219359   3.485   3.672  12.600
 6225SOL     OW19360   3.703   2.037  12.135
 6225SOL    HW119361   3.742   1.952  12.099
 6225SOL    HW219362   3.605   2.039  12.116
 6226SOL     OW19363   3.056   3.474  11.203
 6226SOL    HW119364   3.062   3.381  11.240
 6226SOL    HW219365   2.997   3.474  11.123
 6227SOL     OW19366   2.684   2.864  12.544
 6227SOL    HW119367   2.724   2.863  12.452
 6227SOL    HW219368   2.694   2.956  12.584
 6228SOL     OW19369   2.778   2.772  11.463
 6228SOL    HW119370   2.841   2.810  11.395
 6228SOL    HW219371   2.818   2.689  11.502
 6229SOL     OW19372   3.366   3.469  11.216
 6229SOL    HW119373   3.274   3.506  11.223
 6229SOL    HW219374   3.404   3.489  11.126
 6230SOL     OW19375   2.234   3.150  12.662
 6230SOL    HW119376   2.221   3.243  12.628
 6230SOL    HW219377   2.150   3.098  12.649
 6231SOL     OW19378   3.476   3.154  12.461
 6231SOL    HW119379   3.536   3.157  12.541
 6231SOL    HW219380   3.401   3.218  12.474
 6232SOL     OW19381   2.901   2.960  11.868
 6232SOL    HW119382   2.831   2.913  11.922
 6232SOL    HW219383   2.960   2.892  11.825
 6233SOL     OW19384   2.876   2.098  12.143
 6233SOL    HW119385   2.868   2.062  12.050
 6233SOL    HW219386   2.874   2.022  12.208
 6234SOL     OW19387   2.452   3.349  11.663
 6234SOL    HW119388   2.494   3.291  11.593
 6234SOL    HW219389   2.408   3.428  11.619
 6235SOL     OW19390   3.571   2.247  12.553
 6235SOL    HW119391   3.644   2.316  12.557
 6235SOL    HW219392   3.599   2.172  12.494
 6236SOL     OW19393   2.117   3.210  11.462
 6236SOL    HW119394   2.021   3.211  11.435
 6236SOL    HW219395   2.129   3.263  11.546
 6237SOL     OW19396   1.967   2.875  12.898
 6237SOL    HW119397   1.890   2.842  12.952
 6237SOL    HW219398   2.052   2.845  12.940
 6238SOL     OW19399   2.534   2.065  12.661
 6238SOL    HW119400   2.624   2.049  12.621
 6238SOL    HW219401   2.542   2.070  12.760
 6239SOL     OW19402   3.302   2.718  12.570
 6239SOL    HW119403   3.245   2.770  12.507
 6239SOL    HW219404   3.398   2.730  12.546
 6240SOL     OW19405   3.045   3.197  11.291
 6240SOL    HW119406   2.946   3.186  11.293
 6240SOL    HW219407   3.079   3.212  11.384
 6241SOL     OW19408   2.475   2.704  12.603
 6241SOL    HW119409   2.531   2.785  12.586
 6241SOL    HW219410   2.534   2.624  12.606
 6242SOL     OW19411   3.355   3.629  12.131
 6242SOL    HW119412   3.388   3.693  12.062
 6242SOL    HW219413   3.421   3.623  12.206
 6243SOL     OW19414   2.578   2.427  12.880
 6243SOL    HW119415   2.597   2.492  12.954
 6243SOL    HW219416   2.638   2.347  12.889
 6244SOL     OW19417   3.312   3.082  12.805
 6244SOL    HW119418   3.303   3.072  12.904
 6244SOL    HW219419   3.408   3.075  12.779
 6245SOL     OW19420   2.252   3.603  12.732
 6245SOL    HW119421   2.161   3.644  12.730
 6245SOL    HW219422   2.245   3.509  12.764
 6246SOL     OW19423   3.536   2.745  12.426
 6246SOL    HW119424   3.509   2.656  12.389
 6246SOL    HW219425   3.537   2.813  12.353
 6247SOL     OW19426   3.087   2.187  11.621
 6247SOL    HW119427   3.152   2.113  11.610
 6247SOL    HW219428   3.107   2.237  11.705
 6248SOL     OW19429   2.456   2.607  11.824
 6248SOL    HW119430   2.506   2.692  11.805
 6248SOL    HW219431   2.368   2.609  11.776
 6249SOL     OW19432   3.639   2.204  12.814
 6249SOL    HW119433   3.622   2.235  12.720
 6249SOL    HW219434   3.555   2.167  12.852
 6250SOL     OW19435   3.592   2.796  12.689
 6250SOL    HW119436   3.630   2.887  12.704
 6250SOL    HW219437   3.584   2.779  12.590
 6251SOL     OW19438   2.721   3.236  11.188
 6251SOL    HW119439   2.675   3.251  11.276
 6251SOL    HW219440   2.765   3.321  11.158
 6252SOL     OW19441   2.523   3.652  12.125
 6252SOL    HW119442   2.477   3.740  12.112
 6252SOL    HW219443   2.622   3.664  12.118
 6253SOL     OW19444   2.721   2.818  12.033
 6253SOL    HW119445   2.775   2.749  12.081
 6253SOL    HW219446   2.689   2.887  12.099
 6254SOL     OW19447   2.945   2.846  11.259
 6254SOL    HW119448   2.922   2.899  11.177
 6254SOL    HW219449   3.026   2.790  11.240
 6255SOL     OW19450   3.723   3.431  12.023
 6255SOL    HW119451   3.652   3.419  11.953
 6255SOL    HW219452   3.724   3.352  12.083
 6256SOL     OW19453   2.083   3.176  13.016
 6256SOL    HW119454   2.018   3.103  12.995
 6256SOL    HW219455   2.087   3.190  13.114
 6257SOL     OW19456   1.941   3.102  11.825
 6257SOL    HW119457   1.940   3.055  11.913
 6257SOL    HW219458   2.023   3.074  11.774
 6258SOL     OW19459   2.534   3.253  12.796
 6258SOL    HW119460   2.456   3.203  12.834
 6258SOL    HW219461   2.531   3.348  12.827
 6259SOL     OW19462   3.686   2.054  12.399
 6259SOL    HW119463   3.682   1.964  12.443
 6259SOL    HW219464   3.689   2.043  12.300
 6260SOL     OW19465   2.290   2.286  11.692
 6260SOL    HW119466   2.320   2.214  11.630
 6260SOL    HW219467   2.251   2.246  11.775
 6261SOL     OW19468   3.567   3.349  12.276
 6261SOL    HW119469   3.474   3.324  12.249
 6261SOL    HW219470   3.593   3.299  12.358
 6262SOL     OW19471   2.179   2.409  12.452
 6262SOL    HW119472   2.217   2.350  12.524
 6262SOL    HW219473   2.219   2.383  12.364
 6263SOL     OW19474   2.674   3.448  11.859
 6263SOL    HW119475   2.706   3.458  11.765
 6263SOL    HW219476   2.595   3.386  11.861
 6264SOL     OW19477   3.286   2.076  12.284
 6264SOL    HW119478   3.338   2.011  12.339
 6264SOL    HW219479   3.237   2.139  12.345
 6265SOL     OW19480   2.863   1.896  12.326
 6265SOL    HW119481   2.800   1.824  12.295
 6265SOL    HW219482   2.956   1.860  12.326
 6266SOL     OW19483   2.632   3.192  11.473
 6266SOL    HW119484   2.586   3.105  11.490
 6266SOL    HW219485   2.723   3.189  11.514
 6267SOL     OW19486   2.480   3.429  12.456
 6267SOL    HW119487   2.475   3.511  12.513
 6267SOL    HW219488   2.569   3.426  12.411
 6268SOL     OW19489   3.214   1.914  11.340
 6268SOL    HW119490   3.249   1.873  11.256
 6268SOL    HW219491   3.124   1.876  11.360
 6269SOL     OW19492   3.162   2.315  11.863
 6269SOL    HW119493   3.103   2.395  11.867
 6269SOL    HW219494   3.177   2.280  11.956
 6270SOL     OW19495   3.455   2.083  12.054
 6270SOL    HW119496   3.371   2.082  12.108
 6270SOL    HW219497   3.457   2.166  11.998
 6271SOL     OW19498   1.901   2.939  11.472
 6271SOL    HW119499   2.000   2.928  11.463
 6271SOL    HW219500   1.861   2.853  11.504
 6272SOL     OW19501   2.737   3.508  11.509
 6272SOL    HW119502   2.660   3.473  11.455
 6272SOL    HW219503   2.705   3.579  11.571
 6273SOL     OW19504   2.092   2.490  13.147
 6273SOL    HW119505   1.999   2.488  13.184
 6273SOL    HW219506   2.093   2.451  13.055
 6274SOL     OW19507   1.881   2.230  13.681
 6274SOL    HW119508   1.799   2.273  13.720
 6274SOL    HW219509   1.853   2.157  13.618
 6275SOL     OW19510   3.417   3.373  13.737
 6275SOL    HW119511   3.360   3.357  13.818
 6275SOL    HW219512   3.358   3.383  13.657
 6276SOL     OW19513   2.997   2.565  13.751
 6276SOL    HW119514   3.054   2.643  13.726
 6276SOL    HW219515   2.937   2.591  13.827
 6277SOL     OW19516   3.617   2.469  13.265
 6277SOL    HW119517   3.605   2.456  13.166
 6277SOL    HW219518   3.587   2.388  13.314
 6278SOL     OW19519   2.547   2.874  13.699
 6278SOL    HW119520   2.616   2.858  13.769
 6278SOL    HW219521   2.474   2.931  13.737
 6279SOL     OW19522   3.465   2.309  13.771
 6279SOL    HW119523   3.391   2.355  13.721
 6279SOL    HW219524   3.516   2.377  13.824
 6280SOL     OW19525   2.093   3.575  13.517
 6280SOL    HW119526   2.127   3.652  13.571
 6280SOL    HW219527   2.137   3.575  13.427
 6281SOL     OW19528   2.092   3.296  13.572
 6281SOL    HW119529   2.066   3.392  13.572
 6281SOL    HW219530   2.021   3.242  13.617
 6282SOL     OW19531   2.102   2.953  13.920
 6282SOL    HW119532   2.116   2.869  13.972
 6282SOL    HW219533   2.047   3.017  13.975
 6283SOL     OW19534   2.468   2.826  13.157
 6283SOL    HW119535   2.475   2.910  13.103
 6283SOL    HW219536   2.514   2.839  13.245
 6284SOL     OW19537   1.984   2.505  13.597
 6284SOL    HW119538   1.939   2.417  13.614
 6284SOL    HW219539   1.983   2.559  13.681
 6285SOL     OW19540   3.704   3.629  13.393
 6285SOL    HW119541   3.758   3.600  13.473
 6285SOL    HW219542   3.734   3.719  13.364
 6286SOL     OW19543   1.889   3.458  13.151
 6286SOL    HW119544   1.870   3.362  13.172
 6286SOL    HW219545   1.856   3.516  13.226
 6287SOL     OW19546   3.551   2.784  13.646
 6287SOL    HW119547   3.646   2.755  13.654
 6287SOL    HW219548   3.543   2.849  13.571
 6288SOL     OW19549   3.503   2.970  13.466
 6288SOL    HW119550   3.589   2.972  13.414
 6288SOL    HW219551   3.517   3.017  13.554
 6289SOL     OW19552   2.475   3.227  13.760
 6289SOL    HW119553   2.426   3.140  13.769
 6289SOL    HW219554   2.452   3.270  13.673
 6290SOL     OW19555   2.671   1.866  13.536
 6290SOL    HW119556   2.711   1.957  13.527
 6290SOL    HW219557   2.571   1.874  13.542
 6291SOL     OW19558   3.387   2.861  13.224
 6291SOL    HW119559   3.324   2.785  13.237
 6291SOL    HW219560   3.435   2.879  13.310
 6292SOL     OW19561   3.529   3.576  13.606
 6292SOL    HW119562   3.488   3.553  13.518
 6292SOL    HW219563   3.511   3.502  13.671
 6293SOL     OW19564   2.460   2.591  13.304
 6293SOL    HW119565   2.484   2.660  13.236
 6293SOL    HW219566   2.382   2.624  13.358
 6294SOL     OW19567   3.143   2.207  13.978
 6294SOL    HW119568   3.057   2.157  13.965
 6294SOL    HW219569   3.205   2.153  14.034
 6295SOL     OW19570   3.438   3.524  13.341
 6295SOL    HW119571   3.527   3.570  13.344
 6295SOL    HW219572   3.417   3.500  13.246
 6296SOL     OW19573   2.903   2.563  13.463
 6296SOL    HW119574   2.929   2.559  13.559
 6296SOL    HW219575   2.818   2.512  13.449
 6297SOL     OW19576   1.938   2.673  13.823
 6297SOL    HW119577   2.037   2.661  13.832
 6297SOL    HW219578   1.914   2.768  13.844
 6298SOL     OW19579   2.727   2.210  13.229
 6298SOL    HW119580   2.786   2.273  13.180
 6298SOL    HW219581   2.746   2.116  13.200
 6299SOL     OW19582   3.224   3.006  13.579
 6299SOL    HW119583   3.307   2.977  13.531
 6299SOL    HW219584   3.175   3.073  13.523
 6300SOL     OW19585   2.870   3.318  13.511
 6300SOL    HW119586   2.824   3.390  13.459
 6300SOL    HW219587   2.866   3.338  13.609
 6301SOL     OW19588   2.213   3.663  13.887
 6301SOL    HW119589   2.263   3.577  13.893
 6301SOL    HW219590   2.278   3.740  13.884
 6302SOL     OW19591   3.657   2.928  13.907
 6302SOL    HW119592   3.595   2.913  13.831
 6302SOL    HW219593   3.605   2.939  13.992
 6303SOL     OW19594   2.183   2.805  13.276
 6303SOL    HW119595   2.265   2.844  13.234
 6303SOL    HW219596   2.156   2.723  13.227
 6304SOL     OW19597   3.320   2.597  13.762
 6304SOL    HW119598   3.315   2.532  13.837
 6304SOL    HW219599   3.400   2.656  13.775
 6305SOL     OW19600   2.973   3.638  13.271
 6305SOL    HW119601   2.913   3.576  13.321
 6305SOL    HW219602   3.004   3.594  13.186
 6306SOL     OW19603   3.494   3.239  13.115
 6306SOL    HW119604   3.462   3.333  13.105
 6306SOL    HW219605   3.418   3.176  13.103
 6307SOL     OW19606   2.326   3.605  13.357
 6307SOL    HW119607   2.359   3.644  13.443
 6307SOL    HW219608   2.402   3.598  13.292
 6308SOL     OW19609   3.262   1.969  13.460
 6308SOL    HW119610   3.238   1.932  13.370
 6308SOL    HW219611   3.361   1.985  13.464
 6309SOL     OW19612   2.802   3.560  13.938
 6309SOL    HW119613   2.882   3.503  13.959
 6309SOL    HW219614   2.753   3.520  13.861
 6310SOL     OW19615   2.244   2.562  13.514
 6310SOL    HW119616   2.289   2.472  13.511
 6310SOL    HW219617   2.150   2.551  13.547
 6311SOL     OW19618   2.476   1.984  13.151
 6311SOL    HW119619   2.574   1.962  13.158
 6311SOL    HW219620   2.445   1.967  13.058
 6312SOL     OW19621   2.401   1.926  13.546
 6312SOL    HW119622   2.320   1.927  13.604
 6312SOL    HW219623   2.404   2.009  13.491
 6313SOL     OW19624   3.296   3.050  13.075
 6313SOL    HW119625   3.328   2.974  13.132
 6313SOL    HW219626   3.204   3.077  13.105
 6314SOL     OW19627   2.797   2.098  13.514
 6314SOL    HW119628   2.749   2.139  13.436
 6314SOL    HW219629   2.896   2.096  13.495
 6315SOL     OW19630   2.321   3.014  13.775
 6315SOL    HW119631   2.250   2.987  13.840
 6315SOL    HW219632   2.295   2.986  13.682
 6316SOL     OW19633   3.133   3.659  13.625
 6316SOL    HW119634   3.177   3.723  13.561
 6316SOL    HW219635   3.083   3.711  13.695
 6317SOL     OW19636   2.894   2.411  13.050
 6317SOL    HW119637   2.853   2.493  13.011
 6317SOL    HW219638   2.958   2.437  13.123
 6318SOL     OW19639   2.728   2.316  13.676
 6318SOL    HW119640   2.696   2.388  13.614
 6318SOL    HW219641   2.752   2.235  13.623
 6319SOL     OW19642   2.879   1.901  13.787
 6319SOL    HW119643   2.807   1.906  13.718
 6319SOL    HW219644   2.855   1.832  13.856
 6320SOL     OW19645   3.719   2.695  13.411
 6320SOL    HW119646   3.761   2.631  13.475
 6320SOL    HW219647   3.681   2.644  13.333
 6321SOL     OW19648   2.350   3.247  13.208
 6321SOL    HW119649   2.263   3.232  13.255
 6321SOL    HW219650   2.333   3.273  13.113
 6322SOL     OW19651   3.526   3.142  13.691
 6322SOL    HW119652   3.625   3.150  13.705
 6322SOL    HW219653   3.481   3.226  13.722
 6323SOL     OW19654   3.252   2.437  13.112
 6323SOL    HW119655   3.198   2.416  13.193
 6323SOL    HW219656   3.343   2.396  13.121
 6324SOL     OW19657   2.389   2.118  13.362
 6324SOL    HW119658   2.416   2.059  13.287
 6324SOL    HW219659   2.389   2.213  13.331
 6325SOL     OW19660   2.567   2.912  13.402
 6325SOL    HW119661   2.553   2.919  13.501
 6325SOL    HW219662   2.651   2.861  13.384
 6326SOL     OW19663   2.229   2.962  13.535
 6326SOL    HW119664   2.222   3.045  13.479
 6326SOL    HW219665   2.233   2.882  13.475
 6327SOL     OW19666   2.428   2.399  13.899
 6327SOL    HW119667   2.440   2.465  13.825
 6327SOL    HW219668   2.474   2.433  13.982
 6328SOL     OW19669   3.114   3.210  13.422
 6328SOL    HW119670   3.164   3.287  13.462
 6328SOL    HW219671   3.019   3.212  13.454
 6329SOL     OW19672   3.444   2.501  13.506
 6329SOL    HW119673   3.413   2.562  13.579
 6329SOL    HW219674   3.494   2.553  13.437
 6330SOL     OW19675   3.071   2.387  13.309
 6330SOL    HW119676   3.084   2.303  13.363
 6330SOL    HW219677   3.042   2.461  13.369
 6331SOL     OW19678   3.484   2.229  13.408
 6331SOL    HW119679   3.486   2.153  13.472
 6331SOL    HW219680   3.436   2.306  13.448
 6332SOL     OW19681   3.402   2.136  13.159
 6332SOL    HW119682   3.341   2.061  13.182
 6332SOL    HW219683   3.424   2.188  13.242
 6333SOL     OW19684   3.165   2.700  13.076
 6333SOL    HW119685   3.199   2.607  13.091
 6333SOL    HW219686   3.183   2.727  12.981
 6334SOL     OW19687   1.870   3.188  13.234
 6334SOL    HW119688   1.777   3.209  13.203
 6334SOL    HW219689   1.880   3.089  13.247
 6335SOL     OW19690   2.677   2.434  13.359
 6335SOL    HW119691   2.684   2.345  13.313
 6335SOL    HW219692   2.583   2.468  13.351
 6336SOL     OW19693   2.335   2.362  13.225
 6336SOL    HW119694   2.396   2.442  13.229
 6336SOL    HW219695   2.240   2.393  13.232
 6337SOL     OW19696   3.164   2.717  13.343
 6337SOL    HW119697   3.078   2.686  13.385
 6337SOL    HW219698   3.160   2.703  13.244
 6338SOL     OW19699   3.588   1.997  13.557
 6338SOL    HW119700   3.661   1.980  13.490
 6338SOL    HW219701   3.557   1.910  13.595
 6339SOL     OW19702   3.250   3.435  13.511
 6339SOL    HW119703   3.317   3.447  13.437
 6339SOL    HW219704   3.210   3.524  13.534
 6340SOL     OW19705   3.142   2.789  13.706
 6340SOL    HW119706   3.202   2.708  13.708
 6340SOL    HW219707   3.182   2.858  13.646
 6341SOL     OW19708   2.534   3.478  13.188
 6341SOL    HW119709   2.543   3.488  13.089
 6341SOL    HW219710   2.494   3.389  13.209
 6342SOL     OW19711   3.703   2.037  13.997
 6342SOL    HW119712   3.742   1.952  13.961
 6342SOL    HW219713   3.605   2.039  13.978
 6343SOL     OW19714   2.125   2.188  13.754
 6343SOL    HW119715   2.046   2.239  13.720
 6343SOL    HW219716   2.116   2.173  13.852
 6344SOL     OW19717   3.056   3.474  13.065
 6344SOL    HW119718   3.062   3.381  13.102
 6344SOL    HW219719   2.997   3.474  12.985
 6345SOL     OW19720   2.778   2.772  13.325
 6345SOL    HW119721   2.841   2.810  13.257
 6345SOL    HW219722   2.818   2.689  13.364
 6346SOL     OW19723   3.366   3.469  13.078
 6346SOL    HW119724   3.274   3.506  13.085
 6346SOL    HW219725   3.404   3.489  12.988
 6347SOL     OW19726   2.901   2.960  13.730
 6347SOL    HW119727   2.831   2.913  13.784
 6347SOL    HW219728   2.960   2.892  13.687
 6348SOL     OW19729   2.452   3.349  13.525
 6348SOL    HW119730   2.494   3.291  13.455
 6348SOL    HW219731   2.408   3.428  13.481
 6349SOL     OW19732   2.117   3.210  13.324
 6349SOL    HW119733   2.021   3.211  13.297
 6349SOL    HW219734   2.129   3.263  13.408
 6350SOL     OW19735   3.045   3.197  13.153
 6350SOL    HW119736   2.946   3.186  13.155
 6350SOL    HW219737   3.079   3.212  13.246
 6351SOL     OW19738   3.087   2.187  13.483
 6351SOL    HW119739   3.152   2.113  13.472
 6351SOL    HW219740   3.107   2.237  13.567
 6352SOL     OW19741   2.456   2.607  13.686
 6352SOL    HW119742   2.506   2.692  13.667
 6352SOL    HW219743   2.368   2.609  13.638
 6353SOL     OW19744   2.721   3.236  13.050
 6353SOL    HW119745   2.675   3.251  13.138
 6353SOL    HW219746   2.765   3.321  13.020
 6354SOL     OW19747   2.523   3.652  13.987
 6354SOL    HW119748   2.477   3.740  13.974
 6354SOL    HW219749   2.622   3.664  13.980
 6355SOL     OW19750   2.721   2.818  13.895
 6355SOL    HW119751   2.775   2.749  13.943
 6355SOL    HW219752   2.689   2.887  13.961
 6356SOL     OW19753   2.945   2.846  13.121
 6356SOL    HW119754   2.922   2.899  13.039
 6356SOL    HW219755   3.026   2.790  13.102
 6357SOL     OW19756   1.941   3.102  13.687
 6357SOL    HW119757   1.940   3.055  13.775
 6357SOL    HW219758   2.023   3.074  13.636
 6358SOL     OW19759   2.290   2.286  13.554
 6358SOL    HW119760   2.320   2.214  13.492
 6358SOL    HW219761   2.251   2.246  13.637
 6359SOL     OW19762   3.567   3.349  14.138
 6359SOL    HW119763   3.474   3.324  14.111
 6359SOL    HW219764   3.593   3.299  14.220
 6360SOL     OW19765   2.674   3.448  13.721
 6360SOL    HW119766   2.706   3.458  13.627
 6360SOL    HW219767   2.595   3.386  13.723
 6361SOL     OW19768   2.632   3.192  13.335
 6361SOL    HW119769   2.586   3.105  13.352
 6361SOL    HW219770   2.723   3.189  13.376
 6362SOL     OW19771   3.214   1.914  13.202
 6362SOL    HW119772   3.249   1.873  13.118
 6362SOL    HW219773   3.124   1.876  13.222
 6363SOL     OW19774   3.162   2.315  13.725
 6363SOL    HW119775   3.103   2.395  13.729
 6363SOL    HW219776   3.177   2.280  13.818
 6364SOL     OW19777   1.901   2.939  13.334
 6364SOL    HW119778   2.000   2.928  13.325
 6364SOL    HW219779   1.861   2.853  13.366
 6365SOL     OW19780   2.737   3.508  13.371
 6365SOL    HW119781   2.660   3.473  13.317
 6365SOL    HW219782   2.705   3.579  13.433
 6366SOL     OW19783   2.087   3.999   0.996
 6366SOL    HW119784   2.122   3.982   1.088
 6366SOL    HW219785   1.999   3.954   0.984
 6367SOL     OW19786   1.881   4.092   0.647
 6367SOL    HW119787   1.799   4.135   0.686
 6367SOL    HW219788   1.853   4.019   0.584
 6368SOL     OW19789   3.617   4.331   0.231
 6368SOL    HW119790   3.605   4.318   0.132
 6368SOL    HW219791   3.587   4.250   0.280
 6369SOL     OW19792   2.300   4.116   1.499
 6369SOL    HW119793   2.382   4.060   1.508
 6369SOL    HW219794   2.219   4.058   1.503
 6370SOL     OW19795   3.456   3.838   1.480
 6370SOL    HW119796   3.438   3.905   1.408
 6370SOL    HW219797   3.453   3.884   1.569
 6371SOL     OW19798   2.671   3.728   0.502
 6371SOL    HW119799   2.711   3.819   0.493
 6371SOL    HW219800   2.571   3.736   0.508
 6372SOL     OW19801   3.143   4.069   0.944
 6372SOL    HW119802   3.057   4.019   0.931
 6372SOL    HW219803   3.205   4.015   1.000
 6373SOL     OW19804   2.412   3.920   0.885
 6373SOL    HW119805   2.407   3.915   0.985
 6373SOL    HW219806   2.414   4.016   0.856
 6374SOL     OW19807   2.064   4.009   1.498
 6374SOL    HW119808   1.984   4.069   1.485
 6374SOL    HW219809   2.054   3.960   1.584
 6375SOL     OW19810   3.262   3.831   0.426
 6375SOL    HW119811   3.238   3.794   0.336
 6375SOL    HW219812   3.361   3.847   0.430
 6376SOL     OW19813   3.409   3.946   1.729
 6376SOL    HW119814   3.404   3.983   1.821
 6376SOL    HW219815   3.337   3.877   1.717
 6377SOL     OW19816   2.643   3.988   1.749
 6377SOL    HW119817   2.710   3.927   1.792
 6377SOL    HW219818   2.570   4.007   1.814
 6378SOL     OW19819   2.401   3.788   0.512
 6378SOL    HW119820   2.320   3.789   0.570
 6378SOL    HW219821   2.404   3.871   0.457
 6379SOL     OW19822   2.159   3.759   0.171
 6379SOL    HW119823   2.208   3.843   0.150
 6379SOL    HW219824   2.221   3.694   0.216
 6380SOL     OW19825   2.423   3.946   1.147
 6380SOL    HW119826   2.461   3.862   1.184
 6380SOL    HW219827   2.335   3.965   1.191
 6381SOL     OW19828   2.879   3.763   0.753
 6381SOL    HW119829   2.807   3.768   0.684
 6381SOL    HW219830   2.855   3.694   0.822
 6382SOL     OW19831   2.777   3.813   1.402
 6382SOL    HW119832   2.802   3.793   1.307
 6382SOL    HW219833   2.849   3.869   1.444
 6383SOL     OW19834   3.136   4.110   1.262
 6383SOL    HW119835   3.157   4.184   1.326
 6383SOL    HW219836   3.047   4.127   1.219
 6384SOL     OW19837   2.366   3.774   1.740
 6384SOL    HW119838   2.324   3.717   1.670
 6384SOL    HW219839   2.300   3.843   1.772
 6385SOL     OW19840   2.169   3.937   1.231
 6385SOL    HW119841   2.146   3.974   1.321
 6385SOL    HW219842   2.139   3.842   1.225
 6386SOL     OW19843   3.402   3.998   0.125
 6386SOL    HW119844   3.341   3.923   0.148
 6386SOL    HW219845   3.424   4.050   0.208
 6387SOL     OW19846   3.022   3.931   1.477
 6387SOL    HW119847   3.022   3.995   1.554
 6387SOL    HW219848   3.050   3.979   1.394
 6388SOL     OW19849   2.765   3.810   0.133
 6388SOL    HW119850   2.816   3.811   0.047
 6388SOL    HW219851   2.821   3.768   0.204
 6389SOL     OW19852   3.588   3.859   0.523
 6389SOL    HW119853   3.661   3.842   0.456
 6389SOL    HW219854   3.557   3.772   0.561
 6390SOL     OW19855   3.703   3.899   0.963
 6390SOL    HW119856   3.742   3.814   0.927
 6390SOL    HW219857   3.605   3.901   0.944
 6391SOL     OW19858   2.534   3.927   1.489
 6391SOL    HW119859   2.624   3.911   1.449
 6391SOL    HW219860   2.542   3.932   1.588
 6392SOL     OW19861   1.934   3.890   0.318
 6392SOL    HW119862   1.917   3.973   0.264
 6392SOL    HW219863   2.024   3.853   0.296
 6393SOL     OW19864   3.087   4.049   0.449
 6393SOL    HW119865   3.152   3.975   0.438
 6393SOL    HW219866   3.107   4.099   0.533
 6394SOL     OW19867   3.639   4.066   1.642
 6394SOL    HW119868   3.622   4.097   1.548
 6394SOL    HW219869   3.555   4.029   1.680
 6395SOL     OW19870   3.686   3.916   1.227
 6395SOL    HW119871   3.682   3.826   1.271
 6395SOL    HW219872   3.689   3.905   1.128
 6396SOL     OW19873   3.286   3.938   1.112
 6396SOL    HW119874   3.338   3.873   1.167
 6396SOL    HW219875   3.237   4.001   1.173
 6397SOL     OW19876   2.863   3.758   1.154
 6397SOL    HW119877   2.800   3.686   1.123
 6397SOL    HW219878   2.956   3.722   1.154
 6398SOL     OW19879   3.214   3.776   0.168
 6398SOL    HW119880   3.249   3.735   0.084
 6398SOL    HW219881   3.124   3.738   0.188
 6399SOL     OW19882   3.162   4.177   0.691
 6399SOL    HW119883   3.103   4.257   0.695
 6399SOL    HW219884   3.177   4.142   0.784
 6400SOL     OW19885   3.455   3.945   0.882
 6400SOL    HW119886   3.371   3.944   0.936
 6400SOL    HW219887   3.457   4.028   0.826
 6401SOL     OW19888   2.087   3.999   2.858
 6401SOL    HW119889   2.122   3.982   2.950
 6401SOL    HW219890   1.999   3.954   2.846
 6402SOL     OW19891   1.881   4.092   2.509
 6402SOL    HW119892   1.799   4.135   2.548
 6402SOL    HW219893   1.853   4.019   2.446
 6403SOL     OW19894   3.617   4.331   2.093
 6403SOL    HW119895   3.605   4.318   1.994
 6403SOL    HW219896   3.587   4.250   2.142
 6404SOL     OW19897   2.300   4.116   3.361
 6404SOL    HW119898   2.382   4.060   3.370
 6404SOL    HW219899   2.219   4.058   3.365
 6405SOL     OW19900   3.456   3.838   3.342
 6405SOL    HW119901   3.438   3.905   3.270
 6405SOL    HW219902   3.453   3.884   3.431
 6406SOL     OW19903   2.671   3.728   2.364
 6406SOL    HW119904   2.711   3.819   2.355
 6406SOL    HW219905   2.571   3.736   2.370
 6407SOL     OW19906   3.143   4.069   2.806
 6407SOL    HW119907   3.057   4.019   2.793
 6407SOL    HW219908   3.205   4.015   2.862
 6408SOL     OW19909   2.412   3.920   2.747
 6408SOL    HW119910   2.407   3.915   2.847
 6408SOL    HW219911   2.414   4.016   2.718
 6409SOL     OW19912   2.064   4.009   3.360
 6409SOL    HW119913   1.984   4.069   3.347
 6409SOL    HW219914   2.054   3.960   3.446
 6410SOL     OW19915   3.262   3.831   2.288
 6410SOL    HW119916   3.238   3.794   2.198
 6410SOL    HW219917   3.361   3.847   2.292
 6411SOL     OW19918   3.409   3.946   3.591
 6411SOL    HW119919   3.404   3.983   3.683
 6411SOL    HW219920   3.337   3.877   3.579
 6412SOL     OW19921   2.476   3.846   1.979
 6412SOL    HW119922   2.574   3.824   1.986
 6412SOL    HW219923   2.445   3.829   1.886
 6413SOL     OW19924   2.643   3.988   3.611
 6413SOL    HW119925   2.710   3.927   3.654
 6413SOL    HW219926   2.570   4.007   3.676
 6414SOL     OW19927   2.401   3.788   2.374
 6414SOL    HW119928   2.320   3.789   2.432
 6414SOL    HW219929   2.404   3.871   2.319
 6415SOL     OW19930   2.159   3.759   2.033
 6415SOL    HW119931   2.208   3.843   2.012
 6415SOL    HW219932   2.221   3.694   2.078
 6416SOL     OW19933   2.423   3.946   3.009
 6416SOL    HW119934   2.461   3.862   3.046
 6416SOL    HW219935   2.335   3.965   3.053
 6417SOL     OW19936   2.879   3.763   2.615
 6417SOL    HW119937   2.807   3.768   2.546
 6417SOL    HW219938   2.855   3.694   2.684
 6418SOL     OW19939   2.777   3.813   3.264
 6418SOL    HW119940   2.802   3.793   3.169
 6418SOL    HW219941   2.849   3.869   3.306
 6419SOL     OW19942   3.136   4.110   3.124
 6419SOL    HW119943   3.157   4.184   3.188
 6419SOL    HW219944   3.047   4.127   3.081
 6420SOL     OW19945   2.366   3.774   3.602
 6420SOL    HW119946   2.324   3.717   3.532
 6420SOL    HW219947   2.300   3.843   3.634
 6421SOL     OW19948   2.169   3.937   3.093
 6421SOL    HW119949   2.146   3.974   3.183
 6421SOL    HW219950   2.139   3.842   3.087
 6422SOL     OW19951   3.402   3.998   1.987
 6422SOL    HW119952   3.341   3.923   2.010
 6422SOL    HW219953   3.424   4.050   2.070
 6423SOL     OW19954   3.022   3.931   3.339
 6423SOL    HW119955   3.022   3.995   3.416
 6423SOL    HW219956   3.050   3.979   3.256
 6424SOL     OW19957   2.765   3.810   1.995
 6424SOL    HW119958   2.816   3.811   1.909
 6424SOL    HW219959   2.821   3.768   2.066
 6425SOL     OW19960   3.588   3.859   2.385
 6425SOL    HW119961   3.661   3.842   2.318
 6425SOL    HW219962   3.557   3.772   2.423
 6426SOL     OW19963   3.703   3.899   2.825
 6426SOL    HW119964   3.742   3.814   2.789
 6426SOL    HW219965   3.605   3.901   2.806
 6427SOL     OW19966   2.534   3.927   3.351
 6427SOL    HW119967   2.624   3.911   3.311
 6427SOL    HW219968   2.542   3.932   3.450
 6428SOL     OW19969   1.937   4.069   1.895
 6428SOL    HW119970   1.845   4.041   1.866
 6428SOL    HW219971   1.968   4.146   1.839
 6429SOL     OW19972   1.934   3.890   2.180
 6429SOL    HW119973   1.917   3.973   2.126
 6429SOL    HW219974   2.024   3.853   2.158
 6430SOL     OW19975   3.087   4.049   2.311
 6430SOL    HW119976   3.152   3.975   2.300
 6430SOL    HW219977   3.107   4.099   2.395
 6431SOL     OW19978   3.639   4.066   3.504
 6431SOL    HW119979   3.622   4.097   3.410
 6431SOL    HW219980   3.555   4.029   3.542
 6432SOL     OW19981   3.686   3.916   3.089
 6432SOL    HW119982   3.682   3.826   3.133
 6432SOL    HW219983   3.689   3.905   2.990
 6433SOL     OW19984   3.286   3.938   2.974
 6433SOL    HW119985   3.338   3.873   3.029
 6433SOL    HW219986   3.237   4.001   3.035
 6434SOL     OW19987   2.863   3.758   3.016
 6434SOL    HW119988   2.800   3.686   2.985
 6434SOL    HW219989   2.956   3.722   3.016
 6435SOL     OW19990   3.214   3.776   2.030
 6435SOL    HW119991   3.249   3.735   1.946
 6435SOL    HW219992   3.124   3.738   2.050
 6436SOL     OW19993   3.162   4.177   2.553
 6436SOL    HW119994   3.103   4.257   2.557
 6436SOL    HW219995   3.177   4.142   2.646
 6437SOL     OW19996   3.455   3.945   2.744
 6437SOL    HW119997   3.371   3.944   2.798
 6437SOL    HW219998   3.457   4.028   2.688
 6438SOL     OW19999   2.087   3.999   4.720
 6438SOL    HW120000   2.122   3.982   4.812
 6438SOL    HW220001   1.999   3.954   4.708
 6439SOL     OW20002   1.881   4.092   4.371
 6439SOL    HW120003   1.799   4.135   4.410
 6439SOL    HW220004   1.853   4.019   4.308
 6440SOL     OW20005   3.617   4.331   3.955
 6440SOL    HW120006   3.605   4.318   3.856
 6440SOL    HW220007   3.587   4.250   4.004
 6441SOL     OW20008   2.300   4.116   5.223
 6441SOL    HW120009   2.382   4.060   5.232
 6441SOL    HW220010   2.219   4.058   5.227
 6442SOL     OW20011   3.456   3.838   5.204
 6442SOL    HW120012   3.438   3.905   5.132
 6442SOL    HW220013   3.453   3.884   5.293
 6443SOL     OW20014   2.671   3.728   4.226
 6443SOL    HW120015   2.711   3.819   4.217
 6443SOL    HW220016   2.571   3.736   4.232
 6444SOL     OW20017   3.143   4.069   4.668
 6444SOL    HW120018   3.057   4.019   4.655
 6444SOL    HW220019   3.205   4.015   4.724
 6445SOL     OW20020   2.412   3.920   4.609
 6445SOL    HW120021   2.407   3.915   4.709
 6445SOL    HW220022   2.414   4.016   4.580
 6446SOL     OW20023   2.064   4.009   5.222
 6446SOL    HW120024   1.984   4.069   5.209
 6446SOL    HW220025   2.054   3.960   5.308
 6447SOL     OW20026   3.262   3.831   4.150
 6447SOL    HW120027   3.238   3.794   4.060
 6447SOL    HW220028   3.361   3.847   4.154
 6448SOL     OW20029   3.409   3.946   5.453
 6448SOL    HW120030   3.404   3.983   5.545
 6448SOL    HW220031   3.337   3.877   5.441
 6449SOL     OW20032   2.476   3.846   3.841
 6449SOL    HW120033   2.574   3.824   3.848
 6449SOL    HW220034   2.445   3.829   3.748
 6450SOL     OW20035   2.643   3.988   5.473
 6450SOL    HW120036   2.710   3.927   5.516
 6450SOL    HW220037   2.570   4.007   5.538
 6451SOL     OW20038   2.401   3.788   4.236
 6451SOL    HW120039   2.320   3.789   4.294
 6451SOL    HW220040   2.404   3.871   4.181
 6452SOL     OW20041   2.159   3.759   3.895
 6452SOL    HW120042   2.208   3.843   3.874
 6452SOL    HW220043   2.221   3.694   3.940
 6453SOL     OW20044   2.423   3.946   4.871
 6453SOL    HW120045   2.461   3.862   4.908
 6453SOL    HW220046   2.335   3.965   4.915
 6454SOL     OW20047   2.879   3.763   4.477
 6454SOL    HW120048   2.807   3.768   4.408
 6454SOL    HW220049   2.855   3.694   4.546
 6455SOL     OW20050   2.777   3.813   5.126
 6455SOL    HW120051   2.802   3.793   5.031
 6455SOL    HW220052   2.849   3.869   5.168
 6456SOL     OW20053   3.136   4.110   4.986
 6456SOL    HW120054   3.157   4.184   5.050
 6456SOL    HW220055   3.047   4.127   4.943
 6457SOL     OW20056   2.366   3.774   5.464
 6457SOL    HW120057   2.324   3.717   5.394
 6457SOL    HW220058   2.300   3.843   5.496
 6458SOL     OW20059   2.169   3.937   4.955
 6458SOL    HW120060   2.146   3.974   5.045
 6458SOL    HW220061   2.139   3.842   4.949
 6459SOL     OW20062   3.402   3.998   3.849
 6459SOL    HW120063   3.341   3.923   3.872
 6459SOL    HW220064   3.424   4.050   3.932
 6460SOL     OW20065   3.022   3.931   5.201
 6460SOL    HW120066   3.022   3.995   5.278
 6460SOL    HW220067   3.050   3.979   5.118
 6461SOL     OW20068   2.765   3.810   3.857
 6461SOL    HW120069   2.816   3.811   3.771
 6461SOL    HW220070   2.821   3.768   3.928
 6462SOL     OW20071   3.588   3.859   4.247
 6462SOL    HW120072   3.661   3.842   4.180
 6462SOL    HW220073   3.557   3.772   4.285
 6463SOL     OW20074   3.703   3.899   4.687
 6463SOL    HW120075   3.742   3.814   4.651
 6463SOL    HW220076   3.605   3.901   4.668
 6464SOL     OW20077   2.534   3.927   5.213
 6464SOL    HW120078   2.624   3.911   5.173
 6464SOL    HW220079   2.542   3.932   5.312
 6465SOL     OW20080   1.937   4.069   3.757
 6465SOL    HW120081   1.845   4.041   3.728
 6465SOL    HW220082   1.968   4.146   3.701
 6466SOL     OW20083   1.934   3.890   4.042
 6466SOL    HW120084   1.917   3.973   3.988
 6466SOL    HW220085   2.024   3.853   4.020
 6467SOL     OW20086   3.087   4.049   4.173
 6467SOL    HW120087   3.152   3.975   4.162
 6467SOL    HW220088   3.107   4.099   4.257
 6468SOL     OW20089   3.639   4.066   5.366
 6468SOL    HW120090   3.622   4.097   5.272
 6468SOL    HW220091   3.555   4.029   5.404
 6469SOL     OW20092   3.686   3.916   4.951
 6469SOL    HW120093   3.682   3.826   4.995
 6469SOL    HW220094   3.689   3.905   4.852
 6470SOL     OW20095   3.286   3.938   4.836
 6470SOL    HW120096   3.338   3.873   4.891
 6470SOL    HW220097   3.237   4.001   4.897
 6471SOL     OW20098   2.863   3.758   4.878
 6471SOL    HW120099   2.800   3.686   4.847
 6471SOL    HW220100   2.956   3.722   4.878
 6472SOL     OW20101   3.214   3.776   3.892
 6472SOL    HW120102   3.249   3.735   3.808
 6472SOL    HW220103   3.124   3.738   3.912
 6473SOL     OW20104   3.162   4.177   4.415
 6473SOL    HW120105   3.103   4.257   4.419
 6473SOL    HW220106   3.177   4.142   4.508
 6474SOL     OW20107   3.455   3.945   4.606
 6474SOL    HW120108   3.371   3.944   4.660
 6474SOL    HW220109   3.457   4.028   4.550
 6475SOL     OW20110   2.087   3.999   6.582
 6475SOL    HW120111   2.122   3.982   6.674
 6475SOL    HW220112   1.999   3.954   6.570
 6476SOL     OW20113   1.881   4.092   6.233
 6476SOL    HW120114   1.799   4.135   6.272
 6476SOL    HW220115   1.853   4.019   6.170
 6477SOL     OW20116   3.617   4.331   5.817
 6477SOL    HW120117   3.605   4.318   5.718
 6477SOL    HW220118   3.587   4.250   5.866
 6478SOL     OW20119   2.300   4.116   7.085
 6478SOL    HW120120   2.382   4.060   7.094
 6478SOL    HW220121   2.219   4.058   7.089
 6479SOL     OW20122   3.456   3.838   7.066
 6479SOL    HW120123   3.438   3.905   6.994
 6479SOL    HW220124   3.453   3.884   7.155
 6480SOL     OW20125   2.671   3.728   6.088
 6480SOL    HW120126   2.711   3.819   6.079
 6480SOL    HW220127   2.571   3.736   6.094
 6481SOL     OW20128   3.143   4.069   6.530
 6481SOL    HW120129   3.057   4.019   6.517
 6481SOL    HW220130   3.205   4.015   6.586
 6482SOL     OW20131   2.412   3.920   6.471
 6482SOL    HW120132   2.407   3.915   6.571
 6482SOL    HW220133   2.414   4.016   6.442
 6483SOL     OW20134   2.064   4.009   7.084
 6483SOL    HW120135   1.984   4.069   7.071
 6483SOL    HW220136   2.054   3.960   7.170
 6484SOL     OW20137   3.262   3.831   6.012
 6484SOL    HW120138   3.238   3.794   5.922
 6484SOL    HW220139   3.361   3.847   6.016
 6485SOL     OW20140   3.409   3.946   7.315
 6485SOL    HW120141   3.404   3.983   7.407
 6485SOL    HW220142   3.337   3.877   7.303
 6486SOL     OW20143   2.476   3.846   5.703
 6486SOL    HW120144   2.574   3.824   5.710
 6486SOL    HW220145   2.445   3.829   5.610
 6487SOL     OW20146   2.643   3.988   7.335
 6487SOL    HW120147   2.710   3.927   7.378
 6487SOL    HW220148   2.570   4.007   7.400
 6488SOL     OW20149   2.401   3.788   6.098
 6488SOL    HW120150   2.320   3.789   6.156
 6488SOL    HW220151   2.404   3.871   6.043
 6489SOL     OW20152   2.159   3.759   5.757
 6489SOL    HW120153   2.208   3.843   5.736
 6489SOL    HW220154   2.221   3.694   5.802
 6490SOL     OW20155   2.423   3.946   6.733
 6490SOL    HW120156   2.461   3.862   6.770
 6490SOL    HW220157   2.335   3.965   6.777
 6491SOL     OW20158   2.879   3.763   6.339
 6491SOL    HW120159   2.807   3.768   6.270
 6491SOL    HW220160   2.855   3.694   6.408
 6492SOL     OW20161   2.777   3.813   6.988
 6492SOL    HW120162   2.802   3.793   6.893
 6492SOL    HW220163   2.849   3.869   7.030
 6493SOL     OW20164   3.136   4.110   6.848
 6493SOL    HW120165   3.157   4.184   6.912
 6493SOL    HW220166   3.047   4.127   6.805
 6494SOL     OW20167   2.366   3.774   7.326
 6494SOL    HW120168   2.324   3.717   7.256
 6494SOL    HW220169   2.300   3.843   7.358
 6495SOL     OW20170   2.169   3.937   6.817
 6495SOL    HW120171   2.146   3.974   6.907
 6495SOL    HW220172   2.139   3.842   6.811
 6496SOL     OW20173   3.402   3.998   5.711
 6496SOL    HW120174   3.341   3.923   5.734
 6496SOL    HW220175   3.424   4.050   5.794
 6497SOL     OW20176   3.022   3.931   7.063
 6497SOL    HW120177   3.022   3.995   7.140
 6497SOL    HW220178   3.050   3.979   6.980
 6498SOL     OW20179   2.765   3.810   5.719
 6498SOL    HW120180   2.816   3.811   5.633
 6498SOL    HW220181   2.821   3.768   5.790
 6499SOL     OW20182   3.588   3.859   6.109
 6499SOL    HW120183   3.661   3.842   6.042
 6499SOL    HW220184   3.557   3.772   6.147
 6500SOL     OW20185   3.703   3.899   6.549
 6500SOL    HW120186   3.742   3.814   6.513
 6500SOL    HW220187   3.605   3.901   6.530
 6501SOL     OW20188   2.534   3.927   7.075
 6501SOL    HW120189   2.624   3.911   7.035
 6501SOL    HW220190   2.542   3.932   7.174
 6502SOL     OW20191   1.937   4.069   5.619
 6502SOL    HW120192   1.845   4.041   5.590
 6502SOL    HW220193   1.968   4.146   5.563
 6503SOL     OW20194   1.934   3.890   5.904
 6503SOL    HW120195   1.917   3.973   5.850
 6503SOL    HW220196   2.024   3.853   5.882
 6504SOL     OW20197   3.087   4.049   6.035
 6504SOL    HW120198   3.152   3.975   6.024
 6504SOL    HW220199   3.107   4.099   6.119
 6505SOL     OW20200   3.639   4.066   7.228
 6505SOL    HW120201   3.622   4.097   7.134
 6505SOL    HW220202   3.555   4.029   7.266
 6506SOL     OW20203   3.686   3.916   6.813
 6506SOL    HW120204   3.682   3.826   6.857
 6506SOL    HW220205   3.689   3.905   6.714
 6507SOL     OW20206   3.286   3.938   6.698
 6507SOL    HW120207   3.338   3.873   6.753
 6507SOL    HW220208   3.237   4.001   6.759
 6508SOL     OW20209   2.863   3.758   6.740
 6508SOL    HW120210   2.800   3.686   6.709
 6508SOL    HW220211   2.956   3.722   6.740
 6509SOL     OW20212   3.214   3.776   5.754
 6509SOL    HW120213   3.249   3.735   5.670
 6509SOL    HW220214   3.124   3.738   5.774
 6510SOL     OW20215   3.162   4.177   6.277
 6510SOL    HW120216   3.103   4.257   6.281
 6510SOL    HW220217   3.177   4.142   6.370
 6511SOL     OW20218   3.455   3.945   6.468
 6511SOL    HW120219   3.371   3.944   6.522
 6511SOL    HW220220   3.457   4.028   6.412
 6512SOL     OW20221   2.087   3.999   8.444
 6512SOL    HW120222   2.122   3.982   8.536
 6512SOL    HW220223   1.999   3.954   8.432
 6513SOL     OW20224   1.881   4.092   8.095
 6513SOL    HW120225   1.799   4.135   8.134
 6513SOL    HW220226   1.853   4.019   8.032
 6514SOL     OW20227   3.617   4.331   7.679
 6514SOL    HW120228   3.605   4.318   7.580
 6514SOL    HW220229   3.587   4.250   7.728
 6515SOL     OW20230   2.300   4.116   8.947
 6515SOL    HW120231   2.382   4.060   8.956
 6515SOL    HW220232   2.219   4.058   8.951
 6516SOL     OW20233   3.456   3.838   8.928
 6516SOL    HW120234   3.438   3.905   8.856
 6516SOL    HW220235   3.453   3.884   9.017
 6517SOL     OW20236   2.671   3.728   7.950
 6517SOL    HW120237   2.711   3.819   7.941
 6517SOL    HW220238   2.571   3.736   7.956
 6518SOL     OW20239   3.143   4.069   8.392
 6518SOL    HW120240   3.057   4.019   8.379
 6518SOL    HW220241   3.205   4.015   8.448
 6519SOL     OW20242   2.412   3.920   8.333
 6519SOL    HW120243   2.407   3.915   8.433
 6519SOL    HW220244   2.414   4.016   8.304
 6520SOL     OW20245   2.064   4.009   8.946
 6520SOL    HW120246   1.984   4.069   8.933
 6520SOL    HW220247   2.054   3.960   9.032
 6521SOL     OW20248   3.262   3.831   7.874
 6521SOL    HW120249   3.238   3.794   7.784
 6521SOL    HW220250   3.361   3.847   7.878
 6522SOL     OW20251   3.409   3.946   9.177
 6522SOL    HW120252   3.404   3.983   9.269
 6522SOL    HW220253   3.337   3.877   9.165
 6523SOL     OW20254   2.476   3.846   7.565
 6523SOL    HW120255   2.574   3.824   7.572
 6523SOL    HW220256   2.445   3.829   7.472
 6524SOL     OW20257   2.643   3.988   9.197
 6524SOL    HW120258   2.710   3.927   9.240
 6524SOL    HW220259   2.570   4.007   9.262
 6525SOL     OW20260   2.401   3.788   7.960
 6525SOL    HW120261   2.320   3.789   8.018
 6525SOL    HW220262   2.404   3.871   7.905
 6526SOL     OW20263   2.159   3.759   7.619
 6526SOL    HW120264   2.208   3.843   7.598
 6526SOL    HW220265   2.221   3.694   7.664
 6527SOL     OW20266   2.423   3.946   8.595
 6527SOL    HW120267   2.461   3.862   8.632
 6527SOL    HW220268   2.335   3.965   8.639
 6528SOL     OW20269   2.879   3.763   8.201
 6528SOL    HW120270   2.807   3.768   8.132
 6528SOL    HW220271   2.855   3.694   8.270
 6529SOL     OW20272   2.777   3.813   8.850
 6529SOL    HW120273   2.802   3.793   8.755
 6529SOL    HW220274   2.849   3.869   8.892
 6530SOL     OW20275   3.136   4.110   8.710
 6530SOL    HW120276   3.157   4.184   8.774
 6530SOL    HW220277   3.047   4.127   8.667
 6531SOL     OW20278   2.366   3.774   9.188
 6531SOL    HW120279   2.324   3.717   9.118
 6531SOL    HW220280   2.300   3.843   9.220
 6532SOL     OW20281   2.169   3.937   8.679
 6532SOL    HW120282   2.146   3.974   8.769
 6532SOL    HW220283   2.139   3.842   8.673
 6533SOL     OW20284   3.402   3.998   7.573
 6533SOL    HW120285   3.341   3.923   7.596
 6533SOL    HW220286   3.424   4.050   7.656
 6534SOL     OW20287   3.022   3.931   8.925
 6534SOL    HW120288   3.022   3.995   9.002
 6534SOL    HW220289   3.050   3.979   8.842
 6535SOL     OW20290   2.765   3.810   7.581
 6535SOL    HW120291   2.816   3.811   7.495
 6535SOL    HW220292   2.821   3.768   7.652
 6536SOL     OW20293   3.588   3.859   7.971
 6536SOL    HW120294   3.661   3.842   7.904
 6536SOL    HW220295   3.557   3.772   8.009
 6537SOL     OW20296   3.703   3.899   8.411
 6537SOL    HW120297   3.742   3.814   8.375
 6537SOL    HW220298   3.605   3.901   8.392
 6538SOL     OW20299   2.534   3.927   8.937
 6538SOL    HW120300   2.624   3.911   8.897
 6538SOL    HW220301   2.542   3.932   9.036
 6539SOL     OW20302   1.937   4.069   7.481
 6539SOL    HW120303   1.845   4.041   7.452
 6539SOL    HW220304   1.968   4.146   7.425
 6540SOL     OW20305   1.934   3.890   7.766
 6540SOL    HW120306   1.917   3.973   7.712
 6540SOL    HW220307   2.024   3.853   7.744
 6541SOL     OW20308   3.087   4.049   7.897
 6541SOL    HW120309   3.152   3.975   7.886
 6541SOL    HW220310   3.107   4.099   7.981
 6542SOL     OW20311   3.639   4.066   9.090
 6542SOL    HW120312   3.622   4.097   8.996
 6542SOL    HW220313   3.555   4.029   9.128
 6543SOL     OW20314   3.686   3.916   8.675
 6543SOL    HW120315   3.682   3.826   8.719
 6543SOL    HW220316   3.689   3.905   8.576
 6544SOL     OW20317   3.286   3.938   8.560
 6544SOL    HW120318   3.338   3.873   8.615
 6544SOL    HW220319   3.237   4.001   8.621
 6545SOL     OW20320   2.863   3.758   8.602
 6545SOL    HW120321   2.800   3.686   8.571
 6545SOL    HW220322   2.956   3.722   8.602
 6546SOL     OW20323   3.214   3.776   7.616
 6546SOL    HW120324   3.249   3.735   7.532
 6546SOL    HW220325   3.124   3.738   7.636
 6547SOL     OW20326   3.162   4.177   8.139
 6547SOL    HW120327   3.103   4.257   8.143
 6547SOL    HW220328   3.177   4.142   8.232
 6548SOL     OW20329   3.455   3.945   8.330
 6548SOL    HW120330   3.371   3.944   8.384
 6548SOL    HW220331   3.457   4.028   8.274
 6549SOL     OW20332   2.087   3.999  10.306
 6549SOL    HW120333   2.122   3.982  10.398
 6549SOL    HW220334   1.999   3.954  10.294
 6550SOL     OW20335   1.881   4.092   9.957
 6550SOL    HW120336   1.799   4.135   9.996
 6550SOL    HW220337   1.853   4.019   9.894
 6551SOL     OW20338   3.617   4.331   9.541
 6551SOL    HW120339   3.605   4.318   9.442
 6551SOL    HW220340   3.587   4.250   9.590
 6552SOL     OW20341   2.300   4.116  10.809
 6552SOL    HW120342   2.382   4.060  10.818
 6552SOL    HW220343   2.219   4.058  10.813
 6553SOL     OW20344   3.456   3.838  10.790
 6553SOL    HW120345   3.438   3.905  10.718
 6553SOL    HW220346   3.453   3.884  10.879
 6554SOL     OW20347   2.671   3.728   9.812
 6554SOL    HW120348   2.711   3.819   9.803
 6554SOL    HW220349   2.571   3.736   9.818
 6555SOL     OW20350   3.143   4.069  10.254
 6555SOL    HW120351   3.057   4.019  10.241
 6555SOL    HW220352   3.205   4.015  10.310
 6556SOL     OW20353   2.412   3.920  10.195
 6556SOL    HW120354   2.407   3.915  10.295
 6556SOL    HW220355   2.414   4.016  10.166
 6557SOL     OW20356   2.064   4.009  10.808
 6557SOL    HW120357   1.984   4.069  10.795
 6557SOL    HW220358   2.054   3.960  10.894
 6558SOL     OW20359   3.262   3.831   9.736
 6558SOL    HW120360   3.238   3.794   9.646
 6558SOL    HW220361   3.361   3.847   9.740
 6559SOL     OW20362   3.409   3.946  11.039
 6559SOL    HW120363   3.404   3.983  11.131
 6559SOL    HW220364   3.337   3.877  11.027
 6560SOL     OW20365   2.476   3.846   9.427
 6560SOL    HW120366   2.574   3.824   9.434
 6560SOL    HW220367   2.445   3.829   9.334
 6561SOL     OW20368   2.643   3.988  11.059
 6561SOL    HW120369   2.710   3.927  11.102
 6561SOL    HW220370   2.570   4.007  11.124
 6562SOL     OW20371   2.401   3.788   9.822
 6562SOL    HW120372   2.320   3.789   9.880
 6562SOL    HW220373   2.404   3.871   9.767
 6563SOL     OW20374   2.159   3.759   9.481
 6563SOL    HW120375   2.208   3.843   9.460
 6563SOL    HW220376   2.221   3.694   9.526
 6564SOL     OW20377   2.423   3.946  10.457
 6564SOL    HW120378   2.461   3.862  10.494
 6564SOL    HW220379   2.335   3.965  10.501
 6565SOL     OW20380   2.879   3.763  10.063
 6565SOL    HW120381   2.807   3.768   9.994
 6565SOL    HW220382   2.855   3.694  10.132
 6566SOL     OW20383   2.777   3.813  10.712
 6566SOL    HW120384   2.802   3.793  10.617
 6566SOL    HW220385   2.849   3.869  10.754
 6567SOL     OW20386   3.136   4.110  10.572
 6567SOL    HW120387   3.157   4.184  10.636
 6567SOL    HW220388   3.047   4.127  10.529
 6568SOL     OW20389   2.366   3.774  11.050
 6568SOL    HW120390   2.324   3.717  10.980
 6568SOL    HW220391   2.300   3.843  11.082
 6569SOL     OW20392   2.169   3.937  10.541
 6569SOL    HW120393   2.146   3.974  10.631
 6569SOL    HW220394   2.139   3.842  10.535
 6570SOL     OW20395   3.402   3.998   9.435
 6570SOL    HW120396   3.341   3.923   9.458
 6570SOL    HW220397   3.424   4.050   9.518
 6571SOL     OW20398   3.022   3.931  10.787
 6571SOL    HW120399   3.022   3.995  10.864
 6571SOL    HW220400   3.050   3.979  10.704
 6572SOL     OW20401   2.765   3.810   9.443
 6572SOL    HW120402   2.816   3.811   9.357
 6572SOL    HW220403   2.821   3.768   9.514
 6573SOL     OW20404   3.588   3.859   9.833
 6573SOL    HW120405   3.661   3.842   9.766
 6573SOL    HW220406   3.557   3.772   9.871
 6574SOL     OW20407   3.703   3.899  10.273
 6574SOL    HW120408   3.742   3.814  10.237
 6574SOL    HW220409   3.605   3.901  10.254
 6575SOL     OW20410   2.534   3.927  10.799
 6575SOL    HW120411   2.624   3.911  10.759
 6575SOL    HW220412   2.542   3.932  10.898
 6576SOL     OW20413   1.937   4.069   9.343
 6576SOL    HW120414   1.845   4.041   9.314
 6576SOL    HW220415   1.968   4.146   9.287
 6577SOL     OW20416   1.934   3.890   9.628
 6577SOL    HW120417   1.917   3.973   9.574
 6577SOL    HW220418   2.024   3.853   9.606
 6578SOL     OW20419   3.087   4.049   9.759
 6578SOL    HW120420   3.152   3.975   9.748
 6578SOL    HW220421   3.107   4.099   9.843
 6579SOL     OW20422   3.639   4.066  10.952
 6579SOL    HW120423   3.622   4.097  10.858
 6579SOL    HW220424   3.555   4.029  10.990
 6580SOL     OW20425   3.686   3.916  10.537
 6580SOL    HW120426   3.682   3.826  10.581
 6580SOL    HW220427   3.689   3.905  10.438
 6581SOL     OW20428   3.286   3.938  10.422
 6581SOL    HW120429   3.338   3.873  10.477
 6581SOL    HW220430   3.237   4.001  10.483
 6582SOL     OW20431   2.863   3.758  10.464
 6582SOL    HW120432   2.800   3.686  10.433
 6582SOL    HW220433   2.956   3.722  10.464
 6583SOL     OW20434   3.214   3.776   9.478
 6583SOL    HW120435   3.249   3.735   9.394
 6583SOL    HW220436   3.124   3.738   9.498
 6584SOL     OW20437   3.162   4.177  10.001
 6584SOL    HW120438   3.103   4.257  10.005
 6584SOL    HW220439   3.177   4.142  10.094
 6585SOL     OW20440   3.455   3.945  10.192
 6585SOL    HW120441   3.371   3.944  10.246
 6585SOL    HW220442   3.457   4.028  10.136
 6586SOL     OW20443   2.087   3.999  12.168
 6586SOL    HW120444   2.122   3.982  12.260
 6586SOL    HW220445   1.999   3.954  12.156
 6587SOL     OW20446   1.881   4.092  11.819
 6587SOL    HW120447   1.799   4.135  11.858
 6587SOL    HW220448   1.853   4.019  11.756
 6588SOL     OW20449   3.617   4.331  11.403
 6588SOL    HW120450   3.605   4.318  11.304
 6588SOL    HW220451   3.587   4.250  11.452
 6589SOL     OW20452   2.300   4.116  12.671
 6589SOL    HW120453   2.382   4.060  12.680
 6589SOL    HW220454   2.219   4.058  12.675
 6590SOL     OW20455   3.456   3.838  12.652
 6590SOL    HW120456   3.438   3.905  12.580
 6590SOL    HW220457   3.453   3.884  12.741
 6591SOL     OW20458   2.671   3.728  11.674
 6591SOL    HW120459   2.711   3.819  11.665
 6591SOL    HW220460   2.571   3.736  11.680
 6592SOL     OW20461   3.143   4.069  12.116
 6592SOL    HW120462   3.057   4.019  12.103
 6592SOL    HW220463   3.205   4.015  12.172
 6593SOL     OW20464   2.412   3.920  12.057
 6593SOL    HW120465   2.407   3.915  12.157
 6593SOL    HW220466   2.414   4.016  12.028
 6594SOL     OW20467   2.064   4.009  12.670
 6594SOL    HW120468   1.984   4.069  12.657
 6594SOL    HW220469   2.054   3.960  12.756
 6595SOL     OW20470   3.262   3.831  11.598
 6595SOL    HW120471   3.238   3.794  11.508
 6595SOL    HW220472   3.361   3.847  11.602
 6596SOL     OW20473   3.409   3.946  12.901
 6596SOL    HW120474   3.404   3.983  12.993
 6596SOL    HW220475   3.337   3.877  12.889
 6597SOL     OW20476   2.476   3.846  11.289
 6597SOL    HW120477   2.574   3.824  11.296
 6597SOL    HW220478   2.445   3.829  11.196
 6598SOL     OW20479   2.643   3.988  12.921
 6598SOL    HW120480   2.710   3.927  12.964
 6598SOL    HW220481   2.570   4.007  12.986
 6599SOL     OW20482   2.401   3.788  11.684
 6599SOL    HW120483   2.320   3.789  11.742
 6599SOL    HW220484   2.404   3.871  11.629
 6600SOL     OW20485   2.159   3.759  11.343
 6600SOL    HW120486   2.208   3.843  11.322
 6600SOL    HW220487   2.221   3.694  11.388
 6601SOL     OW20488   2.423   3.946  12.319
 6601SOL    HW120489   2.461   3.862  12.356
 6601SOL    HW220490   2.335   3.965  12.363
 6602SOL     OW20491   2.879   3.763  11.925
 6602SOL    HW120492   2.807   3.768  11.856
 6602SOL    HW220493   2.855   3.694  11.994
 6603SOL     OW20494   2.777   3.813  12.574
 6603SOL    HW120495   2.802   3.793  12.479
 6603SOL    HW220496   2.849   3.869  12.616
 6604SOL     OW20497   3.136   4.110  12.434
 6604SOL    HW120498   3.157   4.184  12.498
 6604SOL    HW220499   3.047   4.127  12.391
 6605SOL     OW20500   2.366   3.774  12.912
 6605SOL    HW120501   2.324   3.717  12.842
 6605SOL    HW220502   2.300   3.843  12.944
 6606SOL     OW20503   2.169   3.937  12.403
 6606SOL    HW120504   2.146   3.974  12.493
 6606SOL    HW220505   2.139   3.842  12.397
 6607SOL     OW20506   3.402   3.998  11.297
 6607SOL    HW120507   3.341   3.923  11.320
 6607SOL    HW220508   3.424   4.050  11.380
 6608SOL     OW20509   3.022   3.931  12.649
 6608SOL    HW120510   3.022   3.995  12.726
 6608SOL    HW220511   3.050   3.979  12.566
 6609SOL     OW20512   2.765   3.810  11.305
 6609SOL    HW120513   2.816   3.811  11.219
 6609SOL    HW220514   2.821   3.768  11.376
 6610SOL     OW20515   3.588   3.859  11.695
 6610SOL    HW120516   3.661   3.842  11.628
 6610SOL    HW220517   3.557   3.772  11.733
 6611SOL     OW20518   3.703   3.899  12.135
 6611SOL    HW120519   3.742   3.814  12.099
 6611SOL    HW220520   3.605   3.901  12.116
 6612SOL     OW20521   2.534   3.927  12.661
 6612SOL    HW120522   2.624   3.911  12.621
 6612SOL    HW220523   2.542   3.932  12.760
 6613SOL     OW20524   1.937   4.069  11.205
 6613SOL    HW120525   1.845   4.041  11.176
 6613SOL    HW220526   1.968   4.146  11.149
 6614SOL     OW20527   1.934   3.890  11.490
 6614SOL    HW120528   1.917   3.973  11.436
 6614SOL    HW220529   2.024   3.853  11.468
 6615SOL     OW20530   3.087   4.049  11.621
 6615SOL    HW120531   3.152   3.975  11.610
 6615SOL    HW220532   3.107   4.099  11.705
 6616SOL     OW20533   3.639   4.066  12.814
 6616SOL    HW120534   3.622   4.097  12.720
 6616SOL    HW220535   3.555   4.029  12.852
 6617SOL     OW20536   3.686   3.916  12.399
 6617SOL    HW120537   3.682   3.826  12.443
 6617SOL    HW220538   3.689   3.905  12.300
 6618SOL     OW20539   3.286   3.938  12.284
 6618SOL    HW120540   3.338   3.873  12.339
 6618SOL    HW220541   3.237   4.001  12.345
 6619SOL     OW20542   2.863   3.758  12.326
 6619SOL    HW120543   2.800   3.686  12.295
 6619SOL    HW220544   2.956   3.722  12.326
 6620SOL     OW20545   3.214   3.776  11.340
 6620SOL    HW120546   3.249   3.735  11.256
 6620SOL    HW220547   3.124   3.738  11.360
 6621SOL     OW20548   3.162   4.177  11.863
 6621SOL    HW120549   3.103   4.257  11.867
 6621SOL    HW220550   3.177   4.142  11.956
 6622SOL     OW20551   3.455   3.945  12.054
 6622SOL    HW120552   3.371   3.944  12.108
 6622SOL    HW220553   3.457   4.028  11.998
 6623SOL     OW20554   1.881   4.092  13.681
 6623SOL    HW120555   1.799   4.135  13.720
 6623SOL    HW220556   1.853   4.019  13.618
 6624SOL     OW20557   3.617   4.331  13.265
 6624SOL    HW120558   3.605   4.318  13.166
 6624SOL    HW220559   3.587   4.250  13.314
 6625SOL     OW20560   3.465   4.171  13.771
 6625SOL    HW120561   3.391   4.217  13.721
 6625SOL    HW220562   3.516   4.239  13.824
 6626SOL     OW20563   2.671   3.728  13.536
 6626SOL    HW120564   2.711   3.819  13.527
 6626SOL    HW220565   2.571   3.736  13.542
 6627SOL     OW20566   3.262   3.831  13.460
 6627SOL    HW120567   3.238   3.794  13.370
 6627SOL    HW220568   3.361   3.847  13.464
 6628SOL     OW20569   2.476   3.846  13.151
 6628SOL    HW120570   2.574   3.824  13.158
 6628SOL    HW220571   2.445   3.829  13.058
 6629SOL     OW20572   2.401   3.788  13.546
 6629SOL    HW120573   2.320   3.789  13.604
 6629SOL    HW220574   2.404   3.871  13.491
 6630SOL     OW20575   2.159   3.759  13.205
 6630SOL    HW120576   2.208   3.843  13.184
 6630SOL    HW220577   2.221   3.694  13.250
 6631SOL     OW20578   2.879   3.763  13.787
 6631SOL    HW120579   2.807   3.768  13.718
 6631SOL    HW220580   2.855   3.694  13.856
 6632SOL     OW20581   3.402   3.998  13.159
 6632SOL    HW120582   3.341   3.923  13.182
 6632SOL    HW220583   3.424   4.050  13.242
 6633SOL     OW20584   2.765   3.810  13.167
 6633SOL    HW120585   2.816   3.811  13.081
 6633SOL    HW220586   2.821   3.768  13.238
 6634SOL     OW20587   3.588   3.859  13.557
 6634SOL    HW120588   3.661   3.842  13.490
 6634SOL    HW220589   3.557   3.772  13.595
 6635SOL     OW20590   3.703   3.899  13.997
 6635SOL    HW120591   3.742   3.814  13.961
 6635SOL    HW220592   3.605   3.901  13.978
 6636SOL     OW20593   1.937   4.069  13.067
 6636SOL    HW120594   1.845   4.041  13.038
 6636SOL    HW220595   1.968   4.146  13.011
 6637SOL     OW20596   1.934   3.890  13.352
 6637SOL    HW120597   1.917   3.973  13.298
 6637SOL    HW220598   2.024   3.853  13.330
 6638SOL     OW20599   3.087   4.049  13.483
 6638SOL    HW120600   3.152   3.975  13.472
 6638SOL    HW220601   3.107   4.099  13.567
 6639SOL     OW20602   3.214   3.776  13.202
 6639SOL    HW120603   3.249   3.735  13.118
 6639SOL    HW220604   3.124   3.738  13.222
 6640SOL     OW20605   3.162   4.177  13.725
 6640SOL    HW120606   3.103   4.257  13.729
 6640SOL    HW220607   3.177   4.142  13.818
 6641SOL     OW20608   3.954   0.628   0.113
 6641SOL    HW120609   3.861   0.626   0.150
 6641SOL    HW220610   3.955   0.589   0.021
 6642SOL     OW20611   3.949   0.275   0.996
 6642SOL    HW120612   3.984   0.258   1.088
 6642SOL    HW220613   3.861   0.230   0.984
 6643SOL     OW20614   3.743   0.368   0.647
 6643SOL    HW120615   3.661   0.411   0.686
 6643SOL    HW220616   3.715   0.295   0.584
 6644SOL     OW20617   4.059   1.435   1.061
 6644SOL    HW120618   3.981   1.404   1.008
 6644SOL    HW220619   4.117   1.493   1.004
 6645SOL     OW20620   3.955   1.713   0.483
 6645SOL    HW120621   3.989   1.790   0.537
 6645SOL    HW220622   3.999   1.713   0.393
 6646SOL     OW20623   3.954   1.434   0.538
 6646SOL    HW120624   3.928   1.530   0.538
 6646SOL    HW220625   3.883   1.380   0.583
 6647SOL     OW20626   3.846   0.643   0.563
 6647SOL    HW120627   3.801   0.555   0.580
 6647SOL    HW220628   3.845   0.697   0.647
 6648SOL     OW20629   3.751   1.596   0.117
 6648SOL    HW120630   3.732   1.500   0.138
 6648SOL    HW220631   3.718   1.654   0.192
 6649SOL     OW20632   3.837   0.737   1.597
 6649SOL    HW120633   3.925   0.724   1.642
 6649SOL    HW220634   3.824   0.834   1.575
 6650SOL     OW20635   3.800   0.811   0.789
 6650SOL    HW120636   3.899   0.799   0.798
 6650SOL    HW220637   3.776   0.906   0.810
 6651SOL     OW20638   3.854   1.821   1.571
 6651SOL    HW120639   3.844   1.806   1.670
 6651SOL    HW220640   3.768   1.857   1.535
 6652SOL     OW20641   3.926   0.285   1.498
 6652SOL    HW120642   3.846   0.345   1.485
 6652SOL    HW220643   3.916   0.236   1.584
 6653SOL     OW20644   3.802   0.556   1.386
 6653SOL    HW120645   3.894   0.555   1.345
 6653SOL    HW220646   3.796   0.630   1.453
 6654SOL     OW20647   3.788   1.564   1.331
 6654SOL    HW120648   3.742   1.646   1.297
 6654SOL    HW220649   3.886   1.583   1.340
 6655SOL     OW20650   4.091   1.100   0.501
 6655SOL    HW120651   4.084   1.183   0.445
 6655SOL    HW220652   4.095   1.020   0.441
 6656SOL     OW20653   4.031   0.213   1.231
 6656SOL    HW120654   4.008   0.250   1.321
 6656SOL    HW220655   4.001   0.118   1.225
 6657SOL     OW20656   3.761   1.310   1.282
 6657SOL    HW120657   3.814   1.261   1.350
 6657SOL    HW220658   3.783   1.408   1.287
 6658SOL     OW20659   3.732   1.326   0.200
 6658SOL    HW120660   3.639   1.347   0.169
 6658SOL    HW220661   3.742   1.227   0.213
 6659SOL     OW20662   3.812   1.801   0.927
 6659SOL    HW120663   3.770   1.715   0.900
 6659SOL    HW220664   3.906   1.804   0.893
 6660SOL     OW20665   4.228   1.568   0.910
 6660SOL    HW120666   4.294   1.642   0.919
 6660SOL    HW220667   4.272   1.489   0.868
 6661SOL     OW20668   3.764   0.544   1.114
 6661SOL    HW120669   3.849   0.511   1.073
 6661SOL    HW220670   3.777   0.559   1.212
 6662SOL     OW20671   3.913   0.520   1.722
 6662SOL    HW120672   3.972   0.480   1.652
 6662SOL    HW220673   3.855   0.591   1.681
 6663SOL     OW20674   3.976   1.564   1.744
 6663SOL    HW120675   3.946   1.621   1.820
 6663SOL    HW220676   3.969   1.467   1.770
 6664SOL     OW20677   3.883   1.137   1.466
 6664SOL    HW120678   3.905   1.076   1.542
 6664SOL    HW220679   3.893   1.088   1.380
 6665SOL     OW20680   3.807   1.258   1.022
 6665SOL    HW120681   3.802   1.257   1.122
 6665SOL    HW220682   3.724   1.217   0.984
 6666SOL     OW20683   3.854   1.794   1.851
 6666SOL    HW120684   3.813   1.720   1.904
 6666SOL    HW220685   3.918   1.845   1.909
 6667SOL     OW20686   3.799   0.345   0.033
 6667SOL    HW120687   3.707   0.317   0.004
 6667SOL    HW220688   3.830   0.422  -0.023
 6668SOL     OW20689   3.796   0.166   0.318
 6668SOL    HW120690   3.779   0.249   0.264
 6668SOL    HW220691   3.886   0.129   0.296
 6669SOL     OW20692   3.803   1.240   0.653
 6669SOL    HW120693   3.802   1.193   0.741
 6669SOL    HW220694   3.885   1.212   0.602
 6670SOL     OW20695   3.763   1.077   0.300
 6670SOL    HW120696   3.862   1.066   0.291
 6670SOL    HW220697   3.723   0.991   0.332
 6671SOL     OW20698   3.954   0.628   1.975
 6671SOL    HW120699   3.861   0.626   2.012
 6671SOL    HW220700   3.955   0.589   1.883
 6672SOL     OW20701   3.949   0.275   2.858
 6672SOL    HW120702   3.984   0.258   2.950
 6672SOL    HW220703   3.861   0.230   2.846
 6673SOL     OW20704   3.743   0.368   2.509
 6673SOL    HW120705   3.661   0.411   2.548
 6673SOL    HW220706   3.715   0.295   2.446
 6674SOL     OW20707   4.059   1.435   2.923
 6674SOL    HW120708   3.981   1.404   2.870
 6674SOL    HW220709   4.117   1.493   2.866
 6675SOL     OW20710   3.955   1.713   2.345
 6675SOL    HW120711   3.989   1.790   2.399
 6675SOL    HW220712   3.999   1.713   2.255
 6676SOL     OW20713   3.954   1.434   2.400
 6676SOL    HW120714   3.928   1.530   2.400
 6676SOL    HW220715   3.883   1.380   2.445
 6677SOL     OW20716   3.846   0.643   2.425
 6677SOL    HW120717   3.801   0.555   2.442
 6677SOL    HW220718   3.845   0.697   2.509
 6678SOL     OW20719   3.751   1.596   1.979
 6678SOL    HW120720   3.732   1.500   2.000
 6678SOL    HW220721   3.718   1.654   2.054
 6679SOL     OW20722   3.837   0.737   3.459
 6679SOL    HW120723   3.925   0.724   3.504
 6679SOL    HW220724   3.824   0.834   3.437
 6680SOL     OW20725   3.800   0.811   2.651
 6680SOL    HW120726   3.899   0.799   2.660
 6680SOL    HW220727   3.776   0.906   2.672
 6681SOL     OW20728   3.854   1.821   3.433
 6681SOL    HW120729   3.844   1.806   3.532
 6681SOL    HW220730   3.768   1.857   3.397
 6682SOL     OW20731   3.926   0.285   3.360
 6682SOL    HW120732   3.846   0.345   3.347
 6682SOL    HW220733   3.916   0.236   3.446
 6683SOL     OW20734   3.802   0.556   3.248
 6683SOL    HW120735   3.894   0.555   3.207
 6683SOL    HW220736   3.796   0.630   3.315
 6684SOL     OW20737   4.251   0.256   2.190
 6684SOL    HW120738   4.278   0.197   2.115
 6684SOL    HW220739   4.251   0.351   2.159
 6685SOL     OW20740   3.788   1.564   3.193
 6685SOL    HW120741   3.742   1.646   3.159
 6685SOL    HW220742   3.886   1.583   3.202
 6686SOL     OW20743   4.091   1.100   2.363
 6686SOL    HW120744   4.084   1.183   2.307
 6686SOL    HW220745   4.095   1.020   2.303
 6687SOL     OW20746   4.031   0.213   3.093
 6687SOL    HW120747   4.008   0.250   3.183
 6687SOL    HW220748   4.001   0.118   3.087
 6688SOL     OW20749   3.761   1.310   3.144
 6688SOL    HW120750   3.814   1.261   3.212
 6688SOL    HW220751   3.783   1.408   3.149
 6689SOL     OW20752   3.732   1.326   2.062
 6689SOL    HW120753   3.639   1.347   2.031
 6689SOL    HW220754   3.742   1.227   2.075
 6690SOL     OW20755   3.812   1.801   2.789
 6690SOL    HW120756   3.770   1.715   2.762
 6690SOL    HW220757   3.906   1.804   2.755
 6691SOL     OW20758   4.228   1.568   2.772
 6691SOL    HW120759   4.294   1.642   2.781
 6691SOL    HW220760   4.272   1.489   2.730
 6692SOL     OW20761   3.764   0.544   2.976
 6692SOL    HW120762   3.849   0.511   2.935
 6692SOL    HW220763   3.777   0.559   3.074
 6693SOL     OW20764   3.913   0.520   3.584
 6693SOL    HW120765   3.972   0.480   3.514
 6693SOL    HW220766   3.855   0.591   3.543
 6694SOL     OW20767   3.976   1.564   3.606
 6694SOL    HW120768   3.946   1.621   3.682
 6694SOL    HW220769   3.969   1.467   3.632
 6695SOL     OW20770   3.883   1.137   3.328
 6695SOL    HW120771   3.905   1.076   3.404
 6695SOL    HW220772   3.893   1.088   3.242
 6696SOL     OW20773   3.807   1.258   2.884
 6696SOL    HW120774   3.802   1.257   2.984
 6696SOL    HW220775   3.724   1.217   2.846
 6697SOL     OW20776   3.854   1.794   3.713
 6697SOL    HW120777   3.813   1.720   3.766
 6697SOL    HW220778   3.918   1.845   3.771
 6698SOL     OW20779   3.799   0.345   1.895
 6698SOL    HW120780   3.707   0.317   1.866
 6698SOL    HW220781   3.830   0.422   1.839
 6699SOL     OW20782   3.796   0.166   2.180
 6699SOL    HW120783   3.779   0.249   2.126
 6699SOL    HW220784   3.886   0.129   2.158
 6700SOL     OW20785   3.803   1.240   2.515
 6700SOL    HW120786   3.802   1.193   2.603
 6700SOL    HW220787   3.885   1.212   2.464
 6701SOL     OW20788   3.763   1.077   2.162
 6701SOL    HW120789   3.862   1.066   2.153
 6701SOL    HW220790   3.723   0.991   2.194
 6702SOL     OW20791   3.954   0.628   3.837
 6702SOL    HW120792   3.861   0.626   3.874
 6702SOL    HW220793   3.955   0.589   3.745
 6703SOL     OW20794   3.949   0.275   4.720
 6703SOL    HW120795   3.984   0.258   4.812
 6703SOL    HW220796   3.861   0.230   4.708
 6704SOL     OW20797   3.743   0.368   4.371
 6704SOL    HW120798   3.661   0.411   4.410
 6704SOL    HW220799   3.715   0.295   4.308
 6705SOL     OW20800   4.059   1.435   4.785
 6705SOL    HW120801   3.981   1.404   4.732
 6705SOL    HW220802   4.117   1.493   4.728
 6706SOL     OW20803   3.955   1.713   4.207
 6706SOL    HW120804   3.989   1.790   4.261
 6706SOL    HW220805   3.999   1.713   4.117
 6707SOL     OW20806   3.954   1.434   4.262
 6707SOL    HW120807   3.928   1.530   4.262
 6707SOL    HW220808   3.883   1.380   4.307
 6708SOL     OW20809   3.846   0.643   4.287
 6708SOL    HW120810   3.801   0.555   4.304
 6708SOL    HW220811   3.845   0.697   4.371
 6709SOL     OW20812   3.751   1.596   3.841
 6709SOL    HW120813   3.732   1.500   3.862
 6709SOL    HW220814   3.718   1.654   3.916
 6710SOL     OW20815   3.837   0.737   5.321
 6710SOL    HW120816   3.925   0.724   5.366
 6710SOL    HW220817   3.824   0.834   5.299
 6711SOL     OW20818   3.800   0.811   4.513
 6711SOL    HW120819   3.899   0.799   4.522
 6711SOL    HW220820   3.776   0.906   4.534
 6712SOL     OW20821   3.854   1.821   5.295
 6712SOL    HW120822   3.844   1.806   5.394
 6712SOL    HW220823   3.768   1.857   5.259
 6713SOL     OW20824   3.926   0.285   5.222
 6713SOL    HW120825   3.846   0.345   5.209
 6713SOL    HW220826   3.916   0.236   5.308
 6714SOL     OW20827   3.802   0.556   5.110
 6714SOL    HW120828   3.894   0.555   5.069
 6714SOL    HW220829   3.796   0.630   5.177
 6715SOL     OW20830   4.251   0.256   4.052
 6715SOL    HW120831   4.278   0.197   3.977
 6715SOL    HW220832   4.251   0.351   4.021
 6716SOL     OW20833   3.788   1.564   5.055
 6716SOL    HW120834   3.742   1.646   5.021
 6716SOL    HW220835   3.886   1.583   5.064
 6717SOL     OW20836   4.091   1.100   4.225
 6717SOL    HW120837   4.084   1.183   4.169
 6717SOL    HW220838   4.095   1.020   4.165
 6718SOL     OW20839   4.031   0.213   4.955
 6718SOL    HW120840   4.008   0.250   5.045
 6718SOL    HW220841   4.001   0.118   4.949
 6719SOL     OW20842   3.761   1.310   5.006
 6719SOL    HW120843   3.814   1.261   5.074
 6719SOL    HW220844   3.783   1.408   5.011
 6720SOL     OW20845   3.732   1.326   3.924
 6720SOL    HW120846   3.639   1.347   3.893
 6720SOL    HW220847   3.742   1.227   3.937
 6721SOL     OW20848   3.812   1.801   4.651
 6721SOL    HW120849   3.770   1.715   4.624
 6721SOL    HW220850   3.906   1.804   4.617
 6722SOL     OW20851   4.228   1.568   4.634
 6722SOL    HW120852   4.294   1.642   4.643
 6722SOL    HW220853   4.272   1.489   4.592
 6723SOL     OW20854   3.764   0.544   4.838
 6723SOL    HW120855   3.849   0.511   4.797
 6723SOL    HW220856   3.777   0.559   4.936
 6724SOL     OW20857   3.913   0.520   5.446
 6724SOL    HW120858   3.972   0.480   5.376
 6724SOL    HW220859   3.855   0.591   5.405
 6725SOL     OW20860   3.976   1.564   5.468
 6725SOL    HW120861   3.946   1.621   5.544
 6725SOL    HW220862   3.969   1.467   5.494
 6726SOL     OW20863   3.883   1.137   5.190
 6726SOL    HW120864   3.905   1.076   5.266
 6726SOL    HW220865   3.893   1.088   5.104
 6727SOL     OW20866   3.807   1.258   4.746
 6727SOL    HW120867   3.802   1.257   4.846
 6727SOL    HW220868   3.724   1.217   4.708
 6728SOL     OW20869   3.854   1.794   5.575
 6728SOL    HW120870   3.813   1.720   5.628
 6728SOL    HW220871   3.918   1.845   5.633
 6729SOL     OW20872   3.799   0.345   3.757
 6729SOL    HW120873   3.707   0.317   3.728
 6729SOL    HW220874   3.830   0.422   3.701
 6730SOL     OW20875   3.796   0.166   4.042
 6730SOL    HW120876   3.779   0.249   3.988
 6730SOL    HW220877   3.886   0.129   4.020
 6731SOL     OW20878   3.803   1.240   4.377
 6731SOL    HW120879   3.802   1.193   4.465
 6731SOL    HW220880   3.885   1.212   4.326
 6732SOL     OW20881   3.763   1.077   4.024
 6732SOL    HW120882   3.862   1.066   4.015
 6732SOL    HW220883   3.723   0.991   4.056
 6733SOL     OW20884   3.954   0.628   5.699
 6733SOL    HW120885   3.861   0.626   5.736
 6733SOL    HW220886   3.955   0.589   5.607
 6734SOL     OW20887   3.949   0.275   6.582
 6734SOL    HW120888   3.984   0.258   6.674
 6734SOL    HW220889   3.861   0.230   6.570
 6735SOL     OW20890   3.743   0.368   6.233
 6735SOL    HW120891   3.661   0.411   6.272
 6735SOL    HW220892   3.715   0.295   6.170
 6736SOL     OW20893   4.059   1.435   6.647
 6736SOL    HW120894   3.981   1.404   6.594
 6736SOL    HW220895   4.117   1.493   6.590
 6737SOL     OW20896   3.955   1.713   6.069
 6737SOL    HW120897   3.989   1.790   6.123
 6737SOL    HW220898   3.999   1.713   5.979
 6738SOL     OW20899   3.954   1.434   6.124
 6738SOL    HW120900   3.928   1.530   6.124
 6738SOL    HW220901   3.883   1.380   6.169
 6739SOL     OW20902   3.846   0.643   6.149
 6739SOL    HW120903   3.801   0.555   6.166
 6739SOL    HW220904   3.845   0.697   6.233
 6740SOL     OW20905   3.751   1.596   5.703
 6740SOL    HW120906   3.732   1.500   5.724
 6740SOL    HW220907   3.718   1.654   5.778
 6741SOL     OW20908   3.837   0.737   7.183
 6741SOL    HW120909   3.925   0.724   7.228
 6741SOL    HW220910   3.824   0.834   7.161
 6742SOL     OW20911   3.800   0.811   6.375
 6742SOL    HW120912   3.899   0.799   6.384
 6742SOL    HW220913   3.776   0.906   6.396
 6743SOL     OW20914   3.854   1.821   7.157
 6743SOL    HW120915   3.844   1.806   7.256
 6743SOL    HW220916   3.768   1.857   7.121
 6744SOL     OW20917   3.926   0.285   7.084
 6744SOL    HW120918   3.846   0.345   7.071
 6744SOL    HW220919   3.916   0.236   7.170
 6745SOL     OW20920   3.802   0.556   6.972
 6745SOL    HW120921   3.894   0.555   6.931
 6745SOL    HW220922   3.796   0.630   7.039
 6746SOL     OW20923   4.251   0.256   5.914
 6746SOL    HW120924   4.278   0.197   5.839
 6746SOL    HW220925   4.251   0.351   5.883
 6747SOL     OW20926   3.788   1.564   6.917
 6747SOL    HW120927   3.742   1.646   6.883
 6747SOL    HW220928   3.886   1.583   6.926
 6748SOL     OW20929   4.091   1.100   6.087
 6748SOL    HW120930   4.084   1.183   6.031
 6748SOL    HW220931   4.095   1.020   6.027
 6749SOL     OW20932   4.031   0.213   6.817
 6749SOL    HW120933   4.008   0.250   6.907
 6749SOL    HW220934   4.001   0.118   6.811
 6750SOL     OW20935   3.761   1.310   6.868
 6750SOL    HW120936   3.814   1.261   6.936
 6750SOL    HW220937   3.783   1.408   6.873
 6751SOL     OW20938   3.732   1.326   5.786
 6751SOL    HW120939   3.639   1.347   5.755
 6751SOL    HW220940   3.742   1.227   5.799
 6752SOL     OW20941   3.812   1.801   6.513
 6752SOL    HW120942   3.770   1.715   6.486
 6752SOL    HW220943   3.906   1.804   6.479
 6753SOL     OW20944   4.228   1.568   6.496
 6753SOL    HW120945   4.294   1.642   6.505
 6753SOL    HW220946   4.272   1.489   6.454
 6754SOL     OW20947   3.764   0.544   6.700
 6754SOL    HW120948   3.849   0.511   6.659
 6754SOL    HW220949   3.777   0.559   6.798
 6755SOL     OW20950   3.913   0.520   7.308
 6755SOL    HW120951   3.972   0.480   7.238
 6755SOL    HW220952   3.855   0.591   7.267
 6756SOL     OW20953   3.976   1.564   7.330
 6756SOL    HW120954   3.946   1.621   7.406
 6756SOL    HW220955   3.969   1.467   7.356
 6757SOL     OW20956   3.883   1.137   7.052
 6757SOL    HW120957   3.905   1.076   7.128
 6757SOL    HW220958   3.893   1.088   6.966
 6758SOL     OW20959   3.807   1.258   6.608
 6758SOL    HW120960   3.802   1.257   6.708
 6758SOL    HW220961   3.724   1.217   6.570
 6759SOL     OW20962   3.854   1.794   7.437
 6759SOL    HW120963   3.813   1.720   7.490
 6759SOL    HW220964   3.918   1.845   7.495
 6760SOL     OW20965   3.799   0.345   5.619
 6760SOL    HW120966   3.707   0.317   5.590
 6760SOL    HW220967   3.830   0.422   5.563
 6761SOL     OW20968   3.796   0.166   5.904
 6761SOL    HW120969   3.779   0.249   5.850
 6761SOL    HW220970   3.886   0.129   5.882
 6762SOL     OW20971   3.803   1.240   6.239
 6762SOL    HW120972   3.802   1.193   6.327
 6762SOL    HW220973   3.885   1.212   6.188
 6763SOL     OW20974   3.763   1.077   5.886
 6763SOL    HW120975   3.862   1.066   5.877
 6763SOL    HW220976   3.723   0.991   5.918
 6764SOL     OW20977   3.954   0.628   7.561
 6764SOL    HW120978   3.861   0.626   7.598
 6764SOL    HW220979   3.955   0.589   7.469
 6765SOL     OW20980   3.949   0.275   8.444
 6765SOL    HW120981   3.984   0.258   8.536
 6765SOL    HW220982   3.861   0.230   8.432
 6766SOL     OW20983   3.743   0.368   8.095
 6766SOL    HW120984   3.661   0.411   8.134
 6766SOL    HW220985   3.715   0.295   8.032
 6767SOL     OW20986   4.059   1.435   8.509
 6767SOL    HW120987   3.981   1.404   8.456
 6767SOL    HW220988   4.117   1.493   8.452
 6768SOL     OW20989   3.955   1.713   7.931
 6768SOL    HW120990   3.989   1.790   7.985
 6768SOL    HW220991   3.999   1.713   7.841
 6769SOL     OW20992   3.954   1.434   7.986
 6769SOL    HW120993   3.928   1.530   7.986
 6769SOL    HW220994   3.883   1.380   8.031
 6770SOL     OW20995   3.846   0.643   8.011
 6770SOL    HW120996   3.801   0.555   8.028
 6770SOL    HW220997   3.845   0.697   8.095
 6771SOL     OW20998   3.751   1.596   7.565
 6771SOL    HW120999   3.732   1.500   7.586
 6771SOL    HW221000   3.718   1.654   7.640
 6772SOL     OW21001   3.837   0.737   9.045
 6772SOL    HW121002   3.925   0.724   9.090
 6772SOL    HW221003   3.824   0.834   9.023
 6773SOL     OW21004   3.800   0.811   8.237
 6773SOL    HW121005   3.899   0.799   8.246
 6773SOL    HW221006   3.776   0.906   8.258
 6774SOL     OW21007   3.854   1.821   9.019
 6774SOL    HW121008   3.844   1.806   9.118
 6774SOL    HW221009   3.768   1.857   8.983
 6775SOL     OW21010   3.926   0.285   8.946
 6775SOL    HW121011   3.846   0.345   8.933
 6775SOL    HW221012   3.916   0.236   9.032
 6776SOL     OW21013   3.802   0.556   8.834
 6776SOL    HW121014   3.894   0.555   8.793
 6776SOL    HW221015   3.796   0.630   8.901
 6777SOL     OW21016   4.251   0.256   7.776
 6777SOL    HW121017   4.278   0.197   7.701
 6777SOL    HW221018   4.251   0.351   7.745
 6778SOL     OW21019   3.788   1.564   8.779
 6778SOL    HW121020   3.742   1.646   8.745
 6778SOL    HW221021   3.886   1.583   8.788
 6779SOL     OW21022   4.091   1.100   7.949
 6779SOL    HW121023   4.084   1.183   7.893
 6779SOL    HW221024   4.095   1.020   7.889
 6780SOL     OW21025   4.031   0.213   8.679
 6780SOL    HW121026   4.008   0.250   8.769
 6780SOL    HW221027   4.001   0.118   8.673
 6781SOL     OW21028   3.761   1.310   8.730
 6781SOL    HW121029   3.814   1.261   8.798
 6781SOL    HW221030   3.783   1.408   8.735
 6782SOL     OW21031   3.732   1.326   7.648
 6782SOL    HW121032   3.639   1.347   7.617
 6782SOL    HW221033   3.742   1.227   7.661
 6783SOL     OW21034   3.812   1.801   8.375
 6783SOL    HW121035   3.770   1.715   8.348
 6783SOL    HW221036   3.906   1.804   8.341
 6784SOL     OW21037   4.228   1.568   8.358
 6784SOL    HW121038   4.294   1.642   8.367
 6784SOL    HW221039   4.272   1.489   8.316
 6785SOL     OW21040   3.764   0.544   8.562
 6785SOL    HW121041   3.849   0.511   8.521
 6785SOL    HW221042   3.777   0.559   8.660
 6786SOL     OW21043   3.913   0.520   9.170
 6786SOL    HW121044   3.972   0.480   9.100
 6786SOL    HW221045   3.855   0.591   9.129
 6787SOL     OW21046   3.976   1.564   9.192
 6787SOL    HW121047   3.946   1.621   9.268
 6787SOL    HW221048   3.969   1.467   9.218
 6788SOL     OW21049   3.883   1.137   8.914
 6788SOL    HW121050   3.905   1.076   8.990
 6788SOL    HW221051   3.893   1.088   8.828
 6789SOL     OW21052   3.807   1.258   8.470
 6789SOL    HW121053   3.802   1.257   8.570
 6789SOL    HW221054   3.724   1.217   8.432
 6790SOL     OW21055   3.854   1.794   9.299
 6790SOL    HW121056   3.813   1.720   9.352
 6790SOL    HW221057   3.918   1.845   9.357
 6791SOL     OW21058   3.799   0.345   7.481
 6791SOL    HW121059   3.707   0.317   7.452
 6791SOL    HW221060   3.830   0.422   7.425
 6792SOL     OW21061   3.796   0.166   7.766
 6792SOL    HW121062   3.779   0.249   7.712
 6792SOL    HW221063   3.886   0.129   7.744
 6793SOL     OW21064   3.803   1.240   8.101
 6793SOL    HW121065   3.802   1.193   8.189
 6793SOL    HW221066   3.885   1.212   8.050
 6794SOL     OW21067   3.763   1.077   7.748
 6794SOL    HW121068   3.862   1.066   7.739
 6794SOL    HW221069   3.723   0.991   7.780
 6795SOL     OW21070   3.954   0.628   9.423
 6795SOL    HW121071   3.861   0.626   9.460
 6795SOL    HW221072   3.955   0.589   9.331
 6796SOL     OW21073   3.949   0.275  10.306
 6796SOL    HW121074   3.984   0.258  10.398
 6796SOL    HW221075   3.861   0.230  10.294
 6797SOL     OW21076   3.743   0.368   9.957
 6797SOL    HW121077   3.661   0.411   9.996
 6797SOL    HW221078   3.715   0.295   9.894
 6798SOL     OW21079   4.059   1.435  10.371
 6798SOL    HW121080   3.981   1.404  10.318
 6798SOL    HW221081   4.117   1.493  10.314
 6799SOL     OW21082   3.955   1.713   9.793
 6799SOL    HW121083   3.989   1.790   9.847
 6799SOL    HW221084   3.999   1.713   9.703
 6800SOL     OW21085   3.954   1.434   9.848
 6800SOL    HW121086   3.928   1.530   9.848
 6800SOL    HW221087   3.883   1.380   9.893
 6801SOL     OW21088   3.846   0.643   9.873
 6801SOL    HW121089   3.801   0.555   9.890
 6801SOL    HW221090   3.845   0.697   9.957
 6802SOL     OW21091   3.751   1.596   9.427
 6802SOL    HW121092   3.732   1.500   9.448
 6802SOL    HW221093   3.718   1.654   9.502
 6803SOL     OW21094   3.837   0.737  10.907
 6803SOL    HW121095   3.925   0.724  10.952
 6803SOL    HW221096   3.824   0.834  10.885
 6804SOL     OW21097   3.800   0.811  10.099
 6804SOL    HW121098   3.899   0.799  10.108
 6804SOL    HW221099   3.776   0.906  10.120
 6805SOL     OW21100   3.854   1.821  10.881
 6805SOL    HW121101   3.844   1.806  10.980
 6805SOL    HW221102   3.768   1.857  10.845
 6806SOL     OW21103   3.926   0.285  10.808
 6806SOL    HW121104   3.846   0.345  10.795
 6806SOL    HW221105   3.916   0.236  10.894
 6807SOL     OW21106   3.802   0.556  10.696
 6807SOL    HW121107   3.894   0.555  10.655
 6807SOL    HW221108   3.796   0.630  10.763
 6808SOL     OW21109   4.251   0.256   9.638
 6808SOL    HW121110   4.278   0.197   9.563
 6808SOL    HW221111   4.251   0.351   9.607
 6809SOL     OW21112   3.788   1.564  10.641
 6809SOL    HW121113   3.742   1.646  10.607
 6809SOL    HW221114   3.886   1.583  10.650
 6810SOL     OW21115   4.091   1.100   9.811
 6810SOL    HW121116   4.084   1.183   9.755
 6810SOL    HW221117   4.095   1.020   9.751
 6811SOL     OW21118   4.031   0.213  10.541
 6811SOL    HW121119   4.008   0.250  10.631
 6811SOL    HW221120   4.001   0.118  10.535
 6812SOL     OW21121   3.761   1.310  10.592
 6812SOL    HW121122   3.814   1.261  10.660
 6812SOL    HW221123   3.783   1.408  10.597
 6813SOL     OW21124   3.732   1.326   9.510
 6813SOL    HW121125   3.639   1.347   9.479
 6813SOL    HW221126   3.742   1.227   9.523
 6814SOL     OW21127   3.812   1.801  10.237
 6814SOL    HW121128   3.770   1.715  10.210
 6814SOL    HW221129   3.906   1.804  10.203
 6815SOL     OW21130   4.228   1.568  10.220
 6815SOL    HW121131   4.294   1.642  10.229
 6815SOL    HW221132   4.272   1.489  10.178
 6816SOL     OW21133   3.764   0.544  10.424
 6816SOL    HW121134   3.849   0.511  10.383
 6816SOL    HW221135   3.777   0.559  10.522
 6817SOL     OW21136   3.913   0.520  11.032
 6817SOL    HW121137   3.972   0.480  10.962
 6817SOL    HW221138   3.855   0.591  10.991
 6818SOL     OW21139   3.976   1.564  11.054
 6818SOL    HW121140   3.946   1.621  11.130
 6818SOL    HW221141   3.969   1.467  11.080
 6819SOL     OW21142   3.883   1.137  10.776
 6819SOL    HW121143   3.905   1.076  10.852
 6819SOL    HW221144   3.893   1.088  10.690
 6820SOL     OW21145   3.807   1.258  10.332
 6820SOL    HW121146   3.802   1.257  10.432
 6820SOL    HW221147   3.724   1.217  10.294
 6821SOL     OW21148   3.854   1.794  11.161
 6821SOL    HW121149   3.813   1.720  11.214
 6821SOL    HW221150   3.918   1.845  11.219
 6822SOL     OW21151   3.799   0.345   9.343
 6822SOL    HW121152   3.707   0.317   9.314
 6822SOL    HW221153   3.830   0.422   9.287
 6823SOL     OW21154   3.796   0.166   9.628
 6823SOL    HW121155   3.779   0.249   9.574
 6823SOL    HW221156   3.886   0.129   9.606
 6824SOL     OW21157   3.803   1.240   9.963
 6824SOL    HW121158   3.802   1.193  10.051
 6824SOL    HW221159   3.885   1.212   9.912
 6825SOL     OW21160   3.763   1.077   9.610
 6825SOL    HW121161   3.862   1.066   9.601
 6825SOL    HW221162   3.723   0.991   9.642
 6826SOL     OW21163   3.954   0.628  11.285
 6826SOL    HW121164   3.861   0.626  11.322
 6826SOL    HW221165   3.955   0.589  11.193
 6827SOL     OW21166   3.949   0.275  12.168
 6827SOL    HW121167   3.984   0.258  12.260
 6827SOL    HW221168   3.861   0.230  12.156
 6828SOL     OW21169   3.743   0.368  11.819
 6828SOL    HW121170   3.661   0.411  11.858
 6828SOL    HW221171   3.715   0.295  11.756
 6829SOL     OW21172   4.059   1.435  12.233
 6829SOL    HW121173   3.981   1.404  12.180
 6829SOL    HW221174   4.117   1.493  12.176
 6830SOL     OW21175   3.955   1.713  11.655
 6830SOL    HW121176   3.989   1.790  11.709
 6830SOL    HW221177   3.999   1.713  11.565
 6831SOL     OW21178   3.954   1.434  11.710
 6831SOL    HW121179   3.928   1.530  11.710
 6831SOL    HW221180   3.883   1.380  11.755
 6832SOL     OW21181   3.846   0.643  11.735
 6832SOL    HW121182   3.801   0.555  11.752
 6832SOL    HW221183   3.845   0.697  11.819
 6833SOL     OW21184   3.751   1.596  11.289
 6833SOL    HW121185   3.732   1.500  11.310
 6833SOL    HW221186   3.718   1.654  11.364
 6834SOL     OW21187   3.837   0.737  12.769
 6834SOL    HW121188   3.925   0.724  12.814
 6834SOL    HW221189   3.824   0.834  12.747
 6835SOL     OW21190   3.800   0.811  11.961
 6835SOL    HW121191   3.899   0.799  11.970
 6835SOL    HW221192   3.776   0.906  11.982
 6836SOL     OW21193   3.854   1.821  12.743
 6836SOL    HW121194   3.844   1.806  12.842
 6836SOL    HW221195   3.768   1.857  12.707
 6837SOL     OW21196   3.926   0.285  12.670
 6837SOL    HW121197   3.846   0.345  12.657
 6837SOL    HW221198   3.916   0.236  12.756
 6838SOL     OW21199   3.802   0.556  12.558
 6838SOL    HW121200   3.894   0.555  12.517
 6838SOL    HW221201   3.796   0.630  12.625
 6839SOL     OW21202   4.251   0.256  11.500
 6839SOL    HW121203   4.278   0.197  11.425
 6839SOL    HW221204   4.251   0.351  11.469
 6840SOL     OW21205   3.788   1.564  12.503
 6840SOL    HW121206   3.742   1.646  12.469
 6840SOL    HW221207   3.886   1.583  12.512
 6841SOL     OW21208   4.091   1.100  11.673
 6841SOL    HW121209   4.084   1.183  11.617
 6841SOL    HW221210   4.095   1.020  11.613
 6842SOL     OW21211   4.031   0.213  12.403
 6842SOL    HW121212   4.008   0.250  12.493
 6842SOL    HW221213   4.001   0.118  12.397
 6843SOL     OW21214   3.761   1.310  12.454
 6843SOL    HW121215   3.814   1.261  12.522
 6843SOL    HW221216   3.783   1.408  12.459
 6844SOL     OW21217   3.732   1.326  11.372
 6844SOL    HW121218   3.639   1.347  11.341
 6844SOL    HW221219   3.742   1.227  11.385
 6845SOL     OW21220   3.812   1.801  12.099
 6845SOL    HW121221   3.770   1.715  12.072
 6845SOL    HW221222   3.906   1.804  12.065
 6846SOL     OW21223   4.228   1.568  12.082
 6846SOL    HW121224   4.294   1.642  12.091
 6846SOL    HW221225   4.272   1.489  12.040
 6847SOL     OW21226   3.764   0.544  12.286
 6847SOL    HW121227   3.849   0.511  12.245
 6847SOL    HW221228   3.777   0.559  12.384
 6848SOL     OW21229   3.913   0.520  12.894
 6848SOL    HW121230   3.972   0.480  12.824
 6848SOL    HW221231   3.855   0.591  12.853
 6849SOL     OW21232   3.976   1.564  12.916
 6849SOL    HW121233   3.946   1.621  12.992
 6849SOL    HW221234   3.969   1.467  12.942
 6850SOL     OW21235   3.883   1.137  12.638
 6850SOL    HW121236   3.905   1.076  12.714
 6850SOL    HW221237   3.893   1.088  12.552
 6851SOL     OW21238   3.807   1.258  12.194
 6851SOL    HW121239   3.802   1.257  12.294
 6851SOL    HW221240   3.724   1.217  12.156
 6852SOL     OW21241   3.854   1.794  13.023
 6852SOL    HW121242   3.813   1.720  13.076
 6852SOL    HW221243   3.918   1.845  13.081
 6853SOL     OW21244   3.799   0.345  11.205
 6853SOL    HW121245   3.707   0.317  11.176
 6853SOL    HW221246   3.830   0.422  11.149
 6854SOL     OW21247   3.796   0.166  11.490
 6854SOL    HW121248   3.779   0.249  11.436
 6854SOL    HW221249   3.886   0.129  11.468
 6855SOL     OW21250   3.803   1.240  11.825
 6855SOL    HW121251   3.802   1.193  11.913
 6855SOL    HW221252   3.885   1.212  11.774
 6856SOL     OW21253   3.763   1.077  11.472
 6856SOL    HW121254   3.862   1.066  11.463
 6856SOL    HW221255   3.723   0.991  11.504
 6857SOL     OW21256   3.954   0.628  13.147
 6857SOL    HW121257   3.861   0.626  13.184
 6857SOL    HW221258   3.955   0.589  13.055
 6858SOL     OW21259   3.743   0.368  13.681
 6858SOL    HW121260   3.661   0.411  13.720
 6858SOL    HW221261   3.715   0.295  13.618
 6859SOL     OW21262   3.955   1.713  13.517
 6859SOL    HW121263   3.989   1.790  13.571
 6859SOL    HW221264   3.999   1.713  13.427
 6860SOL     OW21265   3.954   1.434  13.572
 6860SOL    HW121266   3.928   1.530  13.572
 6860SOL    HW221267   3.883   1.380  13.617
 6861SOL     OW21268   3.964   1.091  13.920
 6861SOL    HW121269   3.978   1.007  13.972
 6861SOL    HW221270   3.909   1.155  13.975
 6862SOL     OW21271   3.846   0.643  13.597
 6862SOL    HW121272   3.801   0.555  13.614
 6862SOL    HW221273   3.845   0.697  13.681
 6863SOL     OW21274   3.751   1.596  13.151
 6863SOL    HW121275   3.732   1.500  13.172
 6863SOL    HW221276   3.718   1.654  13.226
 6864SOL     OW21277   3.800   0.811  13.823
 6864SOL    HW121278   3.899   0.799  13.832
 6864SOL    HW221279   3.776   0.906  13.844
 6865SOL     OW21280   4.075   1.801  13.887
 6865SOL    HW121281   4.125   1.715  13.893
 6865SOL    HW221282   4.140   1.878  13.884
 6866SOL     OW21283   4.251   0.256  13.362
 6866SOL    HW121284   4.278   0.197  13.287
 6866SOL    HW221285   4.251   0.351  13.331
 6867SOL     OW21286   4.091   1.100  13.535
 6867SOL    HW121287   4.084   1.183  13.479
 6867SOL    HW221288   4.095   1.020  13.475
 6868SOL     OW21289   3.732   1.326  13.234
 6868SOL    HW121290   3.639   1.347  13.203
 6868SOL    HW221291   3.742   1.227  13.247
 6869SOL     OW21292   4.228   1.568  13.944
 6869SOL    HW121293   4.294   1.642  13.953
 6869SOL    HW221294   4.272   1.489  13.902
 6870SOL     OW21295   3.799   0.345  13.067
 6870SOL    HW121296   3.707   0.317  13.038
 6870SOL    HW221297   3.830   0.422  13.011
 6871SOL     OW21298   3.796   0.166  13.352
 6871SOL    HW121299   3.779   0.249  13.298
 6871SOL    HW221300   3.886   0.129  13.330
 6872SOL     OW21301   3.803   1.240  13.687
 6872SOL    HW121302   3.802   1.193  13.775
 6872SOL    HW221303   3.885   1.212  13.636
 6873SOL     OW21304   3.763   1.077  13.334
 6873SOL    HW121305   3.862   1.066  13.325
 6873SOL    HW221306   3.723   0.991  13.366
 6874SOL     OW21307   3.954   2.490   0.113
 6874SOL    HW121308   3.861   2.488   0.150
 6874SOL    HW221309   3.955   2.451   0.021
 6875SOL     OW21310   3.949   2.137   0.996
 6875SOL    HW121311   3.984   2.120   1.088
 6875SOL    HW221312   3.861   2.092   0.984
 6876SOL     OW21313   3.743   2.230   0.647
 6876SOL    HW121314   3.661   2.273   0.686
 6876SOL    HW221315   3.715   2.157   0.584
 6877SOL     OW21316   4.059   3.297   1.061
 6877SOL    HW121317   3.981   3.266   1.008
 6877SOL    HW221318   4.117   3.355   1.004
 6878SOL     OW21319   3.955   3.575   0.483
 6878SOL    HW121320   3.989   3.652   0.537
 6878SOL    HW221321   3.999   3.575   0.393
 6879SOL     OW21322   3.954   3.296   0.538
 6879SOL    HW121323   3.928   3.392   0.538
 6879SOL    HW221324   3.883   3.242   0.583
 6880SOL     OW21325   3.846   2.505   0.563
 6880SOL    HW121326   3.801   2.417   0.580
 6880SOL    HW221327   3.845   2.559   0.647
 6881SOL     OW21328   3.751   3.458   0.117
 6881SOL    HW121329   3.732   3.362   0.138
 6881SOL    HW221330   3.718   3.516   0.192
 6882SOL     OW21331   3.837   2.599   1.597
 6882SOL    HW121332   3.925   2.586   1.642
 6882SOL    HW221333   3.824   2.696   1.575
 6883SOL     OW21334   3.800   2.673   0.789
 6883SOL    HW121335   3.899   2.661   0.798
 6883SOL    HW221336   3.776   2.768   0.810
 6884SOL     OW21337   3.854   3.683   1.571
 6884SOL    HW121338   3.844   3.668   1.670
 6884SOL    HW221339   3.768   3.719   1.535
 6885SOL     OW21340   3.926   2.147   1.498
 6885SOL    HW121341   3.846   2.207   1.485
 6885SOL    HW221342   3.916   2.098   1.584
 6886SOL     OW21343   3.802   2.418   1.386
 6886SOL    HW121344   3.894   2.417   1.345
 6886SOL    HW221345   3.796   2.492   1.453
 6887SOL     OW21346   3.788   3.426   1.331
 6887SOL    HW121347   3.742   3.508   1.297
 6887SOL    HW221348   3.886   3.445   1.340
 6888SOL     OW21349   4.091   2.962   0.501
 6888SOL    HW121350   4.084   3.045   0.445
 6888SOL    HW221351   4.095   2.882   0.441
 6889SOL     OW21352   4.031   2.075   1.231
 6889SOL    HW121353   4.008   2.112   1.321
 6889SOL    HW221354   4.001   1.980   1.225
 6890SOL     OW21355   3.761   3.172   1.282
 6890SOL    HW121356   3.814   3.123   1.350
 6890SOL    HW221357   3.783   3.270   1.287
 6891SOL     OW21358   4.031   1.925   0.618
 6891SOL    HW121359   4.020   2.019   0.651
 6891SOL    HW221360   4.026   1.862   0.695
 6892SOL     OW21361   3.732   3.188   0.200
 6892SOL    HW121362   3.639   3.209   0.169
 6892SOL    HW221363   3.742   3.089   0.213
 6893SOL     OW21364   3.812   3.663   0.927
 6893SOL    HW121365   3.770   3.577   0.900
 6893SOL    HW221366   3.906   3.666   0.893
 6894SOL     OW21367   4.228   3.430   0.910
 6894SOL    HW121368   4.294   3.504   0.919
 6894SOL    HW221369   4.272   3.351   0.868
 6895SOL     OW21370   3.764   2.406   1.114
 6895SOL    HW121371   3.849   2.373   1.073
 6895SOL    HW221372   3.777   2.421   1.212
 6896SOL     OW21373   3.913   2.382   1.722
 6896SOL    HW121374   3.972   2.342   1.652
 6896SOL    HW221375   3.855   2.453   1.681
 6897SOL     OW21376   3.976   3.426   1.744
 6897SOL    HW121377   3.946   3.483   1.820
 6897SOL    HW221378   3.969   3.329   1.770
 6898SOL     OW21379   3.883   2.999   1.466
 6898SOL    HW121380   3.905   2.938   1.542
 6898SOL    HW221381   3.893   2.950   1.380
 6899SOL     OW21382   3.807   3.120   1.022
 6899SOL    HW121383   3.802   3.119   1.122
 6899SOL    HW221384   3.724   3.079   0.984
 6900SOL     OW21385   3.854   3.656   1.851
 6900SOL    HW121386   3.813   3.582   1.904
 6900SOL    HW221387   3.918   3.707   1.909
 6901SOL     OW21388   3.799   2.207   0.033
 6901SOL    HW121389   3.707   2.179   0.004
 6901SOL    HW221390   3.830   2.284  -0.023
 6902SOL     OW21391   3.796   2.028   0.318
 6902SOL    HW121392   3.779   2.111   0.264
 6902SOL    HW221393   3.886   1.991   0.296
 6903SOL     OW21394   3.803   3.102   0.653
 6903SOL    HW121395   3.802   3.055   0.741
 6903SOL    HW221396   3.885   3.074   0.602
 6904SOL     OW21397   3.763   2.939   0.300
 6904SOL    HW121398   3.862   2.928   0.291
 6904SOL    HW221399   3.723   2.853   0.332
 6905SOL     OW21400   3.954   2.490   1.975
 6905SOL    HW121401   3.861   2.488   2.012
 6905SOL    HW221402   3.955   2.451   1.883
 6906SOL     OW21403   3.949   2.137   2.858
 6906SOL    HW121404   3.984   2.120   2.950
 6906SOL    HW221405   3.861   2.092   2.846
 6907SOL     OW21406   3.743   2.230   2.509
 6907SOL    HW121407   3.661   2.273   2.548
 6907SOL    HW221408   3.715   2.157   2.446
 6908SOL     OW21409   4.059   3.297   2.923
 6908SOL    HW121410   3.981   3.266   2.870
 6908SOL    HW221411   4.117   3.355   2.866
 6909SOL     OW21412   3.955   3.575   2.345
 6909SOL    HW121413   3.989   3.652   2.399
 6909SOL    HW221414   3.999   3.575   2.255
 6910SOL     OW21415   3.954   3.296   2.400
 6910SOL    HW121416   3.928   3.392   2.400
 6910SOL    HW221417   3.883   3.242   2.445
 6911SOL     OW21418   3.846   2.505   2.425
 6911SOL    HW121419   3.801   2.417   2.442
 6911SOL    HW221420   3.845   2.559   2.509
 6912SOL     OW21421   3.751   3.458   1.979
 6912SOL    HW121422   3.732   3.362   2.000
 6912SOL    HW221423   3.718   3.516   2.054
 6913SOL     OW21424   3.837   2.599   3.459
 6913SOL    HW121425   3.925   2.586   3.504
 6913SOL    HW221426   3.824   2.696   3.437
 6914SOL     OW21427   3.800   2.673   2.651
 6914SOL    HW121428   3.899   2.661   2.660
 6914SOL    HW221429   3.776   2.768   2.672
 6915SOL     OW21430   3.854   3.683   3.433
 6915SOL    HW121431   3.844   3.668   3.532
 6915SOL    HW221432   3.768   3.719   3.397
 6916SOL     OW21433   3.926   2.147   3.360
 6916SOL    HW121434   3.846   2.207   3.347
 6916SOL    HW221435   3.916   2.098   3.446
 6917SOL     OW21436   4.021   1.897   2.033
 6917SOL    HW121437   4.070   1.981   2.012
 6917SOL    HW221438   4.083   1.832   2.078
 6918SOL     OW21439   3.802   2.418   3.248
 6918SOL    HW121440   3.894   2.417   3.207
 6918SOL    HW221441   3.796   2.492   3.315
 6919SOL     OW21442   4.251   2.118   2.190
 6919SOL    HW121443   4.278   2.059   2.115
 6919SOL    HW221444   4.251   2.213   2.159
 6920SOL     OW21445   3.788   3.426   3.193
 6920SOL    HW121446   3.742   3.508   3.159
 6920SOL    HW221447   3.886   3.445   3.202
 6921SOL     OW21448   4.091   2.962   2.363
 6921SOL    HW121449   4.084   3.045   2.307
 6921SOL    HW221450   4.095   2.882   2.303
 6922SOL     OW21451   4.031   2.075   3.093
 6922SOL    HW121452   4.008   2.112   3.183
 6922SOL    HW221453   4.001   1.980   3.087
 6923SOL     OW21454   3.761   3.172   3.144
 6923SOL    HW121455   3.814   3.123   3.212
 6923SOL    HW221456   3.783   3.270   3.149
 6924SOL     OW21457   4.031   1.925   2.480
 6924SOL    HW121458   4.020   2.019   2.513
 6924SOL    HW221459   4.026   1.862   2.557
 6925SOL     OW21460   3.732   3.188   2.062
 6925SOL    HW121461   3.639   3.209   2.031
 6925SOL    HW221462   3.742   3.089   2.075
 6926SOL     OW21463   3.812   3.663   2.789
 6926SOL    HW121464   3.770   3.577   2.762
 6926SOL    HW221465   3.906   3.666   2.755
 6927SOL     OW21466   4.228   3.430   2.772
 6927SOL    HW121467   4.294   3.504   2.781
 6927SOL    HW221468   4.272   3.351   2.730
 6928SOL     OW21469   3.764   2.406   2.976
 6928SOL    HW121470   3.849   2.373   2.935
 6928SOL    HW221471   3.777   2.421   3.074
 6929SOL     OW21472   3.913   2.382   3.584
 6929SOL    HW121473   3.972   2.342   3.514
 6929SOL    HW221474   3.855   2.453   3.543
 6930SOL     OW21475   3.976   3.426   3.606
 6930SOL    HW121476   3.946   3.483   3.682
 6930SOL    HW221477   3.969   3.329   3.632
 6931SOL     OW21478   3.883   2.999   3.328
 6931SOL    HW121479   3.905   2.938   3.404
 6931SOL    HW221480   3.893   2.950   3.242
 6932SOL     OW21481   3.807   3.120   2.884
 6932SOL    HW121482   3.802   3.119   2.984
 6932SOL    HW221483   3.724   3.079   2.846
 6933SOL     OW21484   3.854   3.656   3.713
 6933SOL    HW121485   3.813   3.582   3.766
 6933SOL    HW221486   3.918   3.707   3.771
 6934SOL     OW21487   3.799   2.207   1.895
 6934SOL    HW121488   3.707   2.179   1.866
 6934SOL    HW221489   3.830   2.284   1.839
 6935SOL     OW21490   3.796   2.028   2.180
 6935SOL    HW121491   3.779   2.111   2.126
 6935SOL    HW221492   3.886   1.991   2.158
 6936SOL     OW21493   3.803   3.102   2.515
 6936SOL    HW121494   3.802   3.055   2.603
 6936SOL    HW221495   3.885   3.074   2.464
 6937SOL     OW21496   3.763   2.939   2.162
 6937SOL    HW121497   3.862   2.928   2.153
 6937SOL    HW221498   3.723   2.853   2.194
 6938SOL     OW21499   3.954   2.490   3.837
 6938SOL    HW121500   3.861   2.488   3.874
 6938SOL    HW221501   3.955   2.451   3.745
 6939SOL     OW21502   3.949   2.137   4.720
 6939SOL    HW121503   3.984   2.120   4.812
 6939SOL    HW221504   3.861   2.092   4.708
 6940SOL     OW21505   3.743   2.230   4.371
 6940SOL    HW121506   3.661   2.273   4.410
 6940SOL    HW221507   3.715   2.157   4.308
 6941SOL     OW21508   4.059   3.297   4.785
 6941SOL    HW121509   3.981   3.266   4.732
 6941SOL    HW221510   4.117   3.355   4.728
 6942SOL     OW21511   3.955   3.575   4.207
 6942SOL    HW121512   3.989   3.652   4.261
 6942SOL    HW221513   3.999   3.575   4.117
 6943SOL     OW21514   3.954   3.296   4.262
 6943SOL    HW121515   3.928   3.392   4.262
 6943SOL    HW221516   3.883   3.242   4.307
 6944SOL     OW21517   3.846   2.505   4.287
 6944SOL    HW121518   3.801   2.417   4.304
 6944SOL    HW221519   3.845   2.559   4.371
 6945SOL     OW21520   3.751   3.458   3.841
 6945SOL    HW121521   3.732   3.362   3.862
 6945SOL    HW221522   3.718   3.516   3.916
 6946SOL     OW21523   3.837   2.599   5.321
 6946SOL    HW121524   3.925   2.586   5.366
 6946SOL    HW221525   3.824   2.696   5.299
 6947SOL     OW21526   3.800   2.673   4.513
 6947SOL    HW121527   3.899   2.661   4.522
 6947SOL    HW221528   3.776   2.768   4.534
 6948SOL     OW21529   3.854   3.683   5.295
 6948SOL    HW121530   3.844   3.668   5.394
 6948SOL    HW221531   3.768   3.719   5.259
 6949SOL     OW21532   3.926   2.147   5.222
 6949SOL    HW121533   3.846   2.207   5.209
 6949SOL    HW221534   3.916   2.098   5.308
 6950SOL     OW21535   4.021   1.897   3.895
 6950SOL    HW121536   4.070   1.981   3.874
 6950SOL    HW221537   4.083   1.832   3.940
 6951SOL     OW21538   3.802   2.418   5.110
 6951SOL    HW121539   3.894   2.417   5.069
 6951SOL    HW221540   3.796   2.492   5.177
 6952SOL     OW21541   4.251   2.118   4.052
 6952SOL    HW121542   4.278   2.059   3.977
 6952SOL    HW221543   4.251   2.213   4.021
 6953SOL     OW21544   3.788   3.426   5.055
 6953SOL    HW121545   3.742   3.508   5.021
 6953SOL    HW221546   3.886   3.445   5.064
 6954SOL     OW21547   4.091   2.962   4.225
 6954SOL    HW121548   4.084   3.045   4.169
 6954SOL    HW221549   4.095   2.882   4.165
 6955SOL     OW21550   4.031   2.075   4.955
 6955SOL    HW121551   4.008   2.112   5.045
 6955SOL    HW221552   4.001   1.980   4.949
 6956SOL     OW21553   3.761   3.172   5.006
 6956SOL    HW121554   3.814   3.123   5.074
 6956SOL    HW221555   3.783   3.270   5.011
 6957SOL     OW21556   4.031   1.925   4.342
 6957SOL    HW121557   4.020   2.019   4.375
 6957SOL    HW221558   4.026   1.862   4.419
 6958SOL     OW21559   3.732   3.188   3.924
 6958SOL    HW121560   3.639   3.209   3.893
 6958SOL    HW221561   3.742   3.089   3.937
 6959SOL     OW21562   3.812   3.663   4.651
 6959SOL    HW121563   3.770   3.577   4.624
 6959SOL    HW221564   3.906   3.666   4.617
 6960SOL     OW21565   4.228   3.430   4.634
 6960SOL    HW121566   4.294   3.504   4.643
 6960SOL    HW221567   4.272   3.351   4.592
 6961SOL     OW21568   3.764   2.406   4.838
 6961SOL    HW121569   3.849   2.373   4.797
 6961SOL    HW221570   3.777   2.421   4.936
 6962SOL     OW21571   3.913   2.382   5.446
 6962SOL    HW121572   3.972   2.342   5.376
 6962SOL    HW221573   3.855   2.453   5.405
 6963SOL     OW21574   3.976   3.426   5.468
 6963SOL    HW121575   3.946   3.483   5.544
 6963SOL    HW221576   3.969   3.329   5.494
 6964SOL     OW21577   3.883   2.999   5.190
 6964SOL    HW121578   3.905   2.938   5.266
 6964SOL    HW221579   3.893   2.950   5.104
 6965SOL     OW21580   3.807   3.120   4.746
 6965SOL    HW121581   3.802   3.119   4.846
 6965SOL    HW221582   3.724   3.079   4.708
 6966SOL     OW21583   3.854   3.656   5.575
 6966SOL    HW121584   3.813   3.582   5.628
 6966SOL    HW221585   3.918   3.707   5.633
 6967SOL     OW21586   3.799   2.207   3.757
 6967SOL    HW121587   3.707   2.179   3.728
 6967SOL    HW221588   3.830   2.284   3.701
 6968SOL     OW21589   3.796   2.028   4.042
 6968SOL    HW121590   3.779   2.111   3.988
 6968SOL    HW221591   3.886   1.991   4.020
 6969SOL     OW21592   3.803   3.102   4.377
 6969SOL    HW121593   3.802   3.055   4.465
 6969SOL    HW221594   3.885   3.074   4.326
 6970SOL     OW21595   3.763   2.939   4.024
 6970SOL    HW121596   3.862   2.928   4.015
 6970SOL    HW221597   3.723   2.853   4.056
 6971SOL     OW21598   3.954   2.490   5.699
 6971SOL    HW121599   3.861   2.488   5.736
 6971SOL    HW221600   3.955   2.451   5.607
 6972SOL     OW21601   3.949   2.137   6.582
 6972SOL    HW121602   3.984   2.120   6.674
 6972SOL    HW221603   3.861   2.092   6.570
 6973SOL     OW21604   3.743   2.230   6.233
 6973SOL    HW121605   3.661   2.273   6.272
 6973SOL    HW221606   3.715   2.157   6.170
 6974SOL     OW21607   4.059   3.297   6.647
 6974SOL    HW121608   3.981   3.266   6.594
 6974SOL    HW221609   4.117   3.355   6.590
 6975SOL     OW21610   3.955   3.575   6.069
 6975SOL    HW121611   3.989   3.652   6.123
 6975SOL    HW221612   3.999   3.575   5.979
 6976SOL     OW21613   3.954   3.296   6.124
 6976SOL    HW121614   3.928   3.392   6.124
 6976SOL    HW221615   3.883   3.242   6.169
 6977SOL     OW21616   3.846   2.505   6.149
 6977SOL    HW121617   3.801   2.417   6.166
 6977SOL    HW221618   3.845   2.559   6.233
 6978SOL     OW21619   3.751   3.458   5.703
 6978SOL    HW121620   3.732   3.362   5.724
 6978SOL    HW221621   3.718   3.516   5.778
 6979SOL     OW21622   3.837   2.599   7.183
 6979SOL    HW121623   3.925   2.586   7.228
 6979SOL    HW221624   3.824   2.696   7.161
 6980SOL     OW21625   3.800   2.673   6.375
 6980SOL    HW121626   3.899   2.661   6.384
 6980SOL    HW221627   3.776   2.768   6.396
 6981SOL     OW21628   3.854   3.683   7.157
 6981SOL    HW121629   3.844   3.668   7.256
 6981SOL    HW221630   3.768   3.719   7.121
 6982SOL     OW21631   3.926   2.147   7.084
 6982SOL    HW121632   3.846   2.207   7.071
 6982SOL    HW221633   3.916   2.098   7.170
 6983SOL     OW21634   4.021   1.897   5.757
 6983SOL    HW121635   4.070   1.981   5.736
 6983SOL    HW221636   4.083   1.832   5.802
 6984SOL     OW21637   3.802   2.418   6.972
 6984SOL    HW121638   3.894   2.417   6.931
 6984SOL    HW221639   3.796   2.492   7.039
 6985SOL     OW21640   4.251   2.118   5.914
 6985SOL    HW121641   4.278   2.059   5.839
 6985SOL    HW221642   4.251   2.213   5.883
 6986SOL     OW21643   3.788   3.426   6.917
 6986SOL    HW121644   3.742   3.508   6.883
 6986SOL    HW221645   3.886   3.445   6.926
 6987SOL     OW21646   4.091   2.962   6.087
 6987SOL    HW121647   4.084   3.045   6.031
 6987SOL    HW221648   4.095   2.882   6.027
 6988SOL     OW21649   4.031   2.075   6.817
 6988SOL    HW121650   4.008   2.112   6.907
 6988SOL    HW221651   4.001   1.980   6.811
 6989SOL     OW21652   3.761   3.172   6.868
 6989SOL    HW121653   3.814   3.123   6.936
 6989SOL    HW221654   3.783   3.270   6.873
 6990SOL     OW21655   4.031   1.925   6.204
 6990SOL    HW121656   4.020   2.019   6.237
 6990SOL    HW221657   4.026   1.862   6.281
 6991SOL     OW21658   3.732   3.188   5.786
 6991SOL    HW121659   3.639   3.209   5.755
 6991SOL    HW221660   3.742   3.089   5.799
 6992SOL     OW21661   3.812   3.663   6.513
 6992SOL    HW121662   3.770   3.577   6.486
 6992SOL    HW221663   3.906   3.666   6.479
 6993SOL     OW21664   4.228   3.430   6.496
 6993SOL    HW121665   4.294   3.504   6.505
 6993SOL    HW221666   4.272   3.351   6.454
 6994SOL     OW21667   3.764   2.406   6.700
 6994SOL    HW121668   3.849   2.373   6.659
 6994SOL    HW221669   3.777   2.421   6.798
 6995SOL     OW21670   3.913   2.382   7.308
 6995SOL    HW121671   3.972   2.342   7.238
 6995SOL    HW221672   3.855   2.453   7.267
 6996SOL     OW21673   3.976   3.426   7.330
 6996SOL    HW121674   3.946   3.483   7.406
 6996SOL    HW221675   3.969   3.329   7.356
 6997SOL     OW21676   3.883   2.999   7.052
 6997SOL    HW121677   3.905   2.938   7.128
 6997SOL    HW221678   3.893   2.950   6.966
 6998SOL     OW21679   3.807   3.120   6.608
 6998SOL    HW121680   3.802   3.119   6.708
 6998SOL    HW221681   3.724   3.079   6.570
 6999SOL     OW21682   3.854   3.656   7.437
 6999SOL    HW121683   3.813   3.582   7.490
 6999SOL    HW221684   3.918   3.707   7.495
 7000SOL     OW21685   3.799   2.207   5.619
 7000SOL    HW121686   3.707   2.179   5.590
 7000SOL    HW221687   3.830   2.284   5.563
 7001SOL     OW21688   3.796   2.028   5.904
 7001SOL    HW121689   3.779   2.111   5.850
 7001SOL    HW221690   3.886   1.991   5.882
 7002SOL     OW21691   3.803   3.102   6.239
 7002SOL    HW121692   3.802   3.055   6.327
 7002SOL    HW221693   3.885   3.074   6.188
 7003SOL     OW21694   3.763   2.939   5.886
 7003SOL    HW121695   3.862   2.928   5.877
 7003SOL    HW221696   3.723   2.853   5.918
 7004SOL     OW21697   3.954   2.490   7.561
 7004SOL    HW121698   3.861   2.488   7.598
 7004SOL    HW221699   3.955   2.451   7.469
 7005SOL     OW21700   3.949   2.137   8.444
 7005SOL    HW121701   3.984   2.120   8.536
 7005SOL    HW221702   3.861   2.092   8.432
 7006SOL     OW21703   3.743   2.230   8.095
 7006SOL    HW121704   3.661   2.273   8.134
 7006SOL    HW221705   3.715   2.157   8.032
 7007SOL     OW21706   4.059   3.297   8.509
 7007SOL    HW121707   3.981   3.266   8.456
 7007SOL    HW221708   4.117   3.355   8.452
 7008SOL     OW21709   3.955   3.575   7.931
 7008SOL    HW121710   3.989   3.652   7.985
 7008SOL    HW221711   3.999   3.575   7.841
 7009SOL     OW21712   3.954   3.296   7.986
 7009SOL    HW121713   3.928   3.392   7.986
 7009SOL    HW221714   3.883   3.242   8.031
 7010SOL     OW21715   3.846   2.505   8.011
 7010SOL    HW121716   3.801   2.417   8.028
 7010SOL    HW221717   3.845   2.559   8.095
 7011SOL     OW21718   3.751   3.458   7.565
 7011SOL    HW121719   3.732   3.362   7.586
 7011SOL    HW221720   3.718   3.516   7.640
 7012SOL     OW21721   3.837   2.599   9.045
 7012SOL    HW121722   3.925   2.586   9.090
 7012SOL    HW221723   3.824   2.696   9.023
 7013SOL     OW21724   3.800   2.673   8.237
 7013SOL    HW121725   3.899   2.661   8.246
 7013SOL    HW221726   3.776   2.768   8.258
 7014SOL     OW21727   3.854   3.683   9.019
 7014SOL    HW121728   3.844   3.668   9.118
 7014SOL    HW221729   3.768   3.719   8.983
 7015SOL     OW21730   3.926   2.147   8.946
 7015SOL    HW121731   3.846   2.207   8.933
 7015SOL    HW221732   3.916   2.098   9.032
 7016SOL     OW21733   4.021   1.897   7.619
 7016SOL    HW121734   4.070   1.981   7.598
 7016SOL    HW221735   4.083   1.832   7.664
 7017SOL     OW21736   3.802   2.418   8.834
 7017SOL    HW121737   3.894   2.417   8.793
 7017SOL    HW221738   3.796   2.492   8.901
 7018SOL     OW21739   4.251   2.118   7.776
 7018SOL    HW121740   4.278   2.059   7.701
 7018SOL    HW221741   4.251   2.213   7.745
 7019SOL     OW21742   3.788   3.426   8.779
 7019SOL    HW121743   3.742   3.508   8.745
 7019SOL    HW221744   3.886   3.445   8.788
 7020SOL     OW21745   4.091   2.962   7.949
 7020SOL    HW121746   4.084   3.045   7.893
 7020SOL    HW221747   4.095   2.882   7.889
 7021SOL     OW21748   4.031   2.075   8.679
 7021SOL    HW121749   4.008   2.112   8.769
 7021SOL    HW221750   4.001   1.980   8.673
 7022SOL     OW21751   3.761   3.172   8.730
 7022SOL    HW121752   3.814   3.123   8.798
 7022SOL    HW221753   3.783   3.270   8.735
 7023SOL     OW21754   4.031   1.925   8.066
 7023SOL    HW121755   4.020   2.019   8.099
 7023SOL    HW221756   4.026   1.862   8.143
 7024SOL     OW21757   3.732   3.188   7.648
 7024SOL    HW121758   3.639   3.209   7.617
 7024SOL    HW221759   3.742   3.089   7.661
 7025SOL     OW21760   3.812   3.663   8.375
 7025SOL    HW121761   3.770   3.577   8.348
 7025SOL    HW221762   3.906   3.666   8.341
 7026SOL     OW21763   4.228   3.430   8.358
 7026SOL    HW121764   4.294   3.504   8.367
 7026SOL    HW221765   4.272   3.351   8.316
 7027SOL     OW21766   3.764   2.406   8.562
 7027SOL    HW121767   3.849   2.373   8.521
 7027SOL    HW221768   3.777   2.421   8.660
 7028SOL     OW21769   3.913   2.382   9.170
 7028SOL    HW121770   3.972   2.342   9.100
 7028SOL    HW221771   3.855   2.453   9.129
 7029SOL     OW21772   3.976   3.426   9.192
 7029SOL    HW121773   3.946   3.483   9.268
 7029SOL    HW221774   3.969   3.329   9.218
 7030SOL     OW21775   3.883   2.999   8.914
 7030SOL    HW121776   3.905   2.938   8.990
 7030SOL    HW221777   3.893   2.950   8.828
 7031SOL     OW21778   3.807   3.120   8.470
 7031SOL    HW121779   3.802   3.119   8.570
 7031SOL    HW221780   3.724   3.079   8.432
 7032SOL     OW21781   3.854   3.656   9.299
 7032SOL    HW121782   3.813   3.582   9.352
 7032SOL    HW221783   3.918   3.707   9.357
 7033SOL     OW21784   3.799   2.207   7.481
 7033SOL    HW121785   3.707   2.179   7.452
 7033SOL    HW221786   3.830   2.284   7.425
 7034SOL     OW21787   3.796   2.028   7.766
 7034SOL    HW121788   3.779   2.111   7.712
 7034SOL    HW221789   3.886   1.991   7.744
 7035SOL     OW21790   3.803   3.102   8.101
 7035SOL    HW121791   3.802   3.055   8.189
 7035SOL    HW221792   3.885   3.074   8.050
 7036SOL     OW21793   3.763   2.939   7.748
 7036SOL    HW121794   3.862   2.928   7.739
 7036SOL    HW221795   3.723   2.853   7.780
 7037SOL     OW21796   3.954   2.490   9.423
 7037SOL    HW121797   3.861   2.488   9.460
 7037SOL    HW221798   3.955   2.451   9.331
 7038SOL     OW21799   3.949   2.137  10.306
 7038SOL    HW121800   3.984   2.120  10.398
 7038SOL    HW221801   3.861   2.092  10.294
 7039SOL     OW21802   3.743   2.230   9.957
 7039SOL    HW121803   3.661   2.273   9.996
 7039SOL    HW221804   3.715   2.157   9.894
 7040SOL     OW21805   4.059   3.297  10.371
 7040SOL    HW121806   3.981   3.266  10.318
 7040SOL    HW221807   4.117   3.355  10.314
 7041SOL     OW21808   3.955   3.575   9.793
 7041SOL    HW121809   3.989   3.652   9.847
 7041SOL    HW221810   3.999   3.575   9.703
 7042SOL     OW21811   3.954   3.296   9.848
 7042SOL    HW121812   3.928   3.392   9.848
 7042SOL    HW221813   3.883   3.242   9.893
 7043SOL     OW21814   3.846   2.505   9.873
 7043SOL    HW121815   3.801   2.417   9.890
 7043SOL    HW221816   3.845   2.559   9.957
 7044SOL     OW21817   3.751   3.458   9.427
 7044SOL    HW121818   3.732   3.362   9.448
 7044SOL    HW221819   3.718   3.516   9.502
 7045SOL     OW21820   3.837   2.599  10.907
 7045SOL    HW121821   3.925   2.586  10.952
 7045SOL    HW221822   3.824   2.696  10.885
 7046SOL     OW21823   3.800   2.673  10.099
 7046SOL    HW121824   3.899   2.661  10.108
 7046SOL    HW221825   3.776   2.768  10.120
 7047SOL     OW21826   3.854   3.683  10.881
 7047SOL    HW121827   3.844   3.668  10.980
 7047SOL    HW221828   3.768   3.719  10.845
 7048SOL     OW21829   3.926   2.147  10.808
 7048SOL    HW121830   3.846   2.207  10.795
 7048SOL    HW221831   3.916   2.098  10.894
 7049SOL     OW21832   4.021   1.897   9.481
 7049SOL    HW121833   4.070   1.981   9.460
 7049SOL    HW221834   4.083   1.832   9.526
 7050SOL     OW21835   3.802   2.418  10.696
 7050SOL    HW121836   3.894   2.417  10.655
 7050SOL    HW221837   3.796   2.492  10.763
 7051SOL     OW21838   4.251   2.118   9.638
 7051SOL    HW121839   4.278   2.059   9.563
 7051SOL    HW221840   4.251   2.213   9.607
 7052SOL     OW21841   3.788   3.426  10.641
 7052SOL    HW121842   3.742   3.508  10.607
 7052SOL    HW221843   3.886   3.445  10.650
 7053SOL     OW21844   4.091   2.962   9.811
 7053SOL    HW121845   4.084   3.045   9.755
 7053SOL    HW221846   4.095   2.882   9.751
 7054SOL     OW21847   4.031   2.075  10.541
 7054SOL    HW121848   4.008   2.112  10.631
 7054SOL    HW221849   4.001   1.980  10.535
 7055SOL     OW21850   3.761   3.172  10.592
 7055SOL    HW121851   3.814   3.123  10.660
 7055SOL    HW221852   3.783   3.270  10.597
 7056SOL     OW21853   4.031   1.925   9.928
 7056SOL    HW121854   4.020   2.019   9.961
 7056SOL    HW221855   4.026   1.862  10.005
 7057SOL     OW21856   3.732   3.188   9.510
 7057SOL    HW121857   3.639   3.209   9.479
 7057SOL    HW221858   3.742   3.089   9.523
 7058SOL     OW21859   3.812   3.663  10.237
 7058SOL    HW121860   3.770   3.577  10.210
 7058SOL    HW221861   3.906   3.666  10.203
 7059SOL     OW21862   4.228   3.430  10.220
 7059SOL    HW121863   4.294   3.504  10.229
 7059SOL    HW221864   4.272   3.351  10.178
 7060SOL     OW21865   3.764   2.406  10.424
 7060SOL    HW121866   3.849   2.373  10.383
 7060SOL    HW221867   3.777   2.421  10.522
 7061SOL     OW21868   3.913   2.382  11.032
 7061SOL    HW121869   3.972   2.342  10.962
 7061SOL    HW221870   3.855   2.453  10.991
 7062SOL     OW21871   3.976   3.426  11.054
 7062SOL    HW121872   3.946   3.483  11.130
 7062SOL    HW221873   3.969   3.329  11.080
 7063SOL     OW21874   3.883   2.999  10.776
 7063SOL    HW121875   3.905   2.938  10.852
 7063SOL    HW221876   3.893   2.950  10.690
 7064SOL     OW21877   3.807   3.120  10.332
 7064SOL    HW121878   3.802   3.119  10.432
 7064SOL    HW221879   3.724   3.079  10.294
 7065SOL     OW21880   3.854   3.656  11.161
 7065SOL    HW121881   3.813   3.582  11.214
 7065SOL    HW221882   3.918   3.707  11.219
 7066SOL     OW21883   3.799   2.207   9.343
 7066SOL    HW121884   3.707   2.179   9.314
 7066SOL    HW221885   3.830   2.284   9.287
 7067SOL     OW21886   3.796   2.028   9.628
 7067SOL    HW121887   3.779   2.111   9.574
 7067SOL    HW221888   3.886   1.991   9.606
 7068SOL     OW21889   3.803   3.102   9.963
 7068SOL    HW121890   3.802   3.055  10.051
 7068SOL    HW221891   3.885   3.074   9.912
 7069SOL     OW21892   3.763   2.939   9.610
 7069SOL    HW121893   3.862   2.928   9.601
 7069SOL    HW221894   3.723   2.853   9.642
 7070SOL     OW21895   3.954   2.490  11.285
 7070SOL    HW121896   3.861   2.488  11.322
 7070SOL    HW221897   3.955   2.451  11.193
 7071SOL     OW21898   3.949   2.137  12.168
 7071SOL    HW121899   3.984   2.120  12.260
 7071SOL    HW221900   3.861   2.092  12.156
 7072SOL     OW21901   3.743   2.230  11.819
 7072SOL    HW121902   3.661   2.273  11.858
 7072SOL    HW221903   3.715   2.157  11.756
 7073SOL     OW21904   4.059   3.297  12.233
 7073SOL    HW121905   3.981   3.266  12.180
 7073SOL    HW221906   4.117   3.355  12.176
 7074SOL     OW21907   3.955   3.575  11.655
 7074SOL    HW121908   3.989   3.652  11.709
 7074SOL    HW221909   3.999   3.575  11.565
 7075SOL     OW21910   3.954   3.296  11.710
 7075SOL    HW121911   3.928   3.392  11.710
 7075SOL    HW221912   3.883   3.242  11.755
 7076SOL     OW21913   3.846   2.505  11.735
 7076SOL    HW121914   3.801   2.417  11.752
 7076SOL    HW221915   3.845   2.559  11.819
 7077SOL     OW21916   3.751   3.458  11.289
 7077SOL    HW121917   3.732   3.362  11.310
 7077SOL    HW221918   3.718   3.516  11.364
 7078SOL     OW21919   3.837   2.599  12.769
 7078SOL    HW121920   3.925   2.586  12.814
 7078SOL    HW221921   3.824   2.696  12.747
 7079SOL     OW21922   3.800   2.673  11.961
 7079SOL    HW121923   3.899   2.661  11.970
 7079SOL    HW221924   3.776   2.768  11.982
 7080SOL     OW21925   3.854   3.683  12.743
 7080SOL    HW121926   3.844   3.668  12.842
 7080SOL    HW221927   3.768   3.719  12.707
 7081SOL     OW21928   3.926   2.147  12.670
 7081SOL    HW121929   3.846   2.207  12.657
 7081SOL    HW221930   3.916   2.098  12.756
 7082SOL     OW21931   4.021   1.897  11.343
 7082SOL    HW121932   4.070   1.981  11.322
 7082SOL    HW221933   4.083   1.832  11.388
 7083SOL     OW21934   3.802   2.418  12.558
 7083SOL    HW121935   3.894   2.417  12.517
 7083SOL    HW221936   3.796   2.492  12.625
 7084SOL     OW21937   4.251   2.118  11.500
 7084SOL    HW121938   4.278   2.059  11.425
 7084SOL    HW221939   4.251   2.213  11.469
 7085SOL     OW21940   3.788   3.426  12.503
 7085SOL    HW121941   3.742   3.508  12.469
 7085SOL    HW221942   3.886   3.445  12.512
 7086SOL     OW21943   4.091   2.962  11.673
 7086SOL    HW121944   4.084   3.045  11.617
 7086SOL    HW221945   4.095   2.882  11.613
 7087SOL     OW21946   4.031   2.075  12.403
 7087SOL    HW121947   4.008   2.112  12.493
 7087SOL    HW221948   4.001   1.980  12.397
 7088SOL     OW21949   3.761   3.172  12.454
 7088SOL    HW121950   3.814   3.123  12.522
 7088SOL    HW221951   3.783   3.270  12.459
 7089SOL     OW21952   4.031   1.925  11.790
 7089SOL    HW121953   4.020   2.019  11.823
 7089SOL    HW221954   4.026   1.862  11.867
 7090SOL     OW21955   3.732   3.188  11.372
 7090SOL    HW121956   3.639   3.209  11.341
 7090SOL    HW221957   3.742   3.089  11.385
 7091SOL     OW21958   3.812   3.663  12.099
 7091SOL    HW121959   3.770   3.577  12.072
 7091SOL    HW221960   3.906   3.666  12.065
 7092SOL     OW21961   4.228   3.430  12.082
 7092SOL    HW121962   4.294   3.504  12.091
 7092SOL    HW221963   4.272   3.351  12.040
 7093SOL     OW21964   3.764   2.406  12.286
 7093SOL    HW121965   3.849   2.373  12.245
 7093SOL    HW221966   3.777   2.421  12.384
 7094SOL     OW21967   3.913   2.382  12.894
 7094SOL    HW121968   3.972   2.342  12.824
 7094SOL    HW221969   3.855   2.453  12.853
 7095SOL     OW21970   3.976   3.426  12.916
 7095SOL    HW121971   3.946   3.483  12.992
 7095SOL    HW221972   3.969   3.329  12.942
 7096SOL     OW21973   3.883   2.999  12.638
 7096SOL    HW121974   3.905   2.938  12.714
 7096SOL    HW221975   3.893   2.950  12.552
 7097SOL     OW21976   3.807   3.120  12.194
 7097SOL    HW121977   3.802   3.119  12.294
 7097SOL    HW221978   3.724   3.079  12.156
 7098SOL     OW21979   3.854   3.656  13.023
 7098SOL    HW121980   3.813   3.582  13.076
 7098SOL    HW221981   3.918   3.707  13.081
 7099SOL     OW21982   3.799   2.207  11.205
 7099SOL    HW121983   3.707   2.179  11.176
 7099SOL    HW221984   3.830   2.284  11.149
 7100SOL     OW21985   3.796   2.028  11.490
 7100SOL    HW121986   3.779   2.111  11.436
 7100SOL    HW221987   3.886   1.991  11.468
 7101SOL     OW21988   3.803   3.102  11.825
 7101SOL    HW121989   3.802   3.055  11.913
 7101SOL    HW221990   3.885   3.074  11.774
 7102SOL     OW21991   3.763   2.939  11.472
 7102SOL    HW121992   3.862   2.928  11.463
 7102SOL    HW221993   3.723   2.853  11.504
 7103SOL     OW21994   3.954   2.490  13.147
 7103SOL    HW121995   3.861   2.488  13.184
 7103SOL    HW221996   3.955   2.451  13.055
 7104SOL     OW21997   3.743   2.230  13.681
 7104SOL    HW121998   3.661   2.273  13.720
 7104SOL    HW221999   3.715   2.157  13.618
 7105SOL     OW22000   3.955   3.575  13.517
 7105SOL    HW122001   3.989   3.652  13.571
 7105SOL    HW222002   3.999   3.575  13.427
 7106SOL     OW22003   3.954   3.296  13.572
 7106SOL    HW122004   3.928   3.392  13.572
 7106SOL    HW222005   3.883   3.242  13.617
 7107SOL     OW22006   3.964   2.953  13.920
 7107SOL    HW122007   3.978   2.869  13.972
 7107SOL    HW222008   3.909   3.017  13.975
 7108SOL     OW22009   3.846   2.505  13.597
 7108SOL    HW122010   3.801   2.417  13.614
 7108SOL    HW222011   3.845   2.559  13.681
 7109SOL     OW22012   3.751   3.458  13.151
 7109SOL    HW122013   3.732   3.362  13.172
 7109SOL    HW222014   3.718   3.516  13.226
 7110SOL     OW22015   3.800   2.673  13.823
 7110SOL    HW122016   3.899   2.661  13.832
 7110SOL    HW222017   3.776   2.768  13.844
 7111SOL     OW22018   4.075   3.663  13.887
 7111SOL    HW122019   4.125   3.577  13.893
 7111SOL    HW222020   4.140   3.740  13.884
 7112SOL     OW22021   4.021   1.897  13.205
 7112SOL    HW122022   4.070   1.981  13.184
 7112SOL    HW222023   4.083   1.832  13.250
 7113SOL     OW22024   4.251   2.118  13.362
 7113SOL    HW122025   4.278   2.059  13.287
 7113SOL    HW222026   4.251   2.213  13.331
 7114SOL     OW22027   4.091   2.962  13.535
 7114SOL    HW122028   4.084   3.045  13.479
 7114SOL    HW222029   4.095   2.882  13.475
 7115SOL     OW22030   4.031   1.925  13.652
 7115SOL    HW122031   4.020   2.019  13.685
 7115SOL    HW222032   4.026   1.862  13.729
 7116SOL     OW22033   3.732   3.188  13.234
 7116SOL    HW122034   3.639   3.209  13.203
 7116SOL    HW222035   3.742   3.089  13.247
 7117SOL     OW22036   4.228   3.430  13.944
 7117SOL    HW122037   4.294   3.504  13.953
 7117SOL    HW222038   4.272   3.351  13.902
 7118SOL     OW22039   3.799   2.207  13.067
 7118SOL    HW122040   3.707   2.179  13.038
 7118SOL    HW222041   3.830   2.284  13.011
 7119SOL     OW22042   3.796   2.028  13.352
 7119SOL    HW122043   3.779   2.111  13.298
 7119SOL    HW222044   3.886   1.991  13.330
 7120SOL     OW22045   3.803   3.102  13.687
 7120SOL    HW122046   3.802   3.055  13.775
 7120SOL    HW222047   3.885   3.074  13.636
 7121SOL     OW22048   3.763   2.939  13.334
 7121SOL    HW122049   3.862   2.928  13.325
 7121SOL    HW222050   3.723   2.853  13.366
 7122SOL     OW22051   3.949   3.999   0.996
 7122SOL    HW122052   3.984   3.982   1.088
 7122SOL    HW222053   3.861   3.954   0.984
 7123SOL     OW22054   3.743   4.092   0.647
 7123SOL    HW122055   3.661   4.135   0.686
 7123SOL    HW222056   3.715   4.019   0.584
 7124SOL     OW22057   3.926   4.009   1.498
 7124SOL    HW122058   3.846   4.069   1.485
 7124SOL    HW222059   3.916   3.960   1.584
 7125SOL     OW22060   4.021   3.759   0.171
 7125SOL    HW122061   4.070   3.843   0.150
 7125SOL    HW222062   4.083   3.694   0.216
 7126SOL     OW22063   4.031   3.937   1.231
 7126SOL    HW122064   4.008   3.974   1.321
 7126SOL    HW222065   4.001   3.842   1.225
 7127SOL     OW22066   4.031   3.787   0.618
 7127SOL    HW122067   4.020   3.881   0.651
 7127SOL    HW222068   4.026   3.724   0.695
 7128SOL     OW22069   3.796   3.890   0.318
 7128SOL    HW122070   3.779   3.973   0.264
 7128SOL    HW222071   3.886   3.853   0.296
 7129SOL     OW22072   3.949   3.999   2.858
 7129SOL    HW122073   3.984   3.982   2.950
 7129SOL    HW222074   3.861   3.954   2.846
 7130SOL     OW22075   3.743   4.092   2.509
 7130SOL    HW122076   3.661   4.135   2.548
 7130SOL    HW222077   3.715   4.019   2.446
 7131SOL     OW22078   3.926   4.009   3.360
 7131SOL    HW122079   3.846   4.069   3.347
 7131SOL    HW222080   3.916   3.960   3.446
 7132SOL     OW22081   4.021   3.759   2.033
 7132SOL    HW122082   4.070   3.843   2.012
 7132SOL    HW222083   4.083   3.694   2.078
 7133SOL     OW22084   4.031   3.937   3.093
 7133SOL    HW122085   4.008   3.974   3.183
 7133SOL    HW222086   4.001   3.842   3.087
 7134SOL     OW22087   4.031   3.787   2.480
 7134SOL    HW122088   4.020   3.881   2.513
 7134SOL    HW222089   4.026   3.724   2.557
 7135SOL     OW22090   3.799   4.069   1.895
 7135SOL    HW122091   3.707   4.041   1.866
 7135SOL    HW222092   3.830   4.146   1.839
 7136SOL     OW22093   3.796   3.890   2.180
 7136SOL    HW122094   3.779   3.973   2.126
 7136SOL    HW222095   3.886   3.853   2.158
 7137SOL     OW22096   3.949   3.999   4.720
 7137SOL    HW122097   3.984   3.982   4.812
 7137SOL    HW222098   3.861   3.954   4.708
 7138SOL     OW22099   3.743   4.092   4.371
 7138SOL    HW122100   3.661   4.135   4.410
 7138SOL    HW222101   3.715   4.019   4.308
 7139SOL     OW22102   3.926   4.009   5.222
 7139SOL    HW122103   3.846   4.069   5.209
 7139SOL    HW222104   3.916   3.960   5.308
 7140SOL     OW22105   4.021   3.759   3.895
 7140SOL    HW122106   4.070   3.843   3.874
 7140SOL    HW222107   4.083   3.694   3.940
 7141SOL     OW22108   4.031   3.937   4.955
 7141SOL    HW122109   4.008   3.974   5.045
 7141SOL    HW222110   4.001   3.842   4.949
 7142SOL     OW22111   4.031   3.787   4.342
 7142SOL    HW122112   4.020   3.881   4.375
 7142SOL    HW222113   4.026   3.724   4.419
 7143SOL     OW22114   3.799   4.069   3.757
 7143SOL    HW122115   3.707   4.041   3.728
 7143SOL    HW222116   3.830   4.146   3.701
 7144SOL     OW22117   3.796   3.890   4.042
 7144SOL    HW122118   3.779   3.973   3.988
 7144SOL    HW222119   3.886   3.853   4.020
 7145SOL     OW22120   3.949   3.999   6.582
 7145SOL    HW122121   3.984   3.982   6.674
 7145SOL    HW222122   3.861   3.954   6.570
 7146SOL     OW22123   3.743   4.092   6.233
 7146SOL    HW122124   3.661   4.135   6.272
 7146SOL    HW222125   3.715   4.019   6.170
 7147SOL     OW22126   3.926   4.009   7.084
 7147SOL    HW122127   3.846   4.069   7.071
 7147SOL    HW222128   3.916   3.960   7.170
 7148SOL     OW22129   4.021   3.759   5.757
 7148SOL    HW122130   4.070   3.843   5.736
 7148SOL    HW222131   4.083   3.694   5.802
 7149SOL     OW22132   4.031   3.937   6.817
 7149SOL    HW122133   4.008   3.974   6.907
 7149SOL    HW222134   4.001   3.842   6.811
 7150SOL     OW22135   4.031   3.787   6.204
 7150SOL    HW122136   4.020   3.881   6.237
 7150SOL    HW222137   4.026   3.724   6.281
 7151SOL     OW22138   3.799   4.069   5.619
 7151SOL    HW122139   3.707   4.041   5.590
 7151SOL    HW222140   3.830   4.146   5.563
 7152SOL     OW22141   3.796   3.890   5.904
 7152SOL    HW122142   3.779   3.973   5.850
 7152SOL    HW222143   3.886   3.853   5.882
 7153SOL     OW22144   3.949   3.999   8.444
 7153SOL    HW122145   3.984   3.982   8.536
 7153SOL    HW222146   3.861   3.954   8.432
 7154SOL     OW22147   3.743   4.092   8.095
 7154SOL    HW122148   3.661   4.135   8.134
 7154SOL    HW222149   3.715   4.019   8.032
 7155SOL     OW22150   3.926   4.009   8.946
 7155SOL    HW122151   3.846   4.069   8.933
 7155SOL    HW222152   3.916   3.960   9.032
 7156SOL     OW22153   4.021   3.759   7.619
 7156SOL    HW122154   4.070   3.843   7.598
 7156SOL    HW222155   4.083   3.694   7.664
 7157SOL     OW22156   4.031   3.937   8.679
 7157SOL    HW122157   4.008   3.974   8.769
 7157SOL    HW222158   4.001   3.842   8.673
 7158SOL     OW22159   4.031   3.787   8.066
 7158SOL    HW122160   4.020   3.881   8.099
 7158SOL    HW222161   4.026   3.724   8.143
 7159SOL     OW22162   3.799   4.069   7.481
 7159SOL    HW122163   3.707   4.041   7.452
 7159SOL    HW222164   3.830   4.146   7.425
 7160SOL     OW22165   3.796   3.890   7.766
 7160SOL    HW122166   3.779   3.973   7.712
 7160SOL    HW222167   3.886   3.853   7.744
 7161SOL     OW22168   3.949   3.999  10.306
 7161SOL    HW122169   3.984   3.982  10.398
 7161SOL    HW222170   3.861   3.954  10.294
 7162SOL     OW22171   3.743   4.092   9.957
 7162SOL    HW122172   3.661   4.135   9.996
 7162SOL    HW222173   3.715   4.019   9.894
 7163SOL     OW22174   3.926   4.009  10.808
 7163SOL    HW122175   3.846   4.069  10.795
 7163SOL    HW222176   3.916   3.960  10.894
 7164SOL     OW22177   4.021   3.759   9.481
 7164SOL    HW122178   4.070   3.843   9.460
 7164SOL    HW222179   4.083   3.694   9.526
 7165SOL     OW22180   4.031   3.937  10.541
 7165SOL    HW122181   4.008   3.974  10.631
 7165SOL    HW222182   4.001   3.842  10.535
 7166SOL     OW22183   4.031   3.787   9.928
 7166SOL    HW122184   4.020   3.881   9.961
 7166SOL    HW222185   4.026   3.724  10.005
 7167SOL     OW22186   3.799   4.069   9.343
 7167SOL    HW122187   3.707   4.041   9.314
 7167SOL    HW222188   3.830   4.146   9.287
 7168SOL     OW22189   3.796   3.890   9.628
 7168SOL    HW122190   3.779   3.973   9.574
 7168SOL    HW222191   3.886   3.853   9.606
 7169SOL     OW22192   3.949   3.999  12.168
 7169SOL    HW122193   3.984   3.982  12.260
 7169SOL    HW222194   3.861   3.954  12.156
 7170SOL     OW22195   3.743   4.092  11.819
 7170SOL    HW122196   3.661   4.135  11.858
 7170SOL    HW222197   3.715   4.019  11.756
 7171SOL     OW22198   3.926   4.009  12.670
 7171SOL    HW122199   3.846   4.069  12.657
 7171SOL    HW222200   3.916   3.960  12.756
 7172SOL     OW22201   4.021   3.759  11.343
 7172SOL    HW122202   4.070   3.843  11.322
 7172SOL    HW222203   4.083   3.694  11.388
 7173SOL     OW22204   4.031   3.937  12.403
 7173SOL    HW122205   4.008   3.974  12.493
 7173SOL    HW222206   4.001   3.842  12.397
 7174SOL     OW22207   4.031   3.787  11.790
 7174SOL    HW122208   4.020   3.881  11.823
 7174SOL    HW222209   4.026   3.724  11.867
 7175SOL     OW22210   3.799   4.069  11.205
 7175SOL    HW122211   3.707   4.041  11.176
 7175SOL    HW222212   3.830   4.146  11.149
 7176SOL     OW22213   3.796   3.890  11.490
 7176SOL    HW122214   3.779   3.973  11.436
 7176SOL    HW222215   3.886   3.853  11.468
 7177SOL     OW22216   3.743   4.092  13.681
 7177SOL    HW122217   3.661   4.135  13.720
 7177SOL    HW222218   3.715   4.019  13.618
 7178SOL     OW22219   4.021   3.759  13.205
 7178SOL    HW122220   4.070   3.843  13.184
 7178SOL    HW222221   4.083   3.694  13.250
 7179SOL     OW22222   4.031   3.787  13.652
 7179SOL    HW122223   4.020   3.881  13.685
 7179SOL    HW222224   4.026   3.724  13.729
 7180SOL     OW22225   3.799   4.069  13.067
 7180SOL    HW122226   3.707   4.041  13.038
 7180SOL    HW222227   3.830   4.146  13.011
 7181SOL     OW22228   3.796   3.890  13.352
 7181SOL    HW122229   3.779   3.973  13.298
 7181SOL    HW222230   3.886   3.853  13.330
   4.00000   4.00000  13.90000
