Built with Packmol
22173
    1LIG      O    1   1.977   2.120   0.066
    1LIG      C    2   2.042   2.170   0.217
    1LIG     C1    3   1.971   2.117   0.377
    1LIG     O1    4   2.035   2.167   0.530
    1LIG     C2    5   1.970   2.118   0.681
    1LIG     C3    6   2.041   2.173   0.838
    1LIG     O2    7   1.977   2.125   0.990
    1LIG     C4    8   2.040   2.175   1.142
    1LIG     C5    9   1.968   2.120   1.300
    1LIG     O3   10   2.031   2.170   1.452
    1LIG     C6   11   1.966   2.121   1.603
    1LIG     C7   12   2.038   2.177   1.760
    1LIG     O4   13   1.974   2.129   1.913
    1LIG     C8   14   2.038   2.179   2.065
    1LIG     C9   15   1.965   2.123   2.221
    1LIG     O5   16   2.029   2.173   2.373
    1LIG    C10   17   1.965   2.124   2.525
    1LIG    C11   18   2.037   2.180   2.682
    1LIG     O6   19   1.973   2.131   2.833
    1LIG    C12   20   2.036   2.180   2.985
    1LIG    C13   21   1.963   2.125   3.142
    1LIG     O7   22   2.027   2.174   3.294
    1LIG    C14   23   1.963   2.125   3.446
    1LIG    C15   24   2.035   2.180   3.604
    1LIG     O8   25   1.971   2.131   3.757
    1LIG    C16   26   2.035   2.181   3.908
    1LIG    C17   27   1.964   2.126   4.066
    1LIG     O9   28   2.027   2.175   4.219
    1LIG    C18   29   1.962   2.126   4.369
    1LIG    C19   30   2.034   2.181   4.526
    1LIG    O10   31   1.971   2.132   4.678
    1LIG    C20   32   2.035   2.182   4.830
    1LIG    C21   33   1.962   2.126   4.986
    1LIG    O11   34   2.026   2.175   5.138
    1LIG    C22   35   1.962   2.126   5.290
    1LIG    C23   36   2.034   2.182   5.447
    1LIG    O12   37   1.970   2.133   5.598
    1LIG    C24   38   2.034   2.182   5.751
    1LIG    C25   39   1.962   2.127   5.909
    1LIG    O13   40   2.025   2.176   6.061
    1LIG    C26   41   1.961   2.127   6.212
    1LIG    C27   42   2.033   2.182   6.369
    1LIG    O14   43   1.969   2.133   6.521
    1LIG    C28   44   2.034   2.182   6.673
    1LIG    C29   45   1.962   2.126   6.831
    1LIG    O15   46   2.026   2.175   6.983
    1LIG    C30   47   1.962   2.126   7.134
    1LIG    C31   48   2.034   2.181   7.291
    1LIG    O16   49   1.970   2.132   7.442
    1LIG    C32   50   2.034   2.181   7.594
    1LIG    C33   51   1.962   2.126   7.752
    1LIG    O17   52   2.026   2.175   7.904
    1LIG    C34   53   1.962   2.125   8.056
    1LIG    C35   54   2.034   2.180   8.213
    1LIG    O18   55   1.970   2.131   8.365
    1LIG    C36   56   2.034   2.180   8.516
    1LIG    C37   57   1.963   2.125   8.674
    1LIG    O19   58   2.027   2.174   8.827
    1LIG    C38   59   1.963   2.124   8.978
    1LIG    C39   60   2.034   2.179   9.136
    1LIG    O20   61   1.971   2.130   9.288
    1LIG    C40   62   2.035   2.179   9.439
    1LIG    C41   63   1.964   2.124   9.597
    1LIG    O21   64   2.027   2.173   9.749
    1LIG    C42   65   1.963   2.123   9.900
    1LIG    C43   66   2.035   2.178  10.057
    1LIG    O22   67   1.972   2.129  10.209
    1LIG    C44   68   2.036   2.178  10.361
    1LIG    C45   69   1.964   2.122  10.518
    1LIG    O23   70   2.028   2.171  10.670
    1LIG    C46   71   1.964   2.122  10.822
    1LIG    C47   72   2.037   2.178  10.979
    1LIG    O24   73   1.973   2.128  11.130
    1LIG    C48   74   2.036   2.177  11.282
    1LIG    C49   75   1.964   2.121  11.439
    1LIG    O25   76   2.028   2.170  11.591
    1LIG    C50   77   1.965   2.121  11.743
    1LIG    C51   78   2.037   2.177  11.900
    1LIG    O26   79   1.974   2.127  12.051
    1LIG    C52   80   2.037   2.176  12.204
    1LIG    C53   81   1.965   2.119  12.360
    1LIG    O27   82   2.029   2.169  12.512
    1LIG    C54   83   1.966   2.119  12.664
    1LIG    C55   84   2.038   2.175  12.822
    1LIG    O28   85   1.974   2.125  12.974
    1LIG    C56   86   2.038   2.174  13.127
    1LIG    C57   87   1.967   2.118  13.285
    1LIG    O29   88   2.031   2.167  13.438
    1LIG    C58   89   1.967   2.117  13.589
    1LIG    C59   90   2.038   2.172  13.747
    1LIG      H   91   2.039   2.280   0.214
    1LIG     H1   92   2.147   2.139   0.215
    1LIG     H2   93   1.974   2.008   0.377
    1LIG     H3   94   1.866   2.148   0.375
    1LIG     H4   95   1.973   2.008   0.683
    1LIG     H5   96   1.865   2.149   0.682
    1LIG     H6   97   2.039   2.283   0.836
    1LIG     H7   98   2.147   2.142   0.837
    1LIG     H8   99   2.038   2.284   1.143
    1LIG     H9  100   2.145   2.144   1.145
    1LIG    H10  101   1.971   2.011   1.299
    1LIG    H11  102   1.863   2.151   1.297
    1LIG    H12  103   1.969   2.012   1.606
    1LIG    H13  104   1.861   2.152   1.604
    1LIG    H14  105   2.035   2.287   1.758
    1LIG    H15  106   2.143   2.146   1.759
    1LIG    H16  107   2.035   2.288   2.066
    1LIG    H17  108   2.143   2.148   2.067
    1LIG    H18  109   1.968   2.014   2.219
    1LIG    H19  110   1.860   2.154   2.219
    1LIG    H20  111   1.967   2.014   2.527
    1LIG    H21  112   1.859   2.155   2.527
    1LIG    H22  113   2.034   2.289   2.679
    1LIG    H23  114   2.142   2.149   2.680
    1LIG    H24  115   2.033   2.289   2.987
    1LIG    H25  116   2.141   2.149   2.988
    1LIG    H26  117   1.966   2.015   3.141
    1LIG    H27  118   1.858   2.156   3.140
    1LIG    H28  119   1.966   2.015   3.448
    1LIG    H29  120   1.858   2.156   3.448
    1LIG    H30  121   2.032   2.290   3.602
    1LIG    H31  122   2.140   2.149   3.603
    1LIG    H32  123   2.032   2.291   3.909
    1LIG    H33  124   2.140   2.150   3.910
    1LIG    H34  125   1.966   2.017   4.064
    1LIG    H35  126   1.858   2.157   4.064
    1LIG    H36  127   1.965   2.016   4.371
    1LIG    H37  128   1.857   2.157   4.371
    1LIG    H38  129   2.031   2.291   4.524
    1LIG    H39  130   2.139   2.150   4.524
    1LIG    H40  131   2.032   2.291   4.832
    1LIG    H41  132   2.140   2.151   4.832
    1LIG    H42  133   1.965   2.017   4.985
    1LIG    H43  134   1.857   2.157   4.984
    1LIG    H44  135   1.965   2.017   5.292
    1LIG    H45  136   1.857   2.157   5.292
    1LIG    H46  137   2.031   2.292   5.445
    1LIG    H47  138   2.140   2.151   5.445
    1LIG    H48  139   2.031   2.291   5.753
    1LIG    H49  140   2.139   2.151   5.753
    1LIG    H50  141   1.965   2.017   5.907
    1LIG    H51  142   1.857   2.158   5.907
    1LIG    H52  143   1.964   2.017   6.214
    1LIG    H53  144   1.856   2.158   6.214
    1LIG    H54  145   2.030   2.292   6.368
    1LIG    H55  146   2.138   2.151   6.367
    1LIG    H56  147   2.031   2.291   6.675
    1LIG    H57  148   2.139   2.151   6.675
    1LIG    H58  149   1.965   2.017   6.829
    1LIG    H59  150   1.857   2.157   6.830
    1LIG    H60  151   1.965   2.016   7.136
    1LIG    H61  152   1.857   2.157   7.136
    1LIG    H62  153   2.031   2.291   7.289
    1LIG    H63  154   2.139   2.150   7.289
    1LIG    H64  155   2.031   2.290   7.596
    1LIG    H65  156   2.139   2.150   7.596
    1LIG    H66  157   1.965   2.016   7.750
    1LIG    H67  158   1.857   2.157   7.751
    1LIG    H68  159   1.965   2.016   8.057
    1LIG    H69  160   1.857   2.156   8.057
    1LIG    H70  161   2.031   2.290   8.212
    1LIG    H71  162   2.139   2.150   8.211
    1LIG    H72  163   2.031   2.290   8.518
    1LIG    H73  164   2.140   2.150   8.518
    1LIG    H74  165   1.966   2.016   8.673
    1LIG    H75  166   1.858   2.156   8.673
    1LIG    H76  167   1.966   2.015   8.979
    1LIG    H77  168   1.858   2.155   8.979
    1LIG    H78  169   2.031   2.288   9.134
    1LIG    H79  170   2.140   2.148   9.134
    1LIG    H80  171   2.032   2.289   9.441
    1LIG    H81  172   2.140   2.149   9.440
    1LIG    H82  173   1.967   2.014   9.595
    1LIG    H83  174   1.858   2.154   9.595
    1LIG    H84  175   1.967   2.013   9.902
    1LIG    H85  176   1.858   2.153   9.902
    1LIG    H86  177   2.032   2.288  10.055
    1LIG    H87  178   2.141   2.148  10.055
    1LIG    H88  179   2.033   2.288  10.363
    1LIG    H89  180   2.141   2.148  10.363
    1LIG    H90  181   1.967   2.013  10.516
    1LIG    H91  182   1.859   2.153  10.516
    1LIG    H92  183   1.968   2.012  10.824
    1LIG    H93  184   1.859   2.152  10.824
    1LIG    H94  185   2.033   2.287  10.977
    1LIG    H95  186   2.142   2.147  10.977
    1LIG    H96  187   2.033   2.286  11.285
    1LIG    H97  188   2.141   2.146  11.284
    1LIG    H98  189   1.968   2.011  11.437
    1LIG    H99  190   1.859   2.151  11.438
    1LIG   H100  191   1.968   2.011  11.745
    1LIG   H101  192   1.860   2.151  11.746
    1LIG   H102  193   2.034   2.286  11.898
    1LIG   H103  194   2.142   2.146  11.898
    1LIG   H104  195   2.034   2.285  12.206
    1LIG   H105  196   2.142   2.145  12.206
    1LIG   H106  197   1.969   2.010  12.358
    1LIG   H107  198   1.860   2.150  12.359
    1LIG   H108  199   1.970   2.010  12.666
    1LIG   H109  200   1.861   2.150  12.666
    1LIG   H110  201   2.034   2.284  12.821
    1LIG   H111  202   2.143   2.144  12.820
    1LIG   H112  203   2.035   2.284  13.128
    1LIG   H113  204   2.144   2.144  13.128
    1LIG   H114  205   1.971   2.009  13.283
    1LIG   H115  206   1.862   2.149  13.284
    1LIG   H116  207   1.971   2.007  13.589
    1LIG   H117  208   1.862   2.149  13.590
    1LIG   H118  209   2.143   2.142  13.747
    1LIG   H119  210   1.991   2.135  13.866
    1LIG      O  211   1.977   1.820   0.066
    1LIG      C  212   2.042   1.870   0.217
    1LIG     C1  213   1.971   1.817   0.377
    1LIG     O1  214   2.035   1.867   0.530
    1LIG     C2  215   1.970   1.818   0.681
    1LIG     C3  216   2.041   1.873   0.838
    1LIG     O2  217   1.977   1.825   0.990
    1LIG     C4  218   2.040   1.875   1.142
    1LIG     C5  219   1.968   1.820   1.300
    1LIG     O3  220   2.031   1.870   1.452
    1LIG     C6  221   1.966   1.821   1.603
    1LIG     C7  222   2.038   1.877   1.760
    1LIG     O4  223   1.974   1.829   1.913
    1LIG     C8  224   2.038   1.879   2.065
    1LIG     C9  225   1.965   1.823   2.221
    1LIG     O5  226   2.029   1.873   2.373
    1LIG    C10  227   1.965   1.824   2.525
    1LIG    C11  228   2.037   1.880   2.682
    1LIG     O6  229   1.973   1.831   2.833
    1LIG    C12  230   2.036   1.880   2.985
    1LIG    C13  231   1.963   1.825   3.142
    1LIG     O7  232   2.027   1.874   3.294
    1LIG    C14  233   1.963   1.825   3.446
    1LIG    C15  234   2.035   1.880   3.604
    1LIG     O8  235   1.971   1.831   3.757
    1LIG    C16  236   2.035   1.881   3.908
    1LIG    C17  237   1.964   1.826   4.066
    1LIG     O9  238   2.027   1.875   4.219
    1LIG    C18  239   1.962   1.826   4.369
    1LIG    C19  240   2.034   1.881   4.526
    1LIG    O10  241   1.971   1.832   4.678
    1LIG    C20  242   2.035   1.882   4.830
    1LIG    C21  243   1.962   1.826   4.986
    1LIG    O11  244   2.026   1.875   5.138
    1LIG    C22  245   1.962   1.826   5.290
    1LIG    C23  246   2.034   1.882   5.447
    1LIG    O12  247   1.970   1.833   5.598
    1LIG    C24  248   2.034   1.882   5.751
    1LIG    C25  249   1.962   1.827   5.909
    1LIG    O13  250   2.025   1.876   6.061
    1LIG    C26  251   1.961   1.827   6.212
    1LIG    C27  252   2.033   1.882   6.369
    1LIG    O14  253   1.969   1.833   6.521
    1LIG    C28  254   2.034   1.882   6.673
    1LIG    C29  255   1.962   1.826   6.831
    1LIG    O15  256   2.026   1.875   6.983
    1LIG    C30  257   1.962   1.826   7.134
    1LIG    C31  258   2.034   1.881   7.291
    1LIG    O16  259   1.970   1.832   7.442
    1LIG    C32  260   2.034   1.881   7.594
    1LIG    C33  261   1.962   1.826   7.752
    1LIG    O17  262   2.026   1.875   7.904
    1LIG    C34  263   1.962   1.825   8.056
    1LIG    C35  264   2.034   1.880   8.213
    1LIG    O18  265   1.970   1.831   8.365
    1LIG    C36  266   2.034   1.880   8.516
    1LIG    C37  267   1.963   1.825   8.674
    1LIG    O19  268   2.027   1.874   8.827
    1LIG    C38  269   1.963   1.824   8.978
    1LIG    C39  270   2.034   1.879   9.136
    1LIG    O20  271   1.971   1.830   9.288
    1LIG    C40  272   2.035   1.879   9.439
    1LIG    C41  273   1.964   1.824   9.597
    1LIG    O21  274   2.027   1.873   9.749
    1LIG    C42  275   1.963   1.823   9.900
    1LIG    C43  276   2.035   1.878  10.057
    1LIG    O22  277   1.972   1.829  10.209
    1LIG    C44  278   2.036   1.878  10.361
    1LIG    C45  279   1.964   1.822  10.518
    1LIG    O23  280   2.028   1.871  10.670
    1LIG    C46  281   1.964   1.822  10.822
    1LIG    C47  282   2.037   1.878  10.979
    1LIG    O24  283   1.973   1.828  11.130
    1LIG    C48  284   2.036   1.877  11.282
    1LIG    C49  285   1.964   1.821  11.439
    1LIG    O25  286   2.028   1.870  11.591
    1LIG    C50  287   1.965   1.821  11.743
    1LIG    C51  288   2.037   1.877  11.900
    1LIG    O26  289   1.974   1.827  12.051
    1LIG    C52  290   2.037   1.876  12.204
    1LIG    C53  291   1.965   1.819  12.360
    1LIG    O27  292   2.029   1.869  12.512
    1LIG    C54  293   1.966   1.819  12.664
    1LIG    C55  294   2.038   1.875  12.822
    1LIG    O28  295   1.974   1.825  12.974
    1LIG    C56  296   2.038   1.874  13.127
    1LIG    C57  297   1.967   1.818  13.285
    1LIG    O29  298   2.031   1.867  13.438
    1LIG    C58  299   1.967   1.817  13.589
    1LIG    C59  300   2.038   1.872  13.747
    1LIG      H  301   2.039   1.980   0.214
    1LIG     H1  302   2.147   1.839   0.215
    1LIG     H2  303   1.974   1.708   0.377
    1LIG     H3  304   1.866   1.848   0.375
    1LIG     H4  305   1.973   1.708   0.683
    1LIG     H5  306   1.865   1.849   0.682
    1LIG     H6  307   2.039   1.983   0.836
    1LIG     H7  308   2.147   1.842   0.837
    1LIG     H8  309   2.038   1.984   1.143
    1LIG     H9  310   2.145   1.844   1.145
    1LIG    H10  311   1.971   1.711   1.299
    1LIG    H11  312   1.863   1.851   1.297
    1LIG    H12  313   1.969   1.712   1.606
    1LIG    H13  314   1.861   1.852   1.604
    1LIG    H14  315   2.035   1.987   1.758
    1LIG    H15  316   2.143   1.846   1.759
    1LIG    H16  317   2.035   1.988   2.066
    1LIG    H17  318   2.143   1.848   2.067
    1LIG    H18  319   1.968   1.714   2.219
    1LIG    H19  320   1.860   1.854   2.219
    1LIG    H20  321   1.967   1.714   2.527
    1LIG    H21  322   1.859   1.855   2.527
    1LIG    H22  323   2.034   1.989   2.679
    1LIG    H23  324   2.142   1.849   2.680
    1LIG    H24  325   2.033   1.989   2.987
    1LIG    H25  326   2.141   1.849   2.988
    1LIG    H26  327   1.966   1.715   3.141
    1LIG    H27  328   1.858   1.856   3.140
    1LIG    H28  329   1.966   1.715   3.448
    1LIG    H29  330   1.858   1.856   3.448
    1LIG    H30  331   2.032   1.990   3.602
    1LIG    H31  332   2.140   1.849   3.603
    1LIG    H32  333   2.032   1.991   3.909
    1LIG    H33  334   2.140   1.850   3.910
    1LIG    H34  335   1.966   1.717   4.064
    1LIG    H35  336   1.858   1.857   4.064
    1LIG    H36  337   1.965   1.716   4.371
    1LIG    H37  338   1.857   1.857   4.371
    1LIG    H38  339   2.031   1.991   4.524
    1LIG    H39  340   2.139   1.850   4.524
    1LIG    H40  341   2.032   1.991   4.832
    1LIG    H41  342   2.140   1.851   4.832
    1LIG    H42  343   1.965   1.717   4.985
    1LIG    H43  344   1.857   1.857   4.984
    1LIG    H44  345   1.965   1.717   5.292
    1LIG    H45  346   1.857   1.857   5.292
    1LIG    H46  347   2.031   1.992   5.445
    1LIG    H47  348   2.140   1.851   5.445
    1LIG    H48  349   2.031   1.991   5.753
    1LIG    H49  350   2.139   1.851   5.753
    1LIG    H50  351   1.965   1.717   5.907
    1LIG    H51  352   1.857   1.858   5.907
    1LIG    H52  353   1.964   1.717   6.214
    1LIG    H53  354   1.856   1.858   6.214
    1LIG    H54  355   2.030   1.992   6.368
    1LIG    H55  356   2.138   1.851   6.367
    1LIG    H56  357   2.031   1.991   6.675
    1LIG    H57  358   2.139   1.851   6.675
    1LIG    H58  359   1.965   1.717   6.829
    1LIG    H59  360   1.857   1.857   6.830
    1LIG    H60  361   1.965   1.716   7.136
    1LIG    H61  362   1.857   1.857   7.136
    1LIG    H62  363   2.031   1.991   7.289
    1LIG    H63  364   2.139   1.850   7.289
    1LIG    H64  365   2.031   1.990   7.596
    1LIG    H65  366   2.139   1.850   7.596
    1LIG    H66  367   1.965   1.716   7.750
    1LIG    H67  368   1.857   1.857   7.751
    1LIG    H68  369   1.965   1.716   8.057
    1LIG    H69  370   1.857   1.856   8.057
    1LIG    H70  371   2.031   1.990   8.212
    1LIG    H71  372   2.139   1.850   8.211
    1LIG    H72  373   2.031   1.990   8.518
    1LIG    H73  374   2.140   1.850   8.518
    1LIG    H74  375   1.966   1.716   8.673
    1LIG    H75  376   1.858   1.856   8.673
    1LIG    H76  377   1.966   1.715   8.979
    1LIG    H77  378   1.858   1.855   8.979
    1LIG    H78  379   2.031   1.988   9.134
    1LIG    H79  380   2.140   1.848   9.134
    1LIG    H80  381   2.032   1.989   9.441
    1LIG    H81  382   2.140   1.849   9.440
    1LIG    H82  383   1.967   1.714   9.595
    1LIG    H83  384   1.858   1.854   9.595
    1LIG    H84  385   1.967   1.713   9.902
    1LIG    H85  386   1.858   1.853   9.902
    1LIG    H86  387   2.032   1.988  10.055
    1LIG    H87  388   2.141   1.848  10.055
    1LIG    H88  389   2.033   1.988  10.363
    1LIG    H89  390   2.141   1.848  10.363
    1LIG    H90  391   1.967   1.713  10.516
    1LIG    H91  392   1.859   1.853  10.516
    1LIG    H92  393   1.968   1.712  10.824
    1LIG    H93  394   1.859   1.852  10.824
    1LIG    H94  395   2.033   1.987  10.977
    1LIG    H95  396   2.142   1.847  10.977
    1LIG    H96  397   2.033   1.986  11.285
    1LIG    H97  398   2.141   1.846  11.284
    1LIG    H98  399   1.968   1.711  11.437
    1LIG    H99  400   1.859   1.851  11.438
    1LIG   H100  401   1.968   1.711  11.745
    1LIG   H101  402   1.860   1.851  11.746
    1LIG   H102  403   2.034   1.986  11.898
    1LIG   H103  404   2.142   1.846  11.898
    1LIG   H104  405   2.034   1.985  12.206
    1LIG   H105  406   2.142   1.845  12.206
    1LIG   H106  407   1.969   1.710  12.358
    1LIG   H107  408   1.860   1.850  12.359
    1LIG   H108  409   1.970   1.710  12.666
    1LIG   H109  410   1.861   1.850  12.666
    1LIG   H110  411   2.034   1.984  12.821
    1LIG   H111  412   2.143   1.844  12.820
    1LIG   H112  413   2.035   1.984  13.128
    1LIG   H113  414   2.144   1.844  13.128
    1LIG   H114  415   1.971   1.709  13.283
    1LIG   H115  416   1.862   1.849  13.284
    1LIG   H116  417   1.971   1.707  13.589
    1LIG   H117  418   1.862   1.849  13.590
    1LIG   H118  419   2.143   1.842  13.747
    1LIG   H119  420   1.991   1.835  13.866
    1MOL     C1  421   1.320   2.198   6.934
    1MOL     H1  422   1.215   2.168   6.942
    1MOL     O1  423   1.353   2.257   7.058
    1MOL     C2  424   1.487   2.310   7.067
    1MOL     H2  425   1.559   2.228   7.055
    1MOL     C3  426   1.504   2.367   7.207
    1MOL     H3  427   1.611   2.388   7.222
    1MOL     H4  428   1.473   2.290   7.280
    1MOL     O2  429   1.426   2.485   7.220
    1MOL     H5  430   1.449   2.527   7.304
    1MOL     C4  431   1.339   2.298   6.819
    1MOL     H6  432   1.270   2.382   6.838
    1MOL     O3  433   1.305   2.247   6.692
    1MOL     H7  434   1.337   2.155   6.683
    1MOL     C5  435   1.482   2.353   6.821
    1MOL     H8  436   1.552   2.271   6.802
    1MOL     O4  437   1.496   2.453   6.720
    1MOL     H9  438   1.449   2.419   6.642
    1MOL     C6  439   1.511   2.415   6.956
    1MOL    H10  440   1.443   2.500   6.972
    1MOL     O5  441   1.647   2.459   6.957
    1MOL     C7  442   1.676   2.586   7.013
    1MOL    H11  443   1.586   2.628   7.060
    1MOL     O6  444   1.770   2.574   7.117
    1MOL     C8  445   1.899   2.522   7.077
    1MOL    H12  446   1.884   2.423   7.031
    1MOL     C9  447   1.984   2.503   7.204
    1MOL    H13  448   2.056   2.423   7.184
    1MOL    H14  449   1.918   2.469   7.284
    1MOL     O7  450   2.049   2.621   7.249
    1MOL    H15  451   2.137   2.624   7.206
    1MOL    C10  452   1.729   2.678   6.902
    1MOL    H16  453   1.740   2.778   6.944
    1MOL     O8  454   1.640   2.692   6.792
    1MOL    H17  455   1.607   2.603   6.765
    1MOL    C11  456   1.866   2.630   6.855
    1MOL    H18  457   1.856   2.531   6.808
    1MOL     O9  458   1.923   2.722   6.762
    1MOL    H19  459   1.850   2.745   6.701
    1MOL    C12  460   1.959   2.619   6.975
    1MOL    H20  461   1.969   2.717   7.023
    1MOL    O10  462   2.087   2.574   6.929
    1MOL    C13  463   2.199   2.655   6.956
    1MOL    H21  464   2.167   2.755   6.988
    1MOL    O11  465   2.276   2.604   7.064
    1MOL    C14  466   2.331   2.472   7.040
    1MOL    H22  467   2.248   2.403   7.018
    1MOL    C15  468   2.399   2.424   7.169
    1MOL    H23  469   2.393   2.314   7.173
    1MOL    H24  470   2.341   2.463   7.254
    1MOL    O12  471   2.533   2.468   7.184
    1MOL    H25  472   2.590   2.397   7.149
    1MOL    C16  473   2.284   2.665   6.829
    1MOL    H26  474   2.366   2.735   6.848
    1MOL    O13  475   2.212   2.715   6.717
    1MOL    H27  476   2.117   2.693   6.727
    1MOL    C17  477   2.346   2.528   6.798
    1MOL    H28  478   2.266   2.456   6.775
    1MOL    O14  479   2.435   2.538   6.687
    1MOL    H29  480   2.387   2.588   6.618
    1MOL    C18  481   2.424   2.479   6.919
    1MOL    H30  482   2.505   2.550   6.942
    1MOL    O15  483   2.479   2.351   6.887
    1MOL    C19  484   2.618   2.333   6.902
    1MOL    H31  485   2.669   2.429   6.916
    1MOL    O16  486   2.648   2.257   7.018
    1MOL    C20  487   2.591   2.124   7.019
    1MOL    H32  488   2.482   2.133   7.008
    1MOL    C21  489   2.621   2.058   7.155
    1MOL    H33  490   2.538   1.990   7.178
    1MOL    H34  491   2.619   2.138   7.231
    1MOL    O17  492   2.746   1.993   7.163
    1MOL    H35  493   2.730   1.899   7.142
    1MOL    C22  494   2.670   2.262   6.776
    1MOL    H36  495   2.779   2.255   6.784
    1MOL    O18  496   2.642   2.333   6.657
    1MOL    H37  497   2.558   2.382   6.667
    1MOL    C23  498   2.614   2.120   6.770
    1MOL    H38  499   2.505   2.124   6.759
    1MOL    O19  500   2.671   2.048   6.661
    1MOL    H39  501   2.666   2.108   6.584
    1MOL    C24  502   2.648   2.046   6.899
    1MOL    H40  503   2.757   2.040   6.911
    1MOL    O20  504   2.591   1.915   6.892
    1MOL    C25  505   2.677   1.804   6.910
    1MOL    H41  506   2.781   1.835   6.908
    1MOL    O21  507   2.656   1.744   7.037
    1MOL    C26  508   2.523   1.693   7.059
    1MOL    H42  509   2.451   1.775   7.053
    1MOL    C27  510   2.517   1.636   7.200
    1MOL    H43  511   2.412   1.616   7.224
    1MOL    H44  512   2.555   1.712   7.270
    1MOL    O22  513   2.596   1.517   7.206
    1MOL    H45  514   2.586   1.480   7.295
    1MOL    C28  515   2.648   1.704   6.798
    1MOL    H46  516   2.718   1.620   6.810
    1MOL    O23  517   2.670   1.756   6.668
    1MOL    H47  518   2.647   1.851   6.667
    1MOL    C29  519   2.506   1.649   6.812
    1MOL    H48  520   2.434   1.732   6.799
    1MOL    O24  521   2.482   1.549   6.714
    1MOL    H49  522   2.520   1.583   6.631
    1MOL    C30  523   2.487   1.589   6.951
    1MOL    H50  524   2.551   1.501   6.961
    1MOL    O25  525   2.350   1.552   6.963
    1MOL    C31  526   2.319   1.427   7.025
    1MOL    H51  527   2.407   1.388   7.076
    1MOL    O26  528   2.221   1.446   7.125
    1MOL    C32  529   2.094   1.497   7.078
    1MOL    H52  530   2.111   1.593   7.027
    1MOL    C33  531   2.005   1.522   7.200
    1MOL    H53  532   1.929   1.596   7.172
    1MOL    H54  533   2.069   1.568   7.277
    1MOL    O27  534   1.945   1.405   7.251
    1MOL    H55  535   1.849   1.416   7.244
    1MOL    C34  536   2.269   1.329   6.917
    1MOL    H56  537   2.255   1.232   6.965
    1MOL    O28  538   2.361   1.308   6.812
    1MOL    H57  539   2.389   1.395   6.775
    1MOL    C35  540   2.134   1.376   6.863
    1MOL    H58  541   2.147   1.472   6.812
    1MOL    O29  542   2.080   1.280   6.772
    1MOL    H59  543   2.155   1.252   6.717
    1MOL    C36  544   2.036   1.396   6.978
    1MOL    H60  545   2.021   1.301   7.032
    1MOL    O30  546   1.911   1.441   6.924
    1MOL    C37  547   1.804   1.350   6.927
    1MOL    H61  548   1.840   1.248   6.946
    1MOL    O31  549   1.714   1.378   7.032
    1MOL    C38  550   1.653   1.508   7.027
    1MOL    H62  551   1.732   1.585   7.024
    1MOL    C39  552   1.577   1.524   7.156
    1MOL    H63  553   1.508   1.438   7.169
    1MOL    H64  554   1.518   1.616   7.155
    1MOL    O32  555   1.674   1.526   7.261
    1MOL    H65  556   1.630   1.548   7.344
    1MOL    C40  557   1.730   1.356   6.793
    1MOL    H66  558   1.652   1.279   6.796
    1MOL    O33  559   1.811   1.332   6.680
    1MOL    H67  560   1.906   1.331   6.706
    1MOL    C41  561   1.661   1.492   6.779
    1MOL    H68  562   1.738   1.570   6.775
    1MOL    O34  563   1.582   1.495   6.660
    1MOL    H69  564   1.640   1.461   6.589
    1MOL    C42  565   1.570   1.519   6.898
    1MOL    H70  566   1.489   1.444   6.900
    1MOL    O35  567   1.515   1.650   6.882
    1MOL    C43  568   1.375   1.666   6.886
    1MOL    H71  569   1.325   1.569   6.889
    1MOL    O36  570   1.334   1.733   7.004
    1MOL    C44  571   1.385   1.866   7.021
    1MOL    H72  572   1.495   1.863   7.023
    1MOL    C45  573   1.336   1.915   7.155
    1MOL    H73  574   1.228   1.895   7.162
    1MOL    H74  575   1.352   2.023   7.163
    1MOL    O37  576   1.408   1.845   7.257
    1MOL    H75  577   1.371   1.871   7.342
    1MOL    C46  578   1.332   1.746   6.763
    1MOL    H76  579   1.222   1.751   6.763
    1MOL    O38  580   1.368   1.687   6.640
    1MOL    H77  581   1.454   1.640   6.650
    1MOL    C47  582   1.385   1.889   6.772
    1MOL    H78  583   1.495   1.886   6.770
    1MOL    O39  584   1.337   1.966   6.662
    1MOL    H79  585   1.348   1.910   6.584
    1MOL    C48  586   1.341   1.955   6.902
    1MOL    H80  587   1.232   1.965   6.902
    1MOL    O40  588   1.402   2.084   6.909
    2SOL     OW  589   0.230   0.628   0.113
    2SOL    HW1  590   0.137   0.626   0.150
    2SOL    HW2  591   0.231   0.589   0.021
    3SOL     OW  592   0.225   0.275   0.996
    3SOL    HW1  593   0.260   0.258   1.088
    3SOL    HW2  594   0.137   0.230   0.984
    4SOL     OW  595   0.019   0.368   0.647
    4SOL    HW1  596  -0.063   0.411   0.686
    4SOL    HW2  597  -0.009   0.295   0.584
    5SOL     OW  598   0.569   1.275   1.165
    5SOL    HW1  599   0.476   1.268   1.128
    5SOL    HW2  600   0.580   1.364   1.209
    6SOL     OW  601   1.555   1.511   0.703
    6SOL    HW1  602   1.498   1.495   0.784
    6SOL    HW2  603   1.496   1.521   0.623
    7SOL     OW  604   1.135   0.703   0.717
    7SOL    HW1  605   1.192   0.781   0.692
    7SOL    HW2  606   1.075   0.729   0.793
    8SOL     OW  607   1.755   0.607   0.231
    8SOL    HW1  608   1.743   0.594   0.132
    8SOL    HW2  609   1.725   0.526   0.280
    9SOL     OW  610   0.768   1.144   1.023
    9SOL    HW1  611   0.690   1.161   1.083
    9SOL    HW2  612   0.802   1.231   0.987
   10SOL     OW  613   0.850   0.798   1.823
   10SOL    HW1  614   0.846   0.874   1.888
   10SOL    HW2  615   0.872   0.834   1.732
   11SOL     OW  616   0.685   1.012   0.665
   11SOL    HW1  617   0.754   0.996   0.735
   11SOL    HW2  618   0.612   1.069   0.703
   12SOL     OW  619   0.686   1.161   1.803
   12SOL    HW1  620   0.746   1.240   1.817
   12SOL    HW2  621   0.600   1.192   1.762
   13SOL     OW  622   0.335   1.435   1.061
   13SOL    HW1  623   0.257   1.404   1.008
   13SOL    HW2  624   0.393   1.493   1.004
   14SOL     OW  625   1.460   1.505   1.339
   14SOL    HW1  626   1.484   1.599   1.365
   14SOL    HW2  627   1.444   1.451   1.421
   15SOL     OW  628   0.438   0.392   1.499
   15SOL    HW1  629   0.520   0.336   1.508
   15SOL    HW2  630   0.357   0.334   1.503
   16SOL     OW  631   1.603   0.447   0.737
   16SOL    HW1  632   1.529   0.493   0.687
   16SOL    HW2  633   1.654   0.515   0.790
   17SOL     OW  634   0.231   1.713   0.483
   17SOL    HW1  635   0.265   1.790   0.537
   17SOL    HW2  636   0.275   1.713   0.393
   18SOL     OW  637   1.127   1.341   1.690
   18SOL    HW1  638   1.174   1.341   1.778
   18SOL    HW2  639   1.079   1.254   1.679
   19SOL     OW  640   0.230   1.434   0.538
   19SOL    HW1  641   0.204   1.530   0.538
   19SOL    HW2  642   0.159   1.380   0.583
   20SOL     OW  643   0.240   1.091   0.886
   20SOL    HW1  644   0.254   1.007   0.938
   20SOL    HW2  645   0.185   1.155   0.941
   21SOL     OW  646   0.620   1.786   1.439
   21SOL    HW1  647   0.528   1.769   1.474
   21SOL    HW2  648   0.648   1.878   1.465
   22SOL     OW  649   0.606   0.964   0.123
   22SOL    HW1  650   0.613   1.048   0.069
   22SOL    HW2  651   0.652   0.977   0.211
   23SOL     OW  652   1.594   0.114   1.480
   23SOL    HW1  653   1.576   0.181   1.408
   23SOL    HW2  654   1.591   0.160   1.569
   24SOL     OW  655   0.122   0.643   0.563
   24SOL    HW1  656   0.077   0.555   0.580
   24SOL    HW2  657   0.121   0.697   0.647
   25SOL     OW  658   0.027   1.596   0.117
   25SOL    HW1  659   0.008   1.500   0.138
   25SOL    HW2  660  -0.006   1.654   0.192
   26SOL     OW  661   1.689   0.922   0.612
   26SOL    HW1  662   1.784   0.893   0.620
   26SOL    HW2  663   1.681   0.987   0.537
   27SOL     OW  664   1.641   1.108   0.432
   27SOL    HW1  665   1.727   1.110   0.380
   27SOL    HW2  666   1.655   1.155   0.520
   28SOL     OW  667   0.113   0.737   1.597
   28SOL    HW1  668   0.201   0.724   1.642
   28SOL    HW2  669   0.100   0.834   1.575
   29SOL     OW  670   0.613   1.365   0.726
   29SOL    HW1  671   0.564   1.278   0.735
   29SOL    HW2  672   0.590   1.408   0.639
   30SOL     OW  673   1.293   1.228   1.423
   30SOL    HW1  674   1.330   1.155   1.365
   30SOL    HW2  675   1.345   1.233   1.508
   31SOL     OW  676   0.809   0.004   0.502
   31SOL    HW1  677   0.849   0.095   0.493
   31SOL    HW2  678   0.709   0.012   0.508
   32SOL     OW  679   0.197   0.976   1.264
   32SOL    HW1  680   0.286   0.931   1.250
   32SOL    HW2  681   0.124   0.911   1.245
   33SOL     OW  682   1.525   0.999   0.190
   33SOL    HW1  683   1.462   0.923   0.203
   33SOL    HW2  684   1.573   1.017   0.276
   34SOL     OW  685   1.187   1.792   1.616
   34SOL    HW1  686   1.211   1.852   1.540
   34SOL    HW2  687   1.194   1.697   1.586
   35SOL     OW  688   0.317   0.251   1.801
   35SOL    HW1  689   0.388   0.322   1.807
   35SOL    HW2  690   0.229   0.290   1.829
   36SOL     OW  691   1.466   1.417   0.953
   36SOL    HW1  692   1.407   1.423   1.033
   36SOL    HW2  693   1.451   1.329   0.907
   37SOL     OW  694   1.667   1.714   0.572
   37SOL    HW1  695   1.626   1.691   0.484
   37SOL    HW2  696   1.649   1.640   0.637
   38SOL     OW  697   0.598   0.729   0.270
   38SOL    HW1  698   0.622   0.798   0.202
   38SOL    HW2  699   0.520   0.762   0.324
   39SOL     OW  700   1.281   0.345   0.944
   39SOL    HW1  701   1.195   0.295   0.931
   39SOL    HW2  702   1.343   0.291   1.000
   40SOL     OW  703   1.576   1.662   0.307
   40SOL    HW1  704   1.665   1.708   0.310
   40SOL    HW2  705   1.555   1.638   0.212
   41SOL     OW  706   0.807   0.605   1.465
   41SOL    HW1  707   0.760   0.602   1.554
   41SOL    HW2  708   0.756   0.550   1.399
   42SOL     OW  709   1.394   0.469   1.674
   42SOL    HW1  710   1.374   0.512   1.762
   42SOL    HW2  711   1.472   0.407   1.683
   43SOL     OW  712   0.973   0.890   1.572
   43SOL    HW1  713   1.019   0.806   1.543
   43SOL    HW2  714   0.917   0.924   1.497
   44SOL     OW  715   0.991   0.410   1.242
   44SOL    HW1  716   0.914   0.444   1.296
   44SOL    HW2  717   0.957   0.359   1.163
   45SOL     OW  718   1.041   0.701   0.429
   45SOL    HW1  719   1.067   0.697   0.525
   45SOL    HW2  720   0.956   0.650   0.415
   46SOL     OW  721   0.076   0.811   0.789
   46SOL    HW1  722   0.175   0.799   0.798
   46SOL    HW2  723   0.052   0.906   0.810
   47SOL     OW  724   0.130   1.821   1.571
   47SOL    HW1  725   0.120   1.806   1.670
   47SOL    HW2  726   0.044   1.857   1.535
   48SOL     OW  727   0.865   0.348   0.195
   48SOL    HW1  728   0.924   0.411   0.146
   48SOL    HW2  729   0.884   0.254   0.166
   49SOL     OW  730   1.719   0.585   1.831
   49SOL    HW1  731   1.693   0.674   1.795
   49SOL    HW2  732   1.717   0.517   1.758
   50SOL     OW  733   1.362   1.144   0.545
   50SOL    HW1  734   1.445   1.115   0.497
   50SOL    HW2  735   1.313   1.211   0.489
   51SOL     OW  736   0.550   0.196   0.885
   51SOL    HW1  737   0.545   0.191   0.985
   51SOL    HW2  738   0.552   0.292   0.856
   52SOL     OW  739   1.008   1.456   0.477
   52SOL    HW1  740   0.962   1.528   0.425
   52SOL    HW2  741   1.004   1.476   0.575
   53SOL     OW  742   0.351   1.801   0.853
   53SOL    HW1  743   0.401   1.715   0.859
   53SOL    HW2  744   0.416   1.878   0.850
   54SOL     OW  745   1.795   1.066   0.873
   54SOL    HW1  746   1.733   1.051   0.797
   54SOL    HW2  747   1.743   1.077   0.958
   55SOL     OW  748   1.227   1.550   1.506
   55SOL    HW1  749   1.233   1.473   1.570
   55SOL    HW2  750   1.175   1.524   1.426
   56SOL     OW  751   0.321   0.943   0.242
   56SOL    HW1  752   0.403   0.982   0.200
   56SOL    HW2  753   0.294   0.861   0.193
   57SOL     OW  754   1.458   0.735   0.728
   57SOL    HW1  755   1.453   0.670   0.803
   57SOL    HW2  756   1.538   0.794   0.741
   58SOL     OW  757   0.461   1.266   1.727
   58SOL    HW1  758   0.411   1.267   1.641
   58SOL    HW2  759   0.398   1.248   1.803
   59SOL     OW  760   1.111   1.776   0.237
   59SOL    HW1  761   1.051   1.714   0.287
   59SOL    HW2  762   1.142   1.732   0.152
   60SOL     OW  763   0.202   0.285   1.498
   60SOL    HW1  764   0.122   0.345   1.485
   60SOL    HW2  765   0.192   0.236   1.584
   61SOL     OW  766   1.632   1.377   0.081
   61SOL    HW1  767   1.600   1.471   0.071
   61SOL    HW2  768   1.556   1.314   0.069
   62SOL     OW  769   0.464   1.743   0.323
   62SOL    HW1  770   0.497   1.782   0.409
   62SOL    HW2  771   0.540   1.736   0.258
   63SOL     OW  772   1.400   0.107   0.426
   63SOL    HW1  773   1.376   0.070   0.336
   63SOL    HW2  774   1.499   0.123   0.430
   64SOL     OW  775   0.249   1.785   1.241
   64SOL    HW1  776   0.306   1.720   1.291
   64SOL    HW2  777   0.233   1.752   1.148
   65SOL     OW  778   0.940   1.698   0.904
   65SOL    HW1  779   1.020   1.641   0.925
   65SOL    HW2  780   0.891   1.658   0.827
   66SOL     OW  781   0.382   0.700   0.480
   66SOL    HW1  782   0.427   0.610   0.477
   66SOL    HW2  783   0.288   0.689   0.513
   67SOL     OW  784   1.547   0.222   1.729
   67SOL    HW1  785   1.542   0.259   1.821
   67SOL    HW2  786   1.475   0.153   1.717
   68SOL     OW  787   0.614   0.122   0.117
   68SOL    HW1  788   0.712   0.100   0.124
   68SOL    HW2  789   0.583   0.105   0.024
   69SOL     OW  790   0.781   0.264   1.749
   69SOL    HW1  791   0.848   0.203   1.792
   69SOL    HW2  792   0.708   0.283   1.814
   70SOL     OW  793   0.888   1.514   1.195
   70SOL    HW1  794   0.865   1.489   1.101
   70SOL    HW2  795   0.949   1.445   1.234
   71SOL     OW  796   1.351   0.590   1.433
   71SOL    HW1  797   1.379   0.547   1.518
   71SOL    HW2  798   1.376   0.686   1.434
   72SOL     OW  799   0.803   1.402   0.924
   72SOL    HW1  800   0.893   1.416   0.882
   72SOL    HW2  801   0.732   1.404   0.853
   73SOL     OW  802   0.922   0.503   0.899
   73SOL    HW1  803   0.897   0.494   0.803
   73SOL    HW2  804   0.970   0.421   0.930
   74SOL     OW  805   0.539   0.064   0.512
   74SOL    HW1  806   0.458   0.065   0.570
   74SOL    HW2  807   0.542   0.147   0.457
   75SOL     OW  808   1.434   1.188   0.041
   75SOL    HW1  809   1.466   1.112   0.098
   75SOL    HW2  810   1.342   1.215   0.071
   76SOL     OW  811   0.297   0.035   0.171
   76SOL    HW1  812   0.346   0.119   0.150
   76SOL    HW2  813   0.359  -0.030   0.216
   77SOL     OW  814   0.935   0.236   0.480
   77SOL    HW1  815   0.887   0.277   0.402
   77SOL    HW2  816   1.034   0.234   0.461
   78SOL     OW  817   1.076   0.683   1.464
   78SOL    HW1  818   0.996   0.622   1.467
   78SOL    HW2  819   1.157   0.630   1.440
   79SOL     OW  820   1.227   1.570   0.793
   79SOL    HW1  821   1.248   1.644   0.728
   79SOL    HW2  822   1.295   1.570   0.866
   80SOL     OW  823   0.459   1.152   0.741
   80SOL    HW1  824   0.388   1.125   0.806
   80SOL    HW2  825   0.433   1.124   0.648
   81SOL     OW  826   1.271   1.797   0.591
   81SOL    HW1  827   1.315   1.861   0.527
   81SOL    HW2  828   1.221   1.849   0.661
   82SOL     OW  829   1.032   0.549   0.016
   82SOL    HW1  830   0.991   0.631  -0.023
   82SOL    HW2  831   1.096   0.575   0.089
   83SOL     OW  832   0.078   0.556   1.386
   83SOL    HW1  833   0.170   0.555   1.345
   83SOL    HW2  834   0.072   0.630   1.453
   84SOL     OW  835   0.561   0.222   1.147
   84SOL    HW1  836   0.599   0.138   1.184
   84SOL    HW2  837   0.473   0.241   1.191
   85SOL     OW  838   0.866   0.454   0.642
   85SOL    HW1  839   0.834   0.526   0.580
   85SOL    HW2  840   0.890   0.373   0.589
   86SOL     OW  841   1.017   0.039   0.753
   86SOL    HW1  842   0.945   0.044   0.684
   86SOL    HW2  843   0.993  -0.030   0.822
   87SOL     OW  844   1.429   1.173   0.867
   87SOL    HW1  845   1.374   1.089   0.860
   87SOL    HW2  846   1.455   1.202   0.775
   88SOL     OW  847   1.466   0.590   0.992
   88SOL    HW1  848   1.436   0.495   0.999
   88SOL    HW2  849   1.539   0.606   1.058
   89SOL     OW  850   1.857   0.833   0.377
   89SOL    HW1  851   1.899   0.769   0.441
   89SOL    HW2  852   1.819   0.782   0.299
   90SOL     OW  853   0.488   1.385   0.174
   90SOL    HW1  854   0.401   1.370   0.221
   90SOL    HW2  855   0.471   1.411   0.079
   91SOL     OW  856   1.664   1.280   0.657
   91SOL    HW1  857   1.763   1.288   0.671
   91SOL    HW2  858   1.619   1.364   0.688
   92SOL     OW  859   1.390   0.575   0.078
   92SOL    HW1  860   1.336   0.554   0.159
   92SOL    HW2  861   1.481   0.534   0.087
   93SOL     OW  862   0.527   0.256   0.328
   93SOL    HW1  863   0.554   0.197   0.253
   93SOL    HW2  864   0.527   0.351   0.297
   94SOL     OW  865   1.754   1.223   1.588
   94SOL    HW1  866   1.845   1.184   1.575
   94SOL    HW2  867   1.762   1.319   1.612
   95SOL     OW  868   1.064   1.347   1.340
   95SOL    HW1  869   0.984   1.324   1.395
   95SOL    HW2  870   1.147   1.321   1.389
   96SOL     OW  871   1.592   1.629   1.625
   96SOL    HW1  872   1.619   1.663   1.535
   96SOL    HW2  873   1.671   1.591   1.671
   97SOL     OW  874   1.111   1.195   1.100
   97SOL    HW1  875   1.071   1.239   1.181
   97SOL    HW2  876   1.070   1.232   1.017
   98SOL     OW  877   1.638   1.099   1.079
   98SOL    HW1  878   1.643   1.180   1.138
   98SOL    HW2  879   1.552   1.101   1.028
   99SOL     OW  880   0.915   0.089   1.402
   99SOL    HW1  881   0.940   0.069   1.307
   99SOL    HW2  882   0.987   0.145   1.444
  100SOL     OW  883   0.980   1.116   1.719
  100SOL    HW1  884   0.881   1.122   1.729
  100SOL    HW2  885   1.003   1.036   1.663
  101SOL     OW  886   0.705   1.050   0.368
  101SOL    HW1  887   0.691   1.057   0.467
  101SOL    HW2  888   0.789   0.999   0.350
  102SOL     OW  889   0.410   0.813   1.251
  102SOL    HW1  890   0.496   0.825   1.301
  102SOL    HW2  891   0.368   0.726   1.278
  103SOL     OW  892   1.274   0.386   1.262
  103SOL    HW1  893   1.295   0.460   1.326
  103SOL    HW2  894   1.185   0.403   1.219
  104SOL     OW  895   0.064   1.564   1.331
  104SOL    HW1  896   0.018   1.646   1.297
  104SOL    HW2  897   0.162   1.583   1.340
  105SOL     OW  898   0.367   1.100   0.501
  105SOL    HW1  899   0.360   1.183   0.445
  105SOL    HW2  900   0.371   1.020   0.441
  106SOL     OW  901   0.566   0.537   0.865
  106SOL    HW1  902   0.578   0.603   0.791
  106SOL    HW2  903   0.612   0.571   0.948
  107SOL     OW  904   1.252   1.348   0.388
  107SOL    HW1  905   1.302   1.425   0.428
  107SOL    HW2  906   1.157   1.350   0.420
  108SOL     OW  907   1.272   1.445   1.142
  108SOL    HW1  908   1.319   1.458   1.229
  108SOL    HW2  909   1.206   1.371   1.151
  109SOL     OW  910   1.582   0.639   0.472
  109SOL    HW1  911   1.551   0.700   0.545
  109SOL    HW2  912   1.632   0.691   0.403
  110SOL     OW  913   0.354   1.510   1.329
  110SOL    HW1  914   0.333   1.466   1.242
  110SOL    HW2  915   0.451   1.536   1.332
  111SOL     OW  916   0.402   0.751   1.598
  111SOL    HW1  917   0.470   0.806   1.551
  111SOL    HW2  918   0.442   0.663   1.625
  112SOL     OW  919   1.587   0.779   1.670
  112SOL    HW1  920   1.495   0.817   1.665
  112SOL    HW2  921   1.647   0.826   1.605
  113SOL     OW  922   1.013   0.105   1.770
  113SOL    HW1  923   1.019   0.190   1.718
  113SOL    HW2  924   1.045   0.029   1.713
  114SOL     OW  925   0.504   0.050   1.740
  114SOL    HW1  926   0.462  -0.007   1.670
  114SOL    HW2  927   0.438   0.119   1.772
  115SOL     OW  928   0.573   0.870   1.029
  115SOL    HW1  929   0.617   0.959   1.020
  115SOL    HW2  930   0.510   0.870   1.106
  116SOL     OW  931   1.360   0.862   1.045
  116SOL    HW1  932   1.285   0.862   0.979
  116SOL    HW2  933   1.397   0.770   1.054
  117SOL     OW  934   1.209   0.525   0.275
  117SOL    HW1  935   1.222   0.441   0.329
  117SOL    HW2  936   1.180   0.599   0.335
  118SOL     OW  937   0.307   0.213   1.231
  118SOL    HW1  938   0.284   0.250   1.321
  118SOL    HW2  939   0.277   0.118   1.225
  119SOL     OW  940   0.037   1.310   1.282
  119SOL    HW1  941   0.090   1.261   1.350
  119SOL    HW2  942   0.059   1.408   1.287
  120SOL     OW  943   0.732   0.634   1.064
  120SOL    HW1  944   0.791   0.608   0.988
  120SOL    HW2  945   0.704   0.730   1.053
  121SOL     OW  946   1.728   0.935   1.854
  121SOL    HW1  947   1.682   0.928   1.765
  121SOL    HW2  948   1.666   0.979   1.920
  122SOL     OW  949   0.307   0.063   0.618
  122SOL    HW1  950   0.296   0.157   0.651
  122SOL    HW2  951   0.302   0.000   0.695
  123SOL     OW  952   1.622   0.367   0.374
  123SOL    HW1  953   1.624   0.291   0.438
  123SOL    HW2  954   1.574   0.444   0.414
  124SOL     OW  955   1.023   0.766   0.966
  124SOL    HW1  956   1.038   0.787   1.062
  124SOL    HW2  957   0.993   0.671   0.957
  125SOL     OW  958   0.980   1.573   1.700
  125SOL    HW1  959   0.960   1.617   1.612
  125SOL    HW2  960   1.019   1.482   1.684
  126SOL     OW  961   1.859   1.518   1.605
  126SOL    HW1  962   1.873   1.545   1.510
  126SOL    HW2  963   1.942   1.540   1.658
  127SOL     OW  964   0.350   0.898   1.804
  127SOL    HW1  965   0.426   0.942   1.852
  127SOL    HW2  966   0.385   0.851   1.722
  128SOL     OW  967   1.540   0.274   0.125
  128SOL    HW1  968   1.479   0.199   0.148
  128SOL    HW2  969   1.562   0.326   0.208
  129SOL     OW  970   1.303   0.838   0.042
  129SOL    HW1  971   1.337   0.745   0.057
  129SOL    HW2  972   1.321   0.865  -0.053
  130SOL     OW  973   1.068   1.333   0.849
  130SOL    HW1  974   1.075   1.249   0.794
  130SOL    HW2  975   1.130   1.402   0.813
  131SOL     OW  976   0.319   0.810   0.949
  131SOL    HW1  977   0.412   0.846   0.954
  131SOL    HW2  978   0.313   0.725   1.001
  132SOL     OW  979   0.339   0.509   1.006
  132SOL    HW1  980   0.287   0.426   0.989
  132SOL    HW2  981   0.416   0.514   0.942
  133SOL     OW  982   1.138   0.380   1.678
  133SOL    HW1  983   1.093   0.443   1.742
  133SOL    HW2  984   1.231   0.411   1.661
  134SOL     OW  985   1.160   0.207   1.477
  134SOL    HW1  986   1.160   0.271   1.554
  134SOL    HW2  987   1.188   0.255   1.394
  135SOL     OW  988   0.008   1.326   0.200
  135SOL    HW1  989  -0.085   1.347   0.169
  135SOL    HW2  990   0.018   1.227   0.213
  136SOL     OW  991   0.088   1.801   0.927
  136SOL    HW1  992   0.046   1.715   0.900
  136SOL    HW2  993   0.182   1.804   0.893
  137SOL     OW  994   0.504   1.568   0.910
  137SOL    HW1  995   0.570   1.642   0.919
  137SOL    HW2  996   0.548   1.489   0.868
  138SOL     OW  997   1.002   0.796   1.238
  138SOL    HW1  998   1.043   0.764   1.324
  138SOL    HW2  999   0.906   0.769   1.235
  139SOL     OW 1000   0.040   0.544   1.114
  139SOL    HW1 1001   0.125   0.511   1.073
  139SOL    HW2 1002   0.053   0.559   1.212
  140SOL     OW 1003   0.189   0.520   1.722
  140SOL    HW1 1004   0.248   0.480   1.652
  140SOL    HW2 1005   0.131   0.591   1.681
  141SOL     OW 1006   1.369   0.950   1.660
  141SOL    HW1 1007   1.408   1.039   1.680
  141SOL    HW2 1008   1.379   0.930   1.563
  142SOL     OW 1009   0.815   0.572   0.325
  142SOL    HW1 1010   0.822   0.483   0.279
  142SOL    HW2 1011   0.721   0.606   0.317
  143SOL     OW 1012   1.657   0.604   1.206
  143SOL    HW1 1013   1.619   0.535   1.268
  143SOL    HW2 1014   1.739   0.568   1.162
  144SOL     OW 1015   0.252   1.564   1.744
  144SOL    HW1 1016   0.222   1.621   1.820
  144SOL    HW2 1017   0.245   1.467   1.770
  145SOL     OW 1018   0.671   0.464   1.269
  145SOL    HW1 1019   0.637   0.375   1.239
  145SOL    HW2 1020   0.697   0.518   1.189
  146SOL     OW 1021   0.930   1.678   1.465
  146SOL    HW1 1022   0.906   1.660   1.370
  146SOL    HW2 1023   0.960   1.772   1.475
  147SOL     OW 1024   0.473   0.500   0.191
  147SOL    HW1 1025   0.534   0.580   0.195
  147SOL    HW2 1026   0.378   0.531   0.198
  148SOL     OW 1027   0.159   1.137   1.466
  148SOL    HW1 1028   0.181   1.076   1.542
  148SOL    HW2 1029   0.169   1.088   1.380
  149SOL     OW 1030   1.347   1.059   1.234
  149SOL    HW1 1031   1.371   0.996   1.160
  149SOL    HW2 1032   1.257   1.099   1.216
  150SOL     OW 1033   1.302   0.855   0.309
  150SOL    HW1 1034   1.216   0.824   0.351
  150SOL    HW2 1035   1.298   0.841   0.210
  151SOL     OW 1036   1.759   1.747   1.154
  151SOL    HW1 1037   1.820   1.777   1.081
  151SOL    HW2 1038   1.721   1.658   1.132
  152SOL     OW 1039   1.252   1.731   1.128
  152SOL    HW1 1040   1.336   1.736   1.074
  152SOL    HW2 1041   1.229   1.635   1.146
  153SOL     OW 1042   0.083   1.258   1.022
  153SOL    HW1 1043   0.078   1.257   1.122
  153SOL    HW2 1044   0.000   1.217   0.984
  154SOL     OW 1045   0.688   1.662   1.716
  154SOL    HW1 1046   0.632   1.743   1.725
  154SOL    HW2 1047   0.740   1.666   1.630
  155SOL     OW 1048   0.903   0.086   0.133
  155SOL    HW1 1049   0.954   0.087   0.047
  155SOL    HW2 1050   0.959   0.044   0.204
  156SOL     OW 1051   1.726   0.135   0.523
  156SOL    HW1 1052   1.799   0.118   0.456
  156SOL    HW2 1053   1.695   0.048   0.561
  157SOL     OW 1054   1.388   1.573   0.477
  157SOL    HW1 1055   1.455   1.585   0.403
  157SOL    HW2 1056   1.348   1.662   0.500
  158SOL     OW 1057   0.130   1.794   1.851
  158SOL    HW1 1058   0.089   1.720   1.904
  158SOL    HW2 1059   0.194   1.845   1.909
  159SOL     OW 1060   1.280   0.927   0.672
  159SOL    HW1 1061   1.340   0.846   0.674
  159SOL    HW2 1062   1.320   0.996   0.612
  160SOL     OW 1063   0.830   1.273   1.422
  160SOL    HW1 1064   0.825   1.306   1.517
  160SOL    HW2 1065   0.744   1.292   1.376
  161SOL     OW 1066   0.672   1.616   0.154
  161SOL    HW1 1067   0.681   1.626   0.055
  161SOL    HW2 1068   0.632   1.527   0.175
  162SOL     OW 1069   1.650   1.720   1.394
  162SOL    HW1 1070   1.703   1.730   1.310
  162SOL    HW2 1071   1.623   1.810   1.428
  163SOL     OW 1072   1.841   0.175   0.963
  163SOL    HW1 1073   1.880   0.090   0.927
  163SOL    HW2 1074   1.743   0.177   0.944
  164SOL     OW 1075   0.263   0.326   0.720
  164SOL    HW1 1076   0.184   0.377   0.686
  164SOL    HW2 1077   0.254   0.311   0.818
  165SOL     OW 1078   1.194   1.612   0.031
  165SOL    HW1 1079   1.200   1.519   0.068
  165SOL    HW2 1080   1.135   1.612  -0.049
  166SOL     OW 1081   0.822   1.002   1.372
  166SOL    HW1 1082   0.862   1.001   1.280
  166SOL    HW2 1083   0.832   1.094   1.412
  167SOL     OW 1084   0.916   0.910   0.291
  167SOL    HW1 1085   0.979   0.948   0.223
  167SOL    HW2 1086   0.956   0.827   0.330
  168SOL     OW 1087   1.504   1.607   0.044
  168SOL    HW1 1088   1.412   1.644   0.051
  168SOL    HW2 1089   1.542   1.627  -0.046
  169SOL     OW 1090   0.372   1.288   1.490
  169SOL    HW1 1091   0.359   1.381   1.456
  169SOL    HW2 1092   0.288   1.236   1.477
  170SOL     OW 1093   1.614   1.292   1.289
  170SOL    HW1 1094   1.674   1.295   1.369
  170SOL    HW2 1095   1.539   1.356   1.302
  171SOL     OW 1096   1.039   1.098   0.696
  171SOL    HW1 1097   0.969   1.051   0.750
  171SOL    HW2 1098   1.098   1.030   0.653
  172SOL     OW 1099   1.014   0.236   0.971
  172SOL    HW1 1100   1.006   0.200   0.878
  172SOL    HW2 1101   1.012   0.160   1.036
  173SOL     OW 1102   0.590   1.487   0.491
  173SOL    HW1 1103   0.632   1.429   0.421
  173SOL    HW2 1104   0.546   1.566   0.447
  174SOL     OW 1105   1.709   0.385   1.381
  174SOL    HW1 1106   1.782   0.454   1.385
  174SOL    HW2 1107   1.737   0.310   1.322
  175SOL     OW 1108   0.255   1.348   0.290
  175SOL    HW1 1109   0.159   1.349   0.263
  175SOL    HW2 1110   0.267   1.401   0.374
  176SOL     OW 1111   0.105   1.013   1.726
  176SOL    HW1 1112   0.028   0.980   1.780
  176SOL    HW2 1113   0.190   0.983   1.768
  177SOL     OW 1114   0.672   0.203   1.489
  177SOL    HW1 1115   0.762   0.187   1.449
  177SOL    HW2 1116   0.680   0.208   1.588
  178SOL     OW 1117   0.075   0.345   0.033
  178SOL    HW1 1118  -0.017   0.317   0.004
  178SOL    HW2 1119   0.106   0.422  -0.023
  179SOL     OW 1120   1.440   0.856   1.398
  179SOL    HW1 1121   1.383   0.908   1.335
  179SOL    HW2 1122   1.536   0.868   1.374
  180SOL     OW 1123   0.072   0.166   0.318
  180SOL    HW1 1124   0.055   0.249   0.264
  180SOL    HW2 1125   0.162   0.129   0.296
  181SOL     OW 1126   1.183   1.335   0.119
  181SOL    HW1 1127   1.084   1.324   0.121
  181SOL    HW2 1128   1.217   1.350   0.212
  182SOL     OW 1129   0.613   0.842   1.431
  182SOL    HW1 1130   0.669   0.923   1.414
  182SOL    HW2 1131   0.672   0.762   1.434
  183SOL     OW 1132   1.493   1.767   0.959
  183SOL    HW1 1133   1.526   1.831   0.890
  183SOL    HW2 1134   1.559   1.761   1.034
  184SOL     OW 1135   0.716   0.565   1.708
  184SOL    HW1 1136   0.735   0.630   1.782
  184SOL    HW2 1137   0.776   0.485   1.717
  185SOL     OW 1138   1.450   1.220   1.633
  185SOL    HW1 1139   1.441   1.210   1.732
  185SOL    HW2 1140   1.546   1.213   1.607
  186SOL     OW 1141   0.390   1.741   1.560
  186SOL    HW1 1142   0.299   1.782   1.558
  186SOL    HW2 1143   0.383   1.647   1.592
  187SOL     OW 1144   1.674   0.883   1.254
  187SOL    HW1 1145   1.647   0.794   1.217
  187SOL    HW2 1146   1.675   0.951   1.181
  188SOL     OW 1147   1.225   0.325   0.449
  188SOL    HW1 1148   1.290   0.251   0.438
  188SOL    HW2 1149   1.245   0.375   0.533
  189SOL     OW 1150   0.594   0.745   0.652
  189SOL    HW1 1151   0.644   0.830   0.633
  189SOL    HW2 1152   0.506   0.747   0.604
  190SOL     OW 1153   1.777   0.342   1.642
  190SOL    HW1 1154   1.760   0.373   1.548
  190SOL    HW2 1155   1.693   0.305   1.680
  191SOL     OW 1156   1.730   0.934   1.517
  191SOL    HW1 1157   1.768   1.025   1.532
  191SOL    HW2 1158   1.722   0.917   1.418
  192SOL     OW 1159   0.859   1.374   0.016
  192SOL    HW1 1160   0.813   1.389   0.104
  192SOL    HW2 1161   0.903   1.459  -0.014
  193SOL     OW 1162   0.661   1.790   0.953
  193SOL    HW1 1163   0.615   1.878   0.940
  193SOL    HW2 1164   0.760   1.802   0.946
  194SOL     OW 1165   0.859   0.956   0.861
  194SOL    HW1 1166   0.913   0.887   0.909
  194SOL    HW2 1167   0.827   1.025   0.927
  195SOL     OW 1168   1.083   0.984   0.087
  195SOL    HW1 1169   1.060   1.037   0.005
  195SOL    HW2 1170   1.164   0.928   0.068
  196SOL     OW 1171   1.861   1.569   0.851
  196SOL    HW1 1172   1.790   1.557   0.781
  196SOL    HW2 1173   1.862   1.490   0.911
  197SOL     OW 1174   0.221   1.314   1.844
  197SOL    HW1 1175   0.156   1.241   1.823
  197SOL    HW2 1176   0.225   1.328   1.942
  198SOL     OW 1177   0.079   1.240   0.653
  198SOL    HW1 1178   0.078   1.193   0.741
  198SOL    HW2 1179   0.161   1.212   0.602
  199SOL     OW 1180   0.672   1.391   1.624
  199SOL    HW1 1181   0.594   1.341   1.662
  199SOL    HW2 1182   0.669   1.486   1.655
  200SOL     OW 1183   1.824   0.192   1.227
  200SOL    HW1 1184   1.820   0.102   1.271
  200SOL    HW2 1185   1.827   0.181   1.128
  201SOL     OW 1186   0.428   0.424   0.520
  201SOL    HW1 1187   0.458   0.352   0.458
  201SOL    HW2 1188   0.389   0.384   0.603
  202SOL     OW 1189   1.705   1.487   1.104
  202SOL    HW1 1190   1.612   1.462   1.077
  202SOL    HW2 1191   1.731   1.437   1.186
  203SOL     OW 1192   0.317   0.547   1.280
  203SOL    HW1 1193   0.355   0.488   1.352
  203SOL    HW2 1194   0.357   0.521   1.192
  204SOL     OW 1195   0.812   1.586   0.687
  204SOL    HW1 1196   0.844   1.596   0.593
  204SOL    HW2 1197   0.733   1.524   0.689
  205SOL     OW 1198   1.424   0.214   1.112
  205SOL    HW1 1199   1.476   0.149   1.167
  205SOL    HW2 1200   1.375   0.277   1.173
  206SOL     OW 1201   1.001   0.034   1.154
  206SOL    HW1 1202   0.938  -0.038   1.123
  206SOL    HW2 1203   1.094  -0.002   1.154
  207SOL     OW 1204   0.770   1.330   0.301
  207SOL    HW1 1205   0.724   1.243   0.318
  207SOL    HW2 1206   0.861   1.327   0.342
  208SOL     OW 1207   0.618   1.567   1.284
  208SOL    HW1 1208   0.613   1.649   1.341
  208SOL    HW2 1209   0.707   1.564   1.239
  209SOL     OW 1210   1.352   0.052   0.168
  209SOL    HW1 1211   1.387   0.011   0.084
  209SOL    HW2 1212   1.262   0.014   0.188
  210SOL     OW 1213   1.300   0.453   0.691
  210SOL    HW1 1214   1.241   0.533   0.695
  210SOL    HW2 1215   1.315   0.418   0.784
  211SOL     OW 1216   1.593   0.221   0.882
  211SOL    HW1 1217   1.509   0.220   0.936
  211SOL    HW2 1218   1.595   0.304   0.826
  212SOL     OW 1219   0.039   1.077   0.300
  212SOL    HW1 1220   0.138   1.066   0.291
  212SOL    HW2 1221  -0.001   0.991   0.332
  213SOL     OW 1222   0.875   1.646   0.337
  213SOL    HW1 1223   0.798   1.611   0.283
  213SOL    HW2 1224   0.843   1.717   0.399
  214SOL     OW 1225   0.230   0.628   1.975
  214SOL    HW1 1226   0.137   0.626   2.012
  214SOL    HW2 1227   0.231   0.589   1.883
  215SOL     OW 1228   0.225   0.275   2.858
  215SOL    HW1 1229   0.260   0.258   2.950
  215SOL    HW2 1230   0.137   0.230   2.846
  216SOL     OW 1231   0.019   0.368   2.509
  216SOL    HW1 1232  -0.063   0.411   2.548
  216SOL    HW2 1233  -0.009   0.295   2.446
  217SOL     OW 1234   0.569   1.275   3.027
  217SOL    HW1 1235   0.476   1.268   2.990
  217SOL    HW2 1236   0.580   1.364   3.071
  218SOL     OW 1237   1.555   1.511   2.565
  218SOL    HW1 1238   1.498   1.495   2.646
  218SOL    HW2 1239   1.496   1.521   2.485
  219SOL     OW 1240   1.135   0.703   2.579
  219SOL    HW1 1241   1.192   0.781   2.554
  219SOL    HW2 1242   1.075   0.729   2.655
  220SOL     OW 1243   1.755   0.607   2.093
  220SOL    HW1 1244   1.743   0.594   1.994
  220SOL    HW2 1245   1.725   0.526   2.142
  221SOL     OW 1246   0.768   1.144   2.885
  221SOL    HW1 1247   0.690   1.161   2.945
  221SOL    HW2 1248   0.802   1.231   2.849
  222SOL     OW 1249   0.850   0.798   3.685
  222SOL    HW1 1250   0.846   0.874   3.750
  222SOL    HW2 1251   0.872   0.834   3.594
  223SOL     OW 1252   0.685   1.012   2.527
  223SOL    HW1 1253   0.754   0.996   2.597
  223SOL    HW2 1254   0.612   1.069   2.565
  224SOL     OW 1255   0.686   1.161   3.665
  224SOL    HW1 1256   0.746   1.240   3.679
  224SOL    HW2 1257   0.600   1.192   3.624
  225SOL     OW 1258   0.335   1.435   2.923
  225SOL    HW1 1259   0.257   1.404   2.870
  225SOL    HW2 1260   0.393   1.493   2.866
  226SOL     OW 1261   1.460   1.505   3.201
  226SOL    HW1 1262   1.484   1.599   3.227
  226SOL    HW2 1263   1.444   1.451   3.283
  227SOL     OW 1264   0.438   0.392   3.361
  227SOL    HW1 1265   0.520   0.336   3.370
  227SOL    HW2 1266   0.357   0.334   3.365
  228SOL     OW 1267   1.603   0.447   2.599
  228SOL    HW1 1268   1.529   0.493   2.549
  228SOL    HW2 1269   1.654   0.515   2.652
  229SOL     OW 1270   0.231   1.713   2.345
  229SOL    HW1 1271   0.265   1.790   2.399
  229SOL    HW2 1272   0.275   1.713   2.255
  230SOL     OW 1273   1.127   1.341   3.552
  230SOL    HW1 1274   1.174   1.341   3.640
  230SOL    HW2 1275   1.079   1.254   3.541
  231SOL     OW 1276   0.230   1.434   2.400
  231SOL    HW1 1277   0.204   1.530   2.400
  231SOL    HW2 1278   0.159   1.380   2.445
  232SOL     OW 1279   0.240   1.091   2.748
  232SOL    HW1 1280   0.254   1.007   2.800
  232SOL    HW2 1281   0.185   1.155   2.803
  233SOL     OW 1282   0.620   1.786   3.301
  233SOL    HW1 1283   0.528   1.769   3.336
  233SOL    HW2 1284   0.648   1.878   3.327
  234SOL     OW 1285   0.606   0.964   1.985
  234SOL    HW1 1286   0.613   1.048   1.931
  234SOL    HW2 1287   0.652   0.977   2.073
  235SOL     OW 1288   1.594   0.114   3.342
  235SOL    HW1 1289   1.576   0.181   3.270
  235SOL    HW2 1290   1.591   0.160   3.431
  236SOL     OW 1291   0.122   0.643   2.425
  236SOL    HW1 1292   0.077   0.555   2.442
  236SOL    HW2 1293   0.121   0.697   2.509
  237SOL     OW 1294   0.027   1.596   1.979
  237SOL    HW1 1295   0.008   1.500   2.000
  237SOL    HW2 1296  -0.006   1.654   2.054
  238SOL     OW 1297   1.689   0.922   2.474
  238SOL    HW1 1298   1.784   0.893   2.482
  238SOL    HW2 1299   1.681   0.987   2.399
  239SOL     OW 1300   1.641   1.108   2.294
  239SOL    HW1 1301   1.727   1.110   2.242
  239SOL    HW2 1302   1.655   1.155   2.382
  240SOL     OW 1303   0.113   0.737   3.459
  240SOL    HW1 1304   0.201   0.724   3.504
  240SOL    HW2 1305   0.100   0.834   3.437
  241SOL     OW 1306   0.613   1.365   2.588
  241SOL    HW1 1307   0.564   1.278   2.597
  241SOL    HW2 1308   0.590   1.408   2.501
  242SOL     OW 1309   1.293   1.228   3.285
  242SOL    HW1 1310   1.330   1.155   3.227
  242SOL    HW2 1311   1.345   1.233   3.370
  243SOL     OW 1312   0.809   0.004   2.364
  243SOL    HW1 1313   0.849   0.095   2.355
  243SOL    HW2 1314   0.709   0.012   2.370
  244SOL     OW 1315   0.197   0.976   3.126
  244SOL    HW1 1316   0.286   0.931   3.112
  244SOL    HW2 1317   0.124   0.911   3.107
  245SOL     OW 1318   1.525   0.999   2.052
  245SOL    HW1 1319   1.462   0.923   2.065
  245SOL    HW2 1320   1.573   1.017   2.138
  246SOL     OW 1321   1.187   1.792   3.478
  246SOL    HW1 1322   1.211   1.852   3.402
  246SOL    HW2 1323   1.194   1.697   3.448
  247SOL     OW 1324   0.317   0.251   3.663
  247SOL    HW1 1325   0.388   0.322   3.669
  247SOL    HW2 1326   0.229   0.290   3.691
  248SOL     OW 1327   1.466   1.417   2.815
  248SOL    HW1 1328   1.407   1.423   2.895
  248SOL    HW2 1329   1.451   1.329   2.769
  249SOL     OW 1330   1.667   1.714   2.434
  249SOL    HW1 1331   1.626   1.691   2.346
  249SOL    HW2 1332   1.649   1.640   2.499
  250SOL     OW 1333   0.598   0.729   2.132
  250SOL    HW1 1334   0.622   0.798   2.064
  250SOL    HW2 1335   0.520   0.762   2.186
  251SOL     OW 1336   1.281   0.345   2.806
  251SOL    HW1 1337   1.195   0.295   2.793
  251SOL    HW2 1338   1.343   0.291   2.862
  252SOL     OW 1339   1.576   1.662   2.169
  252SOL    HW1 1340   1.665   1.708   2.172
  252SOL    HW2 1341   1.555   1.638   2.074
  253SOL     OW 1342   0.807   0.605   3.327
  253SOL    HW1 1343   0.760   0.602   3.416
  253SOL    HW2 1344   0.756   0.550   3.261
  254SOL     OW 1345   1.394   0.469   3.536
  254SOL    HW1 1346   1.374   0.512   3.624
  254SOL    HW2 1347   1.472   0.407   3.545
  255SOL     OW 1348   0.973   0.890   3.434
  255SOL    HW1 1349   1.019   0.806   3.405
  255SOL    HW2 1350   0.917   0.924   3.359
  256SOL     OW 1351   0.991   0.410   3.104
  256SOL    HW1 1352   0.914   0.444   3.158
  256SOL    HW2 1353   0.957   0.359   3.025
  257SOL     OW 1354   1.041   0.701   2.291
  257SOL    HW1 1355   1.067   0.697   2.387
  257SOL    HW2 1356   0.956   0.650   2.277
  258SOL     OW 1357   0.076   0.811   2.651
  258SOL    HW1 1358   0.175   0.799   2.660
  258SOL    HW2 1359   0.052   0.906   2.672
  259SOL     OW 1360   0.130   1.821   3.433
  259SOL    HW1 1361   0.120   1.806   3.532
  259SOL    HW2 1362   0.044   1.857   3.397
  260SOL     OW 1363   0.865   0.348   2.057
  260SOL    HW1 1364   0.924   0.411   2.008
  260SOL    HW2 1365   0.884   0.254   2.028
  261SOL     OW 1366   1.719   0.585   3.693
  261SOL    HW1 1367   1.693   0.674   3.657
  261SOL    HW2 1368   1.717   0.517   3.620
  262SOL     OW 1369   1.362   1.144   2.407
  262SOL    HW1 1370   1.445   1.115   2.359
  262SOL    HW2 1371   1.313   1.211   2.351
  263SOL     OW 1372   0.550   0.196   2.747
  263SOL    HW1 1373   0.545   0.191   2.847
  263SOL    HW2 1374   0.552   0.292   2.718
  264SOL     OW 1375   1.008   1.456   2.339
  264SOL    HW1 1376   0.962   1.528   2.287
  264SOL    HW2 1377   1.004   1.476   2.437
  265SOL     OW 1378   0.351   1.801   2.715
  265SOL    HW1 1379   0.401   1.715   2.721
  265SOL    HW2 1380   0.416   1.878   2.712
  266SOL     OW 1381   1.795   1.066   2.735
  266SOL    HW1 1382   1.733   1.051   2.659
  266SOL    HW2 1383   1.743   1.077   2.820
  267SOL     OW 1384   1.227   1.550   3.368
  267SOL    HW1 1385   1.233   1.473   3.432
  267SOL    HW2 1386   1.175   1.524   3.288
  268SOL     OW 1387   0.321   0.943   2.104
  268SOL    HW1 1388   0.403   0.982   2.062
  268SOL    HW2 1389   0.294   0.861   2.055
  269SOL     OW 1390   1.458   0.735   2.590
  269SOL    HW1 1391   1.453   0.670   2.665
  269SOL    HW2 1392   1.538   0.794   2.603
  270SOL     OW 1393   0.461   1.266   3.589
  270SOL    HW1 1394   0.411   1.267   3.503
  270SOL    HW2 1395   0.398   1.248   3.665
  271SOL     OW 1396   1.111   1.776   2.099
  271SOL    HW1 1397   1.051   1.714   2.149
  271SOL    HW2 1398   1.142   1.732   2.014
  272SOL     OW 1399   0.202   0.285   3.360
  272SOL    HW1 1400   0.122   0.345   3.347
  272SOL    HW2 1401   0.192   0.236   3.446
  273SOL     OW 1402   1.632   1.377   1.943
  273SOL    HW1 1403   1.600   1.471   1.933
  273SOL    HW2 1404   1.556   1.314   1.931
  274SOL     OW 1405   0.464   1.743   2.185
  274SOL    HW1 1406   0.497   1.782   2.271
  274SOL    HW2 1407   0.540   1.736   2.120
  275SOL     OW 1408   1.400   0.107   2.288
  275SOL    HW1 1409   1.376   0.070   2.198
  275SOL    HW2 1410   1.499   0.123   2.292
  276SOL     OW 1411   0.249   1.785   3.103
  276SOL    HW1 1412   0.306   1.720   3.153
  276SOL    HW2 1413   0.233   1.752   3.010
  277SOL     OW 1414   0.940   1.698   2.766
  277SOL    HW1 1415   1.020   1.641   2.787
  277SOL    HW2 1416   0.891   1.658   2.689
  278SOL     OW 1417   0.382   0.700   2.342
  278SOL    HW1 1418   0.427   0.610   2.339
  278SOL    HW2 1419   0.288   0.689   2.375
  279SOL     OW 1420   1.547   0.222   3.591
  279SOL    HW1 1421   1.542   0.259   3.683
  279SOL    HW2 1422   1.475   0.153   3.579
  280SOL     OW 1423   0.614   0.122   1.979
  280SOL    HW1 1424   0.712   0.100   1.986
  280SOL    HW2 1425   0.583   0.105   1.886
  281SOL     OW 1426   0.781   0.264   3.611
  281SOL    HW1 1427   0.848   0.203   3.654
  281SOL    HW2 1428   0.708   0.283   3.676
  282SOL     OW 1429   0.888   1.514   3.057
  282SOL    HW1 1430   0.865   1.489   2.963
  282SOL    HW2 1431   0.949   1.445   3.096
  283SOL     OW 1432   1.351   0.590   3.295
  283SOL    HW1 1433   1.379   0.547   3.380
  283SOL    HW2 1434   1.376   0.686   3.296
  284SOL     OW 1435   0.803   1.402   2.786
  284SOL    HW1 1436   0.893   1.416   2.744
  284SOL    HW2 1437   0.732   1.404   2.715
  285SOL     OW 1438   0.922   0.503   2.761
  285SOL    HW1 1439   0.897   0.494   2.665
  285SOL    HW2 1440   0.970   0.421   2.792
  286SOL     OW 1441   0.539   0.064   2.374
  286SOL    HW1 1442   0.458   0.065   2.432
  286SOL    HW2 1443   0.542   0.147   2.319
  287SOL     OW 1444   1.434   1.188   1.903
  287SOL    HW1 1445   1.466   1.112   1.960
  287SOL    HW2 1446   1.342   1.215   1.933
  288SOL     OW 1447   0.297   0.035   2.033
  288SOL    HW1 1448   0.346   0.119   2.012
  288SOL    HW2 1449   0.359  -0.030   2.078
  289SOL     OW 1450   0.935   0.236   2.342
  289SOL    HW1 1451   0.887   0.277   2.264
  289SOL    HW2 1452   1.034   0.234   2.323
  290SOL     OW 1453   1.076   0.683   3.326
  290SOL    HW1 1454   0.996   0.622   3.329
  290SOL    HW2 1455   1.157   0.630   3.302
  291SOL     OW 1456   1.227   1.570   2.655
  291SOL    HW1 1457   1.248   1.644   2.590
  291SOL    HW2 1458   1.295   1.570   2.728
  292SOL     OW 1459   0.459   1.152   2.603
  292SOL    HW1 1460   0.388   1.125   2.668
  292SOL    HW2 1461   0.433   1.124   2.510
  293SOL     OW 1462   1.271   1.797   2.453
  293SOL    HW1 1463   1.315   1.861   2.389
  293SOL    HW2 1464   1.221   1.849   2.523
  294SOL     OW 1465   1.032   0.549   1.878
  294SOL    HW1 1466   0.991   0.631   1.839
  294SOL    HW2 1467   1.096   0.575   1.951
  295SOL     OW 1468   0.078   0.556   3.248
  295SOL    HW1 1469   0.170   0.555   3.207
  295SOL    HW2 1470   0.072   0.630   3.315
  296SOL     OW 1471   0.561   0.222   3.009
  296SOL    HW1 1472   0.599   0.138   3.046
  296SOL    HW2 1473   0.473   0.241   3.053
  297SOL     OW 1474   0.866   0.454   2.504
  297SOL    HW1 1475   0.834   0.526   2.442
  297SOL    HW2 1476   0.890   0.373   2.451
  298SOL     OW 1477   1.017   0.039   2.615
  298SOL    HW1 1478   0.945   0.044   2.546
  298SOL    HW2 1479   0.993  -0.030   2.684
  299SOL     OW 1480   1.429   1.173   2.729
  299SOL    HW1 1481   1.374   1.089   2.722
  299SOL    HW2 1482   1.455   1.202   2.637
  300SOL     OW 1483   1.466   0.590   2.854
  300SOL    HW1 1484   1.436   0.495   2.861
  300SOL    HW2 1485   1.539   0.606   2.920
  301SOL     OW 1486   1.857   0.833   2.239
  301SOL    HW1 1487   1.899   0.769   2.303
  301SOL    HW2 1488   1.819   0.782   2.161
  302SOL     OW 1489   0.488   1.385   2.036
  302SOL    HW1 1490   0.401   1.370   2.083
  302SOL    HW2 1491   0.471   1.411   1.941
  303SOL     OW 1492   1.664   1.280   2.519
  303SOL    HW1 1493   1.763   1.288   2.533
  303SOL    HW2 1494   1.619   1.364   2.550
  304SOL     OW 1495   1.390   0.575   1.940
  304SOL    HW1 1496   1.336   0.554   2.021
  304SOL    HW2 1497   1.481   0.534   1.949
  305SOL     OW 1498   0.527   0.256   2.190
  305SOL    HW1 1499   0.554   0.197   2.115
  305SOL    HW2 1500   0.527   0.351   2.159
  306SOL     OW 1501   1.754   1.223   3.450
  306SOL    HW1 1502   1.845   1.184   3.437
  306SOL    HW2 1503   1.762   1.319   3.474
  307SOL     OW 1504   1.064   1.347   3.202
  307SOL    HW1 1505   0.984   1.324   3.257
  307SOL    HW2 1506   1.147   1.321   3.251
  308SOL     OW 1507   1.592   1.629   3.487
  308SOL    HW1 1508   1.619   1.663   3.397
  308SOL    HW2 1509   1.671   1.591   3.533
  309SOL     OW 1510   1.111   1.195   2.962
  309SOL    HW1 1511   1.071   1.239   3.043
  309SOL    HW2 1512   1.070   1.232   2.879
  310SOL     OW 1513   1.638   1.099   2.941
  310SOL    HW1 1514   1.643   1.180   3.000
  310SOL    HW2 1515   1.552   1.101   2.890
  311SOL     OW 1516   0.915   0.089   3.264
  311SOL    HW1 1517   0.940   0.069   3.169
  311SOL    HW2 1518   0.987   0.145   3.306
  312SOL     OW 1519   0.980   1.116   3.581
  312SOL    HW1 1520   0.881   1.122   3.591
  312SOL    HW2 1521   1.003   1.036   3.525
  313SOL     OW 1522   0.705   1.050   2.230
  313SOL    HW1 1523   0.691   1.057   2.329
  313SOL    HW2 1524   0.789   0.999   2.212
  314SOL     OW 1525   0.410   0.813   3.113
  314SOL    HW1 1526   0.496   0.825   3.163
  314SOL    HW2 1527   0.368   0.726   3.140
  315SOL     OW 1528   1.274   0.386   3.124
  315SOL    HW1 1529   1.295   0.460   3.188
  315SOL    HW2 1530   1.185   0.403   3.081
  316SOL     OW 1531   0.064   1.564   3.193
  316SOL    HW1 1532   0.018   1.646   3.159
  316SOL    HW2 1533   0.162   1.583   3.202
  317SOL     OW 1534   0.367   1.100   2.363
  317SOL    HW1 1535   0.360   1.183   2.307
  317SOL    HW2 1536   0.371   1.020   2.303
  318SOL     OW 1537   0.566   0.537   2.727
  318SOL    HW1 1538   0.578   0.603   2.653
  318SOL    HW2 1539   0.612   0.571   2.810
  319SOL     OW 1540   1.252   1.348   2.250
  319SOL    HW1 1541   1.302   1.425   2.290
  319SOL    HW2 1542   1.157   1.350   2.282
  320SOL     OW 1543   1.272   1.445   3.004
  320SOL    HW1 1544   1.319   1.458   3.091
  320SOL    HW2 1545   1.206   1.371   3.013
  321SOL     OW 1546   1.582   0.639   2.334
  321SOL    HW1 1547   1.551   0.700   2.407
  321SOL    HW2 1548   1.632   0.691   2.265
  322SOL     OW 1549   0.354   1.510   3.191
  322SOL    HW1 1550   0.333   1.466   3.104
  322SOL    HW2 1551   0.451   1.536   3.194
  323SOL     OW 1552   0.402   0.751   3.460
  323SOL    HW1 1553   0.470   0.806   3.413
  323SOL    HW2 1554   0.442   0.663   3.487
  324SOL     OW 1555   1.587   0.779   3.532
  324SOL    HW1 1556   1.495   0.817   3.527
  324SOL    HW2 1557   1.647   0.826   3.467
  325SOL     OW 1558   1.013   0.105   3.632
  325SOL    HW1 1559   1.019   0.190   3.580
  325SOL    HW2 1560   1.045   0.029   3.575
  326SOL     OW 1561   0.504   0.050   3.602
  326SOL    HW1 1562   0.462  -0.007   3.532
  326SOL    HW2 1563   0.438   0.119   3.634
  327SOL     OW 1564   0.573   0.870   2.891
  327SOL    HW1 1565   0.617   0.959   2.882
  327SOL    HW2 1566   0.510   0.870   2.968
  328SOL     OW 1567   1.360   0.862   2.907
  328SOL    HW1 1568   1.285   0.862   2.841
  328SOL    HW2 1569   1.397   0.770   2.916
  329SOL     OW 1570   1.209   0.525   2.137
  329SOL    HW1 1571   1.222   0.441   2.191
  329SOL    HW2 1572   1.180   0.599   2.197
  330SOL     OW 1573   0.307   0.213   3.093
  330SOL    HW1 1574   0.284   0.250   3.183
  330SOL    HW2 1575   0.277   0.118   3.087
  331SOL     OW 1576   0.037   1.310   3.144
  331SOL    HW1 1577   0.090   1.261   3.212
  331SOL    HW2 1578   0.059   1.408   3.149
  332SOL     OW 1579   0.732   0.634   2.926
  332SOL    HW1 1580   0.791   0.608   2.850
  332SOL    HW2 1581   0.704   0.730   2.915
  333SOL     OW 1582   1.728   0.935   3.716
  333SOL    HW1 1583   1.682   0.928   3.627
  333SOL    HW2 1584   1.666   0.979   3.782
  334SOL     OW 1585   0.307   0.063   2.480
  334SOL    HW1 1586   0.296   0.157   2.513
  334SOL    HW2 1587   0.302   0.000   2.557
  335SOL     OW 1588   1.622   0.367   2.236
  335SOL    HW1 1589   1.624   0.291   2.300
  335SOL    HW2 1590   1.574   0.444   2.276
  336SOL     OW 1591   1.023   0.766   2.828
  336SOL    HW1 1592   1.038   0.787   2.924
  336SOL    HW2 1593   0.993   0.671   2.819
  337SOL     OW 1594   0.980   1.573   3.562
  337SOL    HW1 1595   0.960   1.617   3.474
  337SOL    HW2 1596   1.019   1.482   3.546
  338SOL     OW 1597   1.859   1.518   3.467
  338SOL    HW1 1598   1.873   1.545   3.372
  338SOL    HW2 1599   1.942   1.540   3.520
  339SOL     OW 1600   0.350   0.898   3.666
  339SOL    HW1 1601   0.426   0.942   3.714
  339SOL    HW2 1602   0.385   0.851   3.584
  340SOL     OW 1603   1.540   0.274   1.987
  340SOL    HW1 1604   1.479   0.199   2.010
  340SOL    HW2 1605   1.562   0.326   2.070
  341SOL     OW 1606   1.303   0.838   1.904
  341SOL    HW1 1607   1.337   0.745   1.919
  341SOL    HW2 1608   1.321   0.865   1.809
  342SOL     OW 1609   1.068   1.333   2.711
  342SOL    HW1 1610   1.075   1.249   2.656
  342SOL    HW2 1611   1.130   1.402   2.675
  343SOL     OW 1612   0.319   0.810   2.811
  343SOL    HW1 1613   0.412   0.846   2.816
  343SOL    HW2 1614   0.313   0.725   2.863
  344SOL     OW 1615   0.339   0.509   2.868
  344SOL    HW1 1616   0.287   0.426   2.851
  344SOL    HW2 1617   0.416   0.514   2.804
  345SOL     OW 1618   1.138   0.380   3.540
  345SOL    HW1 1619   1.093   0.443   3.604
  345SOL    HW2 1620   1.231   0.411   3.523
  346SOL     OW 1621   1.160   0.207   3.339
  346SOL    HW1 1622   1.160   0.271   3.416
  346SOL    HW2 1623   1.188   0.255   3.256
  347SOL     OW 1624   0.008   1.326   2.062
  347SOL    HW1 1625  -0.085   1.347   2.031
  347SOL    HW2 1626   0.018   1.227   2.075
  348SOL     OW 1627   0.088   1.801   2.789
  348SOL    HW1 1628   0.046   1.715   2.762
  348SOL    HW2 1629   0.182   1.804   2.755
  349SOL     OW 1630   0.504   1.568   2.772
  349SOL    HW1 1631   0.570   1.642   2.781
  349SOL    HW2 1632   0.548   1.489   2.730
  350SOL     OW 1633   1.002   0.796   3.100
  350SOL    HW1 1634   1.043   0.764   3.186
  350SOL    HW2 1635   0.906   0.769   3.097
  351SOL     OW 1636   0.040   0.544   2.976
  351SOL    HW1 1637   0.125   0.511   2.935
  351SOL    HW2 1638   0.053   0.559   3.074
  352SOL     OW 1639   0.189   0.520   3.584
  352SOL    HW1 1640   0.248   0.480   3.514
  352SOL    HW2 1641   0.131   0.591   3.543
  353SOL     OW 1642   1.369   0.950   3.522
  353SOL    HW1 1643   1.408   1.039   3.542
  353SOL    HW2 1644   1.379   0.930   3.425
  354SOL     OW 1645   0.815   0.572   2.187
  354SOL    HW1 1646   0.822   0.483   2.141
  354SOL    HW2 1647   0.721   0.606   2.179
  355SOL     OW 1648   1.657   0.604   3.068
  355SOL    HW1 1649   1.619   0.535   3.130
  355SOL    HW2 1650   1.739   0.568   3.024
  356SOL     OW 1651   0.252   1.564   3.606
  356SOL    HW1 1652   0.222   1.621   3.682
  356SOL    HW2 1653   0.245   1.467   3.632
  357SOL     OW 1654   0.671   0.464   3.131
  357SOL    HW1 1655   0.637   0.375   3.101
  357SOL    HW2 1656   0.697   0.518   3.051
  358SOL     OW 1657   0.930   1.678   3.327
  358SOL    HW1 1658   0.906   1.660   3.232
  358SOL    HW2 1659   0.960   1.772   3.337
  359SOL     OW 1660   0.473   0.500   2.053
  359SOL    HW1 1661   0.534   0.580   2.057
  359SOL    HW2 1662   0.378   0.531   2.060
  360SOL     OW 1663   0.159   1.137   3.328
  360SOL    HW1 1664   0.181   1.076   3.404
  360SOL    HW2 1665   0.169   1.088   3.242
  361SOL     OW 1666   1.347   1.059   3.096
  361SOL    HW1 1667   1.371   0.996   3.022
  361SOL    HW2 1668   1.257   1.099   3.078
  362SOL     OW 1669   1.302   0.855   2.171
  362SOL    HW1 1670   1.216   0.824   2.213
  362SOL    HW2 1671   1.298   0.841   2.072
  363SOL     OW 1672   1.759   1.747   3.016
  363SOL    HW1 1673   1.820   1.777   2.943
  363SOL    HW2 1674   1.721   1.658   2.994
  364SOL     OW 1675   1.252   1.731   2.990
  364SOL    HW1 1676   1.336   1.736   2.936
  364SOL    HW2 1677   1.229   1.635   3.008
  365SOL     OW 1678   0.083   1.258   2.884
  365SOL    HW1 1679   0.078   1.257   2.984
  365SOL    HW2 1680   0.000   1.217   2.846
  366SOL     OW 1681   0.688   1.662   3.578
  366SOL    HW1 1682   0.632   1.743   3.587
  366SOL    HW2 1683   0.740   1.666   3.492
  367SOL     OW 1684   1.726   0.135   2.385
  367SOL    HW1 1685   1.799   0.118   2.318
  367SOL    HW2 1686   1.695   0.048   2.423
  368SOL     OW 1687   1.388   1.573   2.339
  368SOL    HW1 1688   1.455   1.585   2.265
  368SOL    HW2 1689   1.348   1.662   2.362
  369SOL     OW 1690   0.130   1.794   3.713
  369SOL    HW1 1691   0.089   1.720   3.766
  369SOL    HW2 1692   0.194   1.845   3.771
  370SOL     OW 1693   1.280   0.927   2.534
  370SOL    HW1 1694   1.340   0.846   2.536
  370SOL    HW2 1695   1.320   0.996   2.474
  371SOL     OW 1696   0.830   1.273   3.284
  371SOL    HW1 1697   0.825   1.306   3.379
  371SOL    HW2 1698   0.744   1.292   3.238
  372SOL     OW 1699   0.672   1.616   2.016
  372SOL    HW1 1700   0.681   1.626   1.917
  372SOL    HW2 1701   0.632   1.527   2.037
  373SOL     OW 1702   1.650   1.720   3.256
  373SOL    HW1 1703   1.703   1.730   3.172
  373SOL    HW2 1704   1.623   1.810   3.290
  374SOL     OW 1705   1.841   0.175   2.825
  374SOL    HW1 1706   1.880   0.090   2.789
  374SOL    HW2 1707   1.743   0.177   2.806
  375SOL     OW 1708   0.263   0.326   2.582
  375SOL    HW1 1709   0.184   0.377   2.548
  375SOL    HW2 1710   0.254   0.311   2.680
  376SOL     OW 1711   1.194   1.612   1.893
  376SOL    HW1 1712   1.200   1.519   1.930
  376SOL    HW2 1713   1.135   1.612   1.813
  377SOL     OW 1714   0.822   1.002   3.234
  377SOL    HW1 1715   0.862   1.001   3.142
  377SOL    HW2 1716   0.832   1.094   3.274
  378SOL     OW 1717   0.916   0.910   2.153
  378SOL    HW1 1718   0.979   0.948   2.085
  378SOL    HW2 1719   0.956   0.827   2.192
  379SOL     OW 1720   1.504   1.607   1.906
  379SOL    HW1 1721   1.412   1.644   1.913
  379SOL    HW2 1722   1.542   1.627   1.816
  380SOL     OW 1723   0.372   1.288   3.352
  380SOL    HW1 1724   0.359   1.381   3.318
  380SOL    HW2 1725   0.288   1.236   3.339
  381SOL     OW 1726   1.614   1.292   3.151
  381SOL    HW1 1727   1.674   1.295   3.231
  381SOL    HW2 1728   1.539   1.356   3.164
  382SOL     OW 1729   1.039   1.098   2.558
  382SOL    HW1 1730   0.969   1.051   2.612
  382SOL    HW2 1731   1.098   1.030   2.515
  383SOL     OW 1732   1.014   0.236   2.833
  383SOL    HW1 1733   1.006   0.200   2.740
  383SOL    HW2 1734   1.012   0.160   2.898
  384SOL     OW 1735   0.590   1.487   2.353
  384SOL    HW1 1736   0.632   1.429   2.283
  384SOL    HW2 1737   0.546   1.566   2.309
  385SOL     OW 1738   1.709   0.385   3.243
  385SOL    HW1 1739   1.782   0.454   3.247
  385SOL    HW2 1740   1.737   0.310   3.184
  386SOL     OW 1741   0.255   1.348   2.152
  386SOL    HW1 1742   0.159   1.349   2.125
  386SOL    HW2 1743   0.267   1.401   2.236
  387SOL     OW 1744   0.105   1.013   3.588
  387SOL    HW1 1745   0.028   0.980   3.642
  387SOL    HW2 1746   0.190   0.983   3.630
  388SOL     OW 1747   0.672   0.203   3.351
  388SOL    HW1 1748   0.762   0.187   3.311
  388SOL    HW2 1749   0.680   0.208   3.450
  389SOL     OW 1750   0.075   0.345   1.895
  389SOL    HW1 1751  -0.017   0.317   1.866
  389SOL    HW2 1752   0.106   0.422   1.839
  390SOL     OW 1753   1.440   0.856   3.260
  390SOL    HW1 1754   1.383   0.908   3.197
  390SOL    HW2 1755   1.536   0.868   3.236
  391SOL     OW 1756   0.072   0.166   2.180
  391SOL    HW1 1757   0.055   0.249   2.126
  391SOL    HW2 1758   0.162   0.129   2.158
  392SOL     OW 1759   1.183   1.335   1.981
  392SOL    HW1 1760   1.084   1.324   1.983
  392SOL    HW2 1761   1.217   1.350   2.074
  393SOL     OW 1762   0.613   0.842   3.293
  393SOL    HW1 1763   0.669   0.923   3.276
  393SOL    HW2 1764   0.672   0.762   3.296
  394SOL     OW 1765   1.493   1.767   2.821
  394SOL    HW1 1766   1.526   1.831   2.752
  394SOL    HW2 1767   1.559   1.761   2.896
  395SOL     OW 1768   0.716   0.565   3.570
  395SOL    HW1 1769   0.735   0.630   3.644
  395SOL    HW2 1770   0.776   0.485   3.579
  396SOL     OW 1771   1.450   1.220   3.495
  396SOL    HW1 1772   1.441   1.210   3.594
  396SOL    HW2 1773   1.546   1.213   3.469
  397SOL     OW 1774   0.390   1.741   3.422
  397SOL    HW1 1775   0.299   1.782   3.420
  397SOL    HW2 1776   0.383   1.647   3.454
  398SOL     OW 1777   1.674   0.883   3.116
  398SOL    HW1 1778   1.647   0.794   3.079
  398SOL    HW2 1779   1.675   0.951   3.043
  399SOL     OW 1780   1.225   0.325   2.311
  399SOL    HW1 1781   1.290   0.251   2.300
  399SOL    HW2 1782   1.245   0.375   2.395
  400SOL     OW 1783   0.594   0.745   2.514
  400SOL    HW1 1784   0.644   0.830   2.495
  400SOL    HW2 1785   0.506   0.747   2.466
  401SOL     OW 1786   1.777   0.342   3.504
  401SOL    HW1 1787   1.760   0.373   3.410
  401SOL    HW2 1788   1.693   0.305   3.542
  402SOL     OW 1789   1.730   0.934   3.379
  402SOL    HW1 1790   1.768   1.025   3.394
  402SOL    HW2 1791   1.722   0.917   3.280
  403SOL     OW 1792   0.859   1.374   1.878
  403SOL    HW1 1793   0.813   1.389   1.966
  403SOL    HW2 1794   0.903   1.459   1.848
  404SOL     OW 1795   0.661   1.790   2.815
  404SOL    HW1 1796   0.615   1.878   2.802
  404SOL    HW2 1797   0.760   1.802   2.808
  405SOL     OW 1798   0.859   0.956   2.723
  405SOL    HW1 1799   0.913   0.887   2.771
  405SOL    HW2 1800   0.827   1.025   2.789
  406SOL     OW 1801   1.083   0.984   1.949
  406SOL    HW1 1802   1.060   1.037   1.867
  406SOL    HW2 1803   1.164   0.928   1.930
  407SOL     OW 1804   1.861   1.569   2.713
  407SOL    HW1 1805   1.790   1.557   2.643
  407SOL    HW2 1806   1.862   1.490   2.773
  408SOL     OW 1807   0.221   1.314   3.706
  408SOL    HW1 1808   0.156   1.241   3.685
  408SOL    HW2 1809   0.225   1.328   3.804
  409SOL     OW 1810   0.079   1.240   2.515
  409SOL    HW1 1811   0.078   1.193   2.603
  409SOL    HW2 1812   0.161   1.212   2.464
  410SOL     OW 1813   0.672   1.391   3.486
  410SOL    HW1 1814   0.594   1.341   3.524
  410SOL    HW2 1815   0.669   1.486   3.517
  411SOL     OW 1816   1.824   0.192   3.089
  411SOL    HW1 1817   1.820   0.102   3.133
  411SOL    HW2 1818   1.827   0.181   2.990
  412SOL     OW 1819   0.428   0.424   2.382
  412SOL    HW1 1820   0.458   0.352   2.320
  412SOL    HW2 1821   0.389   0.384   2.465
  413SOL     OW 1822   1.705   1.487   2.966
  413SOL    HW1 1823   1.612   1.462   2.939
  413SOL    HW2 1824   1.731   1.437   3.048
  414SOL     OW 1825   0.317   0.547   3.142
  414SOL    HW1 1826   0.355   0.488   3.214
  414SOL    HW2 1827   0.357   0.521   3.054
  415SOL     OW 1828   0.812   1.586   2.549
  415SOL    HW1 1829   0.844   1.596   2.455
  415SOL    HW2 1830   0.733   1.524   2.551
  416SOL     OW 1831   1.424   0.214   2.974
  416SOL    HW1 1832   1.476   0.149   3.029
  416SOL    HW2 1833   1.375   0.277   3.035
  417SOL     OW 1834   1.001   0.034   3.016
  417SOL    HW1 1835   0.938  -0.038   2.985
  417SOL    HW2 1836   1.094  -0.002   3.016
  418SOL     OW 1837   0.770   1.330   2.163
  418SOL    HW1 1838   0.724   1.243   2.180
  418SOL    HW2 1839   0.861   1.327   2.204
  419SOL     OW 1840   0.618   1.567   3.146
  419SOL    HW1 1841   0.613   1.649   3.203
  419SOL    HW2 1842   0.707   1.564   3.101
  420SOL     OW 1843   1.352   0.052   2.030
  420SOL    HW1 1844   1.387   0.011   1.946
  420SOL    HW2 1845   1.262   0.014   2.050
  421SOL     OW 1846   1.300   0.453   2.553
  421SOL    HW1 1847   1.241   0.533   2.557
  421SOL    HW2 1848   1.315   0.418   2.646
  422SOL     OW 1849   1.593   0.221   2.744
  422SOL    HW1 1850   1.509   0.220   2.798
  422SOL    HW2 1851   1.595   0.304   2.688
  423SOL     OW 1852   0.039   1.077   2.162
  423SOL    HW1 1853   0.138   1.066   2.153
  423SOL    HW2 1854  -0.001   0.991   2.194
  424SOL     OW 1855   0.875   1.646   2.199
  424SOL    HW1 1856   0.798   1.611   2.145
  424SOL    HW2 1857   0.843   1.717   2.261
  425SOL     OW 1858   0.230   0.628   3.837
  425SOL    HW1 1859   0.137   0.626   3.874
  425SOL    HW2 1860   0.231   0.589   3.745
  426SOL     OW 1861   0.225   0.275   4.720
  426SOL    HW1 1862   0.260   0.258   4.812
  426SOL    HW2 1863   0.137   0.230   4.708
  427SOL     OW 1864   0.019   0.368   4.371
  427SOL    HW1 1865  -0.063   0.411   4.410
  427SOL    HW2 1866  -0.009   0.295   4.308
  428SOL     OW 1867   0.569   1.275   4.889
  428SOL    HW1 1868   0.476   1.268   4.852
  428SOL    HW2 1869   0.580   1.364   4.933
  429SOL     OW 1870   1.555   1.511   4.427
  429SOL    HW1 1871   1.498   1.495   4.508
  429SOL    HW2 1872   1.496   1.521   4.347
  430SOL     OW 1873   1.135   0.703   4.441
  430SOL    HW1 1874   1.192   0.781   4.416
  430SOL    HW2 1875   1.075   0.729   4.517
  431SOL     OW 1876   1.755   0.607   3.955
  431SOL    HW1 1877   1.743   0.594   3.856
  431SOL    HW2 1878   1.725   0.526   4.004
  432SOL     OW 1879   0.768   1.144   4.747
  432SOL    HW1 1880   0.690   1.161   4.807
  432SOL    HW2 1881   0.802   1.231   4.711
  433SOL     OW 1882   0.850   0.798   5.547
  433SOL    HW1 1883   0.846   0.874   5.612
  433SOL    HW2 1884   0.872   0.834   5.456
  434SOL     OW 1885   0.685   1.012   4.389
  434SOL    HW1 1886   0.754   0.996   4.459
  434SOL    HW2 1887   0.612   1.069   4.427
  435SOL     OW 1888   0.686   1.161   5.527
  435SOL    HW1 1889   0.746   1.240   5.541
  435SOL    HW2 1890   0.600   1.192   5.486
  436SOL     OW 1891   0.335   1.435   4.785
  436SOL    HW1 1892   0.257   1.404   4.732
  436SOL    HW2 1893   0.393   1.493   4.728
  437SOL     OW 1894   1.460   1.505   5.063
  437SOL    HW1 1895   1.484   1.599   5.089
  437SOL    HW2 1896   1.444   1.451   5.145
  438SOL     OW 1897   0.438   0.392   5.223
  438SOL    HW1 1898   0.520   0.336   5.232
  438SOL    HW2 1899   0.357   0.334   5.227
  439SOL     OW 1900   1.603   0.447   4.461
  439SOL    HW1 1901   1.529   0.493   4.411
  439SOL    HW2 1902   1.654   0.515   4.514
  440SOL     OW 1903   0.231   1.713   4.207
  440SOL    HW1 1904   0.265   1.790   4.261
  440SOL    HW2 1905   0.275   1.713   4.117
  441SOL     OW 1906   1.127   1.341   5.414
  441SOL    HW1 1907   1.174   1.341   5.502
  441SOL    HW2 1908   1.079   1.254   5.403
  442SOL     OW 1909   0.230   1.434   4.262
  442SOL    HW1 1910   0.204   1.530   4.262
  442SOL    HW2 1911   0.159   1.380   4.307
  443SOL     OW 1912   0.240   1.091   4.610
  443SOL    HW1 1913   0.254   1.007   4.662
  443SOL    HW2 1914   0.185   1.155   4.665
  444SOL     OW 1915   0.620   1.786   5.163
  444SOL    HW1 1916   0.528   1.769   5.198
  444SOL    HW2 1917   0.648   1.878   5.189
  445SOL     OW 1918   0.606   0.964   3.847
  445SOL    HW1 1919   0.613   1.048   3.793
  445SOL    HW2 1920   0.652   0.977   3.935
  446SOL     OW 1921   1.594   0.114   5.204
  446SOL    HW1 1922   1.576   0.181   5.132
  446SOL    HW2 1923   1.591   0.160   5.293
  447SOL     OW 1924   0.122   0.643   4.287
  447SOL    HW1 1925   0.077   0.555   4.304
  447SOL    HW2 1926   0.121   0.697   4.371
  448SOL     OW 1927   0.027   1.596   3.841
  448SOL    HW1 1928   0.008   1.500   3.862
  448SOL    HW2 1929  -0.006   1.654   3.916
  449SOL     OW 1930   1.689   0.922   4.336
  449SOL    HW1 1931   1.784   0.893   4.344
  449SOL    HW2 1932   1.681   0.987   4.261
  450SOL     OW 1933   1.641   1.108   4.156
  450SOL    HW1 1934   1.727   1.110   4.104
  450SOL    HW2 1935   1.655   1.155   4.244
  451SOL     OW 1936   0.113   0.737   5.321
  451SOL    HW1 1937   0.201   0.724   5.366
  451SOL    HW2 1938   0.100   0.834   5.299
  452SOL     OW 1939   0.613   1.365   4.450
  452SOL    HW1 1940   0.564   1.278   4.459
  452SOL    HW2 1941   0.590   1.408   4.363
  453SOL     OW 1942   1.293   1.228   5.147
  453SOL    HW1 1943   1.330   1.155   5.089
  453SOL    HW2 1944   1.345   1.233   5.232
  454SOL     OW 1945   0.809   0.004   4.226
  454SOL    HW1 1946   0.849   0.095   4.217
  454SOL    HW2 1947   0.709   0.012   4.232
  455SOL     OW 1948   0.197   0.976   4.988
  455SOL    HW1 1949   0.286   0.931   4.974
  455SOL    HW2 1950   0.124   0.911   4.969
  456SOL     OW 1951   1.525   0.999   3.914
  456SOL    HW1 1952   1.462   0.923   3.927
  456SOL    HW2 1953   1.573   1.017   4.000
  457SOL     OW 1954   1.187   1.792   5.340
  457SOL    HW1 1955   1.211   1.852   5.264
  457SOL    HW2 1956   1.194   1.697   5.310
  458SOL     OW 1957   0.317   0.251   5.525
  458SOL    HW1 1958   0.388   0.322   5.531
  458SOL    HW2 1959   0.229   0.290   5.553
  459SOL     OW 1960   1.466   1.417   4.677
  459SOL    HW1 1961   1.407   1.423   4.757
  459SOL    HW2 1962   1.451   1.329   4.631
  460SOL     OW 1963   1.667   1.714   4.296
  460SOL    HW1 1964   1.626   1.691   4.208
  460SOL    HW2 1965   1.649   1.640   4.361
  461SOL     OW 1966   0.598   0.729   3.994
  461SOL    HW1 1967   0.622   0.798   3.926
  461SOL    HW2 1968   0.520   0.762   4.048
  462SOL     OW 1969   1.281   0.345   4.668
  462SOL    HW1 1970   1.195   0.295   4.655
  462SOL    HW2 1971   1.343   0.291   4.724
  463SOL     OW 1972   1.576   1.662   4.031
  463SOL    HW1 1973   1.665   1.708   4.034
  463SOL    HW2 1974   1.555   1.638   3.936
  464SOL     OW 1975   0.807   0.605   5.189
  464SOL    HW1 1976   0.760   0.602   5.278
  464SOL    HW2 1977   0.756   0.550   5.123
  465SOL     OW 1978   1.394   0.469   5.398
  465SOL    HW1 1979   1.374   0.512   5.486
  465SOL    HW2 1980   1.472   0.407   5.407
  466SOL     OW 1981   0.973   0.890   5.296
  466SOL    HW1 1982   1.019   0.806   5.267
  466SOL    HW2 1983   0.917   0.924   5.221
  467SOL     OW 1984   0.991   0.410   4.966
  467SOL    HW1 1985   0.914   0.444   5.020
  467SOL    HW2 1986   0.957   0.359   4.887
  468SOL     OW 1987   1.041   0.701   4.153
  468SOL    HW1 1988   1.067   0.697   4.249
  468SOL    HW2 1989   0.956   0.650   4.139
  469SOL     OW 1990   0.076   0.811   4.513
  469SOL    HW1 1991   0.175   0.799   4.522
  469SOL    HW2 1992   0.052   0.906   4.534
  470SOL     OW 1993   0.130   1.821   5.295
  470SOL    HW1 1994   0.120   1.806   5.394
  470SOL    HW2 1995   0.044   1.857   5.259
  471SOL     OW 1996   0.865   0.348   3.919
  471SOL    HW1 1997   0.924   0.411   3.870
  471SOL    HW2 1998   0.884   0.254   3.890
  472SOL     OW 1999   1.719   0.585   5.555
  472SOL    HW1 2000   1.693   0.674   5.519
  472SOL    HW2 2001   1.717   0.517   5.482
  473SOL     OW 2002   1.362   1.144   4.269
  473SOL    HW1 2003   1.445   1.115   4.221
  473SOL    HW2 2004   1.313   1.211   4.213
  474SOL     OW 2005   0.550   0.196   4.609
  474SOL    HW1 2006   0.545   0.191   4.709
  474SOL    HW2 2007   0.552   0.292   4.580
  475SOL     OW 2008   1.008   1.456   4.201
  475SOL    HW1 2009   0.962   1.528   4.149
  475SOL    HW2 2010   1.004   1.476   4.299
  476SOL     OW 2011   0.351   1.801   4.577
  476SOL    HW1 2012   0.401   1.715   4.583
  476SOL    HW2 2013   0.416   1.878   4.574
  477SOL     OW 2014   1.795   1.066   4.597
  477SOL    HW1 2015   1.733   1.051   4.521
  477SOL    HW2 2016   1.743   1.077   4.682
  478SOL     OW 2017   1.227   1.550   5.230
  478SOL    HW1 2018   1.233   1.473   5.294
  478SOL    HW2 2019   1.175   1.524   5.150
  479SOL     OW 2020   0.321   0.943   3.966
  479SOL    HW1 2021   0.403   0.982   3.924
  479SOL    HW2 2022   0.294   0.861   3.917
  480SOL     OW 2023   1.458   0.735   4.452
  480SOL    HW1 2024   1.453   0.670   4.527
  480SOL    HW2 2025   1.538   0.794   4.465
  481SOL     OW 2026   0.461   1.266   5.451
  481SOL    HW1 2027   0.411   1.267   5.365
  481SOL    HW2 2028   0.398   1.248   5.527
  482SOL     OW 2029   1.111   1.776   3.961
  482SOL    HW1 2030   1.051   1.714   4.011
  482SOL    HW2 2031   1.142   1.732   3.876
  483SOL     OW 2032   0.202   0.285   5.222
  483SOL    HW1 2033   0.122   0.345   5.209
  483SOL    HW2 2034   0.192   0.236   5.308
  484SOL     OW 2035   1.632   1.377   3.805
  484SOL    HW1 2036   1.600   1.471   3.795
  484SOL    HW2 2037   1.556   1.314   3.793
  485SOL     OW 2038   0.464   1.743   4.047
  485SOL    HW1 2039   0.497   1.782   4.133
  485SOL    HW2 2040   0.540   1.736   3.982
  486SOL     OW 2041   1.400   0.107   4.150
  486SOL    HW1 2042   1.376   0.070   4.060
  486SOL    HW2 2043   1.499   0.123   4.154
  487SOL     OW 2044   0.249   1.785   4.965
  487SOL    HW1 2045   0.306   1.720   5.015
  487SOL    HW2 2046   0.233   1.752   4.872
  488SOL     OW 2047   0.940   1.698   4.628
  488SOL    HW1 2048   1.020   1.641   4.649
  488SOL    HW2 2049   0.891   1.658   4.551
  489SOL     OW 2050   0.382   0.700   4.204
  489SOL    HW1 2051   0.427   0.610   4.201
  489SOL    HW2 2052   0.288   0.689   4.237
  490SOL     OW 2053   1.547   0.222   5.453
  490SOL    HW1 2054   1.542   0.259   5.545
  490SOL    HW2 2055   1.475   0.153   5.441
  491SOL     OW 2056   0.614   0.122   3.841
  491SOL    HW1 2057   0.712   0.100   3.848
  491SOL    HW2 2058   0.583   0.105   3.748
  492SOL     OW 2059   0.781   0.264   5.473
  492SOL    HW1 2060   0.848   0.203   5.516
  492SOL    HW2 2061   0.708   0.283   5.538
  493SOL     OW 2062   0.888   1.514   4.919
  493SOL    HW1 2063   0.865   1.489   4.825
  493SOL    HW2 2064   0.949   1.445   4.958
  494SOL     OW 2065   1.351   0.590   5.157
  494SOL    HW1 2066   1.379   0.547   5.242
  494SOL    HW2 2067   1.376   0.686   5.158
  495SOL     OW 2068   0.803   1.402   4.648
  495SOL    HW1 2069   0.893   1.416   4.606
  495SOL    HW2 2070   0.732   1.404   4.577
  496SOL     OW 2071   0.922   0.503   4.623
  496SOL    HW1 2072   0.897   0.494   4.527
  496SOL    HW2 2073   0.970   0.421   4.654
  497SOL     OW 2074   0.539   0.064   4.236
  497SOL    HW1 2075   0.458   0.065   4.294
  497SOL    HW2 2076   0.542   0.147   4.181
  498SOL     OW 2077   1.434   1.188   3.765
  498SOL    HW1 2078   1.466   1.112   3.822
  498SOL    HW2 2079   1.342   1.215   3.795
  499SOL     OW 2080   0.297   0.035   3.895
  499SOL    HW1 2081   0.346   0.119   3.874
  499SOL    HW2 2082   0.359  -0.030   3.940
  500SOL     OW 2083   0.935   0.236   4.204
  500SOL    HW1 2084   0.887   0.277   4.126
  500SOL    HW2 2085   1.034   0.234   4.185
  501SOL     OW 2086   1.076   0.683   5.188
  501SOL    HW1 2087   0.996   0.622   5.191
  501SOL    HW2 2088   1.157   0.630   5.164
  502SOL     OW 2089   1.227   1.570   4.517
  502SOL    HW1 2090   1.248   1.644   4.452
  502SOL    HW2 2091   1.295   1.570   4.590
  503SOL     OW 2092   0.459   1.152   4.465
  503SOL    HW1 2093   0.388   1.125   4.530
  503SOL    HW2 2094   0.433   1.124   4.372
  504SOL     OW 2095   1.271   1.797   4.315
  504SOL    HW1 2096   1.315   1.861   4.251
  504SOL    HW2 2097   1.221   1.849   4.385
  505SOL     OW 2098   1.032   0.549   3.740
  505SOL    HW1 2099   0.991   0.631   3.701
  505SOL    HW2 2100   1.096   0.575   3.813
  506SOL     OW 2101   0.078   0.556   5.110
  506SOL    HW1 2102   0.170   0.555   5.069
  506SOL    HW2 2103   0.072   0.630   5.177
  507SOL     OW 2104   0.561   0.222   4.871
  507SOL    HW1 2105   0.599   0.138   4.908
  507SOL    HW2 2106   0.473   0.241   4.915
  508SOL     OW 2107   0.866   0.454   4.366
  508SOL    HW1 2108   0.834   0.526   4.304
  508SOL    HW2 2109   0.890   0.373   4.313
  509SOL     OW 2110   1.017   0.039   4.477
  509SOL    HW1 2111   0.945   0.044   4.408
  509SOL    HW2 2112   0.993  -0.030   4.546
  510SOL     OW 2113   1.429   1.173   4.591
  510SOL    HW1 2114   1.374   1.089   4.584
  510SOL    HW2 2115   1.455   1.202   4.499
  511SOL     OW 2116   1.466   0.590   4.716
  511SOL    HW1 2117   1.436   0.495   4.723
  511SOL    HW2 2118   1.539   0.606   4.782
  512SOL     OW 2119   1.857   0.833   4.101
  512SOL    HW1 2120   1.899   0.769   4.165
  512SOL    HW2 2121   1.819   0.782   4.023
  513SOL     OW 2122   0.488   1.385   3.898
  513SOL    HW1 2123   0.401   1.370   3.945
  513SOL    HW2 2124   0.471   1.411   3.803
  514SOL     OW 2125   1.664   1.280   4.381
  514SOL    HW1 2126   1.763   1.288   4.395
  514SOL    HW2 2127   1.619   1.364   4.412
  515SOL     OW 2128   1.390   0.575   3.802
  515SOL    HW1 2129   1.336   0.554   3.883
  515SOL    HW2 2130   1.481   0.534   3.811
  516SOL     OW 2131   0.527   0.256   4.052
  516SOL    HW1 2132   0.554   0.197   3.977
  516SOL    HW2 2133   0.527   0.351   4.021
  517SOL     OW 2134   1.754   1.223   5.312
  517SOL    HW1 2135   1.845   1.184   5.299
  517SOL    HW2 2136   1.762   1.319   5.336
  518SOL     OW 2137   1.064   1.347   5.064
  518SOL    HW1 2138   0.984   1.324   5.119
  518SOL    HW2 2139   1.147   1.321   5.113
  519SOL     OW 2140   1.592   1.629   5.349
  519SOL    HW1 2141   1.619   1.663   5.259
  519SOL    HW2 2142   1.671   1.591   5.395
  520SOL     OW 2143   1.111   1.195   4.824
  520SOL    HW1 2144   1.071   1.239   4.905
  520SOL    HW2 2145   1.070   1.232   4.741
  521SOL     OW 2146   1.638   1.099   4.803
  521SOL    HW1 2147   1.643   1.180   4.862
  521SOL    HW2 2148   1.552   1.101   4.752
  522SOL     OW 2149   0.915   0.089   5.126
  522SOL    HW1 2150   0.940   0.069   5.031
  522SOL    HW2 2151   0.987   0.145   5.168
  523SOL     OW 2152   0.980   1.116   5.443
  523SOL    HW1 2153   0.881   1.122   5.453
  523SOL    HW2 2154   1.003   1.036   5.387
  524SOL     OW 2155   0.705   1.050   4.092
  524SOL    HW1 2156   0.691   1.057   4.191
  524SOL    HW2 2157   0.789   0.999   4.074
  525SOL     OW 2158   0.410   0.813   4.975
  525SOL    HW1 2159   0.496   0.825   5.025
  525SOL    HW2 2160   0.368   0.726   5.002
  526SOL     OW 2161   1.274   0.386   4.986
  526SOL    HW1 2162   1.295   0.460   5.050
  526SOL    HW2 2163   1.185   0.403   4.943
  527SOL     OW 2164   0.064   1.564   5.055
  527SOL    HW1 2165   0.018   1.646   5.021
  527SOL    HW2 2166   0.162   1.583   5.064
  528SOL     OW 2167   0.367   1.100   4.225
  528SOL    HW1 2168   0.360   1.183   4.169
  528SOL    HW2 2169   0.371   1.020   4.165
  529SOL     OW 2170   0.566   0.537   4.589
  529SOL    HW1 2171   0.578   0.603   4.515
  529SOL    HW2 2172   0.612   0.571   4.672
  530SOL     OW 2173   1.252   1.348   4.112
  530SOL    HW1 2174   1.302   1.425   4.152
  530SOL    HW2 2175   1.157   1.350   4.144
  531SOL     OW 2176   1.272   1.445   4.866
  531SOL    HW1 2177   1.319   1.458   4.953
  531SOL    HW2 2178   1.206   1.371   4.875
  532SOL     OW 2179   1.582   0.639   4.196
  532SOL    HW1 2180   1.551   0.700   4.269
  532SOL    HW2 2181   1.632   0.691   4.127
  533SOL     OW 2182   0.354   1.510   5.053
  533SOL    HW1 2183   0.333   1.466   4.966
  533SOL    HW2 2184   0.451   1.536   5.056
  534SOL     OW 2185   0.402   0.751   5.322
  534SOL    HW1 2186   0.470   0.806   5.275
  534SOL    HW2 2187   0.442   0.663   5.349
  535SOL     OW 2188   1.587   0.779   5.394
  535SOL    HW1 2189   1.495   0.817   5.389
  535SOL    HW2 2190   1.647   0.826   5.329
  536SOL     OW 2191   1.013   0.105   5.494
  536SOL    HW1 2192   1.019   0.190   5.442
  536SOL    HW2 2193   1.045   0.029   5.437
  537SOL     OW 2194   0.504   0.050   5.464
  537SOL    HW1 2195   0.462  -0.007   5.394
  537SOL    HW2 2196   0.438   0.119   5.496
  538SOL     OW 2197   0.573   0.870   4.753
  538SOL    HW1 2198   0.617   0.959   4.744
  538SOL    HW2 2199   0.510   0.870   4.830
  539SOL     OW 2200   1.360   0.862   4.769
  539SOL    HW1 2201   1.285   0.862   4.703
  539SOL    HW2 2202   1.397   0.770   4.778
  540SOL     OW 2203   1.209   0.525   3.999
  540SOL    HW1 2204   1.222   0.441   4.053
  540SOL    HW2 2205   1.180   0.599   4.059
  541SOL     OW 2206   0.307   0.213   4.955
  541SOL    HW1 2207   0.284   0.250   5.045
  541SOL    HW2 2208   0.277   0.118   4.949
  542SOL     OW 2209   0.037   1.310   5.006
  542SOL    HW1 2210   0.090   1.261   5.074
  542SOL    HW2 2211   0.059   1.408   5.011
  543SOL     OW 2212   0.732   0.634   4.788
  543SOL    HW1 2213   0.791   0.608   4.712
  543SOL    HW2 2214   0.704   0.730   4.777
  544SOL     OW 2215   1.728   0.935   5.578
  544SOL    HW1 2216   1.682   0.928   5.489
  544SOL    HW2 2217   1.666   0.979   5.644
  545SOL     OW 2218   0.307   0.063   4.342
  545SOL    HW1 2219   0.296   0.157   4.375
  545SOL    HW2 2220   0.302   0.000   4.419
  546SOL     OW 2221   1.622   0.367   4.098
  546SOL    HW1 2222   1.624   0.291   4.162
  546SOL    HW2 2223   1.574   0.444   4.138
  547SOL     OW 2224   1.023   0.766   4.690
  547SOL    HW1 2225   1.038   0.787   4.786
  547SOL    HW2 2226   0.993   0.671   4.681
  548SOL     OW 2227   0.980   1.573   5.424
  548SOL    HW1 2228   0.960   1.617   5.336
  548SOL    HW2 2229   1.019   1.482   5.408
  549SOL     OW 2230   1.859   1.518   5.329
  549SOL    HW1 2231   1.873   1.545   5.234
  549SOL    HW2 2232   1.942   1.540   5.382
  550SOL     OW 2233   0.350   0.898   5.528
  550SOL    HW1 2234   0.426   0.942   5.576
  550SOL    HW2 2235   0.385   0.851   5.446
  551SOL     OW 2236   1.540   0.274   3.849
  551SOL    HW1 2237   1.479   0.199   3.872
  551SOL    HW2 2238   1.562   0.326   3.932
  552SOL     OW 2239   1.303   0.838   3.766
  552SOL    HW1 2240   1.337   0.745   3.781
  552SOL    HW2 2241   1.321   0.865   3.671
  553SOL     OW 2242   1.068   1.333   4.573
  553SOL    HW1 2243   1.075   1.249   4.518
  553SOL    HW2 2244   1.130   1.402   4.537
  554SOL     OW 2245   0.319   0.810   4.673
  554SOL    HW1 2246   0.412   0.846   4.678
  554SOL    HW2 2247   0.313   0.725   4.725
  555SOL     OW 2248   0.339   0.509   4.730
  555SOL    HW1 2249   0.287   0.426   4.713
  555SOL    HW2 2250   0.416   0.514   4.666
  556SOL     OW 2251   1.138   0.380   5.402
  556SOL    HW1 2252   1.093   0.443   5.466
  556SOL    HW2 2253   1.231   0.411   5.385
  557SOL     OW 2254   1.160   0.207   5.201
  557SOL    HW1 2255   1.160   0.271   5.278
  557SOL    HW2 2256   1.188   0.255   5.118
  558SOL     OW 2257   0.008   1.326   3.924
  558SOL    HW1 2258  -0.085   1.347   3.893
  558SOL    HW2 2259   0.018   1.227   3.937
  559SOL     OW 2260   0.088   1.801   4.651
  559SOL    HW1 2261   0.046   1.715   4.624
  559SOL    HW2 2262   0.182   1.804   4.617
  560SOL     OW 2263   0.504   1.568   4.634
  560SOL    HW1 2264   0.570   1.642   4.643
  560SOL    HW2 2265   0.548   1.489   4.592
  561SOL     OW 2266   1.002   0.796   4.962
  561SOL    HW1 2267   1.043   0.764   5.048
  561SOL    HW2 2268   0.906   0.769   4.959
  562SOL     OW 2269   0.040   0.544   4.838
  562SOL    HW1 2270   0.125   0.511   4.797
  562SOL    HW2 2271   0.053   0.559   4.936
  563SOL     OW 2272   0.189   0.520   5.446
  563SOL    HW1 2273   0.248   0.480   5.376
  563SOL    HW2 2274   0.131   0.591   5.405
  564SOL     OW 2275   1.369   0.950   5.384
  564SOL    HW1 2276   1.408   1.039   5.404
  564SOL    HW2 2277   1.379   0.930   5.287
  565SOL     OW 2278   0.815   0.572   4.049
  565SOL    HW1 2279   0.822   0.483   4.003
  565SOL    HW2 2280   0.721   0.606   4.041
  566SOL     OW 2281   1.657   0.604   4.930
  566SOL    HW1 2282   1.619   0.535   4.992
  566SOL    HW2 2283   1.739   0.568   4.886
  567SOL     OW 2284   0.252   1.564   5.468
  567SOL    HW1 2285   0.222   1.621   5.544
  567SOL    HW2 2286   0.245   1.467   5.494
  568SOL     OW 2287   0.671   0.464   4.993
  568SOL    HW1 2288   0.637   0.375   4.963
  568SOL    HW2 2289   0.697   0.518   4.913
  569SOL     OW 2290   0.930   1.678   5.189
  569SOL    HW1 2291   0.906   1.660   5.094
  569SOL    HW2 2292   0.960   1.772   5.199
  570SOL     OW 2293   0.473   0.500   3.915
  570SOL    HW1 2294   0.534   0.580   3.919
  570SOL    HW2 2295   0.378   0.531   3.922
  571SOL     OW 2296   0.159   1.137   5.190
  571SOL    HW1 2297   0.181   1.076   5.266
  571SOL    HW2 2298   0.169   1.088   5.104
  572SOL     OW 2299   1.347   1.059   4.958
  572SOL    HW1 2300   1.371   0.996   4.884
  572SOL    HW2 2301   1.257   1.099   4.940
  573SOL     OW 2302   1.302   0.855   4.033
  573SOL    HW1 2303   1.216   0.824   4.075
  573SOL    HW2 2304   1.298   0.841   3.934
  574SOL     OW 2305   1.759   1.747   4.878
  574SOL    HW1 2306   1.820   1.777   4.805
  574SOL    HW2 2307   1.721   1.658   4.856
  575SOL     OW 2308   1.252   1.731   4.852
  575SOL    HW1 2309   1.336   1.736   4.798
  575SOL    HW2 2310   1.229   1.635   4.870
  576SOL     OW 2311   0.083   1.258   4.746
  576SOL    HW1 2312   0.078   1.257   4.846
  576SOL    HW2 2313   0.000   1.217   4.708
  577SOL     OW 2314   0.688   1.662   5.440
  577SOL    HW1 2315   0.632   1.743   5.449
  577SOL    HW2 2316   0.740   1.666   5.354
  578SOL     OW 2317   1.726   0.135   4.247
  578SOL    HW1 2318   1.799   0.118   4.180
  578SOL    HW2 2319   1.695   0.048   4.285
  579SOL     OW 2320   1.388   1.573   4.201
  579SOL    HW1 2321   1.455   1.585   4.127
  579SOL    HW2 2322   1.348   1.662   4.224
  580SOL     OW 2323   0.130   1.794   5.575
  580SOL    HW1 2324   0.089   1.720   5.628
  580SOL    HW2 2325   0.194   1.845   5.633
  581SOL     OW 2326   1.280   0.927   4.396
  581SOL    HW1 2327   1.340   0.846   4.398
  581SOL    HW2 2328   1.320   0.996   4.336
  582SOL     OW 2329   0.830   1.273   5.146
  582SOL    HW1 2330   0.825   1.306   5.241
  582SOL    HW2 2331   0.744   1.292   5.100
  583SOL     OW 2332   0.672   1.616   3.878
  583SOL    HW1 2333   0.681   1.626   3.779
  583SOL    HW2 2334   0.632   1.527   3.899
  584SOL     OW 2335   1.650   1.720   5.118
  584SOL    HW1 2336   1.703   1.730   5.034
  584SOL    HW2 2337   1.623   1.810   5.152
  585SOL     OW 2338   1.841   0.175   4.687
  585SOL    HW1 2339   1.880   0.090   4.651
  585SOL    HW2 2340   1.743   0.177   4.668
  586SOL     OW 2341   0.263   0.326   4.444
  586SOL    HW1 2342   0.184   0.377   4.410
  586SOL    HW2 2343   0.254   0.311   4.542
  587SOL     OW 2344   1.194   1.612   3.755
  587SOL    HW1 2345   1.200   1.519   3.792
  587SOL    HW2 2346   1.135   1.612   3.675
  588SOL     OW 2347   0.822   1.002   5.096
  588SOL    HW1 2348   0.862   1.001   5.004
  588SOL    HW2 2349   0.832   1.094   5.136
  589SOL     OW 2350   0.916   0.910   4.015
  589SOL    HW1 2351   0.979   0.948   3.947
  589SOL    HW2 2352   0.956   0.827   4.054
  590SOL     OW 2353   1.504   1.607   3.768
  590SOL    HW1 2354   1.412   1.644   3.775
  590SOL    HW2 2355   1.542   1.627   3.678
  591SOL     OW 2356   0.372   1.288   5.214
  591SOL    HW1 2357   0.359   1.381   5.180
  591SOL    HW2 2358   0.288   1.236   5.201
  592SOL     OW 2359   1.614   1.292   5.013
  592SOL    HW1 2360   1.674   1.295   5.093
  592SOL    HW2 2361   1.539   1.356   5.026
  593SOL     OW 2362   1.039   1.098   4.420
  593SOL    HW1 2363   0.969   1.051   4.474
  593SOL    HW2 2364   1.098   1.030   4.377
  594SOL     OW 2365   1.014   0.236   4.695
  594SOL    HW1 2366   1.006   0.200   4.602
  594SOL    HW2 2367   1.012   0.160   4.760
  595SOL     OW 2368   0.590   1.487   4.215
  595SOL    HW1 2369   0.632   1.429   4.145
  595SOL    HW2 2370   0.546   1.566   4.171
  596SOL     OW 2371   1.709   0.385   5.105
  596SOL    HW1 2372   1.782   0.454   5.109
  596SOL    HW2 2373   1.737   0.310   5.046
  597SOL     OW 2374   0.255   1.348   4.014
  597SOL    HW1 2375   0.159   1.349   3.987
  597SOL    HW2 2376   0.267   1.401   4.098
  598SOL     OW 2377   0.105   1.013   5.450
  598SOL    HW1 2378   0.028   0.980   5.504
  598SOL    HW2 2379   0.190   0.983   5.492
  599SOL     OW 2380   0.672   0.203   5.213
  599SOL    HW1 2381   0.762   0.187   5.173
  599SOL    HW2 2382   0.680   0.208   5.312
  600SOL     OW 2383   0.075   0.345   3.757
  600SOL    HW1 2384  -0.017   0.317   3.728
  600SOL    HW2 2385   0.106   0.422   3.701
  601SOL     OW 2386   1.440   0.856   5.122
  601SOL    HW1 2387   1.383   0.908   5.059
  601SOL    HW2 2388   1.536   0.868   5.098
  602SOL     OW 2389   0.072   0.166   4.042
  602SOL    HW1 2390   0.055   0.249   3.988
  602SOL    HW2 2391   0.162   0.129   4.020
  603SOL     OW 2392   1.183   1.335   3.843
  603SOL    HW1 2393   1.084   1.324   3.845
  603SOL    HW2 2394   1.217   1.350   3.936
  604SOL     OW 2395   0.613   0.842   5.155
  604SOL    HW1 2396   0.669   0.923   5.138
  604SOL    HW2 2397   0.672   0.762   5.158
  605SOL     OW 2398   1.493   1.767   4.683
  605SOL    HW1 2399   1.526   1.831   4.614
  605SOL    HW2 2400   1.559   1.761   4.758
  606SOL     OW 2401   0.716   0.565   5.432
  606SOL    HW1 2402   0.735   0.630   5.506
  606SOL    HW2 2403   0.776   0.485   5.441
  607SOL     OW 2404   1.450   1.220   5.357
  607SOL    HW1 2405   1.441   1.210   5.456
  607SOL    HW2 2406   1.546   1.213   5.331
  608SOL     OW 2407   0.390   1.741   5.284
  608SOL    HW1 2408   0.299   1.782   5.282
  608SOL    HW2 2409   0.383   1.647   5.316
  609SOL     OW 2410   1.674   0.883   4.978
  609SOL    HW1 2411   1.647   0.794   4.941
  609SOL    HW2 2412   1.675   0.951   4.905
  610SOL     OW 2413   1.225   0.325   4.173
  610SOL    HW1 2414   1.290   0.251   4.162
  610SOL    HW2 2415   1.245   0.375   4.257
  611SOL     OW 2416   0.594   0.745   4.376
  611SOL    HW1 2417   0.644   0.830   4.357
  611SOL    HW2 2418   0.506   0.747   4.328
  612SOL     OW 2419   1.777   0.342   5.366
  612SOL    HW1 2420   1.760   0.373   5.272
  612SOL    HW2 2421   1.693   0.305   5.404
  613SOL     OW 2422   1.730   0.934   5.241
  613SOL    HW1 2423   1.768   1.025   5.256
  613SOL    HW2 2424   1.722   0.917   5.142
  614SOL     OW 2425   0.859   1.374   3.740
  614SOL    HW1 2426   0.813   1.389   3.828
  614SOL    HW2 2427   0.903   1.459   3.710
  615SOL     OW 2428   0.661   1.790   4.677
  615SOL    HW1 2429   0.615   1.878   4.664
  615SOL    HW2 2430   0.760   1.802   4.670
  616SOL     OW 2431   0.859   0.956   4.585
  616SOL    HW1 2432   0.913   0.887   4.633
  616SOL    HW2 2433   0.827   1.025   4.651
  617SOL     OW 2434   1.083   0.984   3.811
  617SOL    HW1 2435   1.060   1.037   3.729
  617SOL    HW2 2436   1.164   0.928   3.792
  618SOL     OW 2437   1.861   1.569   4.575
  618SOL    HW1 2438   1.790   1.557   4.505
  618SOL    HW2 2439   1.862   1.490   4.635
  619SOL     OW 2440   0.221   1.314   5.568
  619SOL    HW1 2441   0.156   1.241   5.547
  619SOL    HW2 2442   0.225   1.328   5.666
  620SOL     OW 2443   0.079   1.240   4.377
  620SOL    HW1 2444   0.078   1.193   4.465
  620SOL    HW2 2445   0.161   1.212   4.326
  621SOL     OW 2446   0.672   1.391   5.348
  621SOL    HW1 2447   0.594   1.341   5.386
  621SOL    HW2 2448   0.669   1.486   5.379
  622SOL     OW 2449   1.824   0.192   4.951
  622SOL    HW1 2450   1.820   0.102   4.995
  622SOL    HW2 2451   1.827   0.181   4.852
  623SOL     OW 2452   0.428   0.424   4.244
  623SOL    HW1 2453   0.458   0.352   4.182
  623SOL    HW2 2454   0.389   0.384   4.327
  624SOL     OW 2455   1.705   1.487   4.828
  624SOL    HW1 2456   1.612   1.462   4.801
  624SOL    HW2 2457   1.731   1.437   4.910
  625SOL     OW 2458   0.317   0.547   5.004
  625SOL    HW1 2459   0.355   0.488   5.076
  625SOL    HW2 2460   0.357   0.521   4.916
  626SOL     OW 2461   0.812   1.586   4.411
  626SOL    HW1 2462   0.844   1.596   4.317
  626SOL    HW2 2463   0.733   1.524   4.413
  627SOL     OW 2464   1.424   0.214   4.836
  627SOL    HW1 2465   1.476   0.149   4.891
  627SOL    HW2 2466   1.375   0.277   4.897
  628SOL     OW 2467   1.001   0.034   4.878
  628SOL    HW1 2468   0.938  -0.038   4.847
  628SOL    HW2 2469   1.094  -0.002   4.878
  629SOL     OW 2470   0.770   1.330   4.025
  629SOL    HW1 2471   0.724   1.243   4.042
  629SOL    HW2 2472   0.861   1.327   4.066
  630SOL     OW 2473   0.618   1.567   5.008
  630SOL    HW1 2474   0.613   1.649   5.065
  630SOL    HW2 2475   0.707   1.564   4.963
  631SOL     OW 2476   1.352   0.052   3.892
  631SOL    HW1 2477   1.387   0.011   3.808
  631SOL    HW2 2478   1.262   0.014   3.912
  632SOL     OW 2479   1.300   0.453   4.415
  632SOL    HW1 2480   1.241   0.533   4.419
  632SOL    HW2 2481   1.315   0.418   4.508
  633SOL     OW 2482   1.593   0.221   4.606
  633SOL    HW1 2483   1.509   0.220   4.660
  633SOL    HW2 2484   1.595   0.304   4.550
  634SOL     OW 2485   0.039   1.077   4.024
  634SOL    HW1 2486   0.138   1.066   4.015
  634SOL    HW2 2487  -0.001   0.991   4.056
  635SOL     OW 2488   0.875   1.646   4.061
  635SOL    HW1 2489   0.798   1.611   4.007
  635SOL    HW2 2490   0.843   1.717   4.123
  636SOL     OW 2491   0.230   0.628   5.699
  636SOL    HW1 2492   0.137   0.626   5.736
  636SOL    HW2 2493   0.231   0.589   5.607
  637SOL     OW 2494   0.225   0.275   6.582
  637SOL    HW1 2495   0.260   0.258   6.674
  637SOL    HW2 2496   0.137   0.230   6.570
  638SOL     OW 2497   0.019   0.368   6.233
  638SOL    HW1 2498  -0.063   0.411   6.272
  638SOL    HW2 2499  -0.009   0.295   6.170
  639SOL     OW 2500   0.569   1.275   6.751
  639SOL    HW1 2501   0.476   1.268   6.714
  639SOL    HW2 2502   0.580   1.364   6.795
  640SOL     OW 2503   1.555   1.511   6.289
  640SOL    HW1 2504   1.498   1.495   6.370
  640SOL    HW2 2505   1.496   1.521   6.209
  641SOL     OW 2506   1.135   0.703   6.303
  641SOL    HW1 2507   1.192   0.781   6.278
  641SOL    HW2 2508   1.075   0.729   6.379
  642SOL     OW 2509   1.755   0.607   5.817
  642SOL    HW1 2510   1.743   0.594   5.718
  642SOL    HW2 2511   1.725   0.526   5.866
  643SOL     OW 2512   0.768   1.144   6.609
  643SOL    HW1 2513   0.690   1.161   6.669
  643SOL    HW2 2514   0.802   1.231   6.573
  644SOL     OW 2515   0.850   0.798   7.409
  644SOL    HW1 2516   0.846   0.874   7.474
  644SOL    HW2 2517   0.872   0.834   7.318
  645SOL     OW 2518   0.685   1.012   6.251
  645SOL    HW1 2519   0.754   0.996   6.321
  645SOL    HW2 2520   0.612   1.069   6.289
  646SOL     OW 2521   0.686   1.161   7.389
  646SOL    HW1 2522   0.746   1.240   7.403
  646SOL    HW2 2523   0.600   1.192   7.348
  647SOL     OW 2524   0.335   1.435   6.647
  647SOL    HW1 2525   0.257   1.404   6.594
  647SOL    HW2 2526   0.393   1.493   6.590
  648SOL     OW 2527   0.438   0.392   7.085
  648SOL    HW1 2528   0.520   0.336   7.094
  648SOL    HW2 2529   0.357   0.334   7.089
  649SOL     OW 2530   1.603   0.447   6.323
  649SOL    HW1 2531   1.529   0.493   6.273
  649SOL    HW2 2532   1.654   0.515   6.376
  650SOL     OW 2533   0.231   1.713   6.069
  650SOL    HW1 2534   0.265   1.790   6.123
  650SOL    HW2 2535   0.275   1.713   5.979
  651SOL     OW 2536   1.127   1.341   7.276
  651SOL    HW1 2537   1.174   1.341   7.364
  651SOL    HW2 2538   1.079   1.254   7.265
  652SOL     OW 2539   0.230   1.434   6.124
  652SOL    HW1 2540   0.204   1.530   6.124
  652SOL    HW2 2541   0.159   1.380   6.169
  653SOL     OW 2542   0.240   1.091   6.472
  653SOL    HW1 2543   0.254   1.007   6.524
  653SOL    HW2 2544   0.185   1.155   6.527
  654SOL     OW 2545   0.620   1.786   7.025
  654SOL    HW1 2546   0.528   1.769   7.060
  654SOL    HW2 2547   0.648   1.878   7.051
  655SOL     OW 2548   0.606   0.964   5.709
  655SOL    HW1 2549   0.613   1.048   5.655
  655SOL    HW2 2550   0.652   0.977   5.797
  656SOL     OW 2551   1.594   0.114   7.066
  656SOL    HW1 2552   1.576   0.181   6.994
  656SOL    HW2 2553   1.591   0.160   7.155
  657SOL     OW 2554   0.122   0.643   6.149
  657SOL    HW1 2555   0.077   0.555   6.166
  657SOL    HW2 2556   0.121   0.697   6.233
  658SOL     OW 2557   0.027   1.596   5.703
  658SOL    HW1 2558   0.008   1.500   5.724
  658SOL    HW2 2559  -0.006   1.654   5.778
  659SOL     OW 2560   1.689   0.922   6.198
  659SOL    HW1 2561   1.784   0.893   6.206
  659SOL    HW2 2562   1.681   0.987   6.123
  660SOL     OW 2563   1.641   1.108   6.018
  660SOL    HW1 2564   1.727   1.110   5.966
  660SOL    HW2 2565   1.655   1.155   6.106
  661SOL     OW 2566   0.113   0.737   7.183
  661SOL    HW1 2567   0.201   0.724   7.228
  661SOL    HW2 2568   0.100   0.834   7.161
  662SOL     OW 2569   0.613   1.365   6.312
  662SOL    HW1 2570   0.564   1.278   6.321
  662SOL    HW2 2571   0.590   1.408   6.225
  663SOL     OW 2572   1.293   1.228   7.009
  663SOL    HW1 2573   1.330   1.155   6.951
  663SOL    HW2 2574   1.345   1.233   7.094
  664SOL     OW 2575   0.809   0.004   6.088
  664SOL    HW1 2576   0.849   0.095   6.079
  664SOL    HW2 2577   0.709   0.012   6.094
  665SOL     OW 2578   0.197   0.976   6.850
  665SOL    HW1 2579   0.286   0.931   6.836
  665SOL    HW2 2580   0.124   0.911   6.831
  666SOL     OW 2581   1.525   0.999   5.776
  666SOL    HW1 2582   1.462   0.923   5.789
  666SOL    HW2 2583   1.573   1.017   5.862
  667SOL     OW 2584   0.317   0.251   7.387
  667SOL    HW1 2585   0.388   0.322   7.393
  667SOL    HW2 2586   0.229   0.290   7.415
  668SOL     OW 2587   1.466   1.417   6.539
  668SOL    HW1 2588   1.407   1.423   6.619
  668SOL    HW2 2589   1.451   1.329   6.493
  669SOL     OW 2590   1.667   1.714   6.158
  669SOL    HW1 2591   1.626   1.691   6.070
  669SOL    HW2 2592   1.649   1.640   6.223
  670SOL     OW 2593   0.598   0.729   5.856
  670SOL    HW1 2594   0.622   0.798   5.788
  670SOL    HW2 2595   0.520   0.762   5.910
  671SOL     OW 2596   1.281   0.345   6.530
  671SOL    HW1 2597   1.195   0.295   6.517
  671SOL    HW2 2598   1.343   0.291   6.586
  672SOL     OW 2599   1.576   1.662   5.893
  672SOL    HW1 2600   1.665   1.708   5.896
  672SOL    HW2 2601   1.555   1.638   5.798
  673SOL     OW 2602   0.807   0.605   7.051
  673SOL    HW1 2603   0.760   0.602   7.140
  673SOL    HW2 2604   0.756   0.550   6.985
  674SOL     OW 2605   1.394   0.469   7.260
  674SOL    HW1 2606   1.374   0.512   7.348
  674SOL    HW2 2607   1.472   0.407   7.269
  675SOL     OW 2608   0.973   0.890   7.158
  675SOL    HW1 2609   1.019   0.806   7.129
  675SOL    HW2 2610   0.917   0.924   7.083
  676SOL     OW 2611   0.991   0.410   6.828
  676SOL    HW1 2612   0.914   0.444   6.882
  676SOL    HW2 2613   0.957   0.359   6.749
  677SOL     OW 2614   1.041   0.701   6.015
  677SOL    HW1 2615   1.067   0.697   6.111
  677SOL    HW2 2616   0.956   0.650   6.001
  678SOL     OW 2617   0.076   0.811   6.375
  678SOL    HW1 2618   0.175   0.799   6.384
  678SOL    HW2 2619   0.052   0.906   6.396
  679SOL     OW 2620   0.130   1.821   7.157
  679SOL    HW1 2621   0.120   1.806   7.256
  679SOL    HW2 2622   0.044   1.857   7.121
  680SOL     OW 2623   0.865   0.348   5.781
  680SOL    HW1 2624   0.924   0.411   5.732
  680SOL    HW2 2625   0.884   0.254   5.752
  681SOL     OW 2626   1.719   0.585   7.417
  681SOL    HW1 2627   1.693   0.674   7.381
  681SOL    HW2 2628   1.717   0.517   7.344
  682SOL     OW 2629   1.362   1.144   6.131
  682SOL    HW1 2630   1.445   1.115   6.083
  682SOL    HW2 2631   1.313   1.211   6.075
  683SOL     OW 2632   0.550   0.196   6.471
  683SOL    HW1 2633   0.545   0.191   6.571
  683SOL    HW2 2634   0.552   0.292   6.442
  684SOL     OW 2635   1.008   1.456   6.063
  684SOL    HW1 2636   0.962   1.528   6.011
  684SOL    HW2 2637   1.004   1.476   6.161
  685SOL     OW 2638   0.351   1.801   6.439
  685SOL    HW1 2639   0.401   1.715   6.445
  685SOL    HW2 2640   0.416   1.878   6.436
  686SOL     OW 2641   1.795   1.066   6.459
  686SOL    HW1 2642   1.733   1.051   6.383
  686SOL    HW2 2643   1.743   1.077   6.544
  687SOL     OW 2644   1.227   1.550   7.092
  687SOL    HW1 2645   1.233   1.473   7.156
  687SOL    HW2 2646   1.175   1.524   7.012
  688SOL     OW 2647   0.321   0.943   5.828
  688SOL    HW1 2648   0.403   0.982   5.786
  688SOL    HW2 2649   0.294   0.861   5.779
  689SOL     OW 2650   1.458   0.735   6.314
  689SOL    HW1 2651   1.453   0.670   6.389
  689SOL    HW2 2652   1.538   0.794   6.327
  690SOL     OW 2653   0.461   1.266   7.313
  690SOL    HW1 2654   0.411   1.267   7.227
  690SOL    HW2 2655   0.398   1.248   7.389
  691SOL     OW 2656   1.111   1.776   5.823
  691SOL    HW1 2657   1.051   1.714   5.873
  691SOL    HW2 2658   1.142   1.732   5.738
  692SOL     OW 2659   0.202   0.285   7.084
  692SOL    HW1 2660   0.122   0.345   7.071
  692SOL    HW2 2661   0.192   0.236   7.170
  693SOL     OW 2662   1.632   1.377   5.667
  693SOL    HW1 2663   1.600   1.471   5.657
  693SOL    HW2 2664   1.556   1.314   5.655
  694SOL     OW 2665   0.464   1.743   5.909
  694SOL    HW1 2666   0.497   1.782   5.995
  694SOL    HW2 2667   0.540   1.736   5.844
  695SOL     OW 2668   1.400   0.107   6.012
  695SOL    HW1 2669   1.376   0.070   5.922
  695SOL    HW2 2670   1.499   0.123   6.016
  696SOL     OW 2671   0.249   1.785   6.827
  696SOL    HW1 2672   0.306   1.720   6.877
  696SOL    HW2 2673   0.233   1.752   6.734
  697SOL     OW 2674   0.940   1.698   6.490
  697SOL    HW1 2675   1.020   1.641   6.511
  697SOL    HW2 2676   0.891   1.658   6.413
  698SOL     OW 2677   0.382   0.700   6.066
  698SOL    HW1 2678   0.427   0.610   6.063
  698SOL    HW2 2679   0.288   0.689   6.099
  699SOL     OW 2680   1.547   0.222   7.315
  699SOL    HW1 2681   1.542   0.259   7.407
  699SOL    HW2 2682   1.475   0.153   7.303
  700SOL     OW 2683   0.614   0.122   5.703
  700SOL    HW1 2684   0.712   0.100   5.710
  700SOL    HW2 2685   0.583   0.105   5.610
  701SOL     OW 2686   0.781   0.264   7.335
  701SOL    HW1 2687   0.848   0.203   7.378
  701SOL    HW2 2688   0.708   0.283   7.400
  702SOL     OW 2689   0.888   1.514   6.781
  702SOL    HW1 2690   0.865   1.489   6.687
  702SOL    HW2 2691   0.949   1.445   6.820
  703SOL     OW 2692   1.351   0.590   7.019
  703SOL    HW1 2693   1.379   0.547   7.104
  703SOL    HW2 2694   1.376   0.686   7.020
  704SOL     OW 2695   0.803   1.402   6.510
  704SOL    HW1 2696   0.893   1.416   6.468
  704SOL    HW2 2697   0.732   1.404   6.439
  705SOL     OW 2698   0.922   0.503   6.485
  705SOL    HW1 2699   0.897   0.494   6.389
  705SOL    HW2 2700   0.970   0.421   6.516
  706SOL     OW 2701   0.539   0.064   6.098
  706SOL    HW1 2702   0.458   0.065   6.156
  706SOL    HW2 2703   0.542   0.147   6.043
  707SOL     OW 2704   1.434   1.188   5.627
  707SOL    HW1 2705   1.466   1.112   5.684
  707SOL    HW2 2706   1.342   1.215   5.657
  708SOL     OW 2707   0.297   0.035   5.757
  708SOL    HW1 2708   0.346   0.119   5.736
  708SOL    HW2 2709   0.359  -0.030   5.802
  709SOL     OW 2710   0.935   0.236   6.066
  709SOL    HW1 2711   0.887   0.277   5.988
  709SOL    HW2 2712   1.034   0.234   6.047
  710SOL     OW 2713   1.076   0.683   7.050
  710SOL    HW1 2714   0.996   0.622   7.053
  710SOL    HW2 2715   1.157   0.630   7.026
  711SOL     OW 2716   1.227   1.570   6.379
  711SOL    HW1 2717   1.248   1.644   6.314
  711SOL    HW2 2718   1.295   1.570   6.452
  712SOL     OW 2719   0.459   1.152   6.327
  712SOL    HW1 2720   0.388   1.125   6.392
  712SOL    HW2 2721   0.433   1.124   6.234
  713SOL     OW 2722   1.271   1.797   6.177
  713SOL    HW1 2723   1.315   1.861   6.113
  713SOL    HW2 2724   1.221   1.849   6.247
  714SOL     OW 2725   1.032   0.549   5.602
  714SOL    HW1 2726   0.991   0.631   5.563
  714SOL    HW2 2727   1.096   0.575   5.675
  715SOL     OW 2728   0.078   0.556   6.972
  715SOL    HW1 2729   0.170   0.555   6.931
  715SOL    HW2 2730   0.072   0.630   7.039
  716SOL     OW 2731   0.561   0.222   6.733
  716SOL    HW1 2732   0.599   0.138   6.770
  716SOL    HW2 2733   0.473   0.241   6.777
  717SOL     OW 2734   0.866   0.454   6.228
  717SOL    HW1 2735   0.834   0.526   6.166
  717SOL    HW2 2736   0.890   0.373   6.175
  718SOL     OW 2737   1.017   0.039   6.339
  718SOL    HW1 2738   0.945   0.044   6.270
  718SOL    HW2 2739   0.993  -0.030   6.408
  719SOL     OW 2740   1.429   1.173   6.453
  719SOL    HW1 2741   1.374   1.089   6.446
  719SOL    HW2 2742   1.455   1.202   6.361
  720SOL     OW 2743   1.466   0.590   6.578
  720SOL    HW1 2744   1.436   0.495   6.585
  720SOL    HW2 2745   1.539   0.606   6.644
  721SOL     OW 2746   1.857   0.833   5.963
  721SOL    HW1 2747   1.899   0.769   6.027
  721SOL    HW2 2748   1.819   0.782   5.885
  722SOL     OW 2749   0.488   1.385   5.760
  722SOL    HW1 2750   0.401   1.370   5.807
  722SOL    HW2 2751   0.471   1.411   5.665
  723SOL     OW 2752   1.664   1.280   6.243
  723SOL    HW1 2753   1.763   1.288   6.257
  723SOL    HW2 2754   1.619   1.364   6.274
  724SOL     OW 2755   1.390   0.575   5.664
  724SOL    HW1 2756   1.336   0.554   5.745
  724SOL    HW2 2757   1.481   0.534   5.673
  725SOL     OW 2758   0.527   0.256   5.914
  725SOL    HW1 2759   0.554   0.197   5.839
  725SOL    HW2 2760   0.527   0.351   5.883
  726SOL     OW 2761   1.754   1.223   7.174
  726SOL    HW1 2762   1.845   1.184   7.161
  726SOL    HW2 2763   1.762   1.319   7.198
  727SOL     OW 2764   1.064   1.347   6.926
  727SOL    HW1 2765   0.984   1.324   6.981
  727SOL    HW2 2766   1.147   1.321   6.975
  728SOL     OW 2767   1.111   1.195   6.686
  728SOL    HW1 2768   1.071   1.239   6.767
  728SOL    HW2 2769   1.070   1.232   6.603
  729SOL     OW 2770   0.915   0.089   6.988
  729SOL    HW1 2771   0.940   0.069   6.893
  729SOL    HW2 2772   0.987   0.145   7.030
  730SOL     OW 2773   0.980   1.116   7.305
  730SOL    HW1 2774   0.881   1.122   7.315
  730SOL    HW2 2775   1.003   1.036   7.249
  731SOL     OW 2776   0.705   1.050   5.954
  731SOL    HW1 2777   0.691   1.057   6.053
  731SOL    HW2 2778   0.789   0.999   5.936
  732SOL     OW 2779   0.410   0.813   6.837
  732SOL    HW1 2780   0.496   0.825   6.887
  732SOL    HW2 2781   0.368   0.726   6.864
  733SOL     OW 2782   1.274   0.386   6.848
  733SOL    HW1 2783   1.295   0.460   6.912
  733SOL    HW2 2784   1.185   0.403   6.805
  734SOL     OW 2785   0.064   1.564   6.917
  734SOL    HW1 2786   0.018   1.646   6.883
  734SOL    HW2 2787   0.162   1.583   6.926
  735SOL     OW 2788   0.367   1.100   6.087
  735SOL    HW1 2789   0.360   1.183   6.031
  735SOL    HW2 2790   0.371   1.020   6.027
  736SOL     OW 2791   0.566   0.537   6.451
  736SOL    HW1 2792   0.578   0.603   6.377
  736SOL    HW2 2793   0.612   0.571   6.534
  737SOL     OW 2794   1.252   1.348   5.974
  737SOL    HW1 2795   1.302   1.425   6.014
  737SOL    HW2 2796   1.157   1.350   6.006
  738SOL     OW 2797   1.582   0.639   6.058
  738SOL    HW1 2798   1.551   0.700   6.131
  738SOL    HW2 2799   1.632   0.691   5.989
  739SOL     OW 2800   0.354   1.510   6.915
  739SOL    HW1 2801   0.333   1.466   6.828
  739SOL    HW2 2802   0.451   1.536   6.918
  740SOL     OW 2803   0.402   0.751   7.184
  740SOL    HW1 2804   0.470   0.806   7.137
  740SOL    HW2 2805   0.442   0.663   7.211
  741SOL     OW 2806   1.587   0.779   7.256
  741SOL    HW1 2807   1.495   0.817   7.251
  741SOL    HW2 2808   1.647   0.826   7.191
  742SOL     OW 2809   1.013   0.105   7.356
  742SOL    HW1 2810   1.019   0.190   7.304
  742SOL    HW2 2811   1.045   0.029   7.299
  743SOL     OW 2812   0.504   0.050   7.326
  743SOL    HW1 2813   0.462  -0.007   7.256
  743SOL    HW2 2814   0.438   0.119   7.358
  744SOL     OW 2815   0.573   0.870   6.615
  744SOL    HW1 2816   0.617   0.959   6.606
  744SOL    HW2 2817   0.510   0.870   6.692
  745SOL     OW 2818   1.360   0.862   6.631
  745SOL    HW1 2819   1.285   0.862   6.565
  745SOL    HW2 2820   1.397   0.770   6.640
  746SOL     OW 2821   1.209   0.525   5.861
  746SOL    HW1 2822   1.222   0.441   5.915
  746SOL    HW2 2823   1.180   0.599   5.921
  747SOL     OW 2824   0.307   0.213   6.817
  747SOL    HW1 2825   0.284   0.250   6.907
  747SOL    HW2 2826   0.277   0.118   6.811
  748SOL     OW 2827   0.037   1.310   6.868
  748SOL    HW1 2828   0.090   1.261   6.936
  748SOL    HW2 2829   0.059   1.408   6.873
  749SOL     OW 2830   0.732   0.634   6.650
  749SOL    HW1 2831   0.791   0.608   6.574
  749SOL    HW2 2832   0.704   0.730   6.639
  750SOL     OW 2833   1.728   0.935   7.440
  750SOL    HW1 2834   1.682   0.928   7.351
  750SOL    HW2 2835   1.666   0.979   7.506
  751SOL     OW 2836   0.307   0.063   6.204
  751SOL    HW1 2837   0.296   0.157   6.237
  751SOL    HW2 2838   0.302   0.000   6.281
  752SOL     OW 2839   1.622   0.367   5.960
  752SOL    HW1 2840   1.624   0.291   6.024
  752SOL    HW2 2841   1.574   0.444   6.000
  753SOL     OW 2842   1.023   0.766   6.552
  753SOL    HW1 2843   1.038   0.787   6.648
  753SOL    HW2 2844   0.993   0.671   6.543
  754SOL     OW 2845   0.980   1.573   7.286
  754SOL    HW1 2846   0.960   1.617   7.198
  754SOL    HW2 2847   1.019   1.482   7.270
  755SOL     OW 2848   0.350   0.898   7.390
  755SOL    HW1 2849   0.426   0.942   7.438
  755SOL    HW2 2850   0.385   0.851   7.308
  756SOL     OW 2851   1.540   0.274   5.711
  756SOL    HW1 2852   1.479   0.199   5.734
  756SOL    HW2 2853   1.562   0.326   5.794
  757SOL     OW 2854   1.303   0.838   5.628
  757SOL    HW1 2855   1.337   0.745   5.643
  757SOL    HW2 2856   1.321   0.865   5.533
  758SOL     OW 2857   1.068   1.333   6.435
  758SOL    HW1 2858   1.075   1.249   6.380
  758SOL    HW2 2859   1.130   1.402   6.399
  759SOL     OW 2860   0.319   0.810   6.535
  759SOL    HW1 2861   0.412   0.846   6.540
  759SOL    HW2 2862   0.313   0.725   6.587
  760SOL     OW 2863   0.339   0.509   6.592
  760SOL    HW1 2864   0.287   0.426   6.575
  760SOL    HW2 2865   0.416   0.514   6.528
  761SOL     OW 2866   1.138   0.380   7.264
  761SOL    HW1 2867   1.093   0.443   7.328
  761SOL    HW2 2868   1.231   0.411   7.247
  762SOL     OW 2869   1.160   0.207   7.063
  762SOL    HW1 2870   1.160   0.271   7.140
  762SOL    HW2 2871   1.188   0.255   6.980
  763SOL     OW 2872   0.008   1.326   5.786
  763SOL    HW1 2873  -0.085   1.347   5.755
  763SOL    HW2 2874   0.018   1.227   5.799
  764SOL     OW 2875   0.088   1.801   6.513
  764SOL    HW1 2876   0.046   1.715   6.486
  764SOL    HW2 2877   0.182   1.804   6.479
  765SOL     OW 2878   0.504   1.568   6.496
  765SOL    HW1 2879   0.570   1.642   6.505
  765SOL    HW2 2880   0.548   1.489   6.454
  766SOL     OW 2881   1.002   0.796   6.824
  766SOL    HW1 2882   1.043   0.764   6.910
  766SOL    HW2 2883   0.906   0.769   6.821
  767SOL     OW 2884   0.040   0.544   6.700
  767SOL    HW1 2885   0.125   0.511   6.659
  767SOL    HW2 2886   0.053   0.559   6.798
  768SOL     OW 2887   0.189   0.520   7.308
  768SOL    HW1 2888   0.248   0.480   7.238
  768SOL    HW2 2889   0.131   0.591   7.267
  769SOL     OW 2890   1.369   0.950   7.246
  769SOL    HW1 2891   1.408   1.039   7.266
  769SOL    HW2 2892   1.379   0.930   7.149
  770SOL     OW 2893   0.815   0.572   5.911
  770SOL    HW1 2894   0.822   0.483   5.865
  770SOL    HW2 2895   0.721   0.606   5.903
  771SOL     OW 2896   1.657   0.604   6.792
  771SOL    HW1 2897   1.619   0.535   6.854
  771SOL    HW2 2898   1.739   0.568   6.748
  772SOL     OW 2899   0.252   1.564   7.330
  772SOL    HW1 2900   0.222   1.621   7.406
  772SOL    HW2 2901   0.245   1.467   7.356
  773SOL     OW 2902   0.671   0.464   6.855
  773SOL    HW1 2903   0.637   0.375   6.825
  773SOL    HW2 2904   0.697   0.518   6.775
  774SOL     OW 2905   0.930   1.678   7.051
  774SOL    HW1 2906   0.906   1.660   6.956
  774SOL    HW2 2907   0.960   1.772   7.061
  775SOL     OW 2908   0.473   0.500   5.777
  775SOL    HW1 2909   0.534   0.580   5.781
  775SOL    HW2 2910   0.378   0.531   5.784
  776SOL     OW 2911   0.159   1.137   7.052
  776SOL    HW1 2912   0.181   1.076   7.128
  776SOL    HW2 2913   0.169   1.088   6.966
  777SOL     OW 2914   1.347   1.059   6.820
  777SOL    HW1 2915   1.371   0.996   6.746
  777SOL    HW2 2916   1.257   1.099   6.802
  778SOL     OW 2917   1.302   0.855   5.895
  778SOL    HW1 2918   1.216   0.824   5.937
  778SOL    HW2 2919   1.298   0.841   5.796
  779SOL     OW 2920   0.083   1.258   6.608
  779SOL    HW1 2921   0.078   1.257   6.708
  779SOL    HW2 2922   0.000   1.217   6.570
  780SOL     OW 2923   0.688   1.662   7.302
  780SOL    HW1 2924   0.632   1.743   7.311
  780SOL    HW2 2925   0.740   1.666   7.216
  781SOL     OW 2926   1.726   0.135   6.109
  781SOL    HW1 2927   1.799   0.118   6.042
  781SOL    HW2 2928   1.695   0.048   6.147
  782SOL     OW 2929   1.388   1.573   6.063
  782SOL    HW1 2930   1.455   1.585   5.989
  782SOL    HW2 2931   1.348   1.662   6.086
  783SOL     OW 2932   0.130   1.794   7.437
  783SOL    HW1 2933   0.089   1.720   7.490
  783SOL    HW2 2934   0.194   1.845   7.495
  784SOL     OW 2935   1.280   0.927   6.258
  784SOL    HW1 2936   1.340   0.846   6.260
  784SOL    HW2 2937   1.320   0.996   6.198
  785SOL     OW 2938   0.830   1.273   7.008
  785SOL    HW1 2939   0.825   1.306   7.103
  785SOL    HW2 2940   0.744   1.292   6.962
  786SOL     OW 2941   0.672   1.616   5.740
  786SOL    HW1 2942   0.681   1.626   5.641
  786SOL    HW2 2943   0.632   1.527   5.761
  787SOL     OW 2944   1.650   1.720   6.980
  787SOL    HW1 2945   1.703   1.730   6.896
  787SOL    HW2 2946   1.623   1.810   7.014
  788SOL     OW 2947   1.841   0.175   6.549
  788SOL    HW1 2948   1.880   0.090   6.513
  788SOL    HW2 2949   1.743   0.177   6.530
  789SOL     OW 2950   0.263   0.326   6.306
  789SOL    HW1 2951   0.184   0.377   6.272
  789SOL    HW2 2952   0.254   0.311   6.404
  790SOL     OW 2953   1.194   1.612   5.617
  790SOL    HW1 2954   1.200   1.519   5.654
  790SOL    HW2 2955   1.135   1.612   5.537
  791SOL     OW 2956   0.822   1.002   6.958
  791SOL    HW1 2957   0.862   1.001   6.866
  791SOL    HW2 2958   0.832   1.094   6.998
  792SOL     OW 2959   0.916   0.910   5.877
  792SOL    HW1 2960   0.979   0.948   5.809
  792SOL    HW2 2961   0.956   0.827   5.916
  793SOL     OW 2962   1.504   1.607   5.630
  793SOL    HW1 2963   1.412   1.644   5.637
  793SOL    HW2 2964   1.542   1.627   5.540
  794SOL     OW 2965   0.372   1.288   7.076
  794SOL    HW1 2966   0.359   1.381   7.042
  794SOL    HW2 2967   0.288   1.236   7.063
  795SOL     OW 2968   1.039   1.098   6.282
  795SOL    HW1 2969   0.969   1.051   6.336
  795SOL    HW2 2970   1.098   1.030   6.239
  796SOL     OW 2971   1.014   0.236   6.557
  796SOL    HW1 2972   1.006   0.200   6.464
  796SOL    HW2 2973   1.012   0.160   6.622
  797SOL     OW 2974   0.590   1.487   6.077
  797SOL    HW1 2975   0.632   1.429   6.007
  797SOL    HW2 2976   0.546   1.566   6.033
  798SOL     OW 2977   1.709   0.385   6.967
  798SOL    HW1 2978   1.782   0.454   6.971
  798SOL    HW2 2979   1.737   0.310   6.908
  799SOL     OW 2980   0.255   1.348   5.876
  799SOL    HW1 2981   0.159   1.349   5.849
  799SOL    HW2 2982   0.267   1.401   5.960
  800SOL     OW 2983   0.105   1.013   7.312
  800SOL    HW1 2984   0.028   0.980   7.366
  800SOL    HW2 2985   0.190   0.983   7.354
  801SOL     OW 2986   0.672   0.203   7.075
  801SOL    HW1 2987   0.762   0.187   7.035
  801SOL    HW2 2988   0.680   0.208   7.174
  802SOL     OW 2989   0.075   0.345   5.619
  802SOL    HW1 2990  -0.017   0.317   5.590
  802SOL    HW2 2991   0.106   0.422   5.563
  803SOL     OW 2992   1.440   0.856   6.984
  803SOL    HW1 2993   1.383   0.908   6.921
  803SOL    HW2 2994   1.536   0.868   6.960
  804SOL     OW 2995   0.072   0.166   5.904
  804SOL    HW1 2996   0.055   0.249   5.850
  804SOL    HW2 2997   0.162   0.129   5.882
  805SOL     OW 2998   1.183   1.335   5.705
  805SOL    HW1 2999   1.084   1.324   5.707
  805SOL    HW2 3000   1.217   1.350   5.798
  806SOL     OW 3001   0.613   0.842   7.017
  806SOL    HW1 3002   0.669   0.923   7.000
  806SOL    HW2 3003   0.672   0.762   7.020
  807SOL     OW 3004   1.493   1.767   6.545
  807SOL    HW1 3005   1.526   1.831   6.476
  807SOL    HW2 3006   1.559   1.761   6.620
  808SOL     OW 3007   0.716   0.565   7.294
  808SOL    HW1 3008   0.735   0.630   7.368
  808SOL    HW2 3009   0.776   0.485   7.303
  809SOL     OW 3010   1.450   1.220   7.219
  809SOL    HW1 3011   1.441   1.210   7.318
  809SOL    HW2 3012   1.546   1.213   7.193
  810SOL     OW 3013   0.390   1.741   7.146
  810SOL    HW1 3014   0.299   1.782   7.144
  810SOL    HW2 3015   0.383   1.647   7.178
  811SOL     OW 3016   1.674   0.883   6.840
  811SOL    HW1 3017   1.647   0.794   6.803
  811SOL    HW2 3018   1.675   0.951   6.767
  812SOL     OW 3019   1.225   0.325   6.035
  812SOL    HW1 3020   1.290   0.251   6.024
  812SOL    HW2 3021   1.245   0.375   6.119
  813SOL     OW 3022   0.594   0.745   6.238
  813SOL    HW1 3023   0.644   0.830   6.219
  813SOL    HW2 3024   0.506   0.747   6.190
  814SOL     OW 3025   1.777   0.342   7.228
  814SOL    HW1 3026   1.760   0.373   7.134
  814SOL    HW2 3027   1.693   0.305   7.266
  815SOL     OW 3028   1.730   0.934   7.103
  815SOL    HW1 3029   1.768   1.025   7.118
  815SOL    HW2 3030   1.722   0.917   7.004
  816SOL     OW 3031   0.859   1.374   5.602
  816SOL    HW1 3032   0.813   1.389   5.690
  816SOL    HW2 3033   0.903   1.459   5.572
  817SOL     OW 3034   0.661   1.790   6.539
  817SOL    HW1 3035   0.615   1.878   6.526
  817SOL    HW2 3036   0.760   1.802   6.532
  818SOL     OW 3037   0.859   0.956   6.447
  818SOL    HW1 3038   0.913   0.887   6.495
  818SOL    HW2 3039   0.827   1.025   6.513
  819SOL     OW 3040   1.083   0.984   5.673
  819SOL    HW1 3041   1.060   1.037   5.591
  819SOL    HW2 3042   1.164   0.928   5.654
  820SOL     OW 3043   1.861   1.569   6.437
  820SOL    HW1 3044   1.790   1.557   6.367
  820SOL    HW2 3045   1.862   1.490   6.497
  821SOL     OW 3046   0.221   1.314   7.430
  821SOL    HW1 3047   0.156   1.241   7.409
  821SOL    HW2 3048   0.225   1.328   7.528
  822SOL     OW 3049   0.079   1.240   6.239
  822SOL    HW1 3050   0.078   1.193   6.327
  822SOL    HW2 3051   0.161   1.212   6.188
  823SOL     OW 3052   0.672   1.391   7.210
  823SOL    HW1 3053   0.594   1.341   7.248
  823SOL    HW2 3054   0.669   1.486   7.241
  824SOL     OW 3055   1.824   0.192   6.813
  824SOL    HW1 3056   1.820   0.102   6.857
  824SOL    HW2 3057   1.827   0.181   6.714
  825SOL     OW 3058   0.428   0.424   6.106
  825SOL    HW1 3059   0.458   0.352   6.044
  825SOL    HW2 3060   0.389   0.384   6.189
  826SOL     OW 3061   0.317   0.547   6.866
  826SOL    HW1 3062   0.355   0.488   6.938
  826SOL    HW2 3063   0.357   0.521   6.778
  827SOL     OW 3064   0.812   1.586   6.273
  827SOL    HW1 3065   0.844   1.596   6.179
  827SOL    HW2 3066   0.733   1.524   6.275
  828SOL     OW 3067   1.424   0.214   6.698
  828SOL    HW1 3068   1.476   0.149   6.753
  828SOL    HW2 3069   1.375   0.277   6.759
  829SOL     OW 3070   1.001   0.034   6.740
  829SOL    HW1 3071   0.938  -0.038   6.709
  829SOL    HW2 3072   1.094  -0.002   6.740
  830SOL     OW 3073   0.770   1.330   5.887
  830SOL    HW1 3074   0.724   1.243   5.904
  830SOL    HW2 3075   0.861   1.327   5.928
  831SOL     OW 3076   0.618   1.567   6.870
  831SOL    HW1 3077   0.613   1.649   6.927
  831SOL    HW2 3078   0.707   1.564   6.825
  832SOL     OW 3079   1.352   0.052   5.754
  832SOL    HW1 3080   1.387   0.011   5.670
  832SOL    HW2 3081   1.262   0.014   5.774
  833SOL     OW 3082   1.300   0.453   6.277
  833SOL    HW1 3083   1.241   0.533   6.281
  833SOL    HW2 3084   1.315   0.418   6.370
  834SOL     OW 3085   1.593   0.221   6.468
  834SOL    HW1 3086   1.509   0.220   6.522
  834SOL    HW2 3087   1.595   0.304   6.412
  835SOL     OW 3088   0.039   1.077   5.886
  835SOL    HW1 3089   0.138   1.066   5.877
  835SOL    HW2 3090  -0.001   0.991   5.918
  836SOL     OW 3091   0.875   1.646   5.923
  836SOL    HW1 3092   0.798   1.611   5.869
  836SOL    HW2 3093   0.843   1.717   5.985
  837SOL     OW 3094   0.230   0.628   7.561
  837SOL    HW1 3095   0.137   0.626   7.598
  837SOL    HW2 3096   0.231   0.589   7.469
  838SOL     OW 3097   0.225   0.275   8.444
  838SOL    HW1 3098   0.260   0.258   8.536
  838SOL    HW2 3099   0.137   0.230   8.432
  839SOL     OW 3100   0.019   0.368   8.095
  839SOL    HW1 3101  -0.063   0.411   8.134
  839SOL    HW2 3102  -0.009   0.295   8.032
  840SOL     OW 3103   0.569   1.275   8.613
  840SOL    HW1 3104   0.476   1.268   8.576
  840SOL    HW2 3105   0.580   1.364   8.657
  841SOL     OW 3106   1.555   1.511   8.151
  841SOL    HW1 3107   1.498   1.495   8.232
  841SOL    HW2 3108   1.496   1.521   8.071
  842SOL     OW 3109   1.135   0.703   8.165
  842SOL    HW1 3110   1.192   0.781   8.140
  842SOL    HW2 3111   1.075   0.729   8.241
  843SOL     OW 3112   1.755   0.607   7.679
  843SOL    HW1 3113   1.743   0.594   7.580
  843SOL    HW2 3114   1.725   0.526   7.728
  844SOL     OW 3115   0.768   1.144   8.471
  844SOL    HW1 3116   0.690   1.161   8.531
  844SOL    HW2 3117   0.802   1.231   8.435
  845SOL     OW 3118   0.850   0.798   9.271
  845SOL    HW1 3119   0.846   0.874   9.336
  845SOL    HW2 3120   0.872   0.834   9.180
  846SOL     OW 3121   0.685   1.012   8.113
  846SOL    HW1 3122   0.754   0.996   8.183
  846SOL    HW2 3123   0.612   1.069   8.151
  847SOL     OW 3124   0.686   1.161   9.251
  847SOL    HW1 3125   0.746   1.240   9.265
  847SOL    HW2 3126   0.600   1.192   9.210
  848SOL     OW 3127   0.335   1.435   8.509
  848SOL    HW1 3128   0.257   1.404   8.456
  848SOL    HW2 3129   0.393   1.493   8.452
  849SOL     OW 3130   1.460   1.505   8.787
  849SOL    HW1 3131   1.484   1.599   8.813
  849SOL    HW2 3132   1.444   1.451   8.869
  850SOL     OW 3133   0.438   0.392   8.947
  850SOL    HW1 3134   0.520   0.336   8.956
  850SOL    HW2 3135   0.357   0.334   8.951
  851SOL     OW 3136   1.603   0.447   8.185
  851SOL    HW1 3137   1.529   0.493   8.135
  851SOL    HW2 3138   1.654   0.515   8.238
  852SOL     OW 3139   0.231   1.713   7.931
  852SOL    HW1 3140   0.265   1.790   7.985
  852SOL    HW2 3141   0.275   1.713   7.841
  853SOL     OW 3142   1.127   1.341   9.138
  853SOL    HW1 3143   1.174   1.341   9.226
  853SOL    HW2 3144   1.079   1.254   9.127
  854SOL     OW 3145   0.230   1.434   7.986
  854SOL    HW1 3146   0.204   1.530   7.986
  854SOL    HW2 3147   0.159   1.380   8.031
  855SOL     OW 3148   0.240   1.091   8.334
  855SOL    HW1 3149   0.254   1.007   8.386
  855SOL    HW2 3150   0.185   1.155   8.389
  856SOL     OW 3151   0.620   1.786   8.887
  856SOL    HW1 3152   0.528   1.769   8.922
  856SOL    HW2 3153   0.648   1.878   8.913
  857SOL     OW 3154   0.606   0.964   7.571
  857SOL    HW1 3155   0.613   1.048   7.517
  857SOL    HW2 3156   0.652   0.977   7.659
  858SOL     OW 3157   1.594   0.114   8.928
  858SOL    HW1 3158   1.576   0.181   8.856
  858SOL    HW2 3159   1.591   0.160   9.017
  859SOL     OW 3160   0.122   0.643   8.011
  859SOL    HW1 3161   0.077   0.555   8.028
  859SOL    HW2 3162   0.121   0.697   8.095
  860SOL     OW 3163   0.027   1.596   7.565
  860SOL    HW1 3164   0.008   1.500   7.586
  860SOL    HW2 3165  -0.006   1.654   7.640
  861SOL     OW 3166   1.689   0.922   8.060
  861SOL    HW1 3167   1.784   0.893   8.068
  861SOL    HW2 3168   1.681   0.987   7.985
  862SOL     OW 3169   1.641   1.108   7.880
  862SOL    HW1 3170   1.727   1.110   7.828
  862SOL    HW2 3171   1.655   1.155   7.968
  863SOL     OW 3172   0.113   0.737   9.045
  863SOL    HW1 3173   0.201   0.724   9.090
  863SOL    HW2 3174   0.100   0.834   9.023
  864SOL     OW 3175   0.613   1.365   8.174
  864SOL    HW1 3176   0.564   1.278   8.183
  864SOL    HW2 3177   0.590   1.408   8.087
  865SOL     OW 3178   1.293   1.228   8.871
  865SOL    HW1 3179   1.330   1.155   8.813
  865SOL    HW2 3180   1.345   1.233   8.956
  866SOL     OW 3181   0.809   0.004   7.950
  866SOL    HW1 3182   0.849   0.095   7.941
  866SOL    HW2 3183   0.709   0.012   7.956
  867SOL     OW 3184   0.197   0.976   8.712
  867SOL    HW1 3185   0.286   0.931   8.698
  867SOL    HW2 3186   0.124   0.911   8.693
  868SOL     OW 3187   1.525   0.999   7.638
  868SOL    HW1 3188   1.462   0.923   7.651
  868SOL    HW2 3189   1.573   1.017   7.724
  869SOL     OW 3190   1.187   1.792   9.064
  869SOL    HW1 3191   1.211   1.852   8.988
  869SOL    HW2 3192   1.194   1.697   9.034
  870SOL     OW 3193   0.317   0.251   9.249
  870SOL    HW1 3194   0.388   0.322   9.255
  870SOL    HW2 3195   0.229   0.290   9.277
  871SOL     OW 3196   1.466   1.417   8.401
  871SOL    HW1 3197   1.407   1.423   8.481
  871SOL    HW2 3198   1.451   1.329   8.355
  872SOL     OW 3199   1.667   1.714   8.020
  872SOL    HW1 3200   1.626   1.691   7.932
  872SOL    HW2 3201   1.649   1.640   8.085
  873SOL     OW 3202   0.598   0.729   7.718
  873SOL    HW1 3203   0.622   0.798   7.650
  873SOL    HW2 3204   0.520   0.762   7.772
  874SOL     OW 3205   1.281   0.345   8.392
  874SOL    HW1 3206   1.195   0.295   8.379
  874SOL    HW2 3207   1.343   0.291   8.448
  875SOL     OW 3208   1.576   1.662   7.755
  875SOL    HW1 3209   1.665   1.708   7.758
  875SOL    HW2 3210   1.555   1.638   7.660
  876SOL     OW 3211   0.807   0.605   8.913
  876SOL    HW1 3212   0.760   0.602   9.002
  876SOL    HW2 3213   0.756   0.550   8.847
  877SOL     OW 3214   1.394   0.469   9.122
  877SOL    HW1 3215   1.374   0.512   9.210
  877SOL    HW2 3216   1.472   0.407   9.131
  878SOL     OW 3217   0.973   0.890   9.020
  878SOL    HW1 3218   1.019   0.806   8.991
  878SOL    HW2 3219   0.917   0.924   8.945
  879SOL     OW 3220   0.991   0.410   8.690
  879SOL    HW1 3221   0.914   0.444   8.744
  879SOL    HW2 3222   0.957   0.359   8.611
  880SOL     OW 3223   1.041   0.701   7.877
  880SOL    HW1 3224   1.067   0.697   7.973
  880SOL    HW2 3225   0.956   0.650   7.863
  881SOL     OW 3226   0.076   0.811   8.237
  881SOL    HW1 3227   0.175   0.799   8.246
  881SOL    HW2 3228   0.052   0.906   8.258
  882SOL     OW 3229   0.130   1.821   9.019
  882SOL    HW1 3230   0.120   1.806   9.118
  882SOL    HW2 3231   0.044   1.857   8.983
  883SOL     OW 3232   0.865   0.348   7.643
  883SOL    HW1 3233   0.924   0.411   7.594
  883SOL    HW2 3234   0.884   0.254   7.614
  884SOL     OW 3235   1.719   0.585   9.279
  884SOL    HW1 3236   1.693   0.674   9.243
  884SOL    HW2 3237   1.717   0.517   9.206
  885SOL     OW 3238   1.362   1.144   7.993
  885SOL    HW1 3239   1.445   1.115   7.945
  885SOL    HW2 3240   1.313   1.211   7.937
  886SOL     OW 3241   0.550   0.196   8.333
  886SOL    HW1 3242   0.545   0.191   8.433
  886SOL    HW2 3243   0.552   0.292   8.304
  887SOL     OW 3244   1.008   1.456   7.925
  887SOL    HW1 3245   0.962   1.528   7.873
  887SOL    HW2 3246   1.004   1.476   8.023
  888SOL     OW 3247   0.351   1.801   8.301
  888SOL    HW1 3248   0.401   1.715   8.307
  888SOL    HW2 3249   0.416   1.878   8.298
  889SOL     OW 3250   1.795   1.066   8.321
  889SOL    HW1 3251   1.733   1.051   8.245
  889SOL    HW2 3252   1.743   1.077   8.406
  890SOL     OW 3253   1.227   1.550   8.954
  890SOL    HW1 3254   1.233   1.473   9.018
  890SOL    HW2 3255   1.175   1.524   8.874
  891SOL     OW 3256   0.321   0.943   7.690
  891SOL    HW1 3257   0.403   0.982   7.648
  891SOL    HW2 3258   0.294   0.861   7.641
  892SOL     OW 3259   1.458   0.735   8.176
  892SOL    HW1 3260   1.453   0.670   8.251
  892SOL    HW2 3261   1.538   0.794   8.189
  893SOL     OW 3262   0.461   1.266   9.175
  893SOL    HW1 3263   0.411   1.267   9.089
  893SOL    HW2 3264   0.398   1.248   9.251
  894SOL     OW 3265   1.111   1.776   7.685
  894SOL    HW1 3266   1.051   1.714   7.735
  894SOL    HW2 3267   1.142   1.732   7.600
  895SOL     OW 3268   0.202   0.285   8.946
  895SOL    HW1 3269   0.122   0.345   8.933
  895SOL    HW2 3270   0.192   0.236   9.032
  896SOL     OW 3271   1.632   1.377   7.529
  896SOL    HW1 3272   1.600   1.471   7.519
  896SOL    HW2 3273   1.556   1.314   7.517
  897SOL     OW 3274   0.464   1.743   7.771
  897SOL    HW1 3275   0.497   1.782   7.857
  897SOL    HW2 3276   0.540   1.736   7.706
  898SOL     OW 3277   1.400   0.107   7.874
  898SOL    HW1 3278   1.376   0.070   7.784
  898SOL    HW2 3279   1.499   0.123   7.878
  899SOL     OW 3280   0.249   1.785   8.689
  899SOL    HW1 3281   0.306   1.720   8.739
  899SOL    HW2 3282   0.233   1.752   8.596
  900SOL     OW 3283   0.940   1.698   8.352
  900SOL    HW1 3284   1.020   1.641   8.373
  900SOL    HW2 3285   0.891   1.658   8.275
  901SOL     OW 3286   0.382   0.700   7.928
  901SOL    HW1 3287   0.427   0.610   7.925
  901SOL    HW2 3288   0.288   0.689   7.961
  902SOL     OW 3289   1.547   0.222   9.177
  902SOL    HW1 3290   1.542   0.259   9.269
  902SOL    HW2 3291   1.475   0.153   9.165
  903SOL     OW 3292   0.614   0.122   7.565
  903SOL    HW1 3293   0.712   0.100   7.572
  903SOL    HW2 3294   0.583   0.105   7.472
  904SOL     OW 3295   0.781   0.264   9.197
  904SOL    HW1 3296   0.848   0.203   9.240
  904SOL    HW2 3297   0.708   0.283   9.262
  905SOL     OW 3298   0.888   1.514   8.643
  905SOL    HW1 3299   0.865   1.489   8.549
  905SOL    HW2 3300   0.949   1.445   8.682
  906SOL     OW 3301   1.351   0.590   8.881
  906SOL    HW1 3302   1.379   0.547   8.966
  906SOL    HW2 3303   1.376   0.686   8.882
  907SOL     OW 3304   0.803   1.402   8.372
  907SOL    HW1 3305   0.893   1.416   8.330
  907SOL    HW2 3306   0.732   1.404   8.301
  908SOL     OW 3307   0.922   0.503   8.347
  908SOL    HW1 3308   0.897   0.494   8.251
  908SOL    HW2 3309   0.970   0.421   8.378
  909SOL     OW 3310   0.539   0.064   7.960
  909SOL    HW1 3311   0.458   0.065   8.018
  909SOL    HW2 3312   0.542   0.147   7.905
  910SOL     OW 3313   1.434   1.188   7.489
  910SOL    HW1 3314   1.466   1.112   7.546
  910SOL    HW2 3315   1.342   1.215   7.519
  911SOL     OW 3316   0.297   0.035   7.619
  911SOL    HW1 3317   0.346   0.119   7.598
  911SOL    HW2 3318   0.359  -0.030   7.664
  912SOL     OW 3319   0.935   0.236   7.928
  912SOL    HW1 3320   0.887   0.277   7.850
  912SOL    HW2 3321   1.034   0.234   7.909
  913SOL     OW 3322   1.076   0.683   8.912
  913SOL    HW1 3323   0.996   0.622   8.915
  913SOL    HW2 3324   1.157   0.630   8.888
  914SOL     OW 3325   1.227   1.570   8.241
  914SOL    HW1 3326   1.248   1.644   8.176
  914SOL    HW2 3327   1.295   1.570   8.314
  915SOL     OW 3328   0.459   1.152   8.189
  915SOL    HW1 3329   0.388   1.125   8.254
  915SOL    HW2 3330   0.433   1.124   8.096
  916SOL     OW 3331   1.271   1.797   8.039
  916SOL    HW1 3332   1.315   1.861   7.975
  916SOL    HW2 3333   1.221   1.849   8.109
  917SOL     OW 3334   1.032   0.549   7.464
  917SOL    HW1 3335   0.991   0.631   7.425
  917SOL    HW2 3336   1.096   0.575   7.537
  918SOL     OW 3337   0.078   0.556   8.834
  918SOL    HW1 3338   0.170   0.555   8.793
  918SOL    HW2 3339   0.072   0.630   8.901
  919SOL     OW 3340   0.561   0.222   8.595
  919SOL    HW1 3341   0.599   0.138   8.632
  919SOL    HW2 3342   0.473   0.241   8.639
  920SOL     OW 3343   0.866   0.454   8.090
  920SOL    HW1 3344   0.834   0.526   8.028
  920SOL    HW2 3345   0.890   0.373   8.037
  921SOL     OW 3346   1.017   0.039   8.201
  921SOL    HW1 3347   0.945   0.044   8.132
  921SOL    HW2 3348   0.993  -0.030   8.270
  922SOL     OW 3349   1.429   1.173   8.315
  922SOL    HW1 3350   1.374   1.089   8.308
  922SOL    HW2 3351   1.455   1.202   8.223
  923SOL     OW 3352   1.466   0.590   8.440
  923SOL    HW1 3353   1.436   0.495   8.447
  923SOL    HW2 3354   1.539   0.606   8.506
  924SOL     OW 3355   1.857   0.833   7.825
  924SOL    HW1 3356   1.899   0.769   7.889
  924SOL    HW2 3357   1.819   0.782   7.747
  925SOL     OW 3358   0.488   1.385   7.622
  925SOL    HW1 3359   0.401   1.370   7.669
  925SOL    HW2 3360   0.471   1.411   7.527
  926SOL     OW 3361   1.664   1.280   8.105
  926SOL    HW1 3362   1.763   1.288   8.119
  926SOL    HW2 3363   1.619   1.364   8.136
  927SOL     OW 3364   1.390   0.575   7.526
  927SOL    HW1 3365   1.336   0.554   7.607
  927SOL    HW2 3366   1.481   0.534   7.535
  928SOL     OW 3367   0.527   0.256   7.776
  928SOL    HW1 3368   0.554   0.197   7.701
  928SOL    HW2 3369   0.527   0.351   7.745
  929SOL     OW 3370   1.754   1.223   9.036
  929SOL    HW1 3371   1.845   1.184   9.023
  929SOL    HW2 3372   1.762   1.319   9.060
  930SOL     OW 3373   1.064   1.347   8.788
  930SOL    HW1 3374   0.984   1.324   8.843
  930SOL    HW2 3375   1.147   1.321   8.837
  931SOL     OW 3376   1.592   1.629   9.073
  931SOL    HW1 3377   1.619   1.663   8.983
  931SOL    HW2 3378   1.671   1.591   9.119
  932SOL     OW 3379   1.111   1.195   8.548
  932SOL    HW1 3380   1.071   1.239   8.629
  932SOL    HW2 3381   1.070   1.232   8.465
  933SOL     OW 3382   1.638   1.099   8.527
  933SOL    HW1 3383   1.643   1.180   8.586
  933SOL    HW2 3384   1.552   1.101   8.476
  934SOL     OW 3385   0.915   0.089   8.850
  934SOL    HW1 3386   0.940   0.069   8.755
  934SOL    HW2 3387   0.987   0.145   8.892
  935SOL     OW 3388   0.980   1.116   9.167
  935SOL    HW1 3389   0.881   1.122   9.177
  935SOL    HW2 3390   1.003   1.036   9.111
  936SOL     OW 3391   0.705   1.050   7.816
  936SOL    HW1 3392   0.691   1.057   7.915
  936SOL    HW2 3393   0.789   0.999   7.798
  937SOL     OW 3394   0.410   0.813   8.699
  937SOL    HW1 3395   0.496   0.825   8.749
  937SOL    HW2 3396   0.368   0.726   8.726
  938SOL     OW 3397   1.274   0.386   8.710
  938SOL    HW1 3398   1.295   0.460   8.774
  938SOL    HW2 3399   1.185   0.403   8.667
  939SOL     OW 3400   0.064   1.564   8.779
  939SOL    HW1 3401   0.018   1.646   8.745
  939SOL    HW2 3402   0.162   1.583   8.788
  940SOL     OW 3403   0.367   1.100   7.949
  940SOL    HW1 3404   0.360   1.183   7.893
  940SOL    HW2 3405   0.371   1.020   7.889
  941SOL     OW 3406   0.566   0.537   8.313
  941SOL    HW1 3407   0.578   0.603   8.239
  941SOL    HW2 3408   0.612   0.571   8.396
  942SOL     OW 3409   1.252   1.348   7.836
  942SOL    HW1 3410   1.302   1.425   7.876
  942SOL    HW2 3411   1.157   1.350   7.868
  943SOL     OW 3412   1.272   1.445   8.590
  943SOL    HW1 3413   1.319   1.458   8.677
  943SOL    HW2 3414   1.206   1.371   8.599
  944SOL     OW 3415   1.582   0.639   7.920
  944SOL    HW1 3416   1.551   0.700   7.993
  944SOL    HW2 3417   1.632   0.691   7.851
  945SOL     OW 3418   0.354   1.510   8.777
  945SOL    HW1 3419   0.333   1.466   8.690
  945SOL    HW2 3420   0.451   1.536   8.780
  946SOL     OW 3421   0.402   0.751   9.046
  946SOL    HW1 3422   0.470   0.806   8.999
  946SOL    HW2 3423   0.442   0.663   9.073
  947SOL     OW 3424   1.587   0.779   9.118
  947SOL    HW1 3425   1.495   0.817   9.113
  947SOL    HW2 3426   1.647   0.826   9.053
  948SOL     OW 3427   1.013   0.105   9.218
  948SOL    HW1 3428   1.019   0.190   9.166
  948SOL    HW2 3429   1.045   0.029   9.161
  949SOL     OW 3430   0.504   0.050   9.188
  949SOL    HW1 3431   0.462  -0.007   9.118
  949SOL    HW2 3432   0.438   0.119   9.220
  950SOL     OW 3433   0.573   0.870   8.477
  950SOL    HW1 3434   0.617   0.959   8.468
  950SOL    HW2 3435   0.510   0.870   8.554
  951SOL     OW 3436   1.360   0.862   8.493
  951SOL    HW1 3437   1.285   0.862   8.427
  951SOL    HW2 3438   1.397   0.770   8.502
  952SOL     OW 3439   1.209   0.525   7.723
  952SOL    HW1 3440   1.222   0.441   7.777
  952SOL    HW2 3441   1.180   0.599   7.783
  953SOL     OW 3442   0.307   0.213   8.679
  953SOL    HW1 3443   0.284   0.250   8.769
  953SOL    HW2 3444   0.277   0.118   8.673
  954SOL     OW 3445   0.037   1.310   8.730
  954SOL    HW1 3446   0.090   1.261   8.798
  954SOL    HW2 3447   0.059   1.408   8.735
  955SOL     OW 3448   0.732   0.634   8.512
  955SOL    HW1 3449   0.791   0.608   8.436
  955SOL    HW2 3450   0.704   0.730   8.501
  956SOL     OW 3451   1.728   0.935   9.302
  956SOL    HW1 3452   1.682   0.928   9.213
  956SOL    HW2 3453   1.666   0.979   9.368
  957SOL     OW 3454   0.307   0.063   8.066
  957SOL    HW1 3455   0.296   0.157   8.099
  957SOL    HW2 3456   0.302   0.000   8.143
  958SOL     OW 3457   1.622   0.367   7.822
  958SOL    HW1 3458   1.624   0.291   7.886
  958SOL    HW2 3459   1.574   0.444   7.862
  959SOL     OW 3460   1.023   0.766   8.414
  959SOL    HW1 3461   1.038   0.787   8.510
  959SOL    HW2 3462   0.993   0.671   8.405
  960SOL     OW 3463   0.980   1.573   9.148
  960SOL    HW1 3464   0.960   1.617   9.060
  960SOL    HW2 3465   1.019   1.482   9.132
  961SOL     OW 3466   1.859   1.518   9.053
  961SOL    HW1 3467   1.873   1.545   8.958
  961SOL    HW2 3468   1.942   1.540   9.106
  962SOL     OW 3469   0.350   0.898   9.252
  962SOL    HW1 3470   0.426   0.942   9.300
  962SOL    HW2 3471   0.385   0.851   9.170
  963SOL     OW 3472   1.540   0.274   7.573
  963SOL    HW1 3473   1.479   0.199   7.596
  963SOL    HW2 3474   1.562   0.326   7.656
  964SOL     OW 3475   1.303   0.838   7.490
  964SOL    HW1 3476   1.337   0.745   7.505
  964SOL    HW2 3477   1.321   0.865   7.395
  965SOL     OW 3478   1.068   1.333   8.297
  965SOL    HW1 3479   1.075   1.249   8.242
  965SOL    HW2 3480   1.130   1.402   8.261
  966SOL     OW 3481   0.319   0.810   8.397
  966SOL    HW1 3482   0.412   0.846   8.402
  966SOL    HW2 3483   0.313   0.725   8.449
  967SOL     OW 3484   0.339   0.509   8.454
  967SOL    HW1 3485   0.287   0.426   8.437
  967SOL    HW2 3486   0.416   0.514   8.390
  968SOL     OW 3487   1.138   0.380   9.126
  968SOL    HW1 3488   1.093   0.443   9.190
  968SOL    HW2 3489   1.231   0.411   9.109
  969SOL     OW 3490   1.160   0.207   8.925
  969SOL    HW1 3491   1.160   0.271   9.002
  969SOL    HW2 3492   1.188   0.255   8.842
  970SOL     OW 3493   0.008   1.326   7.648
  970SOL    HW1 3494  -0.085   1.347   7.617
  970SOL    HW2 3495   0.018   1.227   7.661
  971SOL     OW 3496   0.088   1.801   8.375
  971SOL    HW1 3497   0.046   1.715   8.348
  971SOL    HW2 3498   0.182   1.804   8.341
  972SOL     OW 3499   0.504   1.568   8.358
  972SOL    HW1 3500   0.570   1.642   8.367
  972SOL    HW2 3501   0.548   1.489   8.316
  973SOL     OW 3502   1.002   0.796   8.686
  973SOL    HW1 3503   1.043   0.764   8.772
  973SOL    HW2 3504   0.906   0.769   8.683
  974SOL     OW 3505   0.040   0.544   8.562
  974SOL    HW1 3506   0.125   0.511   8.521
  974SOL    HW2 3507   0.053   0.559   8.660
  975SOL     OW 3508   0.189   0.520   9.170
  975SOL    HW1 3509   0.248   0.480   9.100
  975SOL    HW2 3510   0.131   0.591   9.129
  976SOL     OW 3511   1.369   0.950   9.108
  976SOL    HW1 3512   1.408   1.039   9.128
  976SOL    HW2 3513   1.379   0.930   9.011
  977SOL     OW 3514   0.815   0.572   7.773
  977SOL    HW1 3515   0.822   0.483   7.727
  977SOL    HW2 3516   0.721   0.606   7.765
  978SOL     OW 3517   1.657   0.604   8.654
  978SOL    HW1 3518   1.619   0.535   8.716
  978SOL    HW2 3519   1.739   0.568   8.610
  979SOL     OW 3520   0.252   1.564   9.192
  979SOL    HW1 3521   0.222   1.621   9.268
  979SOL    HW2 3522   0.245   1.467   9.218
  980SOL     OW 3523   0.671   0.464   8.717
  980SOL    HW1 3524   0.637   0.375   8.687
  980SOL    HW2 3525   0.697   0.518   8.637
  981SOL     OW 3526   0.930   1.678   8.913
  981SOL    HW1 3527   0.906   1.660   8.818
  981SOL    HW2 3528   0.960   1.772   8.923
  982SOL     OW 3529   0.473   0.500   7.639
  982SOL    HW1 3530   0.534   0.580   7.643
  982SOL    HW2 3531   0.378   0.531   7.646
  983SOL     OW 3532   0.159   1.137   8.914
  983SOL    HW1 3533   0.181   1.076   8.990
  983SOL    HW2 3534   0.169   1.088   8.828
  984SOL     OW 3535   1.347   1.059   8.682
  984SOL    HW1 3536   1.371   0.996   8.608
  984SOL    HW2 3537   1.257   1.099   8.664
  985SOL     OW 3538   1.302   0.855   7.757
  985SOL    HW1 3539   1.216   0.824   7.799
  985SOL    HW2 3540   1.298   0.841   7.658
  986SOL     OW 3541   1.759   1.747   8.602
  986SOL    HW1 3542   1.820   1.777   8.529
  986SOL    HW2 3543   1.721   1.658   8.580
  987SOL     OW 3544   1.252   1.731   8.576
  987SOL    HW1 3545   1.336   1.736   8.522
  987SOL    HW2 3546   1.229   1.635   8.594
  988SOL     OW 3547   0.083   1.258   8.470
  988SOL    HW1 3548   0.078   1.257   8.570
  988SOL    HW2 3549   0.000   1.217   8.432
  989SOL     OW 3550   0.688   1.662   9.164
  989SOL    HW1 3551   0.632   1.743   9.173
  989SOL    HW2 3552   0.740   1.666   9.078
  990SOL     OW 3553   1.726   0.135   7.971
  990SOL    HW1 3554   1.799   0.118   7.904
  990SOL    HW2 3555   1.695   0.048   8.009
  991SOL     OW 3556   1.388   1.573   7.925
  991SOL    HW1 3557   1.455   1.585   7.851
  991SOL    HW2 3558   1.348   1.662   7.948
  992SOL     OW 3559   0.130   1.794   9.299
  992SOL    HW1 3560   0.089   1.720   9.352
  992SOL    HW2 3561   0.194   1.845   9.357
  993SOL     OW 3562   1.280   0.927   8.120
  993SOL    HW1 3563   1.340   0.846   8.122
  993SOL    HW2 3564   1.320   0.996   8.060
  994SOL     OW 3565   0.830   1.273   8.870
  994SOL    HW1 3566   0.825   1.306   8.965
  994SOL    HW2 3567   0.744   1.292   8.824
  995SOL     OW 3568   0.672   1.616   7.602
  995SOL    HW1 3569   0.681   1.626   7.503
  995SOL    HW2 3570   0.632   1.527   7.623
  996SOL     OW 3571   1.650   1.720   8.842
  996SOL    HW1 3572   1.703   1.730   8.758
  996SOL    HW2 3573   1.623   1.810   8.876
  997SOL     OW 3574   1.841   0.175   8.411
  997SOL    HW1 3575   1.880   0.090   8.375
  997SOL    HW2 3576   1.743   0.177   8.392
  998SOL     OW 3577   0.263   0.326   8.168
  998SOL    HW1 3578   0.184   0.377   8.134
  998SOL    HW2 3579   0.254   0.311   8.266
  999SOL     OW 3580   1.194   1.612   7.479
  999SOL    HW1 3581   1.200   1.519   7.516
  999SOL    HW2 3582   1.135   1.612   7.399
 1000SOL     OW 3583   0.822   1.002   8.820
 1000SOL    HW1 3584   0.862   1.001   8.728
 1000SOL    HW2 3585   0.832   1.094   8.860
 1001SOL     OW 3586   0.916   0.910   7.739
 1001SOL    HW1 3587   0.979   0.948   7.671
 1001SOL    HW2 3588   0.956   0.827   7.778
 1002SOL     OW 3589   0.372   1.288   8.938
 1002SOL    HW1 3590   0.359   1.381   8.904
 1002SOL    HW2 3591   0.288   1.236   8.925
 1003SOL     OW 3592   1.614   1.292   8.737
 1003SOL    HW1 3593   1.674   1.295   8.817
 1003SOL    HW2 3594   1.539   1.356   8.750
 1004SOL     OW 3595   1.039   1.098   8.144
 1004SOL    HW1 3596   0.969   1.051   8.198
 1004SOL    HW2 3597   1.098   1.030   8.101
 1005SOL     OW 3598   1.014   0.236   8.419
 1005SOL    HW1 3599   1.006   0.200   8.326
 1005SOL    HW2 3600   1.012   0.160   8.484
 1006SOL     OW 3601   0.590   1.487   7.939
 1006SOL    HW1 3602   0.632   1.429   7.869
 1006SOL    HW2 3603   0.546   1.566   7.895
 1007SOL     OW 3604   1.709   0.385   8.829
 1007SOL    HW1 3605   1.782   0.454   8.833
 1007SOL    HW2 3606   1.737   0.310   8.770
 1008SOL     OW 3607   0.255   1.348   7.738
 1008SOL    HW1 3608   0.159   1.349   7.711
 1008SOL    HW2 3609   0.267   1.401   7.822
 1009SOL     OW 3610   0.105   1.013   9.174
 1009SOL    HW1 3611   0.028   0.980   9.228
 1009SOL    HW2 3612   0.190   0.983   9.216
 1010SOL     OW 3613   0.672   0.203   8.937
 1010SOL    HW1 3614   0.762   0.187   8.897
 1010SOL    HW2 3615   0.680   0.208   9.036
 1011SOL     OW 3616   0.075   0.345   7.481
 1011SOL    HW1 3617  -0.017   0.317   7.452
 1011SOL    HW2 3618   0.106   0.422   7.425
 1012SOL     OW 3619   1.440   0.856   8.846
 1012SOL    HW1 3620   1.383   0.908   8.783
 1012SOL    HW2 3621   1.536   0.868   8.822
 1013SOL     OW 3622   0.072   0.166   7.766
 1013SOL    HW1 3623   0.055   0.249   7.712
 1013SOL    HW2 3624   0.162   0.129   7.744
 1014SOL     OW 3625   1.183   1.335   7.567
 1014SOL    HW1 3626   1.084   1.324   7.569
 1014SOL    HW2 3627   1.217   1.350   7.660
 1015SOL     OW 3628   0.613   0.842   8.879
 1015SOL    HW1 3629   0.669   0.923   8.862
 1015SOL    HW2 3630   0.672   0.762   8.882
 1016SOL     OW 3631   1.493   1.767   8.407
 1016SOL    HW1 3632   1.526   1.831   8.338
 1016SOL    HW2 3633   1.559   1.761   8.482
 1017SOL     OW 3634   0.716   0.565   9.156
 1017SOL    HW1 3635   0.735   0.630   9.230
 1017SOL    HW2 3636   0.776   0.485   9.165
 1018SOL     OW 3637   1.450   1.220   9.081
 1018SOL    HW1 3638   1.441   1.210   9.180
 1018SOL    HW2 3639   1.546   1.213   9.055
 1019SOL     OW 3640   0.390   1.741   9.008
 1019SOL    HW1 3641   0.299   1.782   9.006
 1019SOL    HW2 3642   0.383   1.647   9.040
 1020SOL     OW 3643   1.674   0.883   8.702
 1020SOL    HW1 3644   1.647   0.794   8.665
 1020SOL    HW2 3645   1.675   0.951   8.629
 1021SOL     OW 3646   1.225   0.325   7.897
 1021SOL    HW1 3647   1.290   0.251   7.886
 1021SOL    HW2 3648   1.245   0.375   7.981
 1022SOL     OW 3649   0.594   0.745   8.100
 1022SOL    HW1 3650   0.644   0.830   8.081
 1022SOL    HW2 3651   0.506   0.747   8.052
 1023SOL     OW 3652   1.777   0.342   9.090
 1023SOL    HW1 3653   1.760   0.373   8.996
 1023SOL    HW2 3654   1.693   0.305   9.128
 1024SOL     OW 3655   1.730   0.934   8.965
 1024SOL    HW1 3656   1.768   1.025   8.980
 1024SOL    HW2 3657   1.722   0.917   8.866
 1025SOL     OW 3658   0.859   1.374   7.464
 1025SOL    HW1 3659   0.813   1.389   7.552
 1025SOL    HW2 3660   0.903   1.459   7.434
 1026SOL     OW 3661   0.661   1.790   8.401
 1026SOL    HW1 3662   0.615   1.878   8.388
 1026SOL    HW2 3663   0.760   1.802   8.394
 1027SOL     OW 3664   0.859   0.956   8.309
 1027SOL    HW1 3665   0.913   0.887   8.357
 1027SOL    HW2 3666   0.827   1.025   8.375
 1028SOL     OW 3667   1.083   0.984   7.535
 1028SOL    HW1 3668   1.060   1.037   7.453
 1028SOL    HW2 3669   1.164   0.928   7.516
 1029SOL     OW 3670   1.861   1.569   8.299
 1029SOL    HW1 3671   1.790   1.557   8.229
 1029SOL    HW2 3672   1.862   1.490   8.359
 1030SOL     OW 3673   0.221   1.314   9.292
 1030SOL    HW1 3674   0.156   1.241   9.271
 1030SOL    HW2 3675   0.225   1.328   9.390
 1031SOL     OW 3676   0.079   1.240   8.101
 1031SOL    HW1 3677   0.078   1.193   8.189
 1031SOL    HW2 3678   0.161   1.212   8.050
 1032SOL     OW 3679   0.672   1.391   9.072
 1032SOL    HW1 3680   0.594   1.341   9.110
 1032SOL    HW2 3681   0.669   1.486   9.103
 1033SOL     OW 3682   1.824   0.192   8.675
 1033SOL    HW1 3683   1.820   0.102   8.719
 1033SOL    HW2 3684   1.827   0.181   8.576
 1034SOL     OW 3685   0.428   0.424   7.968
 1034SOL    HW1 3686   0.458   0.352   7.906
 1034SOL    HW2 3687   0.389   0.384   8.051
 1035SOL     OW 3688   1.705   1.487   8.552
 1035SOL    HW1 3689   1.612   1.462   8.525
 1035SOL    HW2 3690   1.731   1.437   8.634
 1036SOL     OW 3691   0.317   0.547   8.728
 1036SOL    HW1 3692   0.355   0.488   8.800
 1036SOL    HW2 3693   0.357   0.521   8.640
 1037SOL     OW 3694   0.812   1.586   8.135
 1037SOL    HW1 3695   0.844   1.596   8.041
 1037SOL    HW2 3696   0.733   1.524   8.137
 1038SOL     OW 3697   1.424   0.214   8.560
 1038SOL    HW1 3698   1.476   0.149   8.615
 1038SOL    HW2 3699   1.375   0.277   8.621
 1039SOL     OW 3700   1.001   0.034   8.602
 1039SOL    HW1 3701   0.938  -0.038   8.571
 1039SOL    HW2 3702   1.094  -0.002   8.602
 1040SOL     OW 3703   0.770   1.330   7.749
 1040SOL    HW1 3704   0.724   1.243   7.766
 1040SOL    HW2 3705   0.861   1.327   7.790
 1041SOL     OW 3706   0.618   1.567   8.732
 1041SOL    HW1 3707   0.613   1.649   8.789
 1041SOL    HW2 3708   0.707   1.564   8.687
 1042SOL     OW 3709   1.352   0.052   7.616
 1042SOL    HW1 3710   1.387   0.011   7.532
 1042SOL    HW2 3711   1.262   0.014   7.636
 1043SOL     OW 3712   1.300   0.453   8.139
 1043SOL    HW1 3713   1.241   0.533   8.143
 1043SOL    HW2 3714   1.315   0.418   8.232
 1044SOL     OW 3715   1.593   0.221   8.330
 1044SOL    HW1 3716   1.509   0.220   8.384
 1044SOL    HW2 3717   1.595   0.304   8.274
 1045SOL     OW 3718   0.039   1.077   7.748
 1045SOL    HW1 3719   0.138   1.066   7.739
 1045SOL    HW2 3720  -0.001   0.991   7.780
 1046SOL     OW 3721   0.875   1.646   7.785
 1046SOL    HW1 3722   0.798   1.611   7.731
 1046SOL    HW2 3723   0.843   1.717   7.847
 1047SOL     OW 3724   0.230   0.628   9.423
 1047SOL    HW1 3725   0.137   0.626   9.460
 1047SOL    HW2 3726   0.231   0.589   9.331
 1048SOL     OW 3727   0.225   0.275  10.306
 1048SOL    HW1 3728   0.260   0.258  10.398
 1048SOL    HW2 3729   0.137   0.230  10.294
 1049SOL     OW 3730   0.019   0.368   9.957
 1049SOL    HW1 3731  -0.063   0.411   9.996
 1049SOL    HW2 3732  -0.009   0.295   9.894
 1050SOL     OW 3733   0.569   1.275  10.475
 1050SOL    HW1 3734   0.476   1.268  10.438
 1050SOL    HW2 3735   0.580   1.364  10.519
 1051SOL     OW 3736   1.555   1.511  10.013
 1051SOL    HW1 3737   1.498   1.495  10.094
 1051SOL    HW2 3738   1.496   1.521   9.933
 1052SOL     OW 3739   1.135   0.703  10.027
 1052SOL    HW1 3740   1.192   0.781  10.002
 1052SOL    HW2 3741   1.075   0.729  10.103
 1053SOL     OW 3742   1.755   0.607   9.541
 1053SOL    HW1 3743   1.743   0.594   9.442
 1053SOL    HW2 3744   1.725   0.526   9.590
 1054SOL     OW 3745   0.768   1.144  10.333
 1054SOL    HW1 3746   0.690   1.161  10.393
 1054SOL    HW2 3747   0.802   1.231  10.297
 1055SOL     OW 3748   0.850   0.798  11.133
 1055SOL    HW1 3749   0.846   0.874  11.198
 1055SOL    HW2 3750   0.872   0.834  11.042
 1056SOL     OW 3751   0.685   1.012   9.975
 1056SOL    HW1 3752   0.754   0.996  10.045
 1056SOL    HW2 3753   0.612   1.069  10.013
 1057SOL     OW 3754   0.686   1.161  11.113
 1057SOL    HW1 3755   0.746   1.240  11.127
 1057SOL    HW2 3756   0.600   1.192  11.072
 1058SOL     OW 3757   0.335   1.435  10.371
 1058SOL    HW1 3758   0.257   1.404  10.318
 1058SOL    HW2 3759   0.393   1.493  10.314
 1059SOL     OW 3760   1.460   1.505  10.649
 1059SOL    HW1 3761   1.484   1.599  10.675
 1059SOL    HW2 3762   1.444   1.451  10.731
 1060SOL     OW 3763   0.438   0.392  10.809
 1060SOL    HW1 3764   0.520   0.336  10.818
 1060SOL    HW2 3765   0.357   0.334  10.813
 1061SOL     OW 3766   1.603   0.447  10.047
 1061SOL    HW1 3767   1.529   0.493   9.997
 1061SOL    HW2 3768   1.654   0.515  10.100
 1062SOL     OW 3769   0.231   1.713   9.793
 1062SOL    HW1 3770   0.265   1.790   9.847
 1062SOL    HW2 3771   0.275   1.713   9.703
 1063SOL     OW 3772   1.127   1.341  11.000
 1063SOL    HW1 3773   1.174   1.341  11.088
 1063SOL    HW2 3774   1.079   1.254  10.989
 1064SOL     OW 3775   0.230   1.434   9.848
 1064SOL    HW1 3776   0.204   1.530   9.848
 1064SOL    HW2 3777   0.159   1.380   9.893
 1065SOL     OW 3778   0.240   1.091  10.196
 1065SOL    HW1 3779   0.254   1.007  10.248
 1065SOL    HW2 3780   0.185   1.155  10.251
 1066SOL     OW 3781   0.620   1.786  10.749
 1066SOL    HW1 3782   0.528   1.769  10.784
 1066SOL    HW2 3783   0.648   1.878  10.775
 1067SOL     OW 3784   0.606   0.964   9.433
 1067SOL    HW1 3785   0.613   1.048   9.379
 1067SOL    HW2 3786   0.652   0.977   9.521
 1068SOL     OW 3787   1.594   0.114  10.790
 1068SOL    HW1 3788   1.576   0.181  10.718
 1068SOL    HW2 3789   1.591   0.160  10.879
 1069SOL     OW 3790   0.122   0.643   9.873
 1069SOL    HW1 3791   0.077   0.555   9.890
 1069SOL    HW2 3792   0.121   0.697   9.957
 1070SOL     OW 3793   0.027   1.596   9.427
 1070SOL    HW1 3794   0.008   1.500   9.448
 1070SOL    HW2 3795  -0.006   1.654   9.502
 1071SOL     OW 3796   1.689   0.922   9.922
 1071SOL    HW1 3797   1.784   0.893   9.930
 1071SOL    HW2 3798   1.681   0.987   9.847
 1072SOL     OW 3799   1.641   1.108   9.742
 1072SOL    HW1 3800   1.727   1.110   9.690
 1072SOL    HW2 3801   1.655   1.155   9.830
 1073SOL     OW 3802   0.113   0.737  10.907
 1073SOL    HW1 3803   0.201   0.724  10.952
 1073SOL    HW2 3804   0.100   0.834  10.885
 1074SOL     OW 3805   0.613   1.365  10.036
 1074SOL    HW1 3806   0.564   1.278  10.045
 1074SOL    HW2 3807   0.590   1.408   9.949
 1075SOL     OW 3808   1.293   1.228  10.733
 1075SOL    HW1 3809   1.330   1.155  10.675
 1075SOL    HW2 3810   1.345   1.233  10.818
 1076SOL     OW 3811   0.809   0.004   9.812
 1076SOL    HW1 3812   0.849   0.095   9.803
 1076SOL    HW2 3813   0.709   0.012   9.818
 1077SOL     OW 3814   0.197   0.976  10.574
 1077SOL    HW1 3815   0.286   0.931  10.560
 1077SOL    HW2 3816   0.124   0.911  10.555
 1078SOL     OW 3817   1.525   0.999   9.500
 1078SOL    HW1 3818   1.462   0.923   9.513
 1078SOL    HW2 3819   1.573   1.017   9.586
 1079SOL     OW 3820   1.187   1.792  10.926
 1079SOL    HW1 3821   1.211   1.852  10.850
 1079SOL    HW2 3822   1.194   1.697  10.896
 1080SOL     OW 3823   0.317   0.251  11.111
 1080SOL    HW1 3824   0.388   0.322  11.117
 1080SOL    HW2 3825   0.229   0.290  11.139
 1081SOL     OW 3826   1.466   1.417  10.263
 1081SOL    HW1 3827   1.407   1.423  10.343
 1081SOL    HW2 3828   1.451   1.329  10.217
 1082SOL     OW 3829   1.667   1.714   9.882
 1082SOL    HW1 3830   1.626   1.691   9.794
 1082SOL    HW2 3831   1.649   1.640   9.947
 1083SOL     OW 3832   0.598   0.729   9.580
 1083SOL    HW1 3833   0.622   0.798   9.512
 1083SOL    HW2 3834   0.520   0.762   9.634
 1084SOL     OW 3835   1.281   0.345  10.254
 1084SOL    HW1 3836   1.195   0.295  10.241
 1084SOL    HW2 3837   1.343   0.291  10.310
 1085SOL     OW 3838   1.576   1.662   9.617
 1085SOL    HW1 3839   1.665   1.708   9.620
 1085SOL    HW2 3840   1.555   1.638   9.522
 1086SOL     OW 3841   0.807   0.605  10.775
 1086SOL    HW1 3842   0.760   0.602  10.864
 1086SOL    HW2 3843   0.756   0.550  10.709
 1087SOL     OW 3844   1.394   0.469  10.984
 1087SOL    HW1 3845   1.374   0.512  11.072
 1087SOL    HW2 3846   1.472   0.407  10.993
 1088SOL     OW 3847   0.973   0.890  10.882
 1088SOL    HW1 3848   1.019   0.806  10.853
 1088SOL    HW2 3849   0.917   0.924  10.807
 1089SOL     OW 3850   0.991   0.410  10.552
 1089SOL    HW1 3851   0.914   0.444  10.606
 1089SOL    HW2 3852   0.957   0.359  10.473
 1090SOL     OW 3853   1.041   0.701   9.739
 1090SOL    HW1 3854   1.067   0.697   9.835
 1090SOL    HW2 3855   0.956   0.650   9.725
 1091SOL     OW 3856   0.076   0.811  10.099
 1091SOL    HW1 3857   0.175   0.799  10.108
 1091SOL    HW2 3858   0.052   0.906  10.120
 1092SOL     OW 3859   0.130   1.821  10.881
 1092SOL    HW1 3860   0.120   1.806  10.980
 1092SOL    HW2 3861   0.044   1.857  10.845
 1093SOL     OW 3862   0.865   0.348   9.505
 1093SOL    HW1 3863   0.924   0.411   9.456
 1093SOL    HW2 3864   0.884   0.254   9.476
 1094SOL     OW 3865   1.719   0.585  11.141
 1094SOL    HW1 3866   1.693   0.674  11.105
 1094SOL    HW2 3867   1.717   0.517  11.068
 1095SOL     OW 3868   1.362   1.144   9.855
 1095SOL    HW1 3869   1.445   1.115   9.807
 1095SOL    HW2 3870   1.313   1.211   9.799
 1096SOL     OW 3871   0.550   0.196  10.195
 1096SOL    HW1 3872   0.545   0.191  10.295
 1096SOL    HW2 3873   0.552   0.292  10.166
 1097SOL     OW 3874   1.008   1.456   9.787
 1097SOL    HW1 3875   0.962   1.528   9.735
 1097SOL    HW2 3876   1.004   1.476   9.885
 1098SOL     OW 3877   0.351   1.801  10.163
 1098SOL    HW1 3878   0.401   1.715  10.169
 1098SOL    HW2 3879   0.416   1.878  10.160
 1099SOL     OW 3880   1.795   1.066  10.183
 1099SOL    HW1 3881   1.733   1.051  10.107
 1099SOL    HW2 3882   1.743   1.077  10.268
 1100SOL     OW 3883   1.227   1.550  10.816
 1100SOL    HW1 3884   1.233   1.473  10.880
 1100SOL    HW2 3885   1.175   1.524  10.736
 1101SOL     OW 3886   0.321   0.943   9.552
 1101SOL    HW1 3887   0.403   0.982   9.510
 1101SOL    HW2 3888   0.294   0.861   9.503
 1102SOL     OW 3889   1.458   0.735  10.038
 1102SOL    HW1 3890   1.453   0.670  10.113
 1102SOL    HW2 3891   1.538   0.794  10.051
 1103SOL     OW 3892   0.461   1.266  11.037
 1103SOL    HW1 3893   0.411   1.267  10.951
 1103SOL    HW2 3894   0.398   1.248  11.113
 1104SOL     OW 3895   1.111   1.776   9.547
 1104SOL    HW1 3896   1.051   1.714   9.597
 1104SOL    HW2 3897   1.142   1.732   9.462
 1105SOL     OW 3898   0.202   0.285  10.808
 1105SOL    HW1 3899   0.122   0.345  10.795
 1105SOL    HW2 3900   0.192   0.236  10.894
 1106SOL     OW 3901   1.632   1.377   9.391
 1106SOL    HW1 3902   1.600   1.471   9.381
 1106SOL    HW2 3903   1.556   1.314   9.379
 1107SOL     OW 3904   0.464   1.743   9.633
 1107SOL    HW1 3905   0.497   1.782   9.719
 1107SOL    HW2 3906   0.540   1.736   9.568
 1108SOL     OW 3907   1.400   0.107   9.736
 1108SOL    HW1 3908   1.376   0.070   9.646
 1108SOL    HW2 3909   1.499   0.123   9.740
 1109SOL     OW 3910   0.249   1.785  10.551
 1109SOL    HW1 3911   0.306   1.720  10.601
 1109SOL    HW2 3912   0.233   1.752  10.458
 1110SOL     OW 3913   0.940   1.698  10.214
 1110SOL    HW1 3914   1.020   1.641  10.235
 1110SOL    HW2 3915   0.891   1.658  10.137
 1111SOL     OW 3916   0.382   0.700   9.790
 1111SOL    HW1 3917   0.427   0.610   9.787
 1111SOL    HW2 3918   0.288   0.689   9.823
 1112SOL     OW 3919   1.547   0.222  11.039
 1112SOL    HW1 3920   1.542   0.259  11.131
 1112SOL    HW2 3921   1.475   0.153  11.027
 1113SOL     OW 3922   0.614   0.122   9.427
 1113SOL    HW1 3923   0.712   0.100   9.434
 1113SOL    HW2 3924   0.583   0.105   9.334
 1114SOL     OW 3925   0.781   0.264  11.059
 1114SOL    HW1 3926   0.848   0.203  11.102
 1114SOL    HW2 3927   0.708   0.283  11.124
 1115SOL     OW 3928   0.888   1.514  10.505
 1115SOL    HW1 3929   0.865   1.489  10.411
 1115SOL    HW2 3930   0.949   1.445  10.544
 1116SOL     OW 3931   1.351   0.590  10.743
 1116SOL    HW1 3932   1.379   0.547  10.828
 1116SOL    HW2 3933   1.376   0.686  10.744
 1117SOL     OW 3934   0.803   1.402  10.234
 1117SOL    HW1 3935   0.893   1.416  10.192
 1117SOL    HW2 3936   0.732   1.404  10.163
 1118SOL     OW 3937   0.922   0.503  10.209
 1118SOL    HW1 3938   0.897   0.494  10.113
 1118SOL    HW2 3939   0.970   0.421  10.240
 1119SOL     OW 3940   0.539   0.064   9.822
 1119SOL    HW1 3941   0.458   0.065   9.880
 1119SOL    HW2 3942   0.542   0.147   9.767
 1120SOL     OW 3943   1.434   1.188   9.351
 1120SOL    HW1 3944   1.466   1.112   9.408
 1120SOL    HW2 3945   1.342   1.215   9.381
 1121SOL     OW 3946   0.297   0.035   9.481
 1121SOL    HW1 3947   0.346   0.119   9.460
 1121SOL    HW2 3948   0.359  -0.030   9.526
 1122SOL     OW 3949   0.935   0.236   9.790
 1122SOL    HW1 3950   0.887   0.277   9.712
 1122SOL    HW2 3951   1.034   0.234   9.771
 1123SOL     OW 3952   1.076   0.683  10.774
 1123SOL    HW1 3953   0.996   0.622  10.777
 1123SOL    HW2 3954   1.157   0.630  10.750
 1124SOL     OW 3955   1.227   1.570  10.103
 1124SOL    HW1 3956   1.248   1.644  10.038
 1124SOL    HW2 3957   1.295   1.570  10.176
 1125SOL     OW 3958   0.459   1.152  10.051
 1125SOL    HW1 3959   0.388   1.125  10.116
 1125SOL    HW2 3960   0.433   1.124   9.958
 1126SOL     OW 3961   1.271   1.797   9.901
 1126SOL    HW1 3962   1.315   1.861   9.837
 1126SOL    HW2 3963   1.221   1.849   9.971
 1127SOL     OW 3964   1.032   0.549   9.326
 1127SOL    HW1 3965   0.991   0.631   9.287
 1127SOL    HW2 3966   1.096   0.575   9.399
 1128SOL     OW 3967   0.078   0.556  10.696
 1128SOL    HW1 3968   0.170   0.555  10.655
 1128SOL    HW2 3969   0.072   0.630  10.763
 1129SOL     OW 3970   0.561   0.222  10.457
 1129SOL    HW1 3971   0.599   0.138  10.494
 1129SOL    HW2 3972   0.473   0.241  10.501
 1130SOL     OW 3973   0.866   0.454   9.952
 1130SOL    HW1 3974   0.834   0.526   9.890
 1130SOL    HW2 3975   0.890   0.373   9.899
 1131SOL     OW 3976   1.017   0.039  10.063
 1131SOL    HW1 3977   0.945   0.044   9.994
 1131SOL    HW2 3978   0.993  -0.030  10.132
 1132SOL     OW 3979   1.429   1.173  10.177
 1132SOL    HW1 3980   1.374   1.089  10.170
 1132SOL    HW2 3981   1.455   1.202  10.085
 1133SOL     OW 3982   1.466   0.590  10.302
 1133SOL    HW1 3983   1.436   0.495  10.309
 1133SOL    HW2 3984   1.539   0.606  10.368
 1134SOL     OW 3985   1.857   0.833   9.687
 1134SOL    HW1 3986   1.899   0.769   9.751
 1134SOL    HW2 3987   1.819   0.782   9.609
 1135SOL     OW 3988   0.488   1.385   9.484
 1135SOL    HW1 3989   0.401   1.370   9.531
 1135SOL    HW2 3990   0.471   1.411   9.389
 1136SOL     OW 3991   1.664   1.280   9.967
 1136SOL    HW1 3992   1.763   1.288   9.981
 1136SOL    HW2 3993   1.619   1.364   9.998
 1137SOL     OW 3994   1.390   0.575   9.388
 1137SOL    HW1 3995   1.336   0.554   9.469
 1137SOL    HW2 3996   1.481   0.534   9.397
 1138SOL     OW 3997   0.527   0.256   9.638
 1138SOL    HW1 3998   0.554   0.197   9.563
 1138SOL    HW2 3999   0.527   0.351   9.607
 1139SOL     OW 4000   1.754   1.223  10.898
 1139SOL    HW1 4001   1.845   1.184  10.885
 1139SOL    HW2 4002   1.762   1.319  10.922
 1140SOL     OW 4003   1.064   1.347  10.650
 1140SOL    HW1 4004   0.984   1.324  10.705
 1140SOL    HW2 4005   1.147   1.321  10.699
 1141SOL     OW 4006   1.592   1.629  10.935
 1141SOL    HW1 4007   1.619   1.663  10.845
 1141SOL    HW2 4008   1.671   1.591  10.981
 1142SOL     OW 4009   1.111   1.195  10.410
 1142SOL    HW1 4010   1.071   1.239  10.491
 1142SOL    HW2 4011   1.070   1.232  10.327
 1143SOL     OW 4012   1.638   1.099  10.389
 1143SOL    HW1 4013   1.643   1.180  10.448
 1143SOL    HW2 4014   1.552   1.101  10.338
 1144SOL     OW 4015   0.915   0.089  10.712
 1144SOL    HW1 4016   0.940   0.069  10.617
 1144SOL    HW2 4017   0.987   0.145  10.754
 1145SOL     OW 4018   0.980   1.116  11.029
 1145SOL    HW1 4019   0.881   1.122  11.039
 1145SOL    HW2 4020   1.003   1.036  10.973
 1146SOL     OW 4021   0.705   1.050   9.678
 1146SOL    HW1 4022   0.691   1.057   9.777
 1146SOL    HW2 4023   0.789   0.999   9.660
 1147SOL     OW 4024   0.410   0.813  10.561
 1147SOL    HW1 4025   0.496   0.825  10.611
 1147SOL    HW2 4026   0.368   0.726  10.588
 1148SOL     OW 4027   1.274   0.386  10.572
 1148SOL    HW1 4028   1.295   0.460  10.636
 1148SOL    HW2 4029   1.185   0.403  10.529
 1149SOL     OW 4030   0.064   1.564  10.641
 1149SOL    HW1 4031   0.018   1.646  10.607
 1149SOL    HW2 4032   0.162   1.583  10.650
 1150SOL     OW 4033   0.367   1.100   9.811
 1150SOL    HW1 4034   0.360   1.183   9.755
 1150SOL    HW2 4035   0.371   1.020   9.751
 1151SOL     OW 4036   0.566   0.537  10.175
 1151SOL    HW1 4037   0.578   0.603  10.101
 1151SOL    HW2 4038   0.612   0.571  10.258
 1152SOL     OW 4039   1.252   1.348   9.698
 1152SOL    HW1 4040   1.302   1.425   9.738
 1152SOL    HW2 4041   1.157   1.350   9.730
 1153SOL     OW 4042   1.272   1.445  10.452
 1153SOL    HW1 4043   1.319   1.458  10.539
 1153SOL    HW2 4044   1.206   1.371  10.461
 1154SOL     OW 4045   1.582   0.639   9.782
 1154SOL    HW1 4046   1.551   0.700   9.855
 1154SOL    HW2 4047   1.632   0.691   9.713
 1155SOL     OW 4048   0.354   1.510  10.639
 1155SOL    HW1 4049   0.333   1.466  10.552
 1155SOL    HW2 4050   0.451   1.536  10.642
 1156SOL     OW 4051   0.402   0.751  10.908
 1156SOL    HW1 4052   0.470   0.806  10.861
 1156SOL    HW2 4053   0.442   0.663  10.935
 1157SOL     OW 4054   1.587   0.779  10.980
 1157SOL    HW1 4055   1.495   0.817  10.975
 1157SOL    HW2 4056   1.647   0.826  10.915
 1158SOL     OW 4057   1.013   0.105  11.080
 1158SOL    HW1 4058   1.019   0.190  11.028
 1158SOL    HW2 4059   1.045   0.029  11.023
 1159SOL     OW 4060   0.504   0.050  11.050
 1159SOL    HW1 4061   0.462  -0.007  10.980
 1159SOL    HW2 4062   0.438   0.119  11.082
 1160SOL     OW 4063   0.573   0.870  10.339
 1160SOL    HW1 4064   0.617   0.959  10.330
 1160SOL    HW2 4065   0.510   0.870  10.416
 1161SOL     OW 4066   1.360   0.862  10.355
 1161SOL    HW1 4067   1.285   0.862  10.289
 1161SOL    HW2 4068   1.397   0.770  10.364
 1162SOL     OW 4069   1.209   0.525   9.585
 1162SOL    HW1 4070   1.222   0.441   9.639
 1162SOL    HW2 4071   1.180   0.599   9.645
 1163SOL     OW 4072   0.307   0.213  10.541
 1163SOL    HW1 4073   0.284   0.250  10.631
 1163SOL    HW2 4074   0.277   0.118  10.535
 1164SOL     OW 4075   0.037   1.310  10.592
 1164SOL    HW1 4076   0.090   1.261  10.660
 1164SOL    HW2 4077   0.059   1.408  10.597
 1165SOL     OW 4078   0.732   0.634  10.374
 1165SOL    HW1 4079   0.791   0.608  10.298
 1165SOL    HW2 4080   0.704   0.730  10.363
 1166SOL     OW 4081   1.728   0.935  11.164
 1166SOL    HW1 4082   1.682   0.928  11.075
 1166SOL    HW2 4083   1.666   0.979  11.230
 1167SOL     OW 4084   0.307   0.063   9.928
 1167SOL    HW1 4085   0.296   0.157   9.961
 1167SOL    HW2 4086   0.302   0.000  10.005
 1168SOL     OW 4087   1.622   0.367   9.684
 1168SOL    HW1 4088   1.624   0.291   9.748
 1168SOL    HW2 4089   1.574   0.444   9.724
 1169SOL     OW 4090   1.023   0.766  10.276
 1169SOL    HW1 4091   1.038   0.787  10.372
 1169SOL    HW2 4092   0.993   0.671  10.267
 1170SOL     OW 4093   0.980   1.573  11.010
 1170SOL    HW1 4094   0.960   1.617  10.922
 1170SOL    HW2 4095   1.019   1.482  10.994
 1171SOL     OW 4096   1.859   1.518  10.915
 1171SOL    HW1 4097   1.873   1.545  10.820
 1171SOL    HW2 4098   1.942   1.540  10.968
 1172SOL     OW 4099   0.350   0.898  11.114
 1172SOL    HW1 4100   0.426   0.942  11.162
 1172SOL    HW2 4101   0.385   0.851  11.032
 1173SOL     OW 4102   1.540   0.274   9.435
 1173SOL    HW1 4103   1.479   0.199   9.458
 1173SOL    HW2 4104   1.562   0.326   9.518
 1174SOL     OW 4105   1.303   0.838   9.352
 1174SOL    HW1 4106   1.337   0.745   9.367
 1174SOL    HW2 4107   1.321   0.865   9.257
 1175SOL     OW 4108   1.068   1.333  10.159
 1175SOL    HW1 4109   1.075   1.249  10.104
 1175SOL    HW2 4110   1.130   1.402  10.123
 1176SOL     OW 4111   0.319   0.810  10.259
 1176SOL    HW1 4112   0.412   0.846  10.264
 1176SOL    HW2 4113   0.313   0.725  10.311
 1177SOL     OW 4114   0.339   0.509  10.316
 1177SOL    HW1 4115   0.287   0.426  10.299
 1177SOL    HW2 4116   0.416   0.514  10.252
 1178SOL     OW 4117   1.138   0.380  10.988
 1178SOL    HW1 4118   1.093   0.443  11.052
 1178SOL    HW2 4119   1.231   0.411  10.971
 1179SOL     OW 4120   1.160   0.207  10.787
 1179SOL    HW1 4121   1.160   0.271  10.864
 1179SOL    HW2 4122   1.188   0.255  10.704
 1180SOL     OW 4123   0.008   1.326   9.510
 1180SOL    HW1 4124  -0.085   1.347   9.479
 1180SOL    HW2 4125   0.018   1.227   9.523
 1181SOL     OW 4126   0.088   1.801  10.237
 1181SOL    HW1 4127   0.046   1.715  10.210
 1181SOL    HW2 4128   0.182   1.804  10.203
 1182SOL     OW 4129   0.504   1.568  10.220
 1182SOL    HW1 4130   0.570   1.642  10.229
 1182SOL    HW2 4131   0.548   1.489  10.178
 1183SOL     OW 4132   1.002   0.796  10.548
 1183SOL    HW1 4133   1.043   0.764  10.634
 1183SOL    HW2 4134   0.906   0.769  10.545
 1184SOL     OW 4135   0.040   0.544  10.424
 1184SOL    HW1 4136   0.125   0.511  10.383
 1184SOL    HW2 4137   0.053   0.559  10.522
 1185SOL     OW 4138   0.189   0.520  11.032
 1185SOL    HW1 4139   0.248   0.480  10.962
 1185SOL    HW2 4140   0.131   0.591  10.991
 1186SOL     OW 4141   1.369   0.950  10.970
 1186SOL    HW1 4142   1.408   1.039  10.990
 1186SOL    HW2 4143   1.379   0.930  10.873
 1187SOL     OW 4144   0.815   0.572   9.635
 1187SOL    HW1 4145   0.822   0.483   9.589
 1187SOL    HW2 4146   0.721   0.606   9.627
 1188SOL     OW 4147   1.657   0.604  10.516
 1188SOL    HW1 4148   1.619   0.535  10.578
 1188SOL    HW2 4149   1.739   0.568  10.472
 1189SOL     OW 4150   0.252   1.564  11.054
 1189SOL    HW1 4151   0.222   1.621  11.130
 1189SOL    HW2 4152   0.245   1.467  11.080
 1190SOL     OW 4153   0.671   0.464  10.579
 1190SOL    HW1 4154   0.637   0.375  10.549
 1190SOL    HW2 4155   0.697   0.518  10.499
 1191SOL     OW 4156   0.930   1.678  10.775
 1191SOL    HW1 4157   0.906   1.660  10.680
 1191SOL    HW2 4158   0.960   1.772  10.785
 1192SOL     OW 4159   0.473   0.500   9.501
 1192SOL    HW1 4160   0.534   0.580   9.505
 1192SOL    HW2 4161   0.378   0.531   9.508
 1193SOL     OW 4162   0.159   1.137  10.776
 1193SOL    HW1 4163   0.181   1.076  10.852
 1193SOL    HW2 4164   0.169   1.088  10.690
 1194SOL     OW 4165   1.347   1.059  10.544
 1194SOL    HW1 4166   1.371   0.996  10.470
 1194SOL    HW2 4167   1.257   1.099  10.526
 1195SOL     OW 4168   1.302   0.855   9.619
 1195SOL    HW1 4169   1.216   0.824   9.661
 1195SOL    HW2 4170   1.298   0.841   9.520
 1196SOL     OW 4171   1.252   1.731  10.438
 1196SOL    HW1 4172   1.336   1.736  10.384
 1196SOL    HW2 4173   1.229   1.635  10.456
 1197SOL     OW 4174   0.083   1.258  10.332
 1197SOL    HW1 4175   0.078   1.257  10.432
 1197SOL    HW2 4176   0.000   1.217  10.294
 1198SOL     OW 4177   0.688   1.662  11.026
 1198SOL    HW1 4178   0.632   1.743  11.035
 1198SOL    HW2 4179   0.740   1.666  10.940
 1199SOL     OW 4180   1.726   0.135   9.833
 1199SOL    HW1 4181   1.799   0.118   9.766
 1199SOL    HW2 4182   1.695   0.048   9.871
 1200SOL     OW 4183   1.388   1.573   9.787
 1200SOL    HW1 4184   1.455   1.585   9.713
 1200SOL    HW2 4185   1.348   1.662   9.810
 1201SOL     OW 4186   0.130   1.794  11.161
 1201SOL    HW1 4187   0.089   1.720  11.214
 1201SOL    HW2 4188   0.194   1.845  11.219
 1202SOL     OW 4189   1.280   0.927   9.982
 1202SOL    HW1 4190   1.340   0.846   9.984
 1202SOL    HW2 4191   1.320   0.996   9.922
 1203SOL     OW 4192   0.830   1.273  10.732
 1203SOL    HW1 4193   0.825   1.306  10.827
 1203SOL    HW2 4194   0.744   1.292  10.686
 1204SOL     OW 4195   0.672   1.616   9.464
 1204SOL    HW1 4196   0.681   1.626   9.365
 1204SOL    HW2 4197   0.632   1.527   9.485
 1205SOL     OW 4198   1.650   1.720  10.704
 1205SOL    HW1 4199   1.703   1.730  10.620
 1205SOL    HW2 4200   1.623   1.810  10.738
 1206SOL     OW 4201   1.841   0.175  10.273
 1206SOL    HW1 4202   1.880   0.090  10.237
 1206SOL    HW2 4203   1.743   0.177  10.254
 1207SOL     OW 4204   0.263   0.326  10.030
 1207SOL    HW1 4205   0.184   0.377   9.996
 1207SOL    HW2 4206   0.254   0.311  10.128
 1208SOL     OW 4207   1.194   1.612   9.341
 1208SOL    HW1 4208   1.200   1.519   9.378
 1208SOL    HW2 4209   1.135   1.612   9.261
 1209SOL     OW 4210   0.822   1.002  10.682
 1209SOL    HW1 4211   0.862   1.001  10.590
 1209SOL    HW2 4212   0.832   1.094  10.722
 1210SOL     OW 4213   0.916   0.910   9.601
 1210SOL    HW1 4214   0.979   0.948   9.533
 1210SOL    HW2 4215   0.956   0.827   9.640
 1211SOL     OW 4216   1.504   1.607   9.354
 1211SOL    HW1 4217   1.412   1.644   9.361
 1211SOL    HW2 4218   1.542   1.627   9.264
 1212SOL     OW 4219   0.372   1.288  10.800
 1212SOL    HW1 4220   0.359   1.381  10.766
 1212SOL    HW2 4221   0.288   1.236  10.787
 1213SOL     OW 4222   1.614   1.292  10.599
 1213SOL    HW1 4223   1.674   1.295  10.679
 1213SOL    HW2 4224   1.539   1.356  10.612
 1214SOL     OW 4225   1.039   1.098  10.006
 1214SOL    HW1 4226   0.969   1.051  10.060
 1214SOL    HW2 4227   1.098   1.030   9.963
 1215SOL     OW 4228   1.014   0.236  10.281
 1215SOL    HW1 4229   1.006   0.200  10.188
 1215SOL    HW2 4230   1.012   0.160  10.346
 1216SOL     OW 4231   0.590   1.487   9.801
 1216SOL    HW1 4232   0.632   1.429   9.731
 1216SOL    HW2 4233   0.546   1.566   9.757
 1217SOL     OW 4234   1.709   0.385  10.691
 1217SOL    HW1 4235   1.782   0.454  10.695
 1217SOL    HW2 4236   1.737   0.310  10.632
 1218SOL     OW 4237   0.255   1.348   9.600
 1218SOL    HW1 4238   0.159   1.349   9.573
 1218SOL    HW2 4239   0.267   1.401   9.684
 1219SOL     OW 4240   0.105   1.013  11.036
 1219SOL    HW1 4241   0.028   0.980  11.090
 1219SOL    HW2 4242   0.190   0.983  11.078
 1220SOL     OW 4243   0.672   0.203  10.799
 1220SOL    HW1 4244   0.762   0.187  10.759
 1220SOL    HW2 4245   0.680   0.208  10.898
 1221SOL     OW 4246   0.075   0.345   9.343
 1221SOL    HW1 4247  -0.017   0.317   9.314
 1221SOL    HW2 4248   0.106   0.422   9.287
 1222SOL     OW 4249   1.440   0.856  10.708
 1222SOL    HW1 4250   1.383   0.908  10.645
 1222SOL    HW2 4251   1.536   0.868  10.684
 1223SOL     OW 4252   0.072   0.166   9.628
 1223SOL    HW1 4253   0.055   0.249   9.574
 1223SOL    HW2 4254   0.162   0.129   9.606
 1224SOL     OW 4255   1.183   1.335   9.429
 1224SOL    HW1 4256   1.084   1.324   9.431
 1224SOL    HW2 4257   1.217   1.350   9.522
 1225SOL     OW 4258   0.613   0.842  10.741
 1225SOL    HW1 4259   0.669   0.923  10.724
 1225SOL    HW2 4260   0.672   0.762  10.744
 1226SOL     OW 4261   1.493   1.767  10.269
 1226SOL    HW1 4262   1.526   1.831  10.200
 1226SOL    HW2 4263   1.559   1.761  10.344
 1227SOL     OW 4264   0.716   0.565  11.018
 1227SOL    HW1 4265   0.735   0.630  11.092
 1227SOL    HW2 4266   0.776   0.485  11.027
 1228SOL     OW 4267   1.450   1.220  10.943
 1228SOL    HW1 4268   1.441   1.210  11.042
 1228SOL    HW2 4269   1.546   1.213  10.917
 1229SOL     OW 4270   0.390   1.741  10.870
 1229SOL    HW1 4271   0.299   1.782  10.868
 1229SOL    HW2 4272   0.383   1.647  10.902
 1230SOL     OW 4273   1.674   0.883  10.564
 1230SOL    HW1 4274   1.647   0.794  10.527
 1230SOL    HW2 4275   1.675   0.951  10.491
 1231SOL     OW 4276   1.225   0.325   9.759
 1231SOL    HW1 4277   1.290   0.251   9.748
 1231SOL    HW2 4278   1.245   0.375   9.843
 1232SOL     OW 4279   0.594   0.745   9.962
 1232SOL    HW1 4280   0.644   0.830   9.943
 1232SOL    HW2 4281   0.506   0.747   9.914
 1233SOL     OW 4282   1.777   0.342  10.952
 1233SOL    HW1 4283   1.760   0.373  10.858
 1233SOL    HW2 4284   1.693   0.305  10.990
 1234SOL     OW 4285   1.730   0.934  10.827
 1234SOL    HW1 4286   1.768   1.025  10.842
 1234SOL    HW2 4287   1.722   0.917  10.728
 1235SOL     OW 4288   0.859   1.374   9.326
 1235SOL    HW1 4289   0.813   1.389   9.414
 1235SOL    HW2 4290   0.903   1.459   9.296
 1236SOL     OW 4291   0.661   1.790  10.263
 1236SOL    HW1 4292   0.615   1.878  10.250
 1236SOL    HW2 4293   0.760   1.802  10.256
 1237SOL     OW 4294   0.859   0.956  10.171
 1237SOL    HW1 4295   0.913   0.887  10.219
 1237SOL    HW2 4296   0.827   1.025  10.237
 1238SOL     OW 4297   1.083   0.984   9.397
 1238SOL    HW1 4298   1.060   1.037   9.315
 1238SOL    HW2 4299   1.164   0.928   9.378
 1239SOL     OW 4300   1.861   1.569  10.161
 1239SOL    HW1 4301   1.790   1.557  10.091
 1239SOL    HW2 4302   1.862   1.490  10.221
 1240SOL     OW 4303   0.221   1.314  11.154
 1240SOL    HW1 4304   0.156   1.241  11.133
 1240SOL    HW2 4305   0.225   1.328  11.252
 1241SOL     OW 4306   0.079   1.240   9.963
 1241SOL    HW1 4307   0.078   1.193  10.051
 1241SOL    HW2 4308   0.161   1.212   9.912
 1242SOL     OW 4309   0.672   1.391  10.934
 1242SOL    HW1 4310   0.594   1.341  10.972
 1242SOL    HW2 4311   0.669   1.486  10.965
 1243SOL     OW 4312   1.824   0.192  10.537
 1243SOL    HW1 4313   1.820   0.102  10.581
 1243SOL    HW2 4314   1.827   0.181  10.438
 1244SOL     OW 4315   0.428   0.424   9.830
 1244SOL    HW1 4316   0.458   0.352   9.768
 1244SOL    HW2 4317   0.389   0.384   9.913
 1245SOL     OW 4318   1.705   1.487  10.414
 1245SOL    HW1 4319   1.612   1.462  10.387
 1245SOL    HW2 4320   1.731   1.437  10.496
 1246SOL     OW 4321   0.317   0.547  10.590
 1246SOL    HW1 4322   0.355   0.488  10.662
 1246SOL    HW2 4323   0.357   0.521  10.502
 1247SOL     OW 4324   0.812   1.586   9.997
 1247SOL    HW1 4325   0.844   1.596   9.903
 1247SOL    HW2 4326   0.733   1.524   9.999
 1248SOL     OW 4327   1.424   0.214  10.422
 1248SOL    HW1 4328   1.476   0.149  10.477
 1248SOL    HW2 4329   1.375   0.277  10.483
 1249SOL     OW 4330   1.001   0.034  10.464
 1249SOL    HW1 4331   0.938  -0.038  10.433
 1249SOL    HW2 4332   1.094  -0.002  10.464
 1250SOL     OW 4333   0.770   1.330   9.611
 1250SOL    HW1 4334   0.724   1.243   9.628
 1250SOL    HW2 4335   0.861   1.327   9.652
 1251SOL     OW 4336   0.618   1.567  10.594
 1251SOL    HW1 4337   0.613   1.649  10.651
 1251SOL    HW2 4338   0.707   1.564  10.549
 1252SOL     OW 4339   1.352   0.052   9.478
 1252SOL    HW1 4340   1.387   0.011   9.394
 1252SOL    HW2 4341   1.262   0.014   9.498
 1253SOL     OW 4342   1.300   0.453  10.001
 1253SOL    HW1 4343   1.241   0.533  10.005
 1253SOL    HW2 4344   1.315   0.418  10.094
 1254SOL     OW 4345   1.593   0.221  10.192
 1254SOL    HW1 4346   1.509   0.220  10.246
 1254SOL    HW2 4347   1.595   0.304  10.136
 1255SOL     OW 4348   0.039   1.077   9.610
 1255SOL    HW1 4349   0.138   1.066   9.601
 1255SOL    HW2 4350  -0.001   0.991   9.642
 1256SOL     OW 4351   0.875   1.646   9.647
 1256SOL    HW1 4352   0.798   1.611   9.593
 1256SOL    HW2 4353   0.843   1.717   9.709
 1257SOL     OW 4354   0.230   0.628  11.285
 1257SOL    HW1 4355   0.137   0.626  11.322
 1257SOL    HW2 4356   0.231   0.589  11.193
 1258SOL     OW 4357   0.225   0.275  12.168
 1258SOL    HW1 4358   0.260   0.258  12.260
 1258SOL    HW2 4359   0.137   0.230  12.156
 1259SOL     OW 4360   0.019   0.368  11.819
 1259SOL    HW1 4361  -0.063   0.411  11.858
 1259SOL    HW2 4362  -0.009   0.295  11.756
 1260SOL     OW 4363   0.569   1.275  12.337
 1260SOL    HW1 4364   0.476   1.268  12.300
 1260SOL    HW2 4365   0.580   1.364  12.381
 1261SOL     OW 4366   1.555   1.511  11.875
 1261SOL    HW1 4367   1.498   1.495  11.956
 1261SOL    HW2 4368   1.496   1.521  11.795
 1262SOL     OW 4369   1.135   0.703  11.889
 1262SOL    HW1 4370   1.192   0.781  11.864
 1262SOL    HW2 4371   1.075   0.729  11.965
 1263SOL     OW 4372   1.755   0.607  11.403
 1263SOL    HW1 4373   1.743   0.594  11.304
 1263SOL    HW2 4374   1.725   0.526  11.452
 1264SOL     OW 4375   0.768   1.144  12.195
 1264SOL    HW1 4376   0.690   1.161  12.255
 1264SOL    HW2 4377   0.802   1.231  12.159
 1265SOL     OW 4378   0.850   0.798  12.995
 1265SOL    HW1 4379   0.846   0.874  13.060
 1265SOL    HW2 4380   0.872   0.834  12.904
 1266SOL     OW 4381   0.685   1.012  11.837
 1266SOL    HW1 4382   0.754   0.996  11.907
 1266SOL    HW2 4383   0.612   1.069  11.875
 1267SOL     OW 4384   0.686   1.161  12.975
 1267SOL    HW1 4385   0.746   1.240  12.989
 1267SOL    HW2 4386   0.600   1.192  12.934
 1268SOL     OW 4387   0.335   1.435  12.233
 1268SOL    HW1 4388   0.257   1.404  12.180
 1268SOL    HW2 4389   0.393   1.493  12.176
 1269SOL     OW 4390   1.460   1.505  12.511
 1269SOL    HW1 4391   1.484   1.599  12.537
 1269SOL    HW2 4392   1.444   1.451  12.593
 1270SOL     OW 4393   0.438   0.392  12.671
 1270SOL    HW1 4394   0.520   0.336  12.680
 1270SOL    HW2 4395   0.357   0.334  12.675
 1271SOL     OW 4396   1.603   0.447  11.909
 1271SOL    HW1 4397   1.529   0.493  11.859
 1271SOL    HW2 4398   1.654   0.515  11.962
 1272SOL     OW 4399   0.231   1.713  11.655
 1272SOL    HW1 4400   0.265   1.790  11.709
 1272SOL    HW2 4401   0.275   1.713  11.565
 1273SOL     OW 4402   1.127   1.341  12.862
 1273SOL    HW1 4403   1.174   1.341  12.950
 1273SOL    HW2 4404   1.079   1.254  12.851
 1274SOL     OW 4405   0.230   1.434  11.710
 1274SOL    HW1 4406   0.204   1.530  11.710
 1274SOL    HW2 4407   0.159   1.380  11.755
 1275SOL     OW 4408   0.240   1.091  12.058
 1275SOL    HW1 4409   0.254   1.007  12.110
 1275SOL    HW2 4410   0.185   1.155  12.113
 1276SOL     OW 4411   0.620   1.786  12.611
 1276SOL    HW1 4412   0.528   1.769  12.646
 1276SOL    HW2 4413   0.648   1.878  12.637
 1277SOL     OW 4414   0.606   0.964  11.295
 1277SOL    HW1 4415   0.613   1.048  11.241
 1277SOL    HW2 4416   0.652   0.977  11.383
 1278SOL     OW 4417   1.594   0.114  12.652
 1278SOL    HW1 4418   1.576   0.181  12.580
 1278SOL    HW2 4419   1.591   0.160  12.741
 1279SOL     OW 4420   0.122   0.643  11.735
 1279SOL    HW1 4421   0.077   0.555  11.752
 1279SOL    HW2 4422   0.121   0.697  11.819
 1280SOL     OW 4423   0.027   1.596  11.289
 1280SOL    HW1 4424   0.008   1.500  11.310
 1280SOL    HW2 4425  -0.006   1.654  11.364
 1281SOL     OW 4426   1.689   0.922  11.784
 1281SOL    HW1 4427   1.784   0.893  11.792
 1281SOL    HW2 4428   1.681   0.987  11.709
 1282SOL     OW 4429   1.641   1.108  11.604
 1282SOL    HW1 4430   1.727   1.110  11.552
 1282SOL    HW2 4431   1.655   1.155  11.692
 1283SOL     OW 4432   0.113   0.737  12.769
 1283SOL    HW1 4433   0.201   0.724  12.814
 1283SOL    HW2 4434   0.100   0.834  12.747
 1284SOL     OW 4435   0.613   1.365  11.898
 1284SOL    HW1 4436   0.564   1.278  11.907
 1284SOL    HW2 4437   0.590   1.408  11.811
 1285SOL     OW 4438   1.293   1.228  12.595
 1285SOL    HW1 4439   1.330   1.155  12.537
 1285SOL    HW2 4440   1.345   1.233  12.680
 1286SOL     OW 4441   0.809   0.004  11.674
 1286SOL    HW1 4442   0.849   0.095  11.665
 1286SOL    HW2 4443   0.709   0.012  11.680
 1287SOL     OW 4444   0.197   0.976  12.436
 1287SOL    HW1 4445   0.286   0.931  12.422
 1287SOL    HW2 4446   0.124   0.911  12.417
 1288SOL     OW 4447   1.525   0.999  11.362
 1288SOL    HW1 4448   1.462   0.923  11.375
 1288SOL    HW2 4449   1.573   1.017  11.448
 1289SOL     OW 4450   1.187   1.792  12.788
 1289SOL    HW1 4451   1.211   1.852  12.712
 1289SOL    HW2 4452   1.194   1.697  12.758
 1290SOL     OW 4453   0.317   0.251  12.973
 1290SOL    HW1 4454   0.388   0.322  12.979
 1290SOL    HW2 4455   0.229   0.290  13.001
 1291SOL     OW 4456   1.466   1.417  12.125
 1291SOL    HW1 4457   1.407   1.423  12.205
 1291SOL    HW2 4458   1.451   1.329  12.079
 1292SOL     OW 4459   1.667   1.714  11.744
 1292SOL    HW1 4460   1.626   1.691  11.656
 1292SOL    HW2 4461   1.649   1.640  11.809
 1293SOL     OW 4462   0.598   0.729  11.442
 1293SOL    HW1 4463   0.622   0.798  11.374
 1293SOL    HW2 4464   0.520   0.762  11.496
 1294SOL     OW 4465   1.281   0.345  12.116
 1294SOL    HW1 4466   1.195   0.295  12.103
 1294SOL    HW2 4467   1.343   0.291  12.172
 1295SOL     OW 4468   1.576   1.662  11.479
 1295SOL    HW1 4469   1.665   1.708  11.482
 1295SOL    HW2 4470   1.555   1.638  11.384
 1296SOL     OW 4471   0.807   0.605  12.637
 1296SOL    HW1 4472   0.760   0.602  12.726
 1296SOL    HW2 4473   0.756   0.550  12.571
 1297SOL     OW 4474   1.394   0.469  12.846
 1297SOL    HW1 4475   1.374   0.512  12.934
 1297SOL    HW2 4476   1.472   0.407  12.855
 1298SOL     OW 4477   0.973   0.890  12.744
 1298SOL    HW1 4478   1.019   0.806  12.715
 1298SOL    HW2 4479   0.917   0.924  12.669
 1299SOL     OW 4480   0.991   0.410  12.414
 1299SOL    HW1 4481   0.914   0.444  12.468
 1299SOL    HW2 4482   0.957   0.359  12.335
 1300SOL     OW 4483   1.041   0.701  11.601
 1300SOL    HW1 4484   1.067   0.697  11.697
 1300SOL    HW2 4485   0.956   0.650  11.587
 1301SOL     OW 4486   0.076   0.811  11.961
 1301SOL    HW1 4487   0.175   0.799  11.970
 1301SOL    HW2 4488   0.052   0.906  11.982
 1302SOL     OW 4489   0.130   1.821  12.743
 1302SOL    HW1 4490   0.120   1.806  12.842
 1302SOL    HW2 4491   0.044   1.857  12.707
 1303SOL     OW 4492   0.865   0.348  11.367
 1303SOL    HW1 4493   0.924   0.411  11.318
 1303SOL    HW2 4494   0.884   0.254  11.338
 1304SOL     OW 4495   1.719   0.585  13.003
 1304SOL    HW1 4496   1.693   0.674  12.967
 1304SOL    HW2 4497   1.717   0.517  12.930
 1305SOL     OW 4498   1.362   1.144  11.717
 1305SOL    HW1 4499   1.445   1.115  11.669
 1305SOL    HW2 4500   1.313   1.211  11.661
 1306SOL     OW 4501   0.550   0.196  12.057
 1306SOL    HW1 4502   0.545   0.191  12.157
 1306SOL    HW2 4503   0.552   0.292  12.028
 1307SOL     OW 4504   1.008   1.456  11.649
 1307SOL    HW1 4505   0.962   1.528  11.597
 1307SOL    HW2 4506   1.004   1.476  11.747
 1308SOL     OW 4507   0.351   1.801  12.025
 1308SOL    HW1 4508   0.401   1.715  12.031
 1308SOL    HW2 4509   0.416   1.878  12.022
 1309SOL     OW 4510   1.795   1.066  12.045
 1309SOL    HW1 4511   1.733   1.051  11.969
 1309SOL    HW2 4512   1.743   1.077  12.130
 1310SOL     OW 4513   1.227   1.550  12.678
 1310SOL    HW1 4514   1.233   1.473  12.742
 1310SOL    HW2 4515   1.175   1.524  12.598
 1311SOL     OW 4516   0.321   0.943  11.414
 1311SOL    HW1 4517   0.403   0.982  11.372
 1311SOL    HW2 4518   0.294   0.861  11.365
 1312SOL     OW 4519   1.458   0.735  11.900
 1312SOL    HW1 4520   1.453   0.670  11.975
 1312SOL    HW2 4521   1.538   0.794  11.913
 1313SOL     OW 4522   0.461   1.266  12.899
 1313SOL    HW1 4523   0.411   1.267  12.813
 1313SOL    HW2 4524   0.398   1.248  12.975
 1314SOL     OW 4525   1.111   1.776  11.409
 1314SOL    HW1 4526   1.051   1.714  11.459
 1314SOL    HW2 4527   1.142   1.732  11.324
 1315SOL     OW 4528   0.202   0.285  12.670
 1315SOL    HW1 4529   0.122   0.345  12.657
 1315SOL    HW2 4530   0.192   0.236  12.756
 1316SOL     OW 4531   1.632   1.377  11.253
 1316SOL    HW1 4532   1.600   1.471  11.243
 1316SOL    HW2 4533   1.556   1.314  11.241
 1317SOL     OW 4534   0.464   1.743  11.495
 1317SOL    HW1 4535   0.497   1.782  11.581
 1317SOL    HW2 4536   0.540   1.736  11.430
 1318SOL     OW 4537   1.400   0.107  11.598
 1318SOL    HW1 4538   1.376   0.070  11.508
 1318SOL    HW2 4539   1.499   0.123  11.602
 1319SOL     OW 4540   0.249   1.785  12.413
 1319SOL    HW1 4541   0.306   1.720  12.463
 1319SOL    HW2 4542   0.233   1.752  12.320
 1320SOL     OW 4543   0.940   1.698  12.076
 1320SOL    HW1 4544   1.020   1.641  12.097
 1320SOL    HW2 4545   0.891   1.658  11.999
 1321SOL     OW 4546   0.382   0.700  11.652
 1321SOL    HW1 4547   0.427   0.610  11.649
 1321SOL    HW2 4548   0.288   0.689  11.685
 1322SOL     OW 4549   1.547   0.222  12.901
 1322SOL    HW1 4550   1.542   0.259  12.993
 1322SOL    HW2 4551   1.475   0.153  12.889
 1323SOL     OW 4552   0.614   0.122  11.289
 1323SOL    HW1 4553   0.712   0.100  11.296
 1323SOL    HW2 4554   0.583   0.105  11.196
 1324SOL     OW 4555   0.781   0.264  12.921
 1324SOL    HW1 4556   0.848   0.203  12.964
 1324SOL    HW2 4557   0.708   0.283  12.986
 1325SOL     OW 4558   0.888   1.514  12.367
 1325SOL    HW1 4559   0.865   1.489  12.273
 1325SOL    HW2 4560   0.949   1.445  12.406
 1326SOL     OW 4561   1.351   0.590  12.605
 1326SOL    HW1 4562   1.379   0.547  12.690
 1326SOL    HW2 4563   1.376   0.686  12.606
 1327SOL     OW 4564   0.803   1.402  12.096
 1327SOL    HW1 4565   0.893   1.416  12.054
 1327SOL    HW2 4566   0.732   1.404  12.025
 1328SOL     OW 4567   0.922   0.503  12.071
 1328SOL    HW1 4568   0.897   0.494  11.975
 1328SOL    HW2 4569   0.970   0.421  12.102
 1329SOL     OW 4570   0.539   0.064  11.684
 1329SOL    HW1 4571   0.458   0.065  11.742
 1329SOL    HW2 4572   0.542   0.147  11.629
 1330SOL     OW 4573   1.434   1.188  11.213
 1330SOL    HW1 4574   1.466   1.112  11.270
 1330SOL    HW2 4575   1.342   1.215  11.243
 1331SOL     OW 4576   0.297   0.035  11.343
 1331SOL    HW1 4577   0.346   0.119  11.322
 1331SOL    HW2 4578   0.359  -0.030  11.388
 1332SOL     OW 4579   0.935   0.236  11.652
 1332SOL    HW1 4580   0.887   0.277  11.574
 1332SOL    HW2 4581   1.034   0.234  11.633
 1333SOL     OW 4582   1.076   0.683  12.636
 1333SOL    HW1 4583   0.996   0.622  12.639
 1333SOL    HW2 4584   1.157   0.630  12.612
 1334SOL     OW 4585   1.227   1.570  11.965
 1334SOL    HW1 4586   1.248   1.644  11.900
 1334SOL    HW2 4587   1.295   1.570  12.038
 1335SOL     OW 4588   0.459   1.152  11.913
 1335SOL    HW1 4589   0.388   1.125  11.978
 1335SOL    HW2 4590   0.433   1.124  11.820
 1336SOL     OW 4591   1.271   1.797  11.763
 1336SOL    HW1 4592   1.315   1.861  11.699
 1336SOL    HW2 4593   1.221   1.849  11.833
 1337SOL     OW 4594   1.032   0.549  11.188
 1337SOL    HW1 4595   0.991   0.631  11.149
 1337SOL    HW2 4596   1.096   0.575  11.261
 1338SOL     OW 4597   0.078   0.556  12.558
 1338SOL    HW1 4598   0.170   0.555  12.517
 1338SOL    HW2 4599   0.072   0.630  12.625
 1339SOL     OW 4600   0.561   0.222  12.319
 1339SOL    HW1 4601   0.599   0.138  12.356
 1339SOL    HW2 4602   0.473   0.241  12.363
 1340SOL     OW 4603   0.866   0.454  11.814
 1340SOL    HW1 4604   0.834   0.526  11.752
 1340SOL    HW2 4605   0.890   0.373  11.761
 1341SOL     OW 4606   1.017   0.039  11.925
 1341SOL    HW1 4607   0.945   0.044  11.856
 1341SOL    HW2 4608   0.993  -0.030  11.994
 1342SOL     OW 4609   1.429   1.173  12.039
 1342SOL    HW1 4610   1.374   1.089  12.032
 1342SOL    HW2 4611   1.455   1.202  11.947
 1343SOL     OW 4612   1.466   0.590  12.164
 1343SOL    HW1 4613   1.436   0.495  12.171
 1343SOL    HW2 4614   1.539   0.606  12.230
 1344SOL     OW 4615   1.857   0.833  11.549
 1344SOL    HW1 4616   1.899   0.769  11.613
 1344SOL    HW2 4617   1.819   0.782  11.471
 1345SOL     OW 4618   0.488   1.385  11.346
 1345SOL    HW1 4619   0.401   1.370  11.393
 1345SOL    HW2 4620   0.471   1.411  11.251
 1346SOL     OW 4621   1.664   1.280  11.829
 1346SOL    HW1 4622   1.763   1.288  11.843
 1346SOL    HW2 4623   1.619   1.364  11.860
 1347SOL     OW 4624   1.390   0.575  11.250
 1347SOL    HW1 4625   1.336   0.554  11.331
 1347SOL    HW2 4626   1.481   0.534  11.259
 1348SOL     OW 4627   0.527   0.256  11.500
 1348SOL    HW1 4628   0.554   0.197  11.425
 1348SOL    HW2 4629   0.527   0.351  11.469
 1349SOL     OW 4630   1.754   1.223  12.760
 1349SOL    HW1 4631   1.845   1.184  12.747
 1349SOL    HW2 4632   1.762   1.319  12.784
 1350SOL     OW 4633   1.064   1.347  12.512
 1350SOL    HW1 4634   0.984   1.324  12.567
 1350SOL    HW2 4635   1.147   1.321  12.561
 1351SOL     OW 4636   1.592   1.629  12.797
 1351SOL    HW1 4637   1.619   1.663  12.707
 1351SOL    HW2 4638   1.671   1.591  12.843
 1352SOL     OW 4639   1.111   1.195  12.272
 1352SOL    HW1 4640   1.071   1.239  12.353
 1352SOL    HW2 4641   1.070   1.232  12.189
 1353SOL     OW 4642   1.638   1.099  12.251
 1353SOL    HW1 4643   1.643   1.180  12.310
 1353SOL    HW2 4644   1.552   1.101  12.200
 1354SOL     OW 4645   0.915   0.089  12.574
 1354SOL    HW1 4646   0.940   0.069  12.479
 1354SOL    HW2 4647   0.987   0.145  12.616
 1355SOL     OW 4648   0.980   1.116  12.891
 1355SOL    HW1 4649   0.881   1.122  12.901
 1355SOL    HW2 4650   1.003   1.036  12.835
 1356SOL     OW 4651   0.705   1.050  11.540
 1356SOL    HW1 4652   0.691   1.057  11.639
 1356SOL    HW2 4653   0.789   0.999  11.522
 1357SOL     OW 4654   0.410   0.813  12.423
 1357SOL    HW1 4655   0.496   0.825  12.473
 1357SOL    HW2 4656   0.368   0.726  12.450
 1358SOL     OW 4657   1.274   0.386  12.434
 1358SOL    HW1 4658   1.295   0.460  12.498
 1358SOL    HW2 4659   1.185   0.403  12.391
 1359SOL     OW 4660   0.064   1.564  12.503
 1359SOL    HW1 4661   0.018   1.646  12.469
 1359SOL    HW2 4662   0.162   1.583  12.512
 1360SOL     OW 4663   0.367   1.100  11.673
 1360SOL    HW1 4664   0.360   1.183  11.617
 1360SOL    HW2 4665   0.371   1.020  11.613
 1361SOL     OW 4666   0.566   0.537  12.037
 1361SOL    HW1 4667   0.578   0.603  11.963
 1361SOL    HW2 4668   0.612   0.571  12.120
 1362SOL     OW 4669   1.252   1.348  11.560
 1362SOL    HW1 4670   1.302   1.425  11.600
 1362SOL    HW2 4671   1.157   1.350  11.592
 1363SOL     OW 4672   1.272   1.445  12.314
 1363SOL    HW1 4673   1.319   1.458  12.401
 1363SOL    HW2 4674   1.206   1.371  12.323
 1364SOL     OW 4675   1.582   0.639  11.644
 1364SOL    HW1 4676   1.551   0.700  11.717
 1364SOL    HW2 4677   1.632   0.691  11.575
 1365SOL     OW 4678   0.354   1.510  12.501
 1365SOL    HW1 4679   0.333   1.466  12.414
 1365SOL    HW2 4680   0.451   1.536  12.504
 1366SOL     OW 4681   0.402   0.751  12.770
 1366SOL    HW1 4682   0.470   0.806  12.723
 1366SOL    HW2 4683   0.442   0.663  12.797
 1367SOL     OW 4684   1.587   0.779  12.842
 1367SOL    HW1 4685   1.495   0.817  12.837
 1367SOL    HW2 4686   1.647   0.826  12.777
 1368SOL     OW 4687   1.013   0.105  12.942
 1368SOL    HW1 4688   1.019   0.190  12.890
 1368SOL    HW2 4689   1.045   0.029  12.885
 1369SOL     OW 4690   0.504   0.050  12.912
 1369SOL    HW1 4691   0.462  -0.007  12.842
 1369SOL    HW2 4692   0.438   0.119  12.944
 1370SOL     OW 4693   0.573   0.870  12.201
 1370SOL    HW1 4694   0.617   0.959  12.192
 1370SOL    HW2 4695   0.510   0.870  12.278
 1371SOL     OW 4696   1.360   0.862  12.217
 1371SOL    HW1 4697   1.285   0.862  12.151
 1371SOL    HW2 4698   1.397   0.770  12.226
 1372SOL     OW 4699   1.209   0.525  11.447
 1372SOL    HW1 4700   1.222   0.441  11.501
 1372SOL    HW2 4701   1.180   0.599  11.507
 1373SOL     OW 4702   0.307   0.213  12.403
 1373SOL    HW1 4703   0.284   0.250  12.493
 1373SOL    HW2 4704   0.277   0.118  12.397
 1374SOL     OW 4705   0.037   1.310  12.454
 1374SOL    HW1 4706   0.090   1.261  12.522
 1374SOL    HW2 4707   0.059   1.408  12.459
 1375SOL     OW 4708   0.732   0.634  12.236
 1375SOL    HW1 4709   0.791   0.608  12.160
 1375SOL    HW2 4710   0.704   0.730  12.225
 1376SOL     OW 4711   1.728   0.935  13.026
 1376SOL    HW1 4712   1.682   0.928  12.937
 1376SOL    HW2 4713   1.666   0.979  13.092
 1377SOL     OW 4714   0.307   0.063  11.790
 1377SOL    HW1 4715   0.296   0.157  11.823
 1377SOL    HW2 4716   0.302   0.000  11.867
 1378SOL     OW 4717   1.622   0.367  11.546
 1378SOL    HW1 4718   1.624   0.291  11.610
 1378SOL    HW2 4719   1.574   0.444  11.586
 1379SOL     OW 4720   1.023   0.766  12.138
 1379SOL    HW1 4721   1.038   0.787  12.234
 1379SOL    HW2 4722   0.993   0.671  12.129
 1380SOL     OW 4723   0.980   1.573  12.872
 1380SOL    HW1 4724   0.960   1.617  12.784
 1380SOL    HW2 4725   1.019   1.482  12.856
 1381SOL     OW 4726   1.859   1.518  12.777
 1381SOL    HW1 4727   1.873   1.545  12.682
 1381SOL    HW2 4728   1.942   1.540  12.830
 1382SOL     OW 4729   0.350   0.898  12.976
 1382SOL    HW1 4730   0.426   0.942  13.024
 1382SOL    HW2 4731   0.385   0.851  12.894
 1383SOL     OW 4732   1.540   0.274  11.297
 1383SOL    HW1 4733   1.479   0.199  11.320
 1383SOL    HW2 4734   1.562   0.326  11.380
 1384SOL     OW 4735   1.303   0.838  11.214
 1384SOL    HW1 4736   1.337   0.745  11.229
 1384SOL    HW2 4737   1.321   0.865  11.119
 1385SOL     OW 4738   1.068   1.333  12.021
 1385SOL    HW1 4739   1.075   1.249  11.966
 1385SOL    HW2 4740   1.130   1.402  11.985
 1386SOL     OW 4741   0.319   0.810  12.121
 1386SOL    HW1 4742   0.412   0.846  12.126
 1386SOL    HW2 4743   0.313   0.725  12.173
 1387SOL     OW 4744   0.339   0.509  12.178
 1387SOL    HW1 4745   0.287   0.426  12.161
 1387SOL    HW2 4746   0.416   0.514  12.114
 1388SOL     OW 4747   1.138   0.380  12.850
 1388SOL    HW1 4748   1.093   0.443  12.914
 1388SOL    HW2 4749   1.231   0.411  12.833
 1389SOL     OW 4750   1.160   0.207  12.649
 1389SOL    HW1 4751   1.160   0.271  12.726
 1389SOL    HW2 4752   1.188   0.255  12.566
 1390SOL     OW 4753   0.008   1.326  11.372
 1390SOL    HW1 4754  -0.085   1.347  11.341
 1390SOL    HW2 4755   0.018   1.227  11.385
 1391SOL     OW 4756   0.088   1.801  12.099
 1391SOL    HW1 4757   0.046   1.715  12.072
 1391SOL    HW2 4758   0.182   1.804  12.065
 1392SOL     OW 4759   0.504   1.568  12.082
 1392SOL    HW1 4760   0.570   1.642  12.091
 1392SOL    HW2 4761   0.548   1.489  12.040
 1393SOL     OW 4762   1.002   0.796  12.410
 1393SOL    HW1 4763   1.043   0.764  12.496
 1393SOL    HW2 4764   0.906   0.769  12.407
 1394SOL     OW 4765   0.040   0.544  12.286
 1394SOL    HW1 4766   0.125   0.511  12.245
 1394SOL    HW2 4767   0.053   0.559  12.384
 1395SOL     OW 4768   0.189   0.520  12.894
 1395SOL    HW1 4769   0.248   0.480  12.824
 1395SOL    HW2 4770   0.131   0.591  12.853
 1396SOL     OW 4771   1.369   0.950  12.832
 1396SOL    HW1 4772   1.408   1.039  12.852
 1396SOL    HW2 4773   1.379   0.930  12.735
 1397SOL     OW 4774   0.815   0.572  11.497
 1397SOL    HW1 4775   0.822   0.483  11.451
 1397SOL    HW2 4776   0.721   0.606  11.489
 1398SOL     OW 4777   1.657   0.604  12.378
 1398SOL    HW1 4778   1.619   0.535  12.440
 1398SOL    HW2 4779   1.739   0.568  12.334
 1399SOL     OW 4780   0.252   1.564  12.916
 1399SOL    HW1 4781   0.222   1.621  12.992
 1399SOL    HW2 4782   0.245   1.467  12.942
 1400SOL     OW 4783   0.671   0.464  12.441
 1400SOL    HW1 4784   0.637   0.375  12.411
 1400SOL    HW2 4785   0.697   0.518  12.361
 1401SOL     OW 4786   0.930   1.678  12.637
 1401SOL    HW1 4787   0.906   1.660  12.542
 1401SOL    HW2 4788   0.960   1.772  12.647
 1402SOL     OW 4789   0.473   0.500  11.363
 1402SOL    HW1 4790   0.534   0.580  11.367
 1402SOL    HW2 4791   0.378   0.531  11.370
 1403SOL     OW 4792   0.159   1.137  12.638
 1403SOL    HW1 4793   0.181   1.076  12.714
 1403SOL    HW2 4794   0.169   1.088  12.552
 1404SOL     OW 4795   1.347   1.059  12.406
 1404SOL    HW1 4796   1.371   0.996  12.332
 1404SOL    HW2 4797   1.257   1.099  12.388
 1405SOL     OW 4798   1.302   0.855  11.481
 1405SOL    HW1 4799   1.216   0.824  11.523
 1405SOL    HW2 4800   1.298   0.841  11.382
 1406SOL     OW 4801   1.252   1.731  12.300
 1406SOL    HW1 4802   1.336   1.736  12.246
 1406SOL    HW2 4803   1.229   1.635  12.318
 1407SOL     OW 4804   0.083   1.258  12.194
 1407SOL    HW1 4805   0.078   1.257  12.294
 1407SOL    HW2 4806   0.000   1.217  12.156
 1408SOL     OW 4807   0.688   1.662  12.888
 1408SOL    HW1 4808   0.632   1.743  12.897
 1408SOL    HW2 4809   0.740   1.666  12.802
 1409SOL     OW 4810   1.726   0.135  11.695
 1409SOL    HW1 4811   1.799   0.118  11.628
 1409SOL    HW2 4812   1.695   0.048  11.733
 1410SOL     OW 4813   1.388   1.573  11.649
 1410SOL    HW1 4814   1.455   1.585  11.575
 1410SOL    HW2 4815   1.348   1.662  11.672
 1411SOL     OW 4816   0.130   1.794  13.023
 1411SOL    HW1 4817   0.089   1.720  13.076
 1411SOL    HW2 4818   0.194   1.845  13.081
 1412SOL     OW 4819   1.280   0.927  11.844
 1412SOL    HW1 4820   1.340   0.846  11.846
 1412SOL    HW2 4821   1.320   0.996  11.784
 1413SOL     OW 4822   0.830   1.273  12.594
 1413SOL    HW1 4823   0.825   1.306  12.689
 1413SOL    HW2 4824   0.744   1.292  12.548
 1414SOL     OW 4825   0.672   1.616  11.326
 1414SOL    HW1 4826   0.681   1.626  11.227
 1414SOL    HW2 4827   0.632   1.527  11.347
 1415SOL     OW 4828   1.650   1.720  12.566
 1415SOL    HW1 4829   1.703   1.730  12.482
 1415SOL    HW2 4830   1.623   1.810  12.600
 1416SOL     OW 4831   1.841   0.175  12.135
 1416SOL    HW1 4832   1.880   0.090  12.099
 1416SOL    HW2 4833   1.743   0.177  12.116
 1417SOL     OW 4834   0.263   0.326  11.892
 1417SOL    HW1 4835   0.184   0.377  11.858
 1417SOL    HW2 4836   0.254   0.311  11.990
 1418SOL     OW 4837   1.194   1.612  11.203
 1418SOL    HW1 4838   1.200   1.519  11.240
 1418SOL    HW2 4839   1.135   1.612  11.123
 1419SOL     OW 4840   0.822   1.002  12.544
 1419SOL    HW1 4841   0.862   1.001  12.452
 1419SOL    HW2 4842   0.832   1.094  12.584
 1420SOL     OW 4843   0.916   0.910  11.463
 1420SOL    HW1 4844   0.979   0.948  11.395
 1420SOL    HW2 4845   0.956   0.827  11.502
 1421SOL     OW 4846   1.504   1.607  11.216
 1421SOL    HW1 4847   1.412   1.644  11.223
 1421SOL    HW2 4848   1.542   1.627  11.126
 1422SOL     OW 4849   0.372   1.288  12.662
 1422SOL    HW1 4850   0.359   1.381  12.628
 1422SOL    HW2 4851   0.288   1.236  12.649
 1423SOL     OW 4852   1.614   1.292  12.461
 1423SOL    HW1 4853   1.674   1.295  12.541
 1423SOL    HW2 4854   1.539   1.356  12.474
 1424SOL     OW 4855   1.039   1.098  11.868
 1424SOL    HW1 4856   0.969   1.051  11.922
 1424SOL    HW2 4857   1.098   1.030  11.825
 1425SOL     OW 4858   1.014   0.236  12.143
 1425SOL    HW1 4859   1.006   0.200  12.050
 1425SOL    HW2 4860   1.012   0.160  12.208
 1426SOL     OW 4861   0.590   1.487  11.663
 1426SOL    HW1 4862   0.632   1.429  11.593
 1426SOL    HW2 4863   0.546   1.566  11.619
 1427SOL     OW 4864   1.709   0.385  12.553
 1427SOL    HW1 4865   1.782   0.454  12.557
 1427SOL    HW2 4866   1.737   0.310  12.494
 1428SOL     OW 4867   0.255   1.348  11.462
 1428SOL    HW1 4868   0.159   1.349  11.435
 1428SOL    HW2 4869   0.267   1.401  11.546
 1429SOL     OW 4870   0.105   1.013  12.898
 1429SOL    HW1 4871   0.028   0.980  12.952
 1429SOL    HW2 4872   0.190   0.983  12.940
 1430SOL     OW 4873   0.672   0.203  12.661
 1430SOL    HW1 4874   0.762   0.187  12.621
 1430SOL    HW2 4875   0.680   0.208  12.760
 1431SOL     OW 4876   0.075   0.345  11.205
 1431SOL    HW1 4877  -0.017   0.317  11.176
 1431SOL    HW2 4878   0.106   0.422  11.149
 1432SOL     OW 4879   1.440   0.856  12.570
 1432SOL    HW1 4880   1.383   0.908  12.507
 1432SOL    HW2 4881   1.536   0.868  12.546
 1433SOL     OW 4882   0.072   0.166  11.490
 1433SOL    HW1 4883   0.055   0.249  11.436
 1433SOL    HW2 4884   0.162   0.129  11.468
 1434SOL     OW 4885   1.183   1.335  11.291
 1434SOL    HW1 4886   1.084   1.324  11.293
 1434SOL    HW2 4887   1.217   1.350  11.384
 1435SOL     OW 4888   0.613   0.842  12.603
 1435SOL    HW1 4889   0.669   0.923  12.586
 1435SOL    HW2 4890   0.672   0.762  12.606
 1436SOL     OW 4891   1.493   1.767  12.131
 1436SOL    HW1 4892   1.526   1.831  12.062
 1436SOL    HW2 4893   1.559   1.761  12.206
 1437SOL     OW 4894   0.716   0.565  12.880
 1437SOL    HW1 4895   0.735   0.630  12.954
 1437SOL    HW2 4896   0.776   0.485  12.889
 1438SOL     OW 4897   1.450   1.220  12.805
 1438SOL    HW1 4898   1.441   1.210  12.904
 1438SOL    HW2 4899   1.546   1.213  12.779
 1439SOL     OW 4900   0.390   1.741  12.732
 1439SOL    HW1 4901   0.299   1.782  12.730
 1439SOL    HW2 4902   0.383   1.647  12.764
 1440SOL     OW 4903   1.674   0.883  12.426
 1440SOL    HW1 4904   1.647   0.794  12.389
 1440SOL    HW2 4905   1.675   0.951  12.353
 1441SOL     OW 4906   1.225   0.325  11.621
 1441SOL    HW1 4907   1.290   0.251  11.610
 1441SOL    HW2 4908   1.245   0.375  11.705
 1442SOL     OW 4909   0.594   0.745  11.824
 1442SOL    HW1 4910   0.644   0.830  11.805
 1442SOL    HW2 4911   0.506   0.747  11.776
 1443SOL     OW 4912   1.777   0.342  12.814
 1443SOL    HW1 4913   1.760   0.373  12.720
 1443SOL    HW2 4914   1.693   0.305  12.852
 1444SOL     OW 4915   1.730   0.934  12.689
 1444SOL    HW1 4916   1.768   1.025  12.704
 1444SOL    HW2 4917   1.722   0.917  12.590
 1445SOL     OW 4918   0.859   1.374  11.188
 1445SOL    HW1 4919   0.813   1.389  11.276
 1445SOL    HW2 4920   0.903   1.459  11.158
 1446SOL     OW 4921   0.661   1.790  12.125
 1446SOL    HW1 4922   0.615   1.878  12.112
 1446SOL    HW2 4923   0.760   1.802  12.118
 1447SOL     OW 4924   0.859   0.956  12.033
 1447SOL    HW1 4925   0.913   0.887  12.081
 1447SOL    HW2 4926   0.827   1.025  12.099
 1448SOL     OW 4927   1.083   0.984  11.259
 1448SOL    HW1 4928   1.060   1.037  11.177
 1448SOL    HW2 4929   1.164   0.928  11.240
 1449SOL     OW 4930   1.861   1.569  12.023
 1449SOL    HW1 4931   1.790   1.557  11.953
 1449SOL    HW2 4932   1.862   1.490  12.083
 1450SOL     OW 4933   0.221   1.314  13.016
 1450SOL    HW1 4934   0.156   1.241  12.995
 1450SOL    HW2 4935   0.225   1.328  13.114
 1451SOL     OW 4936   0.079   1.240  11.825
 1451SOL    HW1 4937   0.078   1.193  11.913
 1451SOL    HW2 4938   0.161   1.212  11.774
 1452SOL     OW 4939   0.672   1.391  12.796
 1452SOL    HW1 4940   0.594   1.341  12.834
 1452SOL    HW2 4941   0.669   1.486  12.827
 1453SOL     OW 4942   1.824   0.192  12.399
 1453SOL    HW1 4943   1.820   0.102  12.443
 1453SOL    HW2 4944   1.827   0.181  12.300
 1454SOL     OW 4945   0.428   0.424  11.692
 1454SOL    HW1 4946   0.458   0.352  11.630
 1454SOL    HW2 4947   0.389   0.384  11.775
 1455SOL     OW 4948   1.705   1.487  12.276
 1455SOL    HW1 4949   1.612   1.462  12.249
 1455SOL    HW2 4950   1.731   1.437  12.358
 1456SOL     OW 4951   0.317   0.547  12.452
 1456SOL    HW1 4952   0.355   0.488  12.524
 1456SOL    HW2 4953   0.357   0.521  12.364
 1457SOL     OW 4954   0.812   1.586  11.859
 1457SOL    HW1 4955   0.844   1.596  11.765
 1457SOL    HW2 4956   0.733   1.524  11.861
 1458SOL     OW 4957   1.424   0.214  12.284
 1458SOL    HW1 4958   1.476   0.149  12.339
 1458SOL    HW2 4959   1.375   0.277  12.345
 1459SOL     OW 4960   1.001   0.034  12.326
 1459SOL    HW1 4961   0.938  -0.038  12.295
 1459SOL    HW2 4962   1.094  -0.002  12.326
 1460SOL     OW 4963   0.770   1.330  11.473
 1460SOL    HW1 4964   0.724   1.243  11.490
 1460SOL    HW2 4965   0.861   1.327  11.514
 1461SOL     OW 4966   0.618   1.567  12.456
 1461SOL    HW1 4967   0.613   1.649  12.513
 1461SOL    HW2 4968   0.707   1.564  12.411
 1462SOL     OW 4969   1.352   0.052  11.340
 1462SOL    HW1 4970   1.387   0.011  11.256
 1462SOL    HW2 4971   1.262   0.014  11.360
 1463SOL     OW 4972   1.300   0.453  11.863
 1463SOL    HW1 4973   1.241   0.533  11.867
 1463SOL    HW2 4974   1.315   0.418  11.956
 1464SOL     OW 4975   1.593   0.221  12.054
 1464SOL    HW1 4976   1.509   0.220  12.108
 1464SOL    HW2 4977   1.595   0.304  11.998
 1465SOL     OW 4978   0.039   1.077  11.472
 1465SOL    HW1 4979   0.138   1.066  11.463
 1465SOL    HW2 4980  -0.001   0.991  11.504
 1466SOL     OW 4981   0.875   1.646  11.509
 1466SOL    HW1 4982   0.798   1.611  11.455
 1466SOL    HW2 4983   0.843   1.717  11.571
 1467SOL     OW 4984   0.230   0.628  13.147
 1467SOL    HW1 4985   0.137   0.626  13.184
 1467SOL    HW2 4986   0.231   0.589  13.055
 1468SOL     OW 4987   0.225   0.275  14.030
 1468SOL    HW1 4988   0.260   0.258  14.122
 1468SOL    HW2 4989   0.137   0.230  14.018
 1469SOL     OW 4990   0.019   0.368  13.681
 1469SOL    HW1 4991  -0.063   0.411  13.720
 1469SOL    HW2 4992  -0.009   0.295  13.618
 1470SOL     OW 4993   1.555   1.511  13.737
 1470SOL    HW1 4994   1.498   1.495  13.818
 1470SOL    HW2 4995   1.496   1.521  13.657
 1471SOL     OW 4996   1.135   0.703  13.751
 1471SOL    HW1 4997   1.192   0.781  13.726
 1471SOL    HW2 4998   1.075   0.729  13.827
 1472SOL     OW 4999   1.755   0.607  13.265
 1472SOL    HW1 5000   1.743   0.594  13.166
 1472SOL    HW2 5001   1.725   0.526  13.314
 1473SOL     OW 5002   0.685   1.012  13.699
 1473SOL    HW1 5003   0.754   0.996  13.769
 1473SOL    HW2 5004   0.612   1.069  13.737
 1474SOL     OW 5005   1.603   0.447  13.771
 1474SOL    HW1 5006   1.529   0.493  13.721
 1474SOL    HW2 5007   1.654   0.515  13.824
 1475SOL     OW 5008   0.231   1.713  13.517
 1475SOL    HW1 5009   0.265   1.790  13.571
 1475SOL    HW2 5010   0.275   1.713  13.427
 1476SOL     OW 5011   0.230   1.434  13.572
 1476SOL    HW1 5012   0.204   1.530  13.572
 1476SOL    HW2 5013   0.159   1.380  13.617
 1477SOL     OW 5014   0.240   1.091  13.920
 1477SOL    HW1 5015   0.254   1.007  13.972
 1477SOL    HW2 5016   0.185   1.155  13.975
 1478SOL     OW 5017   0.606   0.964  13.157
 1478SOL    HW1 5018   0.613   1.048  13.103
 1478SOL    HW2 5019   0.652   0.977  13.245
 1479SOL     OW 5020   0.122   0.643  13.597
 1479SOL    HW1 5021   0.077   0.555  13.614
 1479SOL    HW2 5022   0.121   0.697  13.681
 1480SOL     OW 5023   0.027   1.596  13.151
 1480SOL    HW1 5024   0.008   1.500  13.172
 1480SOL    HW2 5025  -0.006   1.654  13.226
 1481SOL     OW 5026   1.689   0.922  13.646
 1481SOL    HW1 5027   1.784   0.893  13.654
 1481SOL    HW2 5028   1.681   0.987  13.571
 1482SOL     OW 5029   1.641   1.108  13.466
 1482SOL    HW1 5030   1.727   1.110  13.414
 1482SOL    HW2 5031   1.655   1.155  13.554
 1483SOL     OW 5032   0.613   1.365  13.760
 1483SOL    HW1 5033   0.564   1.278  13.769
 1483SOL    HW2 5034   0.590   1.408  13.673
 1484SOL     OW 5035   0.809   0.004  13.536
 1484SOL    HW1 5036   0.849   0.095  13.527
 1484SOL    HW2 5037   0.709   0.012  13.542
 1485SOL     OW 5038   1.525   0.999  13.224
 1485SOL    HW1 5039   1.462   0.923  13.237
 1485SOL    HW2 5040   1.573   1.017  13.310
 1486SOL     OW 5041   1.667   1.714  13.606
 1486SOL    HW1 5042   1.626   1.691  13.518
 1486SOL    HW2 5043   1.649   1.640  13.671
 1487SOL     OW 5044   0.598   0.729  13.304
 1487SOL    HW1 5045   0.622   0.798  13.236
 1487SOL    HW2 5046   0.520   0.762  13.358
 1488SOL     OW 5047   1.281   0.345  13.978
 1488SOL    HW1 5048   1.195   0.295  13.965
 1488SOL    HW2 5049   1.343   0.291  14.034
 1489SOL     OW 5050   1.576   1.662  13.341
 1489SOL    HW1 5051   1.665   1.708  13.344
 1489SOL    HW2 5052   1.555   1.638  13.246
 1490SOL     OW 5053   1.041   0.701  13.463
 1490SOL    HW1 5054   1.067   0.697  13.559
 1490SOL    HW2 5055   0.956   0.650  13.449
 1491SOL     OW 5056   0.076   0.811  13.823
 1491SOL    HW1 5057   0.175   0.799  13.832
 1491SOL    HW2 5058   0.052   0.906  13.844
 1492SOL     OW 5059   0.865   0.348  13.229
 1492SOL    HW1 5060   0.924   0.411  13.180
 1492SOL    HW2 5061   0.884   0.254  13.200
 1493SOL     OW 5062   1.362   1.144  13.579
 1493SOL    HW1 5063   1.445   1.115  13.531
 1493SOL    HW2 5064   1.313   1.211  13.523
 1494SOL     OW 5065   1.008   1.456  13.511
 1494SOL    HW1 5066   0.962   1.528  13.459
 1494SOL    HW2 5067   1.004   1.476  13.609
 1495SOL     OW 5068   0.351   1.801  13.887
 1495SOL    HW1 5069   0.401   1.715  13.893
 1495SOL    HW2 5070   0.416   1.878  13.884
 1496SOL     OW 5071   1.795   1.066  13.907
 1496SOL    HW1 5072   1.733   1.051  13.831
 1496SOL    HW2 5073   1.743   1.077  13.992
 1497SOL     OW 5074   0.321   0.943  13.276
 1497SOL    HW1 5075   0.403   0.982  13.234
 1497SOL    HW2 5076   0.294   0.861  13.227
 1498SOL     OW 5077   1.458   0.735  13.762
 1498SOL    HW1 5078   1.453   0.670  13.837
 1498SOL    HW2 5079   1.538   0.794  13.775
 1499SOL     OW 5080   1.111   1.776  13.271
 1499SOL    HW1 5081   1.051   1.714  13.321
 1499SOL    HW2 5082   1.142   1.732  13.186
 1500SOL     OW 5083   1.632   1.377  13.115
 1500SOL    HW1 5084   1.600   1.471  13.105
 1500SOL    HW2 5085   1.556   1.314  13.103
 1501SOL     OW 5086   0.464   1.743  13.357
 1501SOL    HW1 5087   0.497   1.782  13.443
 1501SOL    HW2 5088   0.540   1.736  13.292
 1502SOL     OW 5089   1.400   0.107  13.460
 1502SOL    HW1 5090   1.376   0.070  13.370
 1502SOL    HW2 5091   1.499   0.123  13.464
 1503SOL     OW 5092   0.940   1.698  13.938
 1503SOL    HW1 5093   1.020   1.641  13.959
 1503SOL    HW2 5094   0.891   1.658  13.861
 1504SOL     OW 5095   0.382   0.700  13.514
 1504SOL    HW1 5096   0.427   0.610  13.511
 1504SOL    HW2 5097   0.288   0.689  13.547
 1505SOL     OW 5098   0.614   0.122  13.151
 1505SOL    HW1 5099   0.712   0.100  13.158
 1505SOL    HW2 5100   0.583   0.105  13.058
 1506SOL     OW 5101   0.539   0.064  13.546
 1506SOL    HW1 5102   0.458   0.065  13.604
 1506SOL    HW2 5103   0.542   0.147  13.491
 1507SOL     OW 5104   1.434   1.188  13.075
 1507SOL    HW1 5105   1.466   1.112  13.132
 1507SOL    HW2 5106   1.342   1.215  13.105
 1508SOL     OW 5107   0.297   0.035  13.205
 1508SOL    HW1 5108   0.346   0.119  13.184
 1508SOL    HW2 5109   0.359  -0.030  13.250
 1509SOL     OW 5110   0.935   0.236  13.514
 1509SOL    HW1 5111   0.887   0.277  13.436
 1509SOL    HW2 5112   1.034   0.234  13.495
 1510SOL     OW 5113   0.459   1.152  13.775
 1510SOL    HW1 5114   0.388   1.125  13.840
 1510SOL    HW2 5115   0.433   1.124  13.682
 1511SOL     OW 5116   1.271   1.797  13.625
 1511SOL    HW1 5117   1.315   1.861  13.561
 1511SOL    HW2 5118   1.221   1.849  13.695
 1512SOL     OW 5119   1.032   0.549  13.050
 1512SOL    HW1 5120   0.991   0.631  13.011
 1512SOL    HW2 5121   1.096   0.575  13.123
 1513SOL     OW 5122   0.866   0.454  13.676
 1513SOL    HW1 5123   0.834   0.526  13.614
 1513SOL    HW2 5124   0.890   0.373  13.623
 1514SOL     OW 5125   1.017   0.039  13.787
 1514SOL    HW1 5126   0.945   0.044  13.718
 1514SOL    HW2 5127   0.993  -0.030  13.856
 1515SOL     OW 5128   1.857   0.833  13.411
 1515SOL    HW1 5129   1.899   0.769  13.475
 1515SOL    HW2 5130   1.819   0.782  13.333
 1516SOL     OW 5131   0.488   1.385  13.208
 1516SOL    HW1 5132   0.401   1.370  13.255
 1516SOL    HW2 5133   0.471   1.411  13.113
 1517SOL     OW 5134   1.664   1.280  13.691
 1517SOL    HW1 5135   1.763   1.288  13.705
 1517SOL    HW2 5136   1.619   1.364  13.722
 1518SOL     OW 5137   1.390   0.575  13.112
 1518SOL    HW1 5138   1.336   0.554  13.193
 1518SOL    HW2 5139   1.481   0.534  13.121
 1519SOL     OW 5140   0.527   0.256  13.362
 1519SOL    HW1 5141   0.554   0.197  13.287
 1519SOL    HW2 5142   0.527   0.351  13.331
 1520SOL     OW 5143   0.705   1.050  13.402
 1520SOL    HW1 5144   0.691   1.057  13.501
 1520SOL    HW2 5145   0.789   0.999  13.384
 1521SOL     OW 5146   0.367   1.100  13.535
 1521SOL    HW1 5147   0.360   1.183  13.479
 1521SOL    HW2 5148   0.371   1.020  13.475
 1522SOL     OW 5149   0.566   0.537  13.899
 1522SOL    HW1 5150   0.578   0.603  13.825
 1522SOL    HW2 5151   0.612   0.571  13.982
 1523SOL     OW 5152   1.252   1.348  13.422
 1523SOL    HW1 5153   1.302   1.425  13.462
 1523SOL    HW2 5154   1.157   1.350  13.454
 1524SOL     OW 5155   1.582   0.639  13.506
 1524SOL    HW1 5156   1.551   0.700  13.579
 1524SOL    HW2 5157   1.632   0.691  13.437
 1525SOL     OW 5158   1.209   0.525  13.309
 1525SOL    HW1 5159   1.222   0.441  13.363
 1525SOL    HW2 5160   1.180   0.599  13.369
 1526SOL     OW 5161   0.307   0.063  13.652
 1526SOL    HW1 5162   0.296   0.157  13.685
 1526SOL    HW2 5163   0.302   0.000  13.729
 1527SOL     OW 5164   1.622   0.367  13.408
 1527SOL    HW1 5165   1.624   0.291  13.472
 1527SOL    HW2 5166   1.574   0.444  13.448
 1528SOL     OW 5167   1.540   0.274  13.159
 1528SOL    HW1 5168   1.479   0.199  13.182
 1528SOL    HW2 5169   1.562   0.326  13.242
 1529SOL     OW 5170   1.303   0.838  13.076
 1529SOL    HW1 5171   1.337   0.745  13.091
 1529SOL    HW2 5172   1.321   0.865  12.981
 1530SOL     OW 5173   0.008   1.326  13.234
 1530SOL    HW1 5174  -0.085   1.347  13.203
 1530SOL    HW2 5175   0.018   1.227  13.247
 1531SOL     OW 5176   0.815   0.572  13.359
 1531SOL    HW1 5177   0.822   0.483  13.313
 1531SOL    HW2 5178   0.721   0.606  13.351
 1532SOL     OW 5179   0.473   0.500  13.225
 1532SOL    HW1 5180   0.534   0.580  13.229
 1532SOL    HW2 5181   0.378   0.531  13.232
 1533SOL     OW 5182   1.302   0.855  13.343
 1533SOL    HW1 5183   1.216   0.824  13.385
 1533SOL    HW2 5184   1.298   0.841  13.244
 1534SOL     OW 5185   1.726   0.135  13.557
 1534SOL    HW1 5186   1.799   0.118  13.490
 1534SOL    HW2 5187   1.695   0.048  13.595
 1535SOL     OW 5188   1.388   1.573  13.511
 1535SOL    HW1 5189   1.455   1.585  13.437
 1535SOL    HW2 5190   1.348   1.662  13.534
 1536SOL     OW 5191   1.280   0.927  13.706
 1536SOL    HW1 5192   1.340   0.846  13.708
 1536SOL    HW2 5193   1.320   0.996  13.646
 1537SOL     OW 5194   0.672   1.616  13.188
 1537SOL    HW1 5195   0.681   1.626  13.089
 1537SOL    HW2 5196   0.632   1.527  13.209
 1538SOL     OW 5197   1.841   0.175  13.997
 1538SOL    HW1 5198   1.880   0.090  13.961
 1538SOL    HW2 5199   1.743   0.177  13.978
 1539SOL     OW 5200   0.263   0.326  13.754
 1539SOL    HW1 5201   0.184   0.377  13.720
 1539SOL    HW2 5202   0.254   0.311  13.852
 1540SOL     OW 5203   1.194   1.612  13.065
 1540SOL    HW1 5204   1.200   1.519  13.102
 1540SOL    HW2 5205   1.135   1.612  12.985
 1541SOL     OW 5206   0.916   0.910  13.325
 1541SOL    HW1 5207   0.979   0.948  13.257
 1541SOL    HW2 5208   0.956   0.827  13.364
 1542SOL     OW 5209   1.504   1.607  13.078
 1542SOL    HW1 5210   1.412   1.644  13.085
 1542SOL    HW2 5211   1.542   1.627  12.988
 1543SOL     OW 5212   1.039   1.098  13.730
 1543SOL    HW1 5213   0.969   1.051  13.784
 1543SOL    HW2 5214   1.098   1.030  13.687
 1544SOL     OW 5215   0.590   1.487  13.525
 1544SOL    HW1 5216   0.632   1.429  13.455
 1544SOL    HW2 5217   0.546   1.566  13.481
 1545SOL     OW 5218   0.255   1.348  13.324
 1545SOL    HW1 5219   0.159   1.349  13.297
 1545SOL    HW2 5220   0.267   1.401  13.408
 1546SOL     OW 5221   0.075   0.345  13.067
 1546SOL    HW1 5222  -0.017   0.317  13.038
 1546SOL    HW2 5223   0.106   0.422  13.011
 1547SOL     OW 5224   0.072   0.166  13.352
 1547SOL    HW1 5225   0.055   0.249  13.298
 1547SOL    HW2 5226   0.162   0.129  13.330
 1548SOL     OW 5227   1.183   1.335  13.153
 1548SOL    HW1 5228   1.084   1.324  13.155
 1548SOL    HW2 5229   1.217   1.350  13.246
 1549SOL     OW 5230   1.225   0.325  13.483
 1549SOL    HW1 5231   1.290   0.251  13.472
 1549SOL    HW2 5232   1.245   0.375  13.567
 1550SOL     OW 5233   0.594   0.745  13.686
 1550SOL    HW1 5234   0.644   0.830  13.667
 1550SOL    HW2 5235   0.506   0.747  13.638
 1551SOL     OW 5236   0.859   1.374  13.050
 1551SOL    HW1 5237   0.813   1.389  13.138
 1551SOL    HW2 5238   0.903   1.459  13.020
 1552SOL     OW 5239   0.661   1.790  13.987
 1552SOL    HW1 5240   0.615   1.878  13.974
 1552SOL    HW2 5241   0.760   1.802  13.980
 1553SOL     OW 5242   0.859   0.956  13.895
 1553SOL    HW1 5243   0.913   0.887  13.943
 1553SOL    HW2 5244   0.827   1.025  13.961
 1554SOL     OW 5245   1.083   0.984  13.121
 1554SOL    HW1 5246   1.060   1.037  13.039
 1554SOL    HW2 5247   1.164   0.928  13.102
 1555SOL     OW 5248   0.079   1.240  13.687
 1555SOL    HW1 5249   0.078   1.193  13.775
 1555SOL    HW2 5250   0.161   1.212  13.636
 1556SOL     OW 5251   0.428   0.424  13.554
 1556SOL    HW1 5252   0.458   0.352  13.492
 1556SOL    HW2 5253   0.389   0.384  13.637
 1557SOL     OW 5254   1.705   1.487  14.138
 1557SOL    HW1 5255   1.612   1.462  14.111
 1557SOL    HW2 5256   1.731   1.437  14.220
 1558SOL     OW 5257   0.812   1.586  13.721
 1558SOL    HW1 5258   0.844   1.596  13.627
 1558SOL    HW2 5259   0.733   1.524  13.723
 1559SOL     OW 5260   0.770   1.330  13.335
 1559SOL    HW1 5261   0.724   1.243  13.352
 1559SOL    HW2 5262   0.861   1.327  13.376
 1560SOL     OW 5263   1.352   0.052  13.202
 1560SOL    HW1 5264   1.387   0.011  13.118
 1560SOL    HW2 5265   1.262   0.014  13.222
 1561SOL     OW 5266   1.300   0.453  13.725
 1561SOL    HW1 5267   1.241   0.533  13.729
 1561SOL    HW2 5268   1.315   0.418  13.818
 1562SOL     OW 5269   0.039   1.077  13.334
 1562SOL    HW1 5270   0.138   1.066  13.325
 1562SOL    HW2 5271  -0.001   0.991  13.366
 1563SOL     OW 5272   0.875   1.646  13.371
 1563SOL    HW1 5273   0.798   1.611  13.317
 1563SOL    HW2 5274   0.843   1.717  13.433
 1564SOL     OW 5275   0.230   2.490   0.113
 1564SOL    HW1 5276   0.137   2.488   0.150
 1564SOL    HW2 5277   0.231   2.451   0.021
 1565SOL     OW 5278   0.225   2.137   0.996
 1565SOL    HW1 5279   0.260   2.120   1.088
 1565SOL    HW2 5280   0.137   2.092   0.984
 1566SOL     OW 5281   0.019   2.230   0.647
 1566SOL    HW1 5282  -0.063   2.273   0.686
 1566SOL    HW2 5283  -0.009   2.157   0.584
 1567SOL     OW 5284   0.569   3.137   1.165
 1567SOL    HW1 5285   0.476   3.130   1.128
 1567SOL    HW2 5286   0.580   3.226   1.209
 1568SOL     OW 5287   1.555   3.373   0.703
 1568SOL    HW1 5288   1.498   3.357   0.784
 1568SOL    HW2 5289   1.496   3.383   0.623
 1569SOL     OW 5290   1.135   2.565   0.717
 1569SOL    HW1 5291   1.192   2.643   0.692
 1569SOL    HW2 5292   1.075   2.591   0.793
 1570SOL     OW 5293   1.755   2.469   0.231
 1570SOL    HW1 5294   1.743   2.456   0.132
 1570SOL    HW2 5295   1.725   2.388   0.280
 1571SOL     OW 5296   0.768   3.006   1.023
 1571SOL    HW1 5297   0.690   3.023   1.083
 1571SOL    HW2 5298   0.802   3.093   0.987
 1572SOL     OW 5299   0.850   2.660   1.823
 1572SOL    HW1 5300   0.846   2.736   1.888
 1572SOL    HW2 5301   0.872   2.696   1.732
 1573SOL     OW 5302   0.685   2.874   0.665
 1573SOL    HW1 5303   0.754   2.858   0.735
 1573SOL    HW2 5304   0.612   2.931   0.703
 1574SOL     OW 5305   0.686   3.023   1.803
 1574SOL    HW1 5306   0.746   3.102   1.817
 1574SOL    HW2 5307   0.600   3.054   1.762
 1575SOL     OW 5308   0.335   3.297   1.061
 1575SOL    HW1 5309   0.257   3.266   1.008
 1575SOL    HW2 5310   0.393   3.355   1.004
 1576SOL     OW 5311   1.460   3.367   1.339
 1576SOL    HW1 5312   1.484   3.461   1.365
 1576SOL    HW2 5313   1.444   3.313   1.421
 1577SOL     OW 5314   0.438   2.254   1.499
 1577SOL    HW1 5315   0.520   2.198   1.508
 1577SOL    HW2 5316   0.357   2.196   1.503
 1578SOL     OW 5317   1.603   2.309   0.737
 1578SOL    HW1 5318   1.529   2.355   0.687
 1578SOL    HW2 5319   1.654   2.377   0.790
 1579SOL     OW 5320   0.231   3.575   0.483
 1579SOL    HW1 5321   0.265   3.652   0.537
 1579SOL    HW2 5322   0.275   3.575   0.393
 1580SOL     OW 5323   1.127   3.203   1.690
 1580SOL    HW1 5324   1.174   3.203   1.778
 1580SOL    HW2 5325   1.079   3.116   1.679
 1581SOL     OW 5326   0.230   3.296   0.538
 1581SOL    HW1 5327   0.204   3.392   0.538
 1581SOL    HW2 5328   0.159   3.242   0.583
 1582SOL     OW 5329   0.240   2.953   0.886
 1582SOL    HW1 5330   0.254   2.869   0.938
 1582SOL    HW2 5331   0.185   3.017   0.941
 1583SOL     OW 5332   0.620   3.648   1.439
 1583SOL    HW1 5333   0.528   3.631   1.474
 1583SOL    HW2 5334   0.648   3.740   1.465
 1584SOL     OW 5335   0.606   2.826   0.123
 1584SOL    HW1 5336   0.613   2.910   0.069
 1584SOL    HW2 5337   0.652   2.839   0.211
 1585SOL     OW 5338   1.594   1.976   1.480
 1585SOL    HW1 5339   1.576   2.043   1.408
 1585SOL    HW2 5340   1.591   2.022   1.569
 1586SOL     OW 5341   0.122   2.505   0.563
 1586SOL    HW1 5342   0.077   2.417   0.580
 1586SOL    HW2 5343   0.121   2.559   0.647
 1587SOL     OW 5344   1.842   3.629   0.359
 1587SOL    HW1 5345   1.896   3.600   0.439
 1587SOL    HW2 5346   1.872   3.719   0.330
 1588SOL     OW 5347   0.027   3.458   0.117
 1588SOL    HW1 5348   0.008   3.362   0.138
 1588SOL    HW2 5349  -0.006   3.516   0.192
 1589SOL     OW 5350   1.689   2.784   0.612
 1589SOL    HW1 5351   1.784   2.755   0.620
 1589SOL    HW2 5352   1.681   2.849   0.537
 1590SOL     OW 5353   1.641   2.970   0.432
 1590SOL    HW1 5354   1.727   2.972   0.380
 1590SOL    HW2 5355   1.655   3.017   0.520
 1591SOL     OW 5356   0.113   2.599   1.597
 1591SOL    HW1 5357   0.201   2.586   1.642
 1591SOL    HW2 5358   0.100   2.696   1.575
 1592SOL     OW 5359   0.613   3.227   0.726
 1592SOL    HW1 5360   0.564   3.140   0.735
 1592SOL    HW2 5361   0.590   3.270   0.639
 1593SOL     OW 5362   1.293   3.090   1.423
 1593SOL    HW1 5363   1.330   3.017   1.365
 1593SOL    HW2 5364   1.345   3.095   1.508
 1594SOL     OW 5365   0.809   1.866   0.502
 1594SOL    HW1 5366   0.849   1.957   0.493
 1594SOL    HW2 5367   0.709   1.874   0.508
 1595SOL     OW 5368   0.197   2.838   1.264
 1595SOL    HW1 5369   0.286   2.793   1.250
 1595SOL    HW2 5370   0.124   2.773   1.245
 1596SOL     OW 5371   1.525   2.861   0.190
 1596SOL    HW1 5372   1.462   2.785   0.203
 1596SOL    HW2 5373   1.573   2.879   0.276
 1597SOL     OW 5374   1.187   3.654   1.616
 1597SOL    HW1 5375   1.211   3.714   1.540
 1597SOL    HW2 5376   1.194   3.559   1.586
 1598SOL     OW 5377   0.317   2.113   1.801
 1598SOL    HW1 5378   0.388   2.184   1.807
 1598SOL    HW2 5379   0.229   2.152   1.829
 1599SOL     OW 5380   1.466   3.279   0.953
 1599SOL    HW1 5381   1.407   3.285   1.033
 1599SOL    HW2 5382   1.451   3.191   0.907
 1600SOL     OW 5383   1.667   3.576   0.572
 1600SOL    HW1 5384   1.626   3.553   0.484
 1600SOL    HW2 5385   1.649   3.502   0.637
 1601SOL     OW 5386   0.598   2.591   0.270
 1601SOL    HW1 5387   0.622   2.660   0.202
 1601SOL    HW2 5388   0.520   2.624   0.324
 1602SOL     OW 5389   1.281   2.207   0.944
 1602SOL    HW1 5390   1.195   2.157   0.931
 1602SOL    HW2 5391   1.343   2.153   1.000
 1603SOL     OW 5392   1.576   3.524   0.307
 1603SOL    HW1 5393   1.665   3.570   0.310
 1603SOL    HW2 5394   1.555   3.500   0.212
 1604SOL     OW 5395   0.807   2.467   1.465
 1604SOL    HW1 5396   0.760   2.464   1.554
 1604SOL    HW2 5397   0.756   2.412   1.399
 1605SOL     OW 5398   1.394   2.331   1.674
 1605SOL    HW1 5399   1.374   2.374   1.762
 1605SOL    HW2 5400   1.472   2.269   1.683
 1606SOL     OW 5401   0.973   2.752   1.572
 1606SOL    HW1 5402   1.019   2.668   1.543
 1606SOL    HW2 5403   0.917   2.786   1.497
 1607SOL     OW 5404   0.991   2.272   1.242
 1607SOL    HW1 5405   0.914   2.306   1.296
 1607SOL    HW2 5406   0.957   2.221   1.163
 1608SOL     OW 5407   1.041   2.563   0.429
 1608SOL    HW1 5408   1.067   2.559   0.525
 1608SOL    HW2 5409   0.956   2.512   0.415
 1609SOL     OW 5410   0.076   2.673   0.789
 1609SOL    HW1 5411   0.175   2.661   0.798
 1609SOL    HW2 5412   0.052   2.768   0.810
 1610SOL     OW 5413   0.130   3.683   1.571
 1610SOL    HW1 5414   0.120   3.668   1.670
 1610SOL    HW2 5415   0.044   3.719   1.535
 1611SOL     OW 5416   0.865   2.210   0.195
 1611SOL    HW1 5417   0.924   2.273   0.146
 1611SOL    HW2 5418   0.884   2.116   0.166
 1612SOL     OW 5419   1.719   2.447   1.831
 1612SOL    HW1 5420   1.693   2.536   1.795
 1612SOL    HW2 5421   1.717   2.379   1.758
 1613SOL     OW 5422   1.362   3.006   0.545
 1613SOL    HW1 5423   1.445   2.977   0.497
 1613SOL    HW2 5424   1.313   3.073   0.489
 1614SOL     OW 5425   0.550   2.058   0.885
 1614SOL    HW1 5426   0.545   2.053   0.985
 1614SOL    HW2 5427   0.552   2.154   0.856
 1615SOL     OW 5428   1.008   3.318   0.477
 1615SOL    HW1 5429   0.962   3.390   0.425
 1615SOL    HW2 5430   1.004   3.338   0.575
 1616SOL     OW 5431   0.351   3.663   0.853
 1616SOL    HW1 5432   0.401   3.577   0.859
 1616SOL    HW2 5433   0.416   3.740   0.850
 1617SOL     OW 5434   1.795   2.928   0.873
 1617SOL    HW1 5435   1.733   2.913   0.797
 1617SOL    HW2 5436   1.743   2.939   0.958
 1618SOL     OW 5437   1.227   3.412   1.506
 1618SOL    HW1 5438   1.233   3.335   1.570
 1618SOL    HW2 5439   1.175   3.386   1.426
 1619SOL     OW 5440   0.321   2.805   0.242
 1619SOL    HW1 5441   0.403   2.844   0.200
 1619SOL    HW2 5442   0.294   2.723   0.193
 1620SOL     OW 5443   1.458   2.597   0.728
 1620SOL    HW1 5444   1.453   2.532   0.803
 1620SOL    HW2 5445   1.538   2.656   0.741
 1621SOL     OW 5446   0.461   3.128   1.727
 1621SOL    HW1 5447   0.411   3.129   1.641
 1621SOL    HW2 5448   0.398   3.110   1.803
 1622SOL     OW 5449   1.111   3.638   0.237
 1622SOL    HW1 5450   1.051   3.576   0.287
 1622SOL    HW2 5451   1.142   3.594   0.152
 1623SOL     OW 5452   0.202   2.147   1.498
 1623SOL    HW1 5453   0.122   2.207   1.485
 1623SOL    HW2 5454   0.192   2.098   1.584
 1624SOL     OW 5455   1.632   3.239   0.081
 1624SOL    HW1 5456   1.600   3.333   0.071
 1624SOL    HW2 5457   1.556   3.176   0.069
 1625SOL     OW 5458   0.464   3.605   0.323
 1625SOL    HW1 5459   0.497   3.644   0.409
 1625SOL    HW2 5460   0.540   3.598   0.258
 1626SOL     OW 5461   1.400   1.969   0.426
 1626SOL    HW1 5462   1.376   1.932   0.336
 1626SOL    HW2 5463   1.499   1.985   0.430
 1627SOL     OW 5464   0.249   3.647   1.241
 1627SOL    HW1 5465   0.306   3.582   1.291
 1627SOL    HW2 5466   0.233   3.614   1.148
 1628SOL     OW 5467   0.940   3.560   0.904
 1628SOL    HW1 5468   1.020   3.503   0.925
 1628SOL    HW2 5469   0.891   3.520   0.827
 1629SOL     OW 5470   0.382   2.562   0.480
 1629SOL    HW1 5471   0.427   2.472   0.477
 1629SOL    HW2 5472   0.288   2.551   0.513
 1630SOL     OW 5473   1.547   2.084   1.729
 1630SOL    HW1 5474   1.542   2.121   1.821
 1630SOL    HW2 5475   1.475   2.015   1.717
 1631SOL     OW 5476   0.781   2.126   1.749
 1631SOL    HW1 5477   0.848   2.065   1.792
 1631SOL    HW2 5478   0.708   2.145   1.814
 1632SOL     OW 5479   0.888   3.376   1.195
 1632SOL    HW1 5480   0.865   3.351   1.101
 1632SOL    HW2 5481   0.949   3.307   1.234
 1633SOL     OW 5482   1.351   2.452   1.433
 1633SOL    HW1 5483   1.379   2.409   1.518
 1633SOL    HW2 5484   1.376   2.548   1.434
 1634SOL     OW 5485   0.803   3.264   0.924
 1634SOL    HW1 5486   0.893   3.278   0.882
 1634SOL    HW2 5487   0.732   3.266   0.853
 1635SOL     OW 5488   0.922   2.365   0.899
 1635SOL    HW1 5489   0.897   2.356   0.803
 1635SOL    HW2 5490   0.970   2.283   0.930
 1636SOL     OW 5491   0.539   1.926   0.512
 1636SOL    HW1 5492   0.458   1.927   0.570
 1636SOL    HW2 5493   0.542   2.009   0.457
 1637SOL     OW 5494   1.434   3.050   0.041
 1637SOL    HW1 5495   1.466   2.974   0.098
 1637SOL    HW2 5496   1.342   3.077   0.071
 1638SOL     OW 5497   0.297   1.897   0.171
 1638SOL    HW1 5498   0.346   1.981   0.150
 1638SOL    HW2 5499   0.359   1.832   0.216
 1639SOL     OW 5500   0.935   2.098   0.480
 1639SOL    HW1 5501   0.887   2.139   0.402
 1639SOL    HW2 5502   1.034   2.096   0.461
 1640SOL     OW 5503   1.076   2.545   1.464
 1640SOL    HW1 5504   0.996   2.484   1.467
 1640SOL    HW2 5505   1.157   2.492   1.440
 1641SOL     OW 5506   1.227   3.432   0.793
 1641SOL    HW1 5507   1.248   3.506   0.728
 1641SOL    HW2 5508   1.295   3.432   0.866
 1642SOL     OW 5509   0.459   3.014   0.741
 1642SOL    HW1 5510   0.388   2.987   0.806
 1642SOL    HW2 5511   0.433   2.986   0.648
 1643SOL     OW 5512   1.271   3.659   0.591
 1643SOL    HW1 5513   1.315   3.723   0.527
 1643SOL    HW2 5514   1.221   3.711   0.661
 1644SOL     OW 5515   1.032   2.411   0.016
 1644SOL    HW1 5516   0.991   2.493  -0.023
 1644SOL    HW2 5517   1.096   2.437   0.089
 1645SOL     OW 5518   0.078   2.418   1.386
 1645SOL    HW1 5519   0.170   2.417   1.345
 1645SOL    HW2 5520   0.072   2.492   1.453
 1646SOL     OW 5521   0.561   2.084   1.147
 1646SOL    HW1 5522   0.599   2.000   1.184
 1646SOL    HW2 5523   0.473   2.103   1.191
 1647SOL     OW 5524   0.866   2.316   0.642
 1647SOL    HW1 5525   0.834   2.388   0.580
 1647SOL    HW2 5526   0.890   2.235   0.589
 1648SOL     OW 5527   1.017   1.901   0.753
 1648SOL    HW1 5528   0.945   1.906   0.684
 1648SOL    HW2 5529   0.993   1.832   0.822
 1649SOL     OW 5530   1.429   3.035   0.867
 1649SOL    HW1 5531   1.374   2.951   0.860
 1649SOL    HW2 5532   1.455   3.064   0.775
 1650SOL     OW 5533   1.466   2.452   0.992
 1650SOL    HW1 5534   1.436   2.357   0.999
 1650SOL    HW2 5535   1.539   2.468   1.058
 1651SOL     OW 5536   1.857   2.695   0.377
 1651SOL    HW1 5537   1.899   2.631   0.441
 1651SOL    HW2 5538   1.819   2.644   0.299
 1652SOL     OW 5539   0.488   3.247   0.174
 1652SOL    HW1 5540   0.401   3.232   0.221
 1652SOL    HW2 5541   0.471   3.273   0.079
 1653SOL     OW 5542   1.664   3.142   0.657
 1653SOL    HW1 5543   1.763   3.150   0.671
 1653SOL    HW2 5544   1.619   3.226   0.688
 1654SOL     OW 5545   1.390   2.437   0.078
 1654SOL    HW1 5546   1.336   2.416   0.159
 1654SOL    HW2 5547   1.481   2.396   0.087
 1655SOL     OW 5548   0.527   2.118   0.328
 1655SOL    HW1 5549   0.554   2.059   0.253
 1655SOL    HW2 5550   0.527   2.213   0.297
 1656SOL     OW 5551   1.754   3.085   1.588
 1656SOL    HW1 5552   1.845   3.046   1.575
 1656SOL    HW2 5553   1.762   3.181   1.612
 1657SOL     OW 5554   1.064   3.209   1.340
 1657SOL    HW1 5555   0.984   3.186   1.395
 1657SOL    HW2 5556   1.147   3.183   1.389
 1658SOL     OW 5557   1.592   3.491   1.625
 1658SOL    HW1 5558   1.619   3.525   1.535
 1658SOL    HW2 5559   1.671   3.453   1.671
 1659SOL     OW 5560   1.111   3.057   1.100
 1659SOL    HW1 5561   1.071   3.101   1.181
 1659SOL    HW2 5562   1.070   3.094   1.017
 1660SOL     OW 5563   1.638   2.961   1.079
 1660SOL    HW1 5564   1.643   3.042   1.138
 1660SOL    HW2 5565   1.552   2.963   1.028
 1661SOL     OW 5566   0.915   1.951   1.402
 1661SOL    HW1 5567   0.940   1.931   1.307
 1661SOL    HW2 5568   0.987   2.007   1.444
 1662SOL     OW 5569   0.980   2.978   1.719
 1662SOL    HW1 5570   0.881   2.984   1.729
 1662SOL    HW2 5571   1.003   2.898   1.663
 1663SOL     OW 5572   0.705   2.912   0.368
 1663SOL    HW1 5573   0.691   2.919   0.467
 1663SOL    HW2 5574   0.789   2.861   0.350
 1664SOL     OW 5575   0.410   2.675   1.251
 1664SOL    HW1 5576   0.496   2.687   1.301
 1664SOL    HW2 5577   0.368   2.588   1.278
 1665SOL     OW 5578   1.274   2.248   1.262
 1665SOL    HW1 5579   1.295   2.322   1.326
 1665SOL    HW2 5580   1.185   2.265   1.219
 1666SOL     OW 5581   0.064   3.426   1.331
 1666SOL    HW1 5582   0.018   3.508   1.297
 1666SOL    HW2 5583   0.162   3.445   1.340
 1667SOL     OW 5584   0.367   2.962   0.501
 1667SOL    HW1 5585   0.360   3.045   0.445
 1667SOL    HW2 5586   0.371   2.882   0.441
 1668SOL     OW 5587   0.566   2.399   0.865
 1668SOL    HW1 5588   0.578   2.465   0.791
 1668SOL    HW2 5589   0.612   2.433   0.948
 1669SOL     OW 5590   1.252   3.210   0.388
 1669SOL    HW1 5591   1.302   3.287   0.428
 1669SOL    HW2 5592   1.157   3.212   0.420
 1670SOL     OW 5593   1.272   3.307   1.142
 1670SOL    HW1 5594   1.319   3.320   1.229
 1670SOL    HW2 5595   1.206   3.233   1.151
 1671SOL     OW 5596   1.582   2.501   0.472
 1671SOL    HW1 5597   1.551   2.562   0.545
 1671SOL    HW2 5598   1.632   2.553   0.403
 1672SOL     OW 5599   0.354   3.372   1.329
 1672SOL    HW1 5600   0.333   3.328   1.242
 1672SOL    HW2 5601   0.451   3.398   1.332
 1673SOL     OW 5602   0.402   2.613   1.598
 1673SOL    HW1 5603   0.470   2.668   1.551
 1673SOL    HW2 5604   0.442   2.525   1.625
 1674SOL     OW 5605   1.587   2.641   1.670
 1674SOL    HW1 5606   1.495   2.679   1.665
 1674SOL    HW2 5607   1.647   2.688   1.605
 1675SOL     OW 5608   1.013   1.967   1.770
 1675SOL    HW1 5609   1.019   2.052   1.718
 1675SOL    HW2 5610   1.045   1.891   1.713
 1676SOL     OW 5611   0.504   1.912   1.740
 1676SOL    HW1 5612   0.462   1.855   1.670
 1676SOL    HW2 5613   0.438   1.981   1.772
 1677SOL     OW 5614   0.573   2.732   1.029
 1677SOL    HW1 5615   0.617   2.821   1.020
 1677SOL    HW2 5616   0.510   2.732   1.106
 1678SOL     OW 5617   1.360   2.724   1.045
 1678SOL    HW1 5618   1.285   2.724   0.979
 1678SOL    HW2 5619   1.397   2.632   1.054
 1679SOL     OW 5620   1.209   2.387   0.275
 1679SOL    HW1 5621   1.222   2.303   0.329
 1679SOL    HW2 5622   1.180   2.461   0.335
 1680SOL     OW 5623   0.307   2.075   1.231
 1680SOL    HW1 5624   0.284   2.112   1.321
 1680SOL    HW2 5625   0.277   1.980   1.225
 1681SOL     OW 5626   0.037   3.172   1.282
 1681SOL    HW1 5627   0.090   3.123   1.350
 1681SOL    HW2 5628   0.059   3.270   1.287
 1682SOL     OW 5629   0.732   2.496   1.064
 1682SOL    HW1 5630   0.791   2.470   0.988
 1682SOL    HW2 5631   0.704   2.592   1.053
 1683SOL     OW 5632   1.728   2.797   1.854
 1683SOL    HW1 5633   1.682   2.790   1.765
 1683SOL    HW2 5634   1.666   2.841   1.920
 1684SOL     OW 5635   0.307   1.925   0.618
 1684SOL    HW1 5636   0.296   2.019   0.651
 1684SOL    HW2 5637   0.302   1.862   0.695
 1685SOL     OW 5638   1.622   2.229   0.374
 1685SOL    HW1 5639   1.624   2.153   0.438
 1685SOL    HW2 5640   1.574   2.306   0.414
 1686SOL     OW 5641   1.023   2.628   0.966
 1686SOL    HW1 5642   1.038   2.649   1.062
 1686SOL    HW2 5643   0.993   2.533   0.957
 1687SOL     OW 5644   0.980   3.435   1.700
 1687SOL    HW1 5645   0.960   3.479   1.612
 1687SOL    HW2 5646   1.019   3.344   1.684
 1688SOL     OW 5647   1.859   3.380   1.605
 1688SOL    HW1 5648   1.873   3.407   1.510
 1688SOL    HW2 5649   1.942   3.402   1.658
 1689SOL     OW 5650   0.350   2.760   1.804
 1689SOL    HW1 5651   0.426   2.804   1.852
 1689SOL    HW2 5652   0.385   2.713   1.722
 1690SOL     OW 5653   1.540   2.136   0.125
 1690SOL    HW1 5654   1.479   2.061   0.148
 1690SOL    HW2 5655   1.562   2.188   0.208
 1691SOL     OW 5656   1.303   2.700   0.042
 1691SOL    HW1 5657   1.337   2.607   0.057
 1691SOL    HW2 5658   1.321   2.727  -0.053
 1692SOL     OW 5659   1.068   3.195   0.849
 1692SOL    HW1 5660   1.075   3.111   0.794
 1692SOL    HW2 5661   1.130   3.264   0.813
 1693SOL     OW 5662   0.319   2.672   0.949
 1693SOL    HW1 5663   0.412   2.708   0.954
 1693SOL    HW2 5664   0.313   2.587   1.001
 1694SOL     OW 5665   0.339   2.371   1.006
 1694SOL    HW1 5666   0.287   2.288   0.989
 1694SOL    HW2 5667   0.416   2.376   0.942
 1695SOL     OW 5668   1.138   2.242   1.678
 1695SOL    HW1 5669   1.093   2.305   1.742
 1695SOL    HW2 5670   1.231   2.273   1.661
 1696SOL     OW 5671   1.160   2.069   1.477
 1696SOL    HW1 5672   1.160   2.133   1.554
 1696SOL    HW2 5673   1.188   2.117   1.394
 1697SOL     OW 5674   0.008   3.188   0.200
 1697SOL    HW1 5675  -0.085   3.209   0.169
 1697SOL    HW2 5676   0.018   3.089   0.213
 1698SOL     OW 5677   0.088   3.663   0.927
 1698SOL    HW1 5678   0.046   3.577   0.900
 1698SOL    HW2 5679   0.182   3.666   0.893
 1699SOL     OW 5680   0.504   3.430   0.910
 1699SOL    HW1 5681   0.570   3.504   0.919
 1699SOL    HW2 5682   0.548   3.351   0.868
 1700SOL     OW 5683   1.002   2.658   1.238
 1700SOL    HW1 5684   1.043   2.626   1.324
 1700SOL    HW2 5685   0.906   2.631   1.235
 1701SOL     OW 5686   0.040   2.406   1.114
 1701SOL    HW1 5687   0.125   2.373   1.073
 1701SOL    HW2 5688   0.053   2.421   1.212
 1702SOL     OW 5689   0.189   2.382   1.722
 1702SOL    HW1 5690   0.248   2.342   1.652
 1702SOL    HW2 5691   0.131   2.453   1.681
 1703SOL     OW 5692   1.369   2.812   1.660
 1703SOL    HW1 5693   1.408   2.901   1.680
 1703SOL    HW2 5694   1.379   2.792   1.563
 1704SOL     OW 5695   0.815   2.434   0.325
 1704SOL    HW1 5696   0.822   2.345   0.279
 1704SOL    HW2 5697   0.721   2.468   0.317
 1705SOL     OW 5698   1.657   2.466   1.206
 1705SOL    HW1 5699   1.619   2.397   1.268
 1705SOL    HW2 5700   1.739   2.430   1.162
 1706SOL     OW 5701   0.252   3.426   1.744
 1706SOL    HW1 5702   0.222   3.483   1.820
 1706SOL    HW2 5703   0.245   3.329   1.770
 1707SOL     OW 5704   0.671   2.326   1.269
 1707SOL    HW1 5705   0.637   2.237   1.239
 1707SOL    HW2 5706   0.697   2.380   1.189
 1708SOL     OW 5707   0.930   3.540   1.465
 1708SOL    HW1 5708   0.906   3.522   1.370
 1708SOL    HW2 5709   0.960   3.634   1.475
 1709SOL     OW 5710   0.473   2.362   0.191
 1709SOL    HW1 5711   0.534   2.442   0.195
 1709SOL    HW2 5712   0.378   2.393   0.198
 1710SOL     OW 5713   0.159   2.999   1.466
 1710SOL    HW1 5714   0.181   2.938   1.542
 1710SOL    HW2 5715   0.169   2.950   1.380
 1711SOL     OW 5716   1.347   2.921   1.234
 1711SOL    HW1 5717   1.371   2.858   1.160
 1711SOL    HW2 5718   1.257   2.961   1.216
 1712SOL     OW 5719   1.302   2.717   0.309
 1712SOL    HW1 5720   1.216   2.686   0.351
 1712SOL    HW2 5721   1.298   2.703   0.210
 1713SOL     OW 5722   1.759   3.609   1.154
 1713SOL    HW1 5723   1.820   3.639   1.081
 1713SOL    HW2 5724   1.721   3.520   1.132
 1714SOL     OW 5725   1.252   3.593   1.128
 1714SOL    HW1 5726   1.336   3.598   1.074
 1714SOL    HW2 5727   1.229   3.497   1.146
 1715SOL     OW 5728   0.083   3.120   1.022
 1715SOL    HW1 5729   0.078   3.119   1.122
 1715SOL    HW2 5730   0.000   3.079   0.984
 1716SOL     OW 5731   0.688   3.524   1.716
 1716SOL    HW1 5732   0.632   3.605   1.725
 1716SOL    HW2 5733   0.740   3.528   1.630
 1717SOL     OW 5734   0.903   1.948   0.133
 1717SOL    HW1 5735   0.954   1.949   0.047
 1717SOL    HW2 5736   0.959   1.906   0.204
 1718SOL     OW 5737   1.726   1.997   0.523
 1718SOL    HW1 5738   1.799   1.980   0.456
 1718SOL    HW2 5739   1.695   1.910   0.561
 1719SOL     OW 5740   1.388   3.435   0.477
 1719SOL    HW1 5741   1.455   3.447   0.403
 1719SOL    HW2 5742   1.348   3.524   0.500
 1720SOL     OW 5743   0.130   3.656   1.851
 1720SOL    HW1 5744   0.089   3.582   1.904
 1720SOL    HW2 5745   0.194   3.707   1.909
 1721SOL     OW 5746   1.280   2.789   0.672
 1721SOL    HW1 5747   1.340   2.708   0.674
 1721SOL    HW2 5748   1.320   2.858   0.612
 1722SOL     OW 5749   0.830   3.135   1.422
 1722SOL    HW1 5750   0.825   3.168   1.517
 1722SOL    HW2 5751   0.744   3.154   1.376
 1723SOL     OW 5752   0.672   3.478   0.154
 1723SOL    HW1 5753   0.681   3.488   0.055
 1723SOL    HW2 5754   0.632   3.389   0.175
 1724SOL     OW 5755   1.650   3.582   1.394
 1724SOL    HW1 5756   1.703   3.592   1.310
 1724SOL    HW2 5757   1.623   3.672   1.428
 1725SOL     OW 5758   0.263   2.188   0.720
 1725SOL    HW1 5759   0.184   2.239   0.686
 1725SOL    HW2 5760   0.254   2.173   0.818
 1726SOL     OW 5761   1.194   3.474   0.031
 1726SOL    HW1 5762   1.200   3.381   0.068
 1726SOL    HW2 5763   1.135   3.474  -0.049
 1727SOL     OW 5764   0.822   2.864   1.372
 1727SOL    HW1 5765   0.862   2.863   1.280
 1727SOL    HW2 5766   0.832   2.956   1.412
 1728SOL     OW 5767   0.916   2.772   0.291
 1728SOL    HW1 5768   0.979   2.810   0.223
 1728SOL    HW2 5769   0.956   2.689   0.330
 1729SOL     OW 5770   1.504   3.469   0.044
 1729SOL    HW1 5771   1.412   3.506   0.051
 1729SOL    HW2 5772   1.542   3.489  -0.046
 1730SOL     OW 5773   0.372   3.150   1.490
 1730SOL    HW1 5774   0.359   3.243   1.456
 1730SOL    HW2 5775   0.288   3.098   1.477
 1731SOL     OW 5776   1.614   3.154   1.289
 1731SOL    HW1 5777   1.674   3.157   1.369
 1731SOL    HW2 5778   1.539   3.218   1.302
 1732SOL     OW 5779   1.039   2.960   0.696
 1732SOL    HW1 5780   0.969   2.913   0.750
 1732SOL    HW2 5781   1.098   2.892   0.653
 1733SOL     OW 5782   1.014   2.098   0.971
 1733SOL    HW1 5783   1.006   2.062   0.878
 1733SOL    HW2 5784   1.012   2.022   1.036
 1734SOL     OW 5785   0.590   3.349   0.491
 1734SOL    HW1 5786   0.632   3.291   0.421
 1734SOL    HW2 5787   0.546   3.428   0.447
 1735SOL     OW 5788   0.255   3.210   0.290
 1735SOL    HW1 5789   0.159   3.211   0.263
 1735SOL    HW2 5790   0.267   3.263   0.374
 1736SOL     OW 5791   0.105   2.875   1.726
 1736SOL    HW1 5792   0.028   2.842   1.780
 1736SOL    HW2 5793   0.190   2.845   1.768
 1737SOL     OW 5794   0.672   2.065   1.489
 1737SOL    HW1 5795   0.762   2.049   1.449
 1737SOL    HW2 5796   0.680   2.070   1.588
 1738SOL     OW 5797   0.075   2.207   0.033
 1738SOL    HW1 5798  -0.017   2.179   0.004
 1738SOL    HW2 5799   0.106   2.284  -0.023
 1739SOL     OW 5800   1.440   2.718   1.398
 1739SOL    HW1 5801   1.383   2.770   1.335
 1739SOL    HW2 5802   1.536   2.730   1.374
 1740SOL     OW 5803   0.072   2.028   0.318
 1740SOL    HW1 5804   0.055   2.111   0.264
 1740SOL    HW2 5805   0.162   1.991   0.296
 1741SOL     OW 5806   1.183   3.197   0.119
 1741SOL    HW1 5807   1.084   3.186   0.121
 1741SOL    HW2 5808   1.217   3.212   0.212
 1742SOL     OW 5809   0.613   2.704   1.431
 1742SOL    HW1 5810   0.669   2.785   1.414
 1742SOL    HW2 5811   0.672   2.624   1.434
 1743SOL     OW 5812   1.493   3.629   0.959
 1743SOL    HW1 5813   1.526   3.693   0.890
 1743SOL    HW2 5814   1.559   3.623   1.034
 1744SOL     OW 5815   0.716   2.427   1.708
 1744SOL    HW1 5816   0.735   2.492   1.782
 1744SOL    HW2 5817   0.776   2.347   1.717
 1745SOL     OW 5818   1.450   3.082   1.633
 1745SOL    HW1 5819   1.441   3.072   1.732
 1745SOL    HW2 5820   1.546   3.075   1.607
 1746SOL     OW 5821   0.390   3.603   1.560
 1746SOL    HW1 5822   0.299   3.644   1.558
 1746SOL    HW2 5823   0.383   3.509   1.592
 1747SOL     OW 5824   1.674   2.745   1.254
 1747SOL    HW1 5825   1.647   2.656   1.217
 1747SOL    HW2 5826   1.675   2.813   1.181
 1748SOL     OW 5827   1.225   2.187   0.449
 1748SOL    HW1 5828   1.290   2.113   0.438
 1748SOL    HW2 5829   1.245   2.237   0.533
 1749SOL     OW 5830   0.594   2.607   0.652
 1749SOL    HW1 5831   0.644   2.692   0.633
 1749SOL    HW2 5832   0.506   2.609   0.604
 1750SOL     OW 5833   1.730   2.796   1.517
 1750SOL    HW1 5834   1.768   2.887   1.532
 1750SOL    HW2 5835   1.722   2.779   1.418
 1751SOL     OW 5836   0.859   3.236   0.016
 1751SOL    HW1 5837   0.813   3.251   0.104
 1751SOL    HW2 5838   0.903   3.321  -0.014
 1752SOL     OW 5839   0.661   3.652   0.953
 1752SOL    HW1 5840   0.615   3.740   0.940
 1752SOL    HW2 5841   0.760   3.664   0.946
 1753SOL     OW 5842   0.859   2.818   0.861
 1753SOL    HW1 5843   0.913   2.749   0.909
 1753SOL    HW2 5844   0.827   2.887   0.927
 1754SOL     OW 5845   1.083   2.846   0.087
 1754SOL    HW1 5846   1.060   2.899   0.005
 1754SOL    HW2 5847   1.164   2.790   0.068
 1755SOL     OW 5848   1.861   3.431   0.851
 1755SOL    HW1 5849   1.790   3.419   0.781
 1755SOL    HW2 5850   1.862   3.352   0.911
 1756SOL     OW 5851   0.221   3.176   1.844
 1756SOL    HW1 5852   0.156   3.103   1.823
 1756SOL    HW2 5853   0.225   3.190   1.942
 1757SOL     OW 5854   0.079   3.102   0.653
 1757SOL    HW1 5855   0.078   3.055   0.741
 1757SOL    HW2 5856   0.161   3.074   0.602
 1758SOL     OW 5857   0.672   3.253   1.624
 1758SOL    HW1 5858   0.594   3.203   1.662
 1758SOL    HW2 5859   0.669   3.348   1.655
 1759SOL     OW 5860   0.428   2.286   0.520
 1759SOL    HW1 5861   0.458   2.214   0.458
 1759SOL    HW2 5862   0.389   2.246   0.603
 1760SOL     OW 5863   1.705   3.349   1.104
 1760SOL    HW1 5864   1.612   3.324   1.077
 1760SOL    HW2 5865   1.731   3.299   1.186
 1761SOL     OW 5866   0.317   2.409   1.280
 1761SOL    HW1 5867   0.355   2.350   1.352
 1761SOL    HW2 5868   0.357   2.383   1.192
 1762SOL     OW 5869   0.812   3.448   0.687
 1762SOL    HW1 5870   0.844   3.458   0.593
 1762SOL    HW2 5871   0.733   3.386   0.689
 1763SOL     OW 5872   1.424   2.076   1.112
 1763SOL    HW1 5873   1.476   2.011   1.167
 1763SOL    HW2 5874   1.375   2.139   1.173
 1764SOL     OW 5875   1.001   1.896   1.154
 1764SOL    HW1 5876   0.938   1.824   1.123
 1764SOL    HW2 5877   1.094   1.860   1.154
 1765SOL     OW 5878   0.770   3.192   0.301
 1765SOL    HW1 5879   0.724   3.105   0.318
 1765SOL    HW2 5880   0.861   3.189   0.342
 1766SOL     OW 5881   0.618   3.429   1.284
 1766SOL    HW1 5882   0.613   3.511   1.341
 1766SOL    HW2 5883   0.707   3.426   1.239
 1767SOL     OW 5884   1.352   1.914   0.168
 1767SOL    HW1 5885   1.387   1.873   0.084
 1767SOL    HW2 5886   1.262   1.876   0.188
 1768SOL     OW 5887   1.300   2.315   0.691
 1768SOL    HW1 5888   1.241   2.395   0.695
 1768SOL    HW2 5889   1.315   2.280   0.784
 1769SOL     OW 5890   1.593   2.083   0.882
 1769SOL    HW1 5891   1.509   2.082   0.936
 1769SOL    HW2 5892   1.595   2.166   0.826
 1770SOL     OW 5893   0.039   2.939   0.300
 1770SOL    HW1 5894   0.138   2.928   0.291
 1770SOL    HW2 5895  -0.001   2.853   0.332
 1771SOL     OW 5896   0.875   3.508   0.337
 1771SOL    HW1 5897   0.798   3.473   0.283
 1771SOL    HW2 5898   0.843   3.579   0.399
 1772SOL     OW 5899   0.230   2.490   1.975
 1772SOL    HW1 5900   0.137   2.488   2.012
 1772SOL    HW2 5901   0.231   2.451   1.883
 1773SOL     OW 5902   0.225   2.137   2.858
 1773SOL    HW1 5903   0.260   2.120   2.950
 1773SOL    HW2 5904   0.137   2.092   2.846
 1774SOL     OW 5905   0.019   2.230   2.509
 1774SOL    HW1 5906  -0.063   2.273   2.548
 1774SOL    HW2 5907  -0.009   2.157   2.446
 1775SOL     OW 5908   0.569   3.137   3.027
 1775SOL    HW1 5909   0.476   3.130   2.990
 1775SOL    HW2 5910   0.580   3.226   3.071
 1776SOL     OW 5911   1.555   3.373   2.565
 1776SOL    HW1 5912   1.498   3.357   2.646
 1776SOL    HW2 5913   1.496   3.383   2.485
 1777SOL     OW 5914   1.135   2.565   2.579
 1777SOL    HW1 5915   1.192   2.643   2.554
 1777SOL    HW2 5916   1.075   2.591   2.655
 1778SOL     OW 5917   1.755   2.469   2.093
 1778SOL    HW1 5918   1.743   2.456   1.994
 1778SOL    HW2 5919   1.725   2.388   2.142
 1779SOL     OW 5920   0.768   3.006   2.885
 1779SOL    HW1 5921   0.690   3.023   2.945
 1779SOL    HW2 5922   0.802   3.093   2.849
 1780SOL     OW 5923   0.850   2.660   3.685
 1780SOL    HW1 5924   0.846   2.736   3.750
 1780SOL    HW2 5925   0.872   2.696   3.594
 1781SOL     OW 5926   0.685   2.874   2.527
 1781SOL    HW1 5927   0.754   2.858   2.597
 1781SOL    HW2 5928   0.612   2.931   2.565
 1782SOL     OW 5929   0.686   3.023   3.665
 1782SOL    HW1 5930   0.746   3.102   3.679
 1782SOL    HW2 5931   0.600   3.054   3.624
 1783SOL     OW 5932   0.335   3.297   2.923
 1783SOL    HW1 5933   0.257   3.266   2.870
 1783SOL    HW2 5934   0.393   3.355   2.866
 1784SOL     OW 5935   1.460   3.367   3.201
 1784SOL    HW1 5936   1.484   3.461   3.227
 1784SOL    HW2 5937   1.444   3.313   3.283
 1785SOL     OW 5938   0.438   2.254   3.361
 1785SOL    HW1 5939   0.520   2.198   3.370
 1785SOL    HW2 5940   0.357   2.196   3.365
 1786SOL     OW 5941   1.603   2.309   2.599
 1786SOL    HW1 5942   1.529   2.355   2.549
 1786SOL    HW2 5943   1.654   2.377   2.652
 1787SOL     OW 5944   0.231   3.575   2.345
 1787SOL    HW1 5945   0.265   3.652   2.399
 1787SOL    HW2 5946   0.275   3.575   2.255
 1788SOL     OW 5947   1.127   3.203   3.552
 1788SOL    HW1 5948   1.174   3.203   3.640
 1788SOL    HW2 5949   1.079   3.116   3.541
 1789SOL     OW 5950   0.230   3.296   2.400
 1789SOL    HW1 5951   0.204   3.392   2.400
 1789SOL    HW2 5952   0.159   3.242   2.445
 1790SOL     OW 5953   0.240   2.953   2.748
 1790SOL    HW1 5954   0.254   2.869   2.800
 1790SOL    HW2 5955   0.185   3.017   2.803
 1791SOL     OW 5956   0.620   3.648   3.301
 1791SOL    HW1 5957   0.528   3.631   3.336
 1791SOL    HW2 5958   0.648   3.740   3.327
 1792SOL     OW 5959   0.606   2.826   1.985
 1792SOL    HW1 5960   0.613   2.910   1.931
 1792SOL    HW2 5961   0.652   2.839   2.073
 1793SOL     OW 5962   1.594   1.976   3.342
 1793SOL    HW1 5963   1.576   2.043   3.270
 1793SOL    HW2 5964   1.591   2.022   3.431
 1794SOL     OW 5965   0.122   2.505   2.425
 1794SOL    HW1 5966   0.077   2.417   2.442
 1794SOL    HW2 5967   0.121   2.559   2.509
 1795SOL     OW 5968   1.842   3.629   2.221
 1795SOL    HW1 5969   1.896   3.600   2.301
 1795SOL    HW2 5970   1.872   3.719   2.192
 1796SOL     OW 5971   0.027   3.458   1.979
 1796SOL    HW1 5972   0.008   3.362   2.000
 1796SOL    HW2 5973  -0.006   3.516   2.054
 1797SOL     OW 5974   1.689   2.784   2.474
 1797SOL    HW1 5975   1.784   2.755   2.482
 1797SOL    HW2 5976   1.681   2.849   2.399
 1798SOL     OW 5977   1.641   2.970   2.294
 1798SOL    HW1 5978   1.727   2.972   2.242
 1798SOL    HW2 5979   1.655   3.017   2.382
 1799SOL     OW 5980   0.113   2.599   3.459
 1799SOL    HW1 5981   0.201   2.586   3.504
 1799SOL    HW2 5982   0.100   2.696   3.437
 1800SOL     OW 5983   0.613   3.227   2.588
 1800SOL    HW1 5984   0.564   3.140   2.597
 1800SOL    HW2 5985   0.590   3.270   2.501
 1801SOL     OW 5986   1.293   3.090   3.285
 1801SOL    HW1 5987   1.330   3.017   3.227
 1801SOL    HW2 5988   1.345   3.095   3.370
 1802SOL     OW 5989   0.809   1.866   2.364
 1802SOL    HW1 5990   0.849   1.957   2.355
 1802SOL    HW2 5991   0.709   1.874   2.370
 1803SOL     OW 5992   0.197   2.838   3.126
 1803SOL    HW1 5993   0.286   2.793   3.112
 1803SOL    HW2 5994   0.124   2.773   3.107
 1804SOL     OW 5995   1.525   2.861   2.052
 1804SOL    HW1 5996   1.462   2.785   2.065
 1804SOL    HW2 5997   1.573   2.879   2.138
 1805SOL     OW 5998   1.187   3.654   3.478
 1805SOL    HW1 5999   1.211   3.714   3.402
 1805SOL    HW2 6000   1.194   3.559   3.448
 1806SOL     OW 6001   0.317   2.113   3.663
 1806SOL    HW1 6002   0.388   2.184   3.669
 1806SOL    HW2 6003   0.229   2.152   3.691
 1807SOL     OW 6004   1.466   3.279   2.815
 1807SOL    HW1 6005   1.407   3.285   2.895
 1807SOL    HW2 6006   1.451   3.191   2.769
 1808SOL     OW 6007   1.667   3.576   2.434
 1808SOL    HW1 6008   1.626   3.553   2.346
 1808SOL    HW2 6009   1.649   3.502   2.499
 1809SOL     OW 6010   0.598   2.591   2.132
 1809SOL    HW1 6011   0.622   2.660   2.064
 1809SOL    HW2 6012   0.520   2.624   2.186
 1810SOL     OW 6013   1.281   2.207   2.806
 1810SOL    HW1 6014   1.195   2.157   2.793
 1810SOL    HW2 6015   1.343   2.153   2.862
 1811SOL     OW 6016   1.576   3.524   2.169
 1811SOL    HW1 6017   1.665   3.570   2.172
 1811SOL    HW2 6018   1.555   3.500   2.074
 1812SOL     OW 6019   0.807   2.467   3.327
 1812SOL    HW1 6020   0.760   2.464   3.416
 1812SOL    HW2 6021   0.756   2.412   3.261
 1813SOL     OW 6022   1.394   2.331   3.536
 1813SOL    HW1 6023   1.374   2.374   3.624
 1813SOL    HW2 6024   1.472   2.269   3.545
 1814SOL     OW 6025   0.973   2.752   3.434
 1814SOL    HW1 6026   1.019   2.668   3.405
 1814SOL    HW2 6027   0.917   2.786   3.359
 1815SOL     OW 6028   0.991   2.272   3.104
 1815SOL    HW1 6029   0.914   2.306   3.158
 1815SOL    HW2 6030   0.957   2.221   3.025
 1816SOL     OW 6031   1.041   2.563   2.291
 1816SOL    HW1 6032   1.067   2.559   2.387
 1816SOL    HW2 6033   0.956   2.512   2.277
 1817SOL     OW 6034   0.076   2.673   2.651
 1817SOL    HW1 6035   0.175   2.661   2.660
 1817SOL    HW2 6036   0.052   2.768   2.672
 1818SOL     OW 6037   0.130   3.683   3.433
 1818SOL    HW1 6038   0.120   3.668   3.532
 1818SOL    HW2 6039   0.044   3.719   3.397
 1819SOL     OW 6040   0.865   2.210   2.057
 1819SOL    HW1 6041   0.924   2.273   2.008
 1819SOL    HW2 6042   0.884   2.116   2.028
 1820SOL     OW 6043   1.719   2.447   3.693
 1820SOL    HW1 6044   1.693   2.536   3.657
 1820SOL    HW2 6045   1.717   2.379   3.620
 1821SOL     OW 6046   1.362   3.006   2.407
 1821SOL    HW1 6047   1.445   2.977   2.359
 1821SOL    HW2 6048   1.313   3.073   2.351
 1822SOL     OW 6049   0.550   2.058   2.747
 1822SOL    HW1 6050   0.545   2.053   2.847
 1822SOL    HW2 6051   0.552   2.154   2.718
 1823SOL     OW 6052   1.008   3.318   2.339
 1823SOL    HW1 6053   0.962   3.390   2.287
 1823SOL    HW2 6054   1.004   3.338   2.437
 1824SOL     OW 6055   0.351   3.663   2.715
 1824SOL    HW1 6056   0.401   3.577   2.721
 1824SOL    HW2 6057   0.416   3.740   2.712
 1825SOL     OW 6058   1.795   2.928   2.735
 1825SOL    HW1 6059   1.733   2.913   2.659
 1825SOL    HW2 6060   1.743   2.939   2.820
 1826SOL     OW 6061   1.227   3.412   3.368
 1826SOL    HW1 6062   1.233   3.335   3.432
 1826SOL    HW2 6063   1.175   3.386   3.288
 1827SOL     OW 6064   0.321   2.805   2.104
 1827SOL    HW1 6065   0.403   2.844   2.062
 1827SOL    HW2 6066   0.294   2.723   2.055
 1828SOL     OW 6067   1.458   2.597   2.590
 1828SOL    HW1 6068   1.453   2.532   2.665
 1828SOL    HW2 6069   1.538   2.656   2.603
 1829SOL     OW 6070   0.461   3.128   3.589
 1829SOL    HW1 6071   0.411   3.129   3.503
 1829SOL    HW2 6072   0.398   3.110   3.665
 1830SOL     OW 6073   1.111   3.638   2.099
 1830SOL    HW1 6074   1.051   3.576   2.149
 1830SOL    HW2 6075   1.142   3.594   2.014
 1831SOL     OW 6076   0.202   2.147   3.360
 1831SOL    HW1 6077   0.122   2.207   3.347
 1831SOL    HW2 6078   0.192   2.098   3.446
 1832SOL     OW 6079   1.632   3.239   1.943
 1832SOL    HW1 6080   1.600   3.333   1.933
 1832SOL    HW2 6081   1.556   3.176   1.931
 1833SOL     OW 6082   0.464   3.605   2.185
 1833SOL    HW1 6083   0.497   3.644   2.271
 1833SOL    HW2 6084   0.540   3.598   2.120
 1834SOL     OW 6085   1.400   1.969   2.288
 1834SOL    HW1 6086   1.376   1.932   2.198
 1834SOL    HW2 6087   1.499   1.985   2.292
 1835SOL     OW 6088   0.249   3.647   3.103
 1835SOL    HW1 6089   0.306   3.582   3.153
 1835SOL    HW2 6090   0.233   3.614   3.010
 1836SOL     OW 6091   0.940   3.560   2.766
 1836SOL    HW1 6092   1.020   3.503   2.787
 1836SOL    HW2 6093   0.891   3.520   2.689
 1837SOL     OW 6094   0.382   2.562   2.342
 1837SOL    HW1 6095   0.427   2.472   2.339
 1837SOL    HW2 6096   0.288   2.551   2.375
 1838SOL     OW 6097   1.547   2.084   3.591
 1838SOL    HW1 6098   1.542   2.121   3.683
 1838SOL    HW2 6099   1.475   2.015   3.579
 1839SOL     OW 6100   0.614   1.984   1.979
 1839SOL    HW1 6101   0.712   1.962   1.986
 1839SOL    HW2 6102   0.583   1.967   1.886
 1840SOL     OW 6103   0.781   2.126   3.611
 1840SOL    HW1 6104   0.848   2.065   3.654
 1840SOL    HW2 6105   0.708   2.145   3.676
 1841SOL     OW 6106   0.888   3.376   3.057
 1841SOL    HW1 6107   0.865   3.351   2.963
 1841SOL    HW2 6108   0.949   3.307   3.096
 1842SOL     OW 6109   1.351   2.452   3.295
 1842SOL    HW1 6110   1.379   2.409   3.380
 1842SOL    HW2 6111   1.376   2.548   3.296
 1843SOL     OW 6112   0.803   3.264   2.786
 1843SOL    HW1 6113   0.893   3.278   2.744
 1843SOL    HW2 6114   0.732   3.266   2.715
 1844SOL     OW 6115   0.922   2.365   2.761
 1844SOL    HW1 6116   0.897   2.356   2.665
 1844SOL    HW2 6117   0.970   2.283   2.792
 1845SOL     OW 6118   0.539   1.926   2.374
 1845SOL    HW1 6119   0.458   1.927   2.432
 1845SOL    HW2 6120   0.542   2.009   2.319
 1846SOL     OW 6121   1.434   3.050   1.903
 1846SOL    HW1 6122   1.466   2.974   1.960
 1846SOL    HW2 6123   1.342   3.077   1.933
 1847SOL     OW 6124   0.297   1.897   2.033
 1847SOL    HW1 6125   0.346   1.981   2.012
 1847SOL    HW2 6126   0.359   1.832   2.078
 1848SOL     OW 6127   0.935   2.098   2.342
 1848SOL    HW1 6128   0.887   2.139   2.264
 1848SOL    HW2 6129   1.034   2.096   2.323
 1849SOL     OW 6130   1.076   2.545   3.326
 1849SOL    HW1 6131   0.996   2.484   3.329
 1849SOL    HW2 6132   1.157   2.492   3.302
 1850SOL     OW 6133   1.227   3.432   2.655
 1850SOL    HW1 6134   1.248   3.506   2.590
 1850SOL    HW2 6135   1.295   3.432   2.728
 1851SOL     OW 6136   0.459   3.014   2.603
 1851SOL    HW1 6137   0.388   2.987   2.668
 1851SOL    HW2 6138   0.433   2.986   2.510
 1852SOL     OW 6139   1.271   3.659   2.453
 1852SOL    HW1 6140   1.315   3.723   2.389
 1852SOL    HW2 6141   1.221   3.711   2.523
 1853SOL     OW 6142   1.032   2.411   1.878
 1853SOL    HW1 6143   0.991   2.493   1.839
 1853SOL    HW2 6144   1.096   2.437   1.951
 1854SOL     OW 6145   0.078   2.418   3.248
 1854SOL    HW1 6146   0.170   2.417   3.207
 1854SOL    HW2 6147   0.072   2.492   3.315
 1855SOL     OW 6148   0.561   2.084   3.009
 1855SOL    HW1 6149   0.599   2.000   3.046
 1855SOL    HW2 6150   0.473   2.103   3.053
 1856SOL     OW 6151   0.866   2.316   2.504
 1856SOL    HW1 6152   0.834   2.388   2.442
 1856SOL    HW2 6153   0.890   2.235   2.451
 1857SOL     OW 6154   1.017   1.901   2.615
 1857SOL    HW1 6155   0.945   1.906   2.546
 1857SOL    HW2 6156   0.993   1.832   2.684
 1858SOL     OW 6157   1.429   3.035   2.729
 1858SOL    HW1 6158   1.374   2.951   2.722
 1858SOL    HW2 6159   1.455   3.064   2.637
 1859SOL     OW 6160   1.466   2.452   2.854
 1859SOL    HW1 6161   1.436   2.357   2.861
 1859SOL    HW2 6162   1.539   2.468   2.920
 1860SOL     OW 6163   1.857   2.695   2.239
 1860SOL    HW1 6164   1.899   2.631   2.303
 1860SOL    HW2 6165   1.819   2.644   2.161
 1861SOL     OW 6166   0.488   3.247   2.036
 1861SOL    HW1 6167   0.401   3.232   2.083
 1861SOL    HW2 6168   0.471   3.273   1.941
 1862SOL     OW 6169   1.664   3.142   2.519
 1862SOL    HW1 6170   1.763   3.150   2.533
 1862SOL    HW2 6171   1.619   3.226   2.550
 1863SOL     OW 6172   1.390   2.437   1.940
 1863SOL    HW1 6173   1.336   2.416   2.021
 1863SOL    HW2 6174   1.481   2.396   1.949
 1864SOL     OW 6175   0.527   2.118   2.190
 1864SOL    HW1 6176   0.554   2.059   2.115
 1864SOL    HW2 6177   0.527   2.213   2.159
 1865SOL     OW 6178   1.754   3.085   3.450
 1865SOL    HW1 6179   1.845   3.046   3.437
 1865SOL    HW2 6180   1.762   3.181   3.474
 1866SOL     OW 6181   1.064   3.209   3.202
 1866SOL    HW1 6182   0.984   3.186   3.257
 1866SOL    HW2 6183   1.147   3.183   3.251
 1867SOL     OW 6184   1.592   3.491   3.487
 1867SOL    HW1 6185   1.619   3.525   3.397
 1867SOL    HW2 6186   1.671   3.453   3.533
 1868SOL     OW 6187   1.111   3.057   2.962
 1868SOL    HW1 6188   1.071   3.101   3.043
 1868SOL    HW2 6189   1.070   3.094   2.879
 1869SOL     OW 6190   1.638   2.961   2.941
 1869SOL    HW1 6191   1.643   3.042   3.000
 1869SOL    HW2 6192   1.552   2.963   2.890
 1870SOL     OW 6193   0.915   1.951   3.264
 1870SOL    HW1 6194   0.940   1.931   3.169
 1870SOL    HW2 6195   0.987   2.007   3.306
 1871SOL     OW 6196   0.980   2.978   3.581
 1871SOL    HW1 6197   0.881   2.984   3.591
 1871SOL    HW2 6198   1.003   2.898   3.525
 1872SOL     OW 6199   0.705   2.912   2.230
 1872SOL    HW1 6200   0.691   2.919   2.329
 1872SOL    HW2 6201   0.789   2.861   2.212
 1873SOL     OW 6202   0.410   2.675   3.113
 1873SOL    HW1 6203   0.496   2.687   3.163
 1873SOL    HW2 6204   0.368   2.588   3.140
 1874SOL     OW 6205   1.274   2.248   3.124
 1874SOL    HW1 6206   1.295   2.322   3.188
 1874SOL    HW2 6207   1.185   2.265   3.081
 1875SOL     OW 6208   0.064   3.426   3.193
 1875SOL    HW1 6209   0.018   3.508   3.159
 1875SOL    HW2 6210   0.162   3.445   3.202
 1876SOL     OW 6211   0.367   2.962   2.363
 1876SOL    HW1 6212   0.360   3.045   2.307
 1876SOL    HW2 6213   0.371   2.882   2.303
 1877SOL     OW 6214   0.566   2.399   2.727
 1877SOL    HW1 6215   0.578   2.465   2.653
 1877SOL    HW2 6216   0.612   2.433   2.810
 1878SOL     OW 6217   1.252   3.210   2.250
 1878SOL    HW1 6218   1.302   3.287   2.290
 1878SOL    HW2 6219   1.157   3.212   2.282
 1879SOL     OW 6220   1.272   3.307   3.004
 1879SOL    HW1 6221   1.319   3.320   3.091
 1879SOL    HW2 6222   1.206   3.233   3.013
 1880SOL     OW 6223   1.582   2.501   2.334
 1880SOL    HW1 6224   1.551   2.562   2.407
 1880SOL    HW2 6225   1.632   2.553   2.265
 1881SOL     OW 6226   0.354   3.372   3.191
 1881SOL    HW1 6227   0.333   3.328   3.104
 1881SOL    HW2 6228   0.451   3.398   3.194
 1882SOL     OW 6229   0.402   2.613   3.460
 1882SOL    HW1 6230   0.470   2.668   3.413
 1882SOL    HW2 6231   0.442   2.525   3.487
 1883SOL     OW 6232   1.587   2.641   3.532
 1883SOL    HW1 6233   1.495   2.679   3.527
 1883SOL    HW2 6234   1.647   2.688   3.467
 1884SOL     OW 6235   1.013   1.967   3.632
 1884SOL    HW1 6236   1.019   2.052   3.580
 1884SOL    HW2 6237   1.045   1.891   3.575
 1885SOL     OW 6238   0.504   1.912   3.602
 1885SOL    HW1 6239   0.462   1.855   3.532
 1885SOL    HW2 6240   0.438   1.981   3.634
 1886SOL     OW 6241   0.573   2.732   2.891
 1886SOL    HW1 6242   0.617   2.821   2.882
 1886SOL    HW2 6243   0.510   2.732   2.968
 1887SOL     OW 6244   1.360   2.724   2.907
 1887SOL    HW1 6245   1.285   2.724   2.841
 1887SOL    HW2 6246   1.397   2.632   2.916
 1888SOL     OW 6247   1.209   2.387   2.137
 1888SOL    HW1 6248   1.222   2.303   2.191
 1888SOL    HW2 6249   1.180   2.461   2.197
 1889SOL     OW 6250   0.307   2.075   3.093
 1889SOL    HW1 6251   0.284   2.112   3.183
 1889SOL    HW2 6252   0.277   1.980   3.087
 1890SOL     OW 6253   0.037   3.172   3.144
 1890SOL    HW1 6254   0.090   3.123   3.212
 1890SOL    HW2 6255   0.059   3.270   3.149
 1891SOL     OW 6256   0.732   2.496   2.926
 1891SOL    HW1 6257   0.791   2.470   2.850
 1891SOL    HW2 6258   0.704   2.592   2.915
 1892SOL     OW 6259   1.728   2.797   3.716
 1892SOL    HW1 6260   1.682   2.790   3.627
 1892SOL    HW2 6261   1.666   2.841   3.782
 1893SOL     OW 6262   0.307   1.925   2.480
 1893SOL    HW1 6263   0.296   2.019   2.513
 1893SOL    HW2 6264   0.302   1.862   2.557
 1894SOL     OW 6265   1.622   2.229   2.236
 1894SOL    HW1 6266   1.624   2.153   2.300
 1894SOL    HW2 6267   1.574   2.306   2.276
 1895SOL     OW 6268   1.023   2.628   2.828
 1895SOL    HW1 6269   1.038   2.649   2.924
 1895SOL    HW2 6270   0.993   2.533   2.819
 1896SOL     OW 6271   0.980   3.435   3.562
 1896SOL    HW1 6272   0.960   3.479   3.474
 1896SOL    HW2 6273   1.019   3.344   3.546
 1897SOL     OW 6274   1.859   3.380   3.467
 1897SOL    HW1 6275   1.873   3.407   3.372
 1897SOL    HW2 6276   1.942   3.402   3.520
 1898SOL     OW 6277   0.350   2.760   3.666
 1898SOL    HW1 6278   0.426   2.804   3.714
 1898SOL    HW2 6279   0.385   2.713   3.584
 1899SOL     OW 6280   1.540   2.136   1.987
 1899SOL    HW1 6281   1.479   2.061   2.010
 1899SOL    HW2 6282   1.562   2.188   2.070
 1900SOL     OW 6283   1.303   2.700   1.904
 1900SOL    HW1 6284   1.337   2.607   1.919
 1900SOL    HW2 6285   1.321   2.727   1.809
 1901SOL     OW 6286   1.068   3.195   2.711
 1901SOL    HW1 6287   1.075   3.111   2.656
 1901SOL    HW2 6288   1.130   3.264   2.675
 1902SOL     OW 6289   0.319   2.672   2.811
 1902SOL    HW1 6290   0.412   2.708   2.816
 1902SOL    HW2 6291   0.313   2.587   2.863
 1903SOL     OW 6292   0.339   2.371   2.868
 1903SOL    HW1 6293   0.287   2.288   2.851
 1903SOL    HW2 6294   0.416   2.376   2.804
 1904SOL     OW 6295   1.138   2.242   3.540
 1904SOL    HW1 6296   1.093   2.305   3.604
 1904SOL    HW2 6297   1.231   2.273   3.523
 1905SOL     OW 6298   1.160   2.069   3.339
 1905SOL    HW1 6299   1.160   2.133   3.416
 1905SOL    HW2 6300   1.188   2.117   3.256
 1906SOL     OW 6301   0.008   3.188   2.062
 1906SOL    HW1 6302  -0.085   3.209   2.031
 1906SOL    HW2 6303   0.018   3.089   2.075
 1907SOL     OW 6304   0.088   3.663   2.789
 1907SOL    HW1 6305   0.046   3.577   2.762
 1907SOL    HW2 6306   0.182   3.666   2.755
 1908SOL     OW 6307   0.504   3.430   2.772
 1908SOL    HW1 6308   0.570   3.504   2.781
 1908SOL    HW2 6309   0.548   3.351   2.730
 1909SOL     OW 6310   1.002   2.658   3.100
 1909SOL    HW1 6311   1.043   2.626   3.186
 1909SOL    HW2 6312   0.906   2.631   3.097
 1910SOL     OW 6313   0.040   2.406   2.976
 1910SOL    HW1 6314   0.125   2.373   2.935
 1910SOL    HW2 6315   0.053   2.421   3.074
 1911SOL     OW 6316   0.189   2.382   3.584
 1911SOL    HW1 6317   0.248   2.342   3.514
 1911SOL    HW2 6318   0.131   2.453   3.543
 1912SOL     OW 6319   1.369   2.812   3.522
 1912SOL    HW1 6320   1.408   2.901   3.542
 1912SOL    HW2 6321   1.379   2.792   3.425
 1913SOL     OW 6322   0.815   2.434   2.187
 1913SOL    HW1 6323   0.822   2.345   2.141
 1913SOL    HW2 6324   0.721   2.468   2.179
 1914SOL     OW 6325   1.657   2.466   3.068
 1914SOL    HW1 6326   1.619   2.397   3.130
 1914SOL    HW2 6327   1.739   2.430   3.024
 1915SOL     OW 6328   0.252   3.426   3.606
 1915SOL    HW1 6329   0.222   3.483   3.682
 1915SOL    HW2 6330   0.245   3.329   3.632
 1916SOL     OW 6331   0.671   2.326   3.131
 1916SOL    HW1 6332   0.637   2.237   3.101
 1916SOL    HW2 6333   0.697   2.380   3.051
 1917SOL     OW 6334   0.930   3.540   3.327
 1917SOL    HW1 6335   0.906   3.522   3.232
 1917SOL    HW2 6336   0.960   3.634   3.337
 1918SOL     OW 6337   0.473   2.362   2.053
 1918SOL    HW1 6338   0.534   2.442   2.057
 1918SOL    HW2 6339   0.378   2.393   2.060
 1919SOL     OW 6340   0.159   2.999   3.328
 1919SOL    HW1 6341   0.181   2.938   3.404
 1919SOL    HW2 6342   0.169   2.950   3.242
 1920SOL     OW 6343   1.347   2.921   3.096
 1920SOL    HW1 6344   1.371   2.858   3.022
 1920SOL    HW2 6345   1.257   2.961   3.078
 1921SOL     OW 6346   1.302   2.717   2.171
 1921SOL    HW1 6347   1.216   2.686   2.213
 1921SOL    HW2 6348   1.298   2.703   2.072
 1922SOL     OW 6349   1.759   3.609   3.016
 1922SOL    HW1 6350   1.820   3.639   2.943
 1922SOL    HW2 6351   1.721   3.520   2.994
 1923SOL     OW 6352   1.252   3.593   2.990
 1923SOL    HW1 6353   1.336   3.598   2.936
 1923SOL    HW2 6354   1.229   3.497   3.008
 1924SOL     OW 6355   0.083   3.120   2.884
 1924SOL    HW1 6356   0.078   3.119   2.984
 1924SOL    HW2 6357   0.000   3.079   2.846
 1925SOL     OW 6358   0.688   3.524   3.578
 1925SOL    HW1 6359   0.632   3.605   3.587
 1925SOL    HW2 6360   0.740   3.528   3.492
 1926SOL     OW 6361   1.726   1.997   2.385
 1926SOL    HW1 6362   1.799   1.980   2.318
 1926SOL    HW2 6363   1.695   1.910   2.423
 1927SOL     OW 6364   1.388   3.435   2.339
 1927SOL    HW1 6365   1.455   3.447   2.265
 1927SOL    HW2 6366   1.348   3.524   2.362
 1928SOL     OW 6367   0.130   3.656   3.713
 1928SOL    HW1 6368   0.089   3.582   3.766
 1928SOL    HW2 6369   0.194   3.707   3.771
 1929SOL     OW 6370   1.280   2.789   2.534
 1929SOL    HW1 6371   1.340   2.708   2.536
 1929SOL    HW2 6372   1.320   2.858   2.474
 1930SOL     OW 6373   0.830   3.135   3.284
 1930SOL    HW1 6374   0.825   3.168   3.379
 1930SOL    HW2 6375   0.744   3.154   3.238
 1931SOL     OW 6376   0.672   3.478   2.016
 1931SOL    HW1 6377   0.681   3.488   1.917
 1931SOL    HW2 6378   0.632   3.389   2.037
 1932SOL     OW 6379   1.650   3.582   3.256
 1932SOL    HW1 6380   1.703   3.592   3.172
 1932SOL    HW2 6381   1.623   3.672   3.290
 1933SOL     OW 6382   0.263   2.188   2.582
 1933SOL    HW1 6383   0.184   2.239   2.548
 1933SOL    HW2 6384   0.254   2.173   2.680
 1934SOL     OW 6385   1.194   3.474   1.893
 1934SOL    HW1 6386   1.200   3.381   1.930
 1934SOL    HW2 6387   1.135   3.474   1.813
 1935SOL     OW 6388   0.822   2.864   3.234
 1935SOL    HW1 6389   0.862   2.863   3.142
 1935SOL    HW2 6390   0.832   2.956   3.274
 1936SOL     OW 6391   0.916   2.772   2.153
 1936SOL    HW1 6392   0.979   2.810   2.085
 1936SOL    HW2 6393   0.956   2.689   2.192
 1937SOL     OW 6394   1.504   3.469   1.906
 1937SOL    HW1 6395   1.412   3.506   1.913
 1937SOL    HW2 6396   1.542   3.489   1.816
 1938SOL     OW 6397   0.372   3.150   3.352
 1938SOL    HW1 6398   0.359   3.243   3.318
 1938SOL    HW2 6399   0.288   3.098   3.339
 1939SOL     OW 6400   1.614   3.154   3.151
 1939SOL    HW1 6401   1.674   3.157   3.231
 1939SOL    HW2 6402   1.539   3.218   3.164
 1940SOL     OW 6403   1.039   2.960   2.558
 1940SOL    HW1 6404   0.969   2.913   2.612
 1940SOL    HW2 6405   1.098   2.892   2.515
 1941SOL     OW 6406   1.014   2.098   2.833
 1941SOL    HW1 6407   1.006   2.062   2.740
 1941SOL    HW2 6408   1.012   2.022   2.898
 1942SOL     OW 6409   0.590   3.349   2.353
 1942SOL    HW1 6410   0.632   3.291   2.283
 1942SOL    HW2 6411   0.546   3.428   2.309
 1943SOL     OW 6412   0.255   3.210   2.152
 1943SOL    HW1 6413   0.159   3.211   2.125
 1943SOL    HW2 6414   0.267   3.263   2.236
 1944SOL     OW 6415   0.105   2.875   3.588
 1944SOL    HW1 6416   0.028   2.842   3.642
 1944SOL    HW2 6417   0.190   2.845   3.630
 1945SOL     OW 6418   0.672   2.065   3.351
 1945SOL    HW1 6419   0.762   2.049   3.311
 1945SOL    HW2 6420   0.680   2.070   3.450
 1946SOL     OW 6421   0.075   2.207   1.895
 1946SOL    HW1 6422  -0.017   2.179   1.866
 1946SOL    HW2 6423   0.106   2.284   1.839
 1947SOL     OW 6424   1.440   2.718   3.260
 1947SOL    HW1 6425   1.383   2.770   3.197
 1947SOL    HW2 6426   1.536   2.730   3.236
 1948SOL     OW 6427   0.072   2.028   2.180
 1948SOL    HW1 6428   0.055   2.111   2.126
 1948SOL    HW2 6429   0.162   1.991   2.158
 1949SOL     OW 6430   1.183   3.197   1.981
 1949SOL    HW1 6431   1.084   3.186   1.983
 1949SOL    HW2 6432   1.217   3.212   2.074
 1950SOL     OW 6433   0.613   2.704   3.293
 1950SOL    HW1 6434   0.669   2.785   3.276
 1950SOL    HW2 6435   0.672   2.624   3.296
 1951SOL     OW 6436   1.493   3.629   2.821
 1951SOL    HW1 6437   1.526   3.693   2.752
 1951SOL    HW2 6438   1.559   3.623   2.896
 1952SOL     OW 6439   0.716   2.427   3.570
 1952SOL    HW1 6440   0.735   2.492   3.644
 1952SOL    HW2 6441   0.776   2.347   3.579
 1953SOL     OW 6442   1.450   3.082   3.495
 1953SOL    HW1 6443   1.441   3.072   3.594
 1953SOL    HW2 6444   1.546   3.075   3.469
 1954SOL     OW 6445   0.390   3.603   3.422
 1954SOL    HW1 6446   0.299   3.644   3.420
 1954SOL    HW2 6447   0.383   3.509   3.454
 1955SOL     OW 6448   1.674   2.745   3.116
 1955SOL    HW1 6449   1.647   2.656   3.079
 1955SOL    HW2 6450   1.675   2.813   3.043
 1956SOL     OW 6451   1.225   2.187   2.311
 1956SOL    HW1 6452   1.290   2.113   2.300
 1956SOL    HW2 6453   1.245   2.237   2.395
 1957SOL     OW 6454   0.594   2.607   2.514
 1957SOL    HW1 6455   0.644   2.692   2.495
 1957SOL    HW2 6456   0.506   2.609   2.466
 1958SOL     OW 6457   1.730   2.796   3.379
 1958SOL    HW1 6458   1.768   2.887   3.394
 1958SOL    HW2 6459   1.722   2.779   3.280
 1959SOL     OW 6460   0.859   3.236   1.878
 1959SOL    HW1 6461   0.813   3.251   1.966
 1959SOL    HW2 6462   0.903   3.321   1.848
 1960SOL     OW 6463   0.661   3.652   2.815
 1960SOL    HW1 6464   0.615   3.740   2.802
 1960SOL    HW2 6465   0.760   3.664   2.808
 1961SOL     OW 6466   0.859   2.818   2.723
 1961SOL    HW1 6467   0.913   2.749   2.771
 1961SOL    HW2 6468   0.827   2.887   2.789
 1962SOL     OW 6469   1.083   2.846   1.949
 1962SOL    HW1 6470   1.060   2.899   1.867
 1962SOL    HW2 6471   1.164   2.790   1.930
 1963SOL     OW 6472   1.861   3.431   2.713
 1963SOL    HW1 6473   1.790   3.419   2.643
 1963SOL    HW2 6474   1.862   3.352   2.773
 1964SOL     OW 6475   0.221   3.176   3.706
 1964SOL    HW1 6476   0.156   3.103   3.685
 1964SOL    HW2 6477   0.225   3.190   3.804
 1965SOL     OW 6478   0.079   3.102   2.515
 1965SOL    HW1 6479   0.078   3.055   2.603
 1965SOL    HW2 6480   0.161   3.074   2.464
 1966SOL     OW 6481   0.672   3.253   3.486
 1966SOL    HW1 6482   0.594   3.203   3.524
 1966SOL    HW2 6483   0.669   3.348   3.517
 1967SOL     OW 6484   0.428   2.286   2.382
 1967SOL    HW1 6485   0.458   2.214   2.320
 1967SOL    HW2 6486   0.389   2.246   2.465
 1968SOL     OW 6487   1.705   3.349   2.966
 1968SOL    HW1 6488   1.612   3.324   2.939
 1968SOL    HW2 6489   1.731   3.299   3.048
 1969SOL     OW 6490   0.317   2.409   3.142
 1969SOL    HW1 6491   0.355   2.350   3.214
 1969SOL    HW2 6492   0.357   2.383   3.054
 1970SOL     OW 6493   0.812   3.448   2.549
 1970SOL    HW1 6494   0.844   3.458   2.455
 1970SOL    HW2 6495   0.733   3.386   2.551
 1971SOL     OW 6496   1.424   2.076   2.974
 1971SOL    HW1 6497   1.476   2.011   3.029
 1971SOL    HW2 6498   1.375   2.139   3.035
 1972SOL     OW 6499   1.001   1.896   3.016
 1972SOL    HW1 6500   0.938   1.824   2.985
 1972SOL    HW2 6501   1.094   1.860   3.016
 1973SOL     OW 6502   0.770   3.192   2.163
 1973SOL    HW1 6503   0.724   3.105   2.180
 1973SOL    HW2 6504   0.861   3.189   2.204
 1974SOL     OW 6505   0.618   3.429   3.146
 1974SOL    HW1 6506   0.613   3.511   3.203
 1974SOL    HW2 6507   0.707   3.426   3.101
 1975SOL     OW 6508   1.352   1.914   2.030
 1975SOL    HW1 6509   1.387   1.873   1.946
 1975SOL    HW2 6510   1.262   1.876   2.050
 1976SOL     OW 6511   1.300   2.315   2.553
 1976SOL    HW1 6512   1.241   2.395   2.557
 1976SOL    HW2 6513   1.315   2.280   2.646
 1977SOL     OW 6514   1.593   2.083   2.744
 1977SOL    HW1 6515   1.509   2.082   2.798
 1977SOL    HW2 6516   1.595   2.166   2.688
 1978SOL     OW 6517   0.039   2.939   2.162
 1978SOL    HW1 6518   0.138   2.928   2.153
 1978SOL    HW2 6519  -0.001   2.853   2.194
 1979SOL     OW 6520   0.875   3.508   2.199
 1979SOL    HW1 6521   0.798   3.473   2.145
 1979SOL    HW2 6522   0.843   3.579   2.261
 1980SOL     OW 6523   0.230   2.490   3.837
 1980SOL    HW1 6524   0.137   2.488   3.874
 1980SOL    HW2 6525   0.231   2.451   3.745
 1981SOL     OW 6526   0.225   2.137   4.720
 1981SOL    HW1 6527   0.260   2.120   4.812
 1981SOL    HW2 6528   0.137   2.092   4.708
 1982SOL     OW 6529   0.019   2.230   4.371
 1982SOL    HW1 6530  -0.063   2.273   4.410
 1982SOL    HW2 6531  -0.009   2.157   4.308
 1983SOL     OW 6532   0.569   3.137   4.889
 1983SOL    HW1 6533   0.476   3.130   4.852
 1983SOL    HW2 6534   0.580   3.226   4.933
 1984SOL     OW 6535   1.555   3.373   4.427
 1984SOL    HW1 6536   1.498   3.357   4.508
 1984SOL    HW2 6537   1.496   3.383   4.347
 1985SOL     OW 6538   1.135   2.565   4.441
 1985SOL    HW1 6539   1.192   2.643   4.416
 1985SOL    HW2 6540   1.075   2.591   4.517
 1986SOL     OW 6541   1.755   2.469   3.955
 1986SOL    HW1 6542   1.743   2.456   3.856
 1986SOL    HW2 6543   1.725   2.388   4.004
 1987SOL     OW 6544   0.768   3.006   4.747
 1987SOL    HW1 6545   0.690   3.023   4.807
 1987SOL    HW2 6546   0.802   3.093   4.711
 1988SOL     OW 6547   0.850   2.660   5.547
 1988SOL    HW1 6548   0.846   2.736   5.612
 1988SOL    HW2 6549   0.872   2.696   5.456
 1989SOL     OW 6550   0.685   2.874   4.389
 1989SOL    HW1 6551   0.754   2.858   4.459
 1989SOL    HW2 6552   0.612   2.931   4.427
 1990SOL     OW 6553   0.686   3.023   5.527
 1990SOL    HW1 6554   0.746   3.102   5.541
 1990SOL    HW2 6555   0.600   3.054   5.486
 1991SOL     OW 6556   0.335   3.297   4.785
 1991SOL    HW1 6557   0.257   3.266   4.732
 1991SOL    HW2 6558   0.393   3.355   4.728
 1992SOL     OW 6559   1.460   3.367   5.063
 1992SOL    HW1 6560   1.484   3.461   5.089
 1992SOL    HW2 6561   1.444   3.313   5.145
 1993SOL     OW 6562   0.438   2.254   5.223
 1993SOL    HW1 6563   0.520   2.198   5.232
 1993SOL    HW2 6564   0.357   2.196   5.227
 1994SOL     OW 6565   1.603   2.309   4.461
 1994SOL    HW1 6566   1.529   2.355   4.411
 1994SOL    HW2 6567   1.654   2.377   4.514
 1995SOL     OW 6568   0.231   3.575   4.207
 1995SOL    HW1 6569   0.265   3.652   4.261
 1995SOL    HW2 6570   0.275   3.575   4.117
 1996SOL     OW 6571   1.127   3.203   5.414
 1996SOL    HW1 6572   1.174   3.203   5.502
 1996SOL    HW2 6573   1.079   3.116   5.403
 1997SOL     OW 6574   0.230   3.296   4.262
 1997SOL    HW1 6575   0.204   3.392   4.262
 1997SOL    HW2 6576   0.159   3.242   4.307
 1998SOL     OW 6577   0.240   2.953   4.610
 1998SOL    HW1 6578   0.254   2.869   4.662
 1998SOL    HW2 6579   0.185   3.017   4.665
 1999SOL     OW 6580   0.620   3.648   5.163
 1999SOL    HW1 6581   0.528   3.631   5.198
 1999SOL    HW2 6582   0.648   3.740   5.189
 2000SOL     OW 6583   0.606   2.826   3.847
 2000SOL    HW1 6584   0.613   2.910   3.793
 2000SOL    HW2 6585   0.652   2.839   3.935
 2001SOL     OW 6586   1.594   1.976   5.204
 2001SOL    HW1 6587   1.576   2.043   5.132
 2001SOL    HW2 6588   1.591   2.022   5.293
 2002SOL     OW 6589   0.122   2.505   4.287
 2002SOL    HW1 6590   0.077   2.417   4.304
 2002SOL    HW2 6591   0.121   2.559   4.371
 2003SOL     OW 6592   1.842   3.629   4.083
 2003SOL    HW1 6593   1.896   3.600   4.163
 2003SOL    HW2 6594   1.872   3.719   4.054
 2004SOL     OW 6595   0.027   3.458   3.841
 2004SOL    HW1 6596   0.008   3.362   3.862
 2004SOL    HW2 6597  -0.006   3.516   3.916
 2005SOL     OW 6598   1.689   2.784   4.336
 2005SOL    HW1 6599   1.784   2.755   4.344
 2005SOL    HW2 6600   1.681   2.849   4.261
 2006SOL     OW 6601   1.641   2.970   4.156
 2006SOL    HW1 6602   1.727   2.972   4.104
 2006SOL    HW2 6603   1.655   3.017   4.244
 2007SOL     OW 6604   0.113   2.599   5.321
 2007SOL    HW1 6605   0.201   2.586   5.366
 2007SOL    HW2 6606   0.100   2.696   5.299
 2008SOL     OW 6607   0.613   3.227   4.450
 2008SOL    HW1 6608   0.564   3.140   4.459
 2008SOL    HW2 6609   0.590   3.270   4.363
 2009SOL     OW 6610   1.293   3.090   5.147
 2009SOL    HW1 6611   1.330   3.017   5.089
 2009SOL    HW2 6612   1.345   3.095   5.232
 2010SOL     OW 6613   0.809   1.866   4.226
 2010SOL    HW1 6614   0.849   1.957   4.217
 2010SOL    HW2 6615   0.709   1.874   4.232
 2011SOL     OW 6616   0.197   2.838   4.988
 2011SOL    HW1 6617   0.286   2.793   4.974
 2011SOL    HW2 6618   0.124   2.773   4.969
 2012SOL     OW 6619   1.525   2.861   3.914
 2012SOL    HW1 6620   1.462   2.785   3.927
 2012SOL    HW2 6621   1.573   2.879   4.000
 2013SOL     OW 6622   1.187   3.654   5.340
 2013SOL    HW1 6623   1.211   3.714   5.264
 2013SOL    HW2 6624   1.194   3.559   5.310
 2014SOL     OW 6625   0.317   2.113   5.525
 2014SOL    HW1 6626   0.388   2.184   5.531
 2014SOL    HW2 6627   0.229   2.152   5.553
 2015SOL     OW 6628   1.466   3.279   4.677
 2015SOL    HW1 6629   1.407   3.285   4.757
 2015SOL    HW2 6630   1.451   3.191   4.631
 2016SOL     OW 6631   1.667   3.576   4.296
 2016SOL    HW1 6632   1.626   3.553   4.208
 2016SOL    HW2 6633   1.649   3.502   4.361
 2017SOL     OW 6634   0.598   2.591   3.994
 2017SOL    HW1 6635   0.622   2.660   3.926
 2017SOL    HW2 6636   0.520   2.624   4.048
 2018SOL     OW 6637   1.281   2.207   4.668
 2018SOL    HW1 6638   1.195   2.157   4.655
 2018SOL    HW2 6639   1.343   2.153   4.724
 2019SOL     OW 6640   1.576   3.524   4.031
 2019SOL    HW1 6641   1.665   3.570   4.034
 2019SOL    HW2 6642   1.555   3.500   3.936
 2020SOL     OW 6643   0.807   2.467   5.189
 2020SOL    HW1 6644   0.760   2.464   5.278
 2020SOL    HW2 6645   0.756   2.412   5.123
 2021SOL     OW 6646   1.394   2.331   5.398
 2021SOL    HW1 6647   1.374   2.374   5.486
 2021SOL    HW2 6648   1.472   2.269   5.407
 2022SOL     OW 6649   0.973   2.752   5.296
 2022SOL    HW1 6650   1.019   2.668   5.267
 2022SOL    HW2 6651   0.917   2.786   5.221
 2023SOL     OW 6652   0.991   2.272   4.966
 2023SOL    HW1 6653   0.914   2.306   5.020
 2023SOL    HW2 6654   0.957   2.221   4.887
 2024SOL     OW 6655   1.041   2.563   4.153
 2024SOL    HW1 6656   1.067   2.559   4.249
 2024SOL    HW2 6657   0.956   2.512   4.139
 2025SOL     OW 6658   0.076   2.673   4.513
 2025SOL    HW1 6659   0.175   2.661   4.522
 2025SOL    HW2 6660   0.052   2.768   4.534
 2026SOL     OW 6661   0.130   3.683   5.295
 2026SOL    HW1 6662   0.120   3.668   5.394
 2026SOL    HW2 6663   0.044   3.719   5.259
 2027SOL     OW 6664   0.865   2.210   3.919
 2027SOL    HW1 6665   0.924   2.273   3.870
 2027SOL    HW2 6666   0.884   2.116   3.890
 2028SOL     OW 6667   1.719   2.447   5.555
 2028SOL    HW1 6668   1.693   2.536   5.519
 2028SOL    HW2 6669   1.717   2.379   5.482
 2029SOL     OW 6670   1.362   3.006   4.269
 2029SOL    HW1 6671   1.445   2.977   4.221
 2029SOL    HW2 6672   1.313   3.073   4.213
 2030SOL     OW 6673   0.550   2.058   4.609
 2030SOL    HW1 6674   0.545   2.053   4.709
 2030SOL    HW2 6675   0.552   2.154   4.580
 2031SOL     OW 6676   1.008   3.318   4.201
 2031SOL    HW1 6677   0.962   3.390   4.149
 2031SOL    HW2 6678   1.004   3.338   4.299
 2032SOL     OW 6679   0.351   3.663   4.577
 2032SOL    HW1 6680   0.401   3.577   4.583
 2032SOL    HW2 6681   0.416   3.740   4.574
 2033SOL     OW 6682   1.795   2.928   4.597
 2033SOL    HW1 6683   1.733   2.913   4.521
 2033SOL    HW2 6684   1.743   2.939   4.682
 2034SOL     OW 6685   1.227   3.412   5.230
 2034SOL    HW1 6686   1.233   3.335   5.294
 2034SOL    HW2 6687   1.175   3.386   5.150
 2035SOL     OW 6688   0.321   2.805   3.966
 2035SOL    HW1 6689   0.403   2.844   3.924
 2035SOL    HW2 6690   0.294   2.723   3.917
 2036SOL     OW 6691   1.458   2.597   4.452
 2036SOL    HW1 6692   1.453   2.532   4.527
 2036SOL    HW2 6693   1.538   2.656   4.465
 2037SOL     OW 6694   0.461   3.128   5.451
 2037SOL    HW1 6695   0.411   3.129   5.365
 2037SOL    HW2 6696   0.398   3.110   5.527
 2038SOL     OW 6697   1.111   3.638   3.961
 2038SOL    HW1 6698   1.051   3.576   4.011
 2038SOL    HW2 6699   1.142   3.594   3.876
 2039SOL     OW 6700   0.202   2.147   5.222
 2039SOL    HW1 6701   0.122   2.207   5.209
 2039SOL    HW2 6702   0.192   2.098   5.308
 2040SOL     OW 6703   1.632   3.239   3.805
 2040SOL    HW1 6704   1.600   3.333   3.795
 2040SOL    HW2 6705   1.556   3.176   3.793
 2041SOL     OW 6706   0.464   3.605   4.047
 2041SOL    HW1 6707   0.497   3.644   4.133
 2041SOL    HW2 6708   0.540   3.598   3.982
 2042SOL     OW 6709   1.400   1.969   4.150
 2042SOL    HW1 6710   1.376   1.932   4.060
 2042SOL    HW2 6711   1.499   1.985   4.154
 2043SOL     OW 6712   0.249   3.647   4.965
 2043SOL    HW1 6713   0.306   3.582   5.015
 2043SOL    HW2 6714   0.233   3.614   4.872
 2044SOL     OW 6715   0.940   3.560   4.628
 2044SOL    HW1 6716   1.020   3.503   4.649
 2044SOL    HW2 6717   0.891   3.520   4.551
 2045SOL     OW 6718   0.382   2.562   4.204
 2045SOL    HW1 6719   0.427   2.472   4.201
 2045SOL    HW2 6720   0.288   2.551   4.237
 2046SOL     OW 6721   1.547   2.084   5.453
 2046SOL    HW1 6722   1.542   2.121   5.545
 2046SOL    HW2 6723   1.475   2.015   5.441
 2047SOL     OW 6724   0.614   1.984   3.841
 2047SOL    HW1 6725   0.712   1.962   3.848
 2047SOL    HW2 6726   0.583   1.967   3.748
 2048SOL     OW 6727   0.781   2.126   5.473
 2048SOL    HW1 6728   0.848   2.065   5.516
 2048SOL    HW2 6729   0.708   2.145   5.538
 2049SOL     OW 6730   0.888   3.376   4.919
 2049SOL    HW1 6731   0.865   3.351   4.825
 2049SOL    HW2 6732   0.949   3.307   4.958
 2050SOL     OW 6733   1.351   2.452   5.157
 2050SOL    HW1 6734   1.379   2.409   5.242
 2050SOL    HW2 6735   1.376   2.548   5.158
 2051SOL     OW 6736   0.803   3.264   4.648
 2051SOL    HW1 6737   0.893   3.278   4.606
 2051SOL    HW2 6738   0.732   3.266   4.577
 2052SOL     OW 6739   0.922   2.365   4.623
 2052SOL    HW1 6740   0.897   2.356   4.527
 2052SOL    HW2 6741   0.970   2.283   4.654
 2053SOL     OW 6742   0.539   1.926   4.236
 2053SOL    HW1 6743   0.458   1.927   4.294
 2053SOL    HW2 6744   0.542   2.009   4.181
 2054SOL     OW 6745   1.434   3.050   3.765
 2054SOL    HW1 6746   1.466   2.974   3.822
 2054SOL    HW2 6747   1.342   3.077   3.795
 2055SOL     OW 6748   0.297   1.897   3.895
 2055SOL    HW1 6749   0.346   1.981   3.874
 2055SOL    HW2 6750   0.359   1.832   3.940
 2056SOL     OW 6751   0.935   2.098   4.204
 2056SOL    HW1 6752   0.887   2.139   4.126
 2056SOL    HW2 6753   1.034   2.096   4.185
 2057SOL     OW 6754   1.076   2.545   5.188
 2057SOL    HW1 6755   0.996   2.484   5.191
 2057SOL    HW2 6756   1.157   2.492   5.164
 2058SOL     OW 6757   1.227   3.432   4.517
 2058SOL    HW1 6758   1.248   3.506   4.452
 2058SOL    HW2 6759   1.295   3.432   4.590
 2059SOL     OW 6760   0.459   3.014   4.465
 2059SOL    HW1 6761   0.388   2.987   4.530
 2059SOL    HW2 6762   0.433   2.986   4.372
 2060SOL     OW 6763   1.271   3.659   4.315
 2060SOL    HW1 6764   1.315   3.723   4.251
 2060SOL    HW2 6765   1.221   3.711   4.385
 2061SOL     OW 6766   1.032   2.411   3.740
 2061SOL    HW1 6767   0.991   2.493   3.701
 2061SOL    HW2 6768   1.096   2.437   3.813
 2062SOL     OW 6769   0.078   2.418   5.110
 2062SOL    HW1 6770   0.170   2.417   5.069
 2062SOL    HW2 6771   0.072   2.492   5.177
 2063SOL     OW 6772   0.561   2.084   4.871
 2063SOL    HW1 6773   0.599   2.000   4.908
 2063SOL    HW2 6774   0.473   2.103   4.915
 2064SOL     OW 6775   0.866   2.316   4.366
 2064SOL    HW1 6776   0.834   2.388   4.304
 2064SOL    HW2 6777   0.890   2.235   4.313
 2065SOL     OW 6778   1.017   1.901   4.477
 2065SOL    HW1 6779   0.945   1.906   4.408
 2065SOL    HW2 6780   0.993   1.832   4.546
 2066SOL     OW 6781   1.429   3.035   4.591
 2066SOL    HW1 6782   1.374   2.951   4.584
 2066SOL    HW2 6783   1.455   3.064   4.499
 2067SOL     OW 6784   1.466   2.452   4.716
 2067SOL    HW1 6785   1.436   2.357   4.723
 2067SOL    HW2 6786   1.539   2.468   4.782
 2068SOL     OW 6787   1.857   2.695   4.101
 2068SOL    HW1 6788   1.899   2.631   4.165
 2068SOL    HW2 6789   1.819   2.644   4.023
 2069SOL     OW 6790   0.488   3.247   3.898
 2069SOL    HW1 6791   0.401   3.232   3.945
 2069SOL    HW2 6792   0.471   3.273   3.803
 2070SOL     OW 6793   1.664   3.142   4.381
 2070SOL    HW1 6794   1.763   3.150   4.395
 2070SOL    HW2 6795   1.619   3.226   4.412
 2071SOL     OW 6796   1.390   2.437   3.802
 2071SOL    HW1 6797   1.336   2.416   3.883
 2071SOL    HW2 6798   1.481   2.396   3.811
 2072SOL     OW 6799   0.527   2.118   4.052
 2072SOL    HW1 6800   0.554   2.059   3.977
 2072SOL    HW2 6801   0.527   2.213   4.021
 2073SOL     OW 6802   1.754   3.085   5.312
 2073SOL    HW1 6803   1.845   3.046   5.299
 2073SOL    HW2 6804   1.762   3.181   5.336
 2074SOL     OW 6805   1.064   3.209   5.064
 2074SOL    HW1 6806   0.984   3.186   5.119
 2074SOL    HW2 6807   1.147   3.183   5.113
 2075SOL     OW 6808   1.592   3.491   5.349
 2075SOL    HW1 6809   1.619   3.525   5.259
 2075SOL    HW2 6810   1.671   3.453   5.395
 2076SOL     OW 6811   1.111   3.057   4.824
 2076SOL    HW1 6812   1.071   3.101   4.905
 2076SOL    HW2 6813   1.070   3.094   4.741
 2077SOL     OW 6814   1.638   2.961   4.803
 2077SOL    HW1 6815   1.643   3.042   4.862
 2077SOL    HW2 6816   1.552   2.963   4.752
 2078SOL     OW 6817   0.915   1.951   5.126
 2078SOL    HW1 6818   0.940   1.931   5.031
 2078SOL    HW2 6819   0.987   2.007   5.168
 2079SOL     OW 6820   0.980   2.978   5.443
 2079SOL    HW1 6821   0.881   2.984   5.453
 2079SOL    HW2 6822   1.003   2.898   5.387
 2080SOL     OW 6823   0.705   2.912   4.092
 2080SOL    HW1 6824   0.691   2.919   4.191
 2080SOL    HW2 6825   0.789   2.861   4.074
 2081SOL     OW 6826   0.410   2.675   4.975
 2081SOL    HW1 6827   0.496   2.687   5.025
 2081SOL    HW2 6828   0.368   2.588   5.002
 2082SOL     OW 6829   1.274   2.248   4.986
 2082SOL    HW1 6830   1.295   2.322   5.050
 2082SOL    HW2 6831   1.185   2.265   4.943
 2083SOL     OW 6832   0.064   3.426   5.055
 2083SOL    HW1 6833   0.018   3.508   5.021
 2083SOL    HW2 6834   0.162   3.445   5.064
 2084SOL     OW 6835   0.367   2.962   4.225
 2084SOL    HW1 6836   0.360   3.045   4.169
 2084SOL    HW2 6837   0.371   2.882   4.165
 2085SOL     OW 6838   0.566   2.399   4.589
 2085SOL    HW1 6839   0.578   2.465   4.515
 2085SOL    HW2 6840   0.612   2.433   4.672
 2086SOL     OW 6841   1.252   3.210   4.112
 2086SOL    HW1 6842   1.302   3.287   4.152
 2086SOL    HW2 6843   1.157   3.212   4.144
 2087SOL     OW 6844   1.272   3.307   4.866
 2087SOL    HW1 6845   1.319   3.320   4.953
 2087SOL    HW2 6846   1.206   3.233   4.875
 2088SOL     OW 6847   1.582   2.501   4.196
 2088SOL    HW1 6848   1.551   2.562   4.269
 2088SOL    HW2 6849   1.632   2.553   4.127
 2089SOL     OW 6850   0.354   3.372   5.053
 2089SOL    HW1 6851   0.333   3.328   4.966
 2089SOL    HW2 6852   0.451   3.398   5.056
 2090SOL     OW 6853   0.402   2.613   5.322
 2090SOL    HW1 6854   0.470   2.668   5.275
 2090SOL    HW2 6855   0.442   2.525   5.349
 2091SOL     OW 6856   1.587   2.641   5.394
 2091SOL    HW1 6857   1.495   2.679   5.389
 2091SOL    HW2 6858   1.647   2.688   5.329
 2092SOL     OW 6859   1.013   1.967   5.494
 2092SOL    HW1 6860   1.019   2.052   5.442
 2092SOL    HW2 6861   1.045   1.891   5.437
 2093SOL     OW 6862   0.504   1.912   5.464
 2093SOL    HW1 6863   0.462   1.855   5.394
 2093SOL    HW2 6864   0.438   1.981   5.496
 2094SOL     OW 6865   0.573   2.732   4.753
 2094SOL    HW1 6866   0.617   2.821   4.744
 2094SOL    HW2 6867   0.510   2.732   4.830
 2095SOL     OW 6868   1.360   2.724   4.769
 2095SOL    HW1 6869   1.285   2.724   4.703
 2095SOL    HW2 6870   1.397   2.632   4.778
 2096SOL     OW 6871   1.209   2.387   3.999
 2096SOL    HW1 6872   1.222   2.303   4.053
 2096SOL    HW2 6873   1.180   2.461   4.059
 2097SOL     OW 6874   0.307   2.075   4.955
 2097SOL    HW1 6875   0.284   2.112   5.045
 2097SOL    HW2 6876   0.277   1.980   4.949
 2098SOL     OW 6877   0.037   3.172   5.006
 2098SOL    HW1 6878   0.090   3.123   5.074
 2098SOL    HW2 6879   0.059   3.270   5.011
 2099SOL     OW 6880   0.732   2.496   4.788
 2099SOL    HW1 6881   0.791   2.470   4.712
 2099SOL    HW2 6882   0.704   2.592   4.777
 2100SOL     OW 6883   1.728   2.797   5.578
 2100SOL    HW1 6884   1.682   2.790   5.489
 2100SOL    HW2 6885   1.666   2.841   5.644
 2101SOL     OW 6886   0.307   1.925   4.342
 2101SOL    HW1 6887   0.296   2.019   4.375
 2101SOL    HW2 6888   0.302   1.862   4.419
 2102SOL     OW 6889   1.622   2.229   4.098
 2102SOL    HW1 6890   1.624   2.153   4.162
 2102SOL    HW2 6891   1.574   2.306   4.138
 2103SOL     OW 6892   1.023   2.628   4.690
 2103SOL    HW1 6893   1.038   2.649   4.786
 2103SOL    HW2 6894   0.993   2.533   4.681
 2104SOL     OW 6895   0.980   3.435   5.424
 2104SOL    HW1 6896   0.960   3.479   5.336
 2104SOL    HW2 6897   1.019   3.344   5.408
 2105SOL     OW 6898   1.859   3.380   5.329
 2105SOL    HW1 6899   1.873   3.407   5.234
 2105SOL    HW2 6900   1.942   3.402   5.382
 2106SOL     OW 6901   0.350   2.760   5.528
 2106SOL    HW1 6902   0.426   2.804   5.576
 2106SOL    HW2 6903   0.385   2.713   5.446
 2107SOL     OW 6904   1.540   2.136   3.849
 2107SOL    HW1 6905   1.479   2.061   3.872
 2107SOL    HW2 6906   1.562   2.188   3.932
 2108SOL     OW 6907   1.303   2.700   3.766
 2108SOL    HW1 6908   1.337   2.607   3.781
 2108SOL    HW2 6909   1.321   2.727   3.671
 2109SOL     OW 6910   1.068   3.195   4.573
 2109SOL    HW1 6911   1.075   3.111   4.518
 2109SOL    HW2 6912   1.130   3.264   4.537
 2110SOL     OW 6913   0.319   2.672   4.673
 2110SOL    HW1 6914   0.412   2.708   4.678
 2110SOL    HW2 6915   0.313   2.587   4.725
 2111SOL     OW 6916   0.339   2.371   4.730
 2111SOL    HW1 6917   0.287   2.288   4.713
 2111SOL    HW2 6918   0.416   2.376   4.666
 2112SOL     OW 6919   1.138   2.242   5.402
 2112SOL    HW1 6920   1.093   2.305   5.466
 2112SOL    HW2 6921   1.231   2.273   5.385
 2113SOL     OW 6922   1.160   2.069   5.201
 2113SOL    HW1 6923   1.160   2.133   5.278
 2113SOL    HW2 6924   1.188   2.117   5.118
 2114SOL     OW 6925   0.008   3.188   3.924
 2114SOL    HW1 6926  -0.085   3.209   3.893
 2114SOL    HW2 6927   0.018   3.089   3.937
 2115SOL     OW 6928   0.088   3.663   4.651
 2115SOL    HW1 6929   0.046   3.577   4.624
 2115SOL    HW2 6930   0.182   3.666   4.617
 2116SOL     OW 6931   0.504   3.430   4.634
 2116SOL    HW1 6932   0.570   3.504   4.643
 2116SOL    HW2 6933   0.548   3.351   4.592
 2117SOL     OW 6934   1.002   2.658   4.962
 2117SOL    HW1 6935   1.043   2.626   5.048
 2117SOL    HW2 6936   0.906   2.631   4.959
 2118SOL     OW 6937   0.040   2.406   4.838
 2118SOL    HW1 6938   0.125   2.373   4.797
 2118SOL    HW2 6939   0.053   2.421   4.936
 2119SOL     OW 6940   0.189   2.382   5.446
 2119SOL    HW1 6941   0.248   2.342   5.376
 2119SOL    HW2 6942   0.131   2.453   5.405
 2120SOL     OW 6943   1.369   2.812   5.384
 2120SOL    HW1 6944   1.408   2.901   5.404
 2120SOL    HW2 6945   1.379   2.792   5.287
 2121SOL     OW 6946   0.815   2.434   4.049
 2121SOL    HW1 6947   0.822   2.345   4.003
 2121SOL    HW2 6948   0.721   2.468   4.041
 2122SOL     OW 6949   1.657   2.466   4.930
 2122SOL    HW1 6950   1.619   2.397   4.992
 2122SOL    HW2 6951   1.739   2.430   4.886
 2123SOL     OW 6952   0.252   3.426   5.468
 2123SOL    HW1 6953   0.222   3.483   5.544
 2123SOL    HW2 6954   0.245   3.329   5.494
 2124SOL     OW 6955   0.671   2.326   4.993
 2124SOL    HW1 6956   0.637   2.237   4.963
 2124SOL    HW2 6957   0.697   2.380   4.913
 2125SOL     OW 6958   0.930   3.540   5.189
 2125SOL    HW1 6959   0.906   3.522   5.094
 2125SOL    HW2 6960   0.960   3.634   5.199
 2126SOL     OW 6961   0.473   2.362   3.915
 2126SOL    HW1 6962   0.534   2.442   3.919
 2126SOL    HW2 6963   0.378   2.393   3.922
 2127SOL     OW 6964   0.159   2.999   5.190
 2127SOL    HW1 6965   0.181   2.938   5.266
 2127SOL    HW2 6966   0.169   2.950   5.104
 2128SOL     OW 6967   1.347   2.921   4.958
 2128SOL    HW1 6968   1.371   2.858   4.884
 2128SOL    HW2 6969   1.257   2.961   4.940
 2129SOL     OW 6970   1.302   2.717   4.033
 2129SOL    HW1 6971   1.216   2.686   4.075
 2129SOL    HW2 6972   1.298   2.703   3.934
 2130SOL     OW 6973   1.759   3.609   4.878
 2130SOL    HW1 6974   1.820   3.639   4.805
 2130SOL    HW2 6975   1.721   3.520   4.856
 2131SOL     OW 6976   1.252   3.593   4.852
 2131SOL    HW1 6977   1.336   3.598   4.798
 2131SOL    HW2 6978   1.229   3.497   4.870
 2132SOL     OW 6979   0.083   3.120   4.746
 2132SOL    HW1 6980   0.078   3.119   4.846
 2132SOL    HW2 6981   0.000   3.079   4.708
 2133SOL     OW 6982   0.688   3.524   5.440
 2133SOL    HW1 6983   0.632   3.605   5.449
 2133SOL    HW2 6984   0.740   3.528   5.354
 2134SOL     OW 6985   1.726   1.997   4.247
 2134SOL    HW1 6986   1.799   1.980   4.180
 2134SOL    HW2 6987   1.695   1.910   4.285
 2135SOL     OW 6988   1.388   3.435   4.201
 2135SOL    HW1 6989   1.455   3.447   4.127
 2135SOL    HW2 6990   1.348   3.524   4.224
 2136SOL     OW 6991   0.130   3.656   5.575
 2136SOL    HW1 6992   0.089   3.582   5.628
 2136SOL    HW2 6993   0.194   3.707   5.633
 2137SOL     OW 6994   1.280   2.789   4.396
 2137SOL    HW1 6995   1.340   2.708   4.398
 2137SOL    HW2 6996   1.320   2.858   4.336
 2138SOL     OW 6997   0.830   3.135   5.146
 2138SOL    HW1 6998   0.825   3.168   5.241
 2138SOL    HW2 6999   0.744   3.154   5.100
 2139SOL     OW 7000   0.672   3.478   3.878
 2139SOL    HW1 7001   0.681   3.488   3.779
 2139SOL    HW2 7002   0.632   3.389   3.899
 2140SOL     OW 7003   1.650   3.582   5.118
 2140SOL    HW1 7004   1.703   3.592   5.034
 2140SOL    HW2 7005   1.623   3.672   5.152
 2141SOL     OW 7006   0.263   2.188   4.444
 2141SOL    HW1 7007   0.184   2.239   4.410
 2141SOL    HW2 7008   0.254   2.173   4.542
 2142SOL     OW 7009   1.194   3.474   3.755
 2142SOL    HW1 7010   1.200   3.381   3.792
 2142SOL    HW2 7011   1.135   3.474   3.675
 2143SOL     OW 7012   0.822   2.864   5.096
 2143SOL    HW1 7013   0.862   2.863   5.004
 2143SOL    HW2 7014   0.832   2.956   5.136
 2144SOL     OW 7015   0.916   2.772   4.015
 2144SOL    HW1 7016   0.979   2.810   3.947
 2144SOL    HW2 7017   0.956   2.689   4.054
 2145SOL     OW 7018   1.504   3.469   3.768
 2145SOL    HW1 7019   1.412   3.506   3.775
 2145SOL    HW2 7020   1.542   3.489   3.678
 2146SOL     OW 7021   0.372   3.150   5.214
 2146SOL    HW1 7022   0.359   3.243   5.180
 2146SOL    HW2 7023   0.288   3.098   5.201
 2147SOL     OW 7024   1.614   3.154   5.013
 2147SOL    HW1 7025   1.674   3.157   5.093
 2147SOL    HW2 7026   1.539   3.218   5.026
 2148SOL     OW 7027   1.039   2.960   4.420
 2148SOL    HW1 7028   0.969   2.913   4.474
 2148SOL    HW2 7029   1.098   2.892   4.377
 2149SOL     OW 7030   1.014   2.098   4.695
 2149SOL    HW1 7031   1.006   2.062   4.602
 2149SOL    HW2 7032   1.012   2.022   4.760
 2150SOL     OW 7033   0.590   3.349   4.215
 2150SOL    HW1 7034   0.632   3.291   4.145
 2150SOL    HW2 7035   0.546   3.428   4.171
 2151SOL     OW 7036   0.255   3.210   4.014
 2151SOL    HW1 7037   0.159   3.211   3.987
 2151SOL    HW2 7038   0.267   3.263   4.098
 2152SOL     OW 7039   0.105   2.875   5.450
 2152SOL    HW1 7040   0.028   2.842   5.504
 2152SOL    HW2 7041   0.190   2.845   5.492
 2153SOL     OW 7042   0.672   2.065   5.213
 2153SOL    HW1 7043   0.762   2.049   5.173
 2153SOL    HW2 7044   0.680   2.070   5.312
 2154SOL     OW 7045   0.075   2.207   3.757
 2154SOL    HW1 7046  -0.017   2.179   3.728
 2154SOL    HW2 7047   0.106   2.284   3.701
 2155SOL     OW 7048   1.440   2.718   5.122
 2155SOL    HW1 7049   1.383   2.770   5.059
 2155SOL    HW2 7050   1.536   2.730   5.098
 2156SOL     OW 7051   0.072   2.028   4.042
 2156SOL    HW1 7052   0.055   2.111   3.988
 2156SOL    HW2 7053   0.162   1.991   4.020
 2157SOL     OW 7054   1.183   3.197   3.843
 2157SOL    HW1 7055   1.084   3.186   3.845
 2157SOL    HW2 7056   1.217   3.212   3.936
 2158SOL     OW 7057   0.613   2.704   5.155
 2158SOL    HW1 7058   0.669   2.785   5.138
 2158SOL    HW2 7059   0.672   2.624   5.158
 2159SOL     OW 7060   1.493   3.629   4.683
 2159SOL    HW1 7061   1.526   3.693   4.614
 2159SOL    HW2 7062   1.559   3.623   4.758
 2160SOL     OW 7063   0.716   2.427   5.432
 2160SOL    HW1 7064   0.735   2.492   5.506
 2160SOL    HW2 7065   0.776   2.347   5.441
 2161SOL     OW 7066   1.450   3.082   5.357
 2161SOL    HW1 7067   1.441   3.072   5.456
 2161SOL    HW2 7068   1.546   3.075   5.331
 2162SOL     OW 7069   0.390   3.603   5.284
 2162SOL    HW1 7070   0.299   3.644   5.282
 2162SOL    HW2 7071   0.383   3.509   5.316
 2163SOL     OW 7072   1.674   2.745   4.978
 2163SOL    HW1 7073   1.647   2.656   4.941
 2163SOL    HW2 7074   1.675   2.813   4.905
 2164SOL     OW 7075   1.225   2.187   4.173
 2164SOL    HW1 7076   1.290   2.113   4.162
 2164SOL    HW2 7077   1.245   2.237   4.257
 2165SOL     OW 7078   0.594   2.607   4.376
 2165SOL    HW1 7079   0.644   2.692   4.357
 2165SOL    HW2 7080   0.506   2.609   4.328
 2166SOL     OW 7081   1.730   2.796   5.241
 2166SOL    HW1 7082   1.768   2.887   5.256
 2166SOL    HW2 7083   1.722   2.779   5.142
 2167SOL     OW 7084   0.859   3.236   3.740
 2167SOL    HW1 7085   0.813   3.251   3.828
 2167SOL    HW2 7086   0.903   3.321   3.710
 2168SOL     OW 7087   0.661   3.652   4.677
 2168SOL    HW1 7088   0.615   3.740   4.664
 2168SOL    HW2 7089   0.760   3.664   4.670
 2169SOL     OW 7090   0.859   2.818   4.585
 2169SOL    HW1 7091   0.913   2.749   4.633
 2169SOL    HW2 7092   0.827   2.887   4.651
 2170SOL     OW 7093   1.083   2.846   3.811
 2170SOL    HW1 7094   1.060   2.899   3.729
 2170SOL    HW2 7095   1.164   2.790   3.792
 2171SOL     OW 7096   1.861   3.431   4.575
 2171SOL    HW1 7097   1.790   3.419   4.505
 2171SOL    HW2 7098   1.862   3.352   4.635
 2172SOL     OW 7099   0.221   3.176   5.568
 2172SOL    HW1 7100   0.156   3.103   5.547
 2172SOL    HW2 7101   0.225   3.190   5.666
 2173SOL     OW 7102   0.079   3.102   4.377
 2173SOL    HW1 7103   0.078   3.055   4.465
 2173SOL    HW2 7104   0.161   3.074   4.326
 2174SOL     OW 7105   0.672   3.253   5.348
 2174SOL    HW1 7106   0.594   3.203   5.386
 2174SOL    HW2 7107   0.669   3.348   5.379
 2175SOL     OW 7108   0.428   2.286   4.244
 2175SOL    HW1 7109   0.458   2.214   4.182
 2175SOL    HW2 7110   0.389   2.246   4.327
 2176SOL     OW 7111   1.705   3.349   4.828
 2176SOL    HW1 7112   1.612   3.324   4.801
 2176SOL    HW2 7113   1.731   3.299   4.910
 2177SOL     OW 7114   0.317   2.409   5.004
 2177SOL    HW1 7115   0.355   2.350   5.076
 2177SOL    HW2 7116   0.357   2.383   4.916
 2178SOL     OW 7117   0.812   3.448   4.411
 2178SOL    HW1 7118   0.844   3.458   4.317
 2178SOL    HW2 7119   0.733   3.386   4.413
 2179SOL     OW 7120   1.424   2.076   4.836
 2179SOL    HW1 7121   1.476   2.011   4.891
 2179SOL    HW2 7122   1.375   2.139   4.897
 2180SOL     OW 7123   1.001   1.896   4.878
 2180SOL    HW1 7124   0.938   1.824   4.847
 2180SOL    HW2 7125   1.094   1.860   4.878
 2181SOL     OW 7126   0.770   3.192   4.025
 2181SOL    HW1 7127   0.724   3.105   4.042
 2181SOL    HW2 7128   0.861   3.189   4.066
 2182SOL     OW 7129   0.618   3.429   5.008
 2182SOL    HW1 7130   0.613   3.511   5.065
 2182SOL    HW2 7131   0.707   3.426   4.963
 2183SOL     OW 7132   1.352   1.914   3.892
 2183SOL    HW1 7133   1.387   1.873   3.808
 2183SOL    HW2 7134   1.262   1.876   3.912
 2184SOL     OW 7135   1.300   2.315   4.415
 2184SOL    HW1 7136   1.241   2.395   4.419
 2184SOL    HW2 7137   1.315   2.280   4.508
 2185SOL     OW 7138   1.593   2.083   4.606
 2185SOL    HW1 7139   1.509   2.082   4.660
 2185SOL    HW2 7140   1.595   2.166   4.550
 2186SOL     OW 7141   0.039   2.939   4.024
 2186SOL    HW1 7142   0.138   2.928   4.015
 2186SOL    HW2 7143  -0.001   2.853   4.056
 2187SOL     OW 7144   0.875   3.508   4.061
 2187SOL    HW1 7145   0.798   3.473   4.007
 2187SOL    HW2 7146   0.843   3.579   4.123
 2188SOL     OW 7147   0.230   2.490   5.699
 2188SOL    HW1 7148   0.137   2.488   5.736
 2188SOL    HW2 7149   0.231   2.451   5.607
 2189SOL     OW 7150   0.225   2.137   6.582
 2189SOL    HW1 7151   0.260   2.120   6.674
 2189SOL    HW2 7152   0.137   2.092   6.570
 2190SOL     OW 7153   0.019   2.230   6.233
 2190SOL    HW1 7154  -0.063   2.273   6.272
 2190SOL    HW2 7155  -0.009   2.157   6.170
 2191SOL     OW 7156   0.569   3.137   6.751
 2191SOL    HW1 7157   0.476   3.130   6.714
 2191SOL    HW2 7158   0.580   3.226   6.795
 2192SOL     OW 7159   1.555   3.373   6.289
 2192SOL    HW1 7160   1.498   3.357   6.370
 2192SOL    HW2 7161   1.496   3.383   6.209
 2193SOL     OW 7162   1.135   2.565   6.303
 2193SOL    HW1 7163   1.192   2.643   6.278
 2193SOL    HW2 7164   1.075   2.591   6.379
 2194SOL     OW 7165   1.755   2.469   5.817
 2194SOL    HW1 7166   1.743   2.456   5.718
 2194SOL    HW2 7167   1.725   2.388   5.866
 2195SOL     OW 7168   0.768   3.006   6.609
 2195SOL    HW1 7169   0.690   3.023   6.669
 2195SOL    HW2 7170   0.802   3.093   6.573
 2196SOL     OW 7171   0.850   2.660   7.409
 2196SOL    HW1 7172   0.846   2.736   7.474
 2196SOL    HW2 7173   0.872   2.696   7.318
 2197SOL     OW 7174   0.685   2.874   6.251
 2197SOL    HW1 7175   0.754   2.858   6.321
 2197SOL    HW2 7176   0.612   2.931   6.289
 2198SOL     OW 7177   0.686   3.023   7.389
 2198SOL    HW1 7178   0.746   3.102   7.403
 2198SOL    HW2 7179   0.600   3.054   7.348
 2199SOL     OW 7180   0.335   3.297   6.647
 2199SOL    HW1 7181   0.257   3.266   6.594
 2199SOL    HW2 7182   0.393   3.355   6.590
 2200SOL     OW 7183   1.460   3.367   6.925
 2200SOL    HW1 7184   1.484   3.461   6.951
 2200SOL    HW2 7185   1.444   3.313   7.007
 2201SOL     OW 7186   0.438   2.254   7.085
 2201SOL    HW1 7187   0.520   2.198   7.094
 2201SOL    HW2 7188   0.357   2.196   7.089
 2202SOL     OW 7189   1.603   2.309   6.323
 2202SOL    HW1 7190   1.529   2.355   6.273
 2202SOL    HW2 7191   1.654   2.377   6.376
 2203SOL     OW 7192   0.231   3.575   6.069
 2203SOL    HW1 7193   0.265   3.652   6.123
 2203SOL    HW2 7194   0.275   3.575   5.979
 2204SOL     OW 7195   1.127   3.203   7.276
 2204SOL    HW1 7196   1.174   3.203   7.364
 2204SOL    HW2 7197   1.079   3.116   7.265
 2205SOL     OW 7198   0.230   3.296   6.124
 2205SOL    HW1 7199   0.204   3.392   6.124
 2205SOL    HW2 7200   0.159   3.242   6.169
 2206SOL     OW 7201   0.240   2.953   6.472
 2206SOL    HW1 7202   0.254   2.869   6.524
 2206SOL    HW2 7203   0.185   3.017   6.527
 2207SOL     OW 7204   0.620   3.648   7.025
 2207SOL    HW1 7205   0.528   3.631   7.060
 2207SOL    HW2 7206   0.648   3.740   7.051
 2208SOL     OW 7207   0.606   2.826   5.709
 2208SOL    HW1 7208   0.613   2.910   5.655
 2208SOL    HW2 7209   0.652   2.839   5.797
 2209SOL     OW 7210   1.594   1.976   7.066
 2209SOL    HW1 7211   1.576   2.043   6.994
 2209SOL    HW2 7212   1.591   2.022   7.155
 2210SOL     OW 7213   0.122   2.505   6.149
 2210SOL    HW1 7214   0.077   2.417   6.166
 2210SOL    HW2 7215   0.121   2.559   6.233
 2211SOL     OW 7216   1.842   3.629   5.945
 2211SOL    HW1 7217   1.896   3.600   6.025
 2211SOL    HW2 7218   1.872   3.719   5.916
 2212SOL     OW 7219   0.027   3.458   5.703
 2212SOL    HW1 7220   0.008   3.362   5.724
 2212SOL    HW2 7221  -0.006   3.516   5.778
 2213SOL     OW 7222   1.689   2.784   6.198
 2213SOL    HW1 7223   1.784   2.755   6.206
 2213SOL    HW2 7224   1.681   2.849   6.123
 2214SOL     OW 7225   1.641   2.970   6.018
 2214SOL    HW1 7226   1.727   2.972   5.966
 2214SOL    HW2 7227   1.655   3.017   6.106
 2215SOL     OW 7228   0.113   2.599   7.183
 2215SOL    HW1 7229   0.201   2.586   7.228
 2215SOL    HW2 7230   0.100   2.696   7.161
 2216SOL     OW 7231   0.613   3.227   6.312
 2216SOL    HW1 7232   0.564   3.140   6.321
 2216SOL    HW2 7233   0.590   3.270   6.225
 2217SOL     OW 7234   1.293   3.090   7.009
 2217SOL    HW1 7235   1.330   3.017   6.951
 2217SOL    HW2 7236   1.345   3.095   7.094
 2218SOL     OW 7237   0.809   1.866   6.088
 2218SOL    HW1 7238   0.849   1.957   6.079
 2218SOL    HW2 7239   0.709   1.874   6.094
 2219SOL     OW 7240   0.197   2.838   6.850
 2219SOL    HW1 7241   0.286   2.793   6.836
 2219SOL    HW2 7242   0.124   2.773   6.831
 2220SOL     OW 7243   1.525   2.861   5.776
 2220SOL    HW1 7244   1.462   2.785   5.789
 2220SOL    HW2 7245   1.573   2.879   5.862
 2221SOL     OW 7246   1.187   3.654   7.202
 2221SOL    HW1 7247   1.211   3.714   7.126
 2221SOL    HW2 7248   1.194   3.559   7.172
 2222SOL     OW 7249   0.317   2.113   7.387
 2222SOL    HW1 7250   0.388   2.184   7.393
 2222SOL    HW2 7251   0.229   2.152   7.415
 2223SOL     OW 7252   1.466   3.279   6.539
 2223SOL    HW1 7253   1.407   3.285   6.619
 2223SOL    HW2 7254   1.451   3.191   6.493
 2224SOL     OW 7255   1.667   3.576   6.158
 2224SOL    HW1 7256   1.626   3.553   6.070
 2224SOL    HW2 7257   1.649   3.502   6.223
 2225SOL     OW 7258   0.598   2.591   5.856
 2225SOL    HW1 7259   0.622   2.660   5.788
 2225SOL    HW2 7260   0.520   2.624   5.910
 2226SOL     OW 7261   1.576   3.524   5.893
 2226SOL    HW1 7262   1.665   3.570   5.896
 2226SOL    HW2 7263   1.555   3.500   5.798
 2227SOL     OW 7264   0.807   2.467   7.051
 2227SOL    HW1 7265   0.760   2.464   7.140
 2227SOL    HW2 7266   0.756   2.412   6.985
 2228SOL     OW 7267   0.973   2.752   7.158
 2228SOL    HW1 7268   1.019   2.668   7.129
 2228SOL    HW2 7269   0.917   2.786   7.083
 2229SOL     OW 7270   0.991   2.272   6.828
 2229SOL    HW1 7271   0.914   2.306   6.882
 2229SOL    HW2 7272   0.957   2.221   6.749
 2230SOL     OW 7273   1.041   2.563   6.015
 2230SOL    HW1 7274   1.067   2.559   6.111
 2230SOL    HW2 7275   0.956   2.512   6.001
 2231SOL     OW 7276   0.076   2.673   6.375
 2231SOL    HW1 7277   0.175   2.661   6.384
 2231SOL    HW2 7278   0.052   2.768   6.396
 2232SOL     OW 7279   0.130   3.683   7.157
 2232SOL    HW1 7280   0.120   3.668   7.256
 2232SOL    HW2 7281   0.044   3.719   7.121
 2233SOL     OW 7282   0.865   2.210   5.781
 2233SOL    HW1 7283   0.924   2.273   5.732
 2233SOL    HW2 7284   0.884   2.116   5.752
 2234SOL     OW 7285   1.719   2.447   7.417
 2234SOL    HW1 7286   1.693   2.536   7.381
 2234SOL    HW2 7287   1.717   2.379   7.344
 2235SOL     OW 7288   1.362   3.006   6.131
 2235SOL    HW1 7289   1.445   2.977   6.083
 2235SOL    HW2 7290   1.313   3.073   6.075
 2236SOL     OW 7291   0.550   2.058   6.471
 2236SOL    HW1 7292   0.545   2.053   6.571
 2236SOL    HW2 7293   0.552   2.154   6.442
 2237SOL     OW 7294   1.008   3.318   6.063
 2237SOL    HW1 7295   0.962   3.390   6.011
 2237SOL    HW2 7296   1.004   3.338   6.161
 2238SOL     OW 7297   0.351   3.663   6.439
 2238SOL    HW1 7298   0.401   3.577   6.445
 2238SOL    HW2 7299   0.416   3.740   6.436
 2239SOL     OW 7300   1.795   2.928   6.459
 2239SOL    HW1 7301   1.733   2.913   6.383
 2239SOL    HW2 7302   1.743   2.939   6.544
 2240SOL     OW 7303   1.227   3.412   7.092
 2240SOL    HW1 7304   1.233   3.335   7.156
 2240SOL    HW2 7305   1.175   3.386   7.012
 2241SOL     OW 7306   0.321   2.805   5.828
 2241SOL    HW1 7307   0.403   2.844   5.786
 2241SOL    HW2 7308   0.294   2.723   5.779
 2242SOL     OW 7309   1.458   2.597   6.314
 2242SOL    HW1 7310   1.453   2.532   6.389
 2242SOL    HW2 7311   1.538   2.656   6.327
 2243SOL     OW 7312   0.461   3.128   7.313
 2243SOL    HW1 7313   0.411   3.129   7.227
 2243SOL    HW2 7314   0.398   3.110   7.389
 2244SOL     OW 7315   1.111   3.638   5.823
 2244SOL    HW1 7316   1.051   3.576   5.873
 2244SOL    HW2 7317   1.142   3.594   5.738
 2245SOL     OW 7318   0.202   2.147   7.084
 2245SOL    HW1 7319   0.122   2.207   7.071
 2245SOL    HW2 7320   0.192   2.098   7.170
 2246SOL     OW 7321   1.632   3.239   5.667
 2246SOL    HW1 7322   1.600   3.333   5.657
 2246SOL    HW2 7323   1.556   3.176   5.655
 2247SOL     OW 7324   0.464   3.605   5.909
 2247SOL    HW1 7325   0.497   3.644   5.995
 2247SOL    HW2 7326   0.540   3.598   5.844
 2248SOL     OW 7327   1.400   1.969   6.012
 2248SOL    HW1 7328   1.376   1.932   5.922
 2248SOL    HW2 7329   1.499   1.985   6.016
 2249SOL     OW 7330   0.249   3.647   6.827
 2249SOL    HW1 7331   0.306   3.582   6.877
 2249SOL    HW2 7332   0.233   3.614   6.734
 2250SOL     OW 7333   0.940   3.560   6.490
 2250SOL    HW1 7334   1.020   3.503   6.511
 2250SOL    HW2 7335   0.891   3.520   6.413
 2251SOL     OW 7336   0.382   2.562   6.066
 2251SOL    HW1 7337   0.427   2.472   6.063
 2251SOL    HW2 7338   0.288   2.551   6.099
 2252SOL     OW 7339   1.547   2.084   7.315
 2252SOL    HW1 7340   1.542   2.121   7.407
 2252SOL    HW2 7341   1.475   2.015   7.303
 2253SOL     OW 7342   0.614   1.984   5.703
 2253SOL    HW1 7343   0.712   1.962   5.710
 2253SOL    HW2 7344   0.583   1.967   5.610
 2254SOL     OW 7345   0.781   2.126   7.335
 2254SOL    HW1 7346   0.848   2.065   7.378
 2254SOL    HW2 7347   0.708   2.145   7.400
 2255SOL     OW 7348   0.888   3.376   6.781
 2255SOL    HW1 7349   0.865   3.351   6.687
 2255SOL    HW2 7350   0.949   3.307   6.820
 2256SOL     OW 7351   0.803   3.264   6.510
 2256SOL    HW1 7352   0.893   3.278   6.468
 2256SOL    HW2 7353   0.732   3.266   6.439
 2257SOL     OW 7354   0.922   2.365   6.485
 2257SOL    HW1 7355   0.897   2.356   6.389
 2257SOL    HW2 7356   0.970   2.283   6.516
 2258SOL     OW 7357   0.539   1.926   6.098
 2258SOL    HW1 7358   0.458   1.927   6.156
 2258SOL    HW2 7359   0.542   2.009   6.043
 2259SOL     OW 7360   1.434   3.050   5.627
 2259SOL    HW1 7361   1.466   2.974   5.684
 2259SOL    HW2 7362   1.342   3.077   5.657
 2260SOL     OW 7363   0.297   1.897   5.757
 2260SOL    HW1 7364   0.346   1.981   5.736
 2260SOL    HW2 7365   0.359   1.832   5.802
 2261SOL     OW 7366   0.935   2.098   6.066
 2261SOL    HW1 7367   0.887   2.139   5.988
 2261SOL    HW2 7368   1.034   2.096   6.047
 2262SOL     OW 7369   1.076   2.545   7.050
 2262SOL    HW1 7370   0.996   2.484   7.053
 2262SOL    HW2 7371   1.157   2.492   7.026
 2263SOL     OW 7372   1.227   3.432   6.379
 2263SOL    HW1 7373   1.248   3.506   6.314
 2263SOL    HW2 7374   1.295   3.432   6.452
 2264SOL     OW 7375   0.459   3.014   6.327
 2264SOL    HW1 7376   0.388   2.987   6.392
 2264SOL    HW2 7377   0.433   2.986   6.234
 2265SOL     OW 7378   1.271   3.659   6.177
 2265SOL    HW1 7379   1.315   3.723   6.113
 2265SOL    HW2 7380   1.221   3.711   6.247
 2266SOL     OW 7381   1.032   2.411   5.602
 2266SOL    HW1 7382   0.991   2.493   5.563
 2266SOL    HW2 7383   1.096   2.437   5.675
 2267SOL     OW 7384   0.078   2.418   6.972
 2267SOL    HW1 7385   0.170   2.417   6.931
 2267SOL    HW2 7386   0.072   2.492   7.039
 2268SOL     OW 7387   0.561   2.084   6.733
 2268SOL    HW1 7388   0.599   2.000   6.770
 2268SOL    HW2 7389   0.473   2.103   6.777
 2269SOL     OW 7390   0.866   2.316   6.228
 2269SOL    HW1 7391   0.834   2.388   6.166
 2269SOL    HW2 7392   0.890   2.235   6.175
 2270SOL     OW 7393   1.017   1.901   6.339
 2270SOL    HW1 7394   0.945   1.906   6.270
 2270SOL    HW2 7395   0.993   1.832   6.408
 2271SOL     OW 7396   1.429   3.035   6.453
 2271SOL    HW1 7397   1.374   2.951   6.446
 2271SOL    HW2 7398   1.455   3.064   6.361
 2272SOL     OW 7399   1.857   2.695   5.963
 2272SOL    HW1 7400   1.899   2.631   6.027
 2272SOL    HW2 7401   1.819   2.644   5.885
 2273SOL     OW 7402   0.488   3.247   5.760
 2273SOL    HW1 7403   0.401   3.232   5.807
 2273SOL    HW2 7404   0.471   3.273   5.665
 2274SOL     OW 7405   1.664   3.142   6.243
 2274SOL    HW1 7406   1.763   3.150   6.257
 2274SOL    HW2 7407   1.619   3.226   6.274
 2275SOL     OW 7408   1.390   2.437   5.664
 2275SOL    HW1 7409   1.336   2.416   5.745
 2275SOL    HW2 7410   1.481   2.396   5.673
 2276SOL     OW 7411   0.527   2.118   5.914
 2276SOL    HW1 7412   0.554   2.059   5.839
 2276SOL    HW2 7413   0.527   2.213   5.883
 2277SOL     OW 7414   1.754   3.085   7.174
 2277SOL    HW1 7415   1.845   3.046   7.161
 2277SOL    HW2 7416   1.762   3.181   7.198
 2278SOL     OW 7417   1.064   3.209   6.926
 2278SOL    HW1 7418   0.984   3.186   6.981
 2278SOL    HW2 7419   1.147   3.183   6.975
 2279SOL     OW 7420   1.592   3.491   7.211
 2279SOL    HW1 7421   1.619   3.525   7.121
 2279SOL    HW2 7422   1.671   3.453   7.257
 2280SOL     OW 7423   1.111   3.057   6.686
 2280SOL    HW1 7424   1.071   3.101   6.767
 2280SOL    HW2 7425   1.070   3.094   6.603
 2281SOL     OW 7426   1.638   2.961   6.665
 2281SOL    HW1 7427   1.643   3.042   6.724
 2281SOL    HW2 7428   1.552   2.963   6.614
 2282SOL     OW 7429   0.915   1.951   6.988
 2282SOL    HW1 7430   0.940   1.931   6.893
 2282SOL    HW2 7431   0.987   2.007   7.030
 2283SOL     OW 7432   0.980   2.978   7.305
 2283SOL    HW1 7433   0.881   2.984   7.315
 2283SOL    HW2 7434   1.003   2.898   7.249
 2284SOL     OW 7435   0.705   2.912   5.954
 2284SOL    HW1 7436   0.691   2.919   6.053
 2284SOL    HW2 7437   0.789   2.861   5.936
 2285SOL     OW 7438   0.410   2.675   6.837
 2285SOL    HW1 7439   0.496   2.687   6.887
 2285SOL    HW2 7440   0.368   2.588   6.864
 2286SOL     OW 7441   0.064   3.426   6.917
 2286SOL    HW1 7442   0.018   3.508   6.883
 2286SOL    HW2 7443   0.162   3.445   6.926
 2287SOL     OW 7444   0.367   2.962   6.087
 2287SOL    HW1 7445   0.360   3.045   6.031
 2287SOL    HW2 7446   0.371   2.882   6.027
 2288SOL     OW 7447   0.566   2.399   6.451
 2288SOL    HW1 7448   0.578   2.465   6.377
 2288SOL    HW2 7449   0.612   2.433   6.534
 2289SOL     OW 7450   1.252   3.210   5.974
 2289SOL    HW1 7451   1.302   3.287   6.014
 2289SOL    HW2 7452   1.157   3.212   6.006
 2290SOL     OW 7453   1.272   3.307   6.728
 2290SOL    HW1 7454   1.319   3.320   6.815
 2290SOL    HW2 7455   1.206   3.233   6.737
 2291SOL     OW 7456   1.582   2.501   6.058
 2291SOL    HW1 7457   1.551   2.562   6.131
 2291SOL    HW2 7458   1.632   2.553   5.989
 2292SOL     OW 7459   0.354   3.372   6.915
 2292SOL    HW1 7460   0.333   3.328   6.828
 2292SOL    HW2 7461   0.451   3.398   6.918
 2293SOL     OW 7462   0.402   2.613   7.184
 2293SOL    HW1 7463   0.470   2.668   7.137
 2293SOL    HW2 7464   0.442   2.525   7.211
 2294SOL     OW 7465   1.587   2.641   7.256
 2294SOL    HW1 7466   1.495   2.679   7.251
 2294SOL    HW2 7467   1.647   2.688   7.191
 2295SOL     OW 7468   1.013   1.967   7.356
 2295SOL    HW1 7469   1.019   2.052   7.304
 2295SOL    HW2 7470   1.045   1.891   7.299
 2296SOL     OW 7471   0.504   1.912   7.326
 2296SOL    HW1 7472   0.462   1.855   7.256
 2296SOL    HW2 7473   0.438   1.981   7.358
 2297SOL     OW 7474   0.573   2.732   6.615
 2297SOL    HW1 7475   0.617   2.821   6.606
 2297SOL    HW2 7476   0.510   2.732   6.692
 2298SOL     OW 7477   1.360   2.724   6.631
 2298SOL    HW1 7478   1.285   2.724   6.565
 2298SOL    HW2 7479   1.397   2.632   6.640
 2299SOL     OW 7480   1.209   2.387   5.861
 2299SOL    HW1 7481   1.222   2.303   5.915
 2299SOL    HW2 7482   1.180   2.461   5.921
 2300SOL     OW 7483   0.307   2.075   6.817
 2300SOL    HW1 7484   0.284   2.112   6.907
 2300SOL    HW2 7485   0.277   1.980   6.811
 2301SOL     OW 7486   0.037   3.172   6.868
 2301SOL    HW1 7487   0.090   3.123   6.936
 2301SOL    HW2 7488   0.059   3.270   6.873
 2302SOL     OW 7489   0.732   2.496   6.650
 2302SOL    HW1 7490   0.791   2.470   6.574
 2302SOL    HW2 7491   0.704   2.592   6.639
 2303SOL     OW 7492   1.728   2.797   7.440
 2303SOL    HW1 7493   1.682   2.790   7.351
 2303SOL    HW2 7494   1.666   2.841   7.506
 2304SOL     OW 7495   0.307   1.925   6.204
 2304SOL    HW1 7496   0.296   2.019   6.237
 2304SOL    HW2 7497   0.302   1.862   6.281
 2305SOL     OW 7498   1.622   2.229   5.960
 2305SOL    HW1 7499   1.624   2.153   6.024
 2305SOL    HW2 7500   1.574   2.306   6.000
 2306SOL     OW 7501   1.023   2.628   6.552
 2306SOL    HW1 7502   1.038   2.649   6.648
 2306SOL    HW2 7503   0.993   2.533   6.543
 2307SOL     OW 7504   0.980   3.435   7.286
 2307SOL    HW1 7505   0.960   3.479   7.198
 2307SOL    HW2 7506   1.019   3.344   7.270
 2308SOL     OW 7507   1.859   3.380   7.191
 2308SOL    HW1 7508   1.873   3.407   7.096
 2308SOL    HW2 7509   1.942   3.402   7.244
 2309SOL     OW 7510   0.350   2.760   7.390
 2309SOL    HW1 7511   0.426   2.804   7.438
 2309SOL    HW2 7512   0.385   2.713   7.308
 2310SOL     OW 7513   1.540   2.136   5.711
 2310SOL    HW1 7514   1.479   2.061   5.734
 2310SOL    HW2 7515   1.562   2.188   5.794
 2311SOL     OW 7516   1.303   2.700   5.628
 2311SOL    HW1 7517   1.337   2.607   5.643
 2311SOL    HW2 7518   1.321   2.727   5.533
 2312SOL     OW 7519   1.068   3.195   6.435
 2312SOL    HW1 7520   1.075   3.111   6.380
 2312SOL    HW2 7521   1.130   3.264   6.399
 2313SOL     OW 7522   0.319   2.672   6.535
 2313SOL    HW1 7523   0.412   2.708   6.540
 2313SOL    HW2 7524   0.313   2.587   6.587
 2314SOL     OW 7525   0.339   2.371   6.592
 2314SOL    HW1 7526   0.287   2.288   6.575
 2314SOL    HW2 7527   0.416   2.376   6.528
 2315SOL     OW 7528   1.138   2.242   7.264
 2315SOL    HW1 7529   1.093   2.305   7.328
 2315SOL    HW2 7530   1.231   2.273   7.247
 2316SOL     OW 7531   0.008   3.188   5.786
 2316SOL    HW1 7532  -0.085   3.209   5.755
 2316SOL    HW2 7533   0.018   3.089   5.799
 2317SOL     OW 7534   0.088   3.663   6.513
 2317SOL    HW1 7535   0.046   3.577   6.486
 2317SOL    HW2 7536   0.182   3.666   6.479
 2318SOL     OW 7537   0.504   3.430   6.496
 2318SOL    HW1 7538   0.570   3.504   6.505
 2318SOL    HW2 7539   0.548   3.351   6.454
 2319SOL     OW 7540   1.002   2.658   6.824
 2319SOL    HW1 7541   1.043   2.626   6.910
 2319SOL    HW2 7542   0.906   2.631   6.821
 2320SOL     OW 7543   0.040   2.406   6.700
 2320SOL    HW1 7544   0.125   2.373   6.659
 2320SOL    HW2 7545   0.053   2.421   6.798
 2321SOL     OW 7546   0.189   2.382   7.308
 2321SOL    HW1 7547   0.248   2.342   7.238
 2321SOL    HW2 7548   0.131   2.453   7.267
 2322SOL     OW 7549   1.369   2.812   7.246
 2322SOL    HW1 7550   1.408   2.901   7.266
 2322SOL    HW2 7551   1.379   2.792   7.149
 2323SOL     OW 7552   0.815   2.434   5.911
 2323SOL    HW1 7553   0.822   2.345   5.865
 2323SOL    HW2 7554   0.721   2.468   5.903
 2324SOL     OW 7555   0.252   3.426   7.330
 2324SOL    HW1 7556   0.222   3.483   7.406
 2324SOL    HW2 7557   0.245   3.329   7.356
 2325SOL     OW 7558   0.671   2.326   6.855
 2325SOL    HW1 7559   0.637   2.237   6.825
 2325SOL    HW2 7560   0.697   2.380   6.775
 2326SOL     OW 7561   0.930   3.540   7.051
 2326SOL    HW1 7562   0.906   3.522   6.956
 2326SOL    HW2 7563   0.960   3.634   7.061
 2327SOL     OW 7564   0.473   2.362   5.777
 2327SOL    HW1 7565   0.534   2.442   5.781
 2327SOL    HW2 7566   0.378   2.393   5.784
 2328SOL     OW 7567   0.159   2.999   7.052
 2328SOL    HW1 7568   0.181   2.938   7.128
 2328SOL    HW2 7569   0.169   2.950   6.966
 2329SOL     OW 7570   1.347   2.921   6.820
 2329SOL    HW1 7571   1.371   2.858   6.746
 2329SOL    HW2 7572   1.257   2.961   6.802
 2330SOL     OW 7573   1.302   2.717   5.895
 2330SOL    HW1 7574   1.216   2.686   5.937
 2330SOL    HW2 7575   1.298   2.703   5.796
 2331SOL     OW 7576   1.759   3.609   6.740
 2331SOL    HW1 7577   1.820   3.639   6.667
 2331SOL    HW2 7578   1.721   3.520   6.718
 2332SOL     OW 7579   1.252   3.593   6.714
 2332SOL    HW1 7580   1.336   3.598   6.660
 2332SOL    HW2 7581   1.229   3.497   6.732
 2333SOL     OW 7582   0.083   3.120   6.608
 2333SOL    HW1 7583   0.078   3.119   6.708
 2333SOL    HW2 7584   0.000   3.079   6.570
 2334SOL     OW 7585   0.688   3.524   7.302
 2334SOL    HW1 7586   0.632   3.605   7.311
 2334SOL    HW2 7587   0.740   3.528   7.216
 2335SOL     OW 7588   1.726   1.997   6.109
 2335SOL    HW1 7589   1.799   1.980   6.042
 2335SOL    HW2 7590   1.695   1.910   6.147
 2336SOL     OW 7591   1.388   3.435   6.063
 2336SOL    HW1 7592   1.455   3.447   5.989
 2336SOL    HW2 7593   1.348   3.524   6.086
 2337SOL     OW 7594   0.130   3.656   7.437
 2337SOL    HW1 7595   0.089   3.582   7.490
 2337SOL    HW2 7596   0.194   3.707   7.495
 2338SOL     OW 7597   1.280   2.789   6.258
 2338SOL    HW1 7598   1.340   2.708   6.260
 2338SOL    HW2 7599   1.320   2.858   6.198
 2339SOL     OW 7600   0.830   3.135   7.008
 2339SOL    HW1 7601   0.825   3.168   7.103
 2339SOL    HW2 7602   0.744   3.154   6.962
 2340SOL     OW 7603   0.672   3.478   5.740
 2340SOL    HW1 7604   0.681   3.488   5.641
 2340SOL    HW2 7605   0.632   3.389   5.761
 2341SOL     OW 7606   1.650   3.582   6.980
 2341SOL    HW1 7607   1.703   3.592   6.896
 2341SOL    HW2 7608   1.623   3.672   7.014
 2342SOL     OW 7609   0.263   2.188   6.306
 2342SOL    HW1 7610   0.184   2.239   6.272
 2342SOL    HW2 7611   0.254   2.173   6.404
 2343SOL     OW 7612   1.194   3.474   5.617
 2343SOL    HW1 7613   1.200   3.381   5.654
 2343SOL    HW2 7614   1.135   3.474   5.537
 2344SOL     OW 7615   0.822   2.864   6.958
 2344SOL    HW1 7616   0.862   2.863   6.866
 2344SOL    HW2 7617   0.832   2.956   6.998
 2345SOL     OW 7618   0.916   2.772   5.877
 2345SOL    HW1 7619   0.979   2.810   5.809
 2345SOL    HW2 7620   0.956   2.689   5.916
 2346SOL     OW 7621   1.504   3.469   5.630
 2346SOL    HW1 7622   1.412   3.506   5.637
 2346SOL    HW2 7623   1.542   3.489   5.540
 2347SOL     OW 7624   0.372   3.150   7.076
 2347SOL    HW1 7625   0.359   3.243   7.042
 2347SOL    HW2 7626   0.288   3.098   7.063
 2348SOL     OW 7627   1.614   3.154   6.875
 2348SOL    HW1 7628   1.674   3.157   6.955
 2348SOL    HW2 7629   1.539   3.218   6.888
 2349SOL     OW 7630   1.039   2.960   6.282
 2349SOL    HW1 7631   0.969   2.913   6.336
 2349SOL    HW2 7632   1.098   2.892   6.239
 2350SOL     OW 7633   1.014   2.098   6.557
 2350SOL    HW1 7634   1.006   2.062   6.464
 2350SOL    HW2 7635   1.012   2.022   6.622
 2351SOL     OW 7636   0.590   3.349   6.077
 2351SOL    HW1 7637   0.632   3.291   6.007
 2351SOL    HW2 7638   0.546   3.428   6.033
 2352SOL     OW 7639   1.709   2.247   6.967
 2352SOL    HW1 7640   1.782   2.316   6.971
 2352SOL    HW2 7641   1.737   2.172   6.908
 2353SOL     OW 7642   0.255   3.210   5.876
 2353SOL    HW1 7643   0.159   3.211   5.849
 2353SOL    HW2 7644   0.267   3.263   5.960
 2354SOL     OW 7645   0.105   2.875   7.312
 2354SOL    HW1 7646   0.028   2.842   7.366
 2354SOL    HW2 7647   0.190   2.845   7.354
 2355SOL     OW 7648   0.672   2.065   7.075
 2355SOL    HW1 7649   0.762   2.049   7.035
 2355SOL    HW2 7650   0.680   2.070   7.174
 2356SOL     OW 7651   0.075   2.207   5.619
 2356SOL    HW1 7652  -0.017   2.179   5.590
 2356SOL    HW2 7653   0.106   2.284   5.563
 2357SOL     OW 7654   1.440   2.718   6.984
 2357SOL    HW1 7655   1.383   2.770   6.921
 2357SOL    HW2 7656   1.536   2.730   6.960
 2358SOL     OW 7657   0.072   2.028   5.904
 2358SOL    HW1 7658   0.055   2.111   5.850
 2358SOL    HW2 7659   0.162   1.991   5.882
 2359SOL     OW 7660   1.183   3.197   5.705
 2359SOL    HW1 7661   1.084   3.186   5.707
 2359SOL    HW2 7662   1.217   3.212   5.798
 2360SOL     OW 7663   0.613   2.704   7.017
 2360SOL    HW1 7664   0.669   2.785   7.000
 2360SOL    HW2 7665   0.672   2.624   7.020
 2361SOL     OW 7666   1.493   3.629   6.545
 2361SOL    HW1 7667   1.526   3.693   6.476
 2361SOL    HW2 7668   1.559   3.623   6.620
 2362SOL     OW 7669   0.716   2.427   7.294
 2362SOL    HW1 7670   0.735   2.492   7.368
 2362SOL    HW2 7671   0.776   2.347   7.303
 2363SOL     OW 7672   1.450   3.082   7.219
 2363SOL    HW1 7673   1.441   3.072   7.318
 2363SOL    HW2 7674   1.546   3.075   7.193
 2364SOL     OW 7675   0.390   3.603   7.146
 2364SOL    HW1 7676   0.299   3.644   7.144
 2364SOL    HW2 7677   0.383   3.509   7.178
 2365SOL     OW 7678   1.225   2.187   6.035
 2365SOL    HW1 7679   1.290   2.113   6.024
 2365SOL    HW2 7680   1.245   2.237   6.119
 2366SOL     OW 7681   0.594   2.607   6.238
 2366SOL    HW1 7682   0.644   2.692   6.219
 2366SOL    HW2 7683   0.506   2.609   6.190
 2367SOL     OW 7684   0.859   3.236   5.602
 2367SOL    HW1 7685   0.813   3.251   5.690
 2367SOL    HW2 7686   0.903   3.321   5.572
 2368SOL     OW 7687   0.661   3.652   6.539
 2368SOL    HW1 7688   0.615   3.740   6.526
 2368SOL    HW2 7689   0.760   3.664   6.532
 2369SOL     OW 7690   0.859   2.818   6.447
 2369SOL    HW1 7691   0.913   2.749   6.495
 2369SOL    HW2 7692   0.827   2.887   6.513
 2370SOL     OW 7693   1.083   2.846   5.673
 2370SOL    HW1 7694   1.060   2.899   5.591
 2370SOL    HW2 7695   1.164   2.790   5.654
 2371SOL     OW 7696   1.861   3.431   6.437
 2371SOL    HW1 7697   1.790   3.419   6.367
 2371SOL    HW2 7698   1.862   3.352   6.497
 2372SOL     OW 7699   0.221   3.176   7.430
 2372SOL    HW1 7700   0.156   3.103   7.409
 2372SOL    HW2 7701   0.225   3.190   7.528
 2373SOL     OW 7702   0.079   3.102   6.239
 2373SOL    HW1 7703   0.078   3.055   6.327
 2373SOL    HW2 7704   0.161   3.074   6.188
 2374SOL     OW 7705   0.672   3.253   7.210
 2374SOL    HW1 7706   0.594   3.203   7.248
 2374SOL    HW2 7707   0.669   3.348   7.241
 2375SOL     OW 7708   0.428   2.286   6.106
 2375SOL    HW1 7709   0.458   2.214   6.044
 2375SOL    HW2 7710   0.389   2.246   6.189
 2376SOL     OW 7711   1.705   3.349   6.690
 2376SOL    HW1 7712   1.612   3.324   6.663
 2376SOL    HW2 7713   1.731   3.299   6.772
 2377SOL     OW 7714   0.317   2.409   6.866
 2377SOL    HW1 7715   0.355   2.350   6.938
 2377SOL    HW2 7716   0.357   2.383   6.778
 2378SOL     OW 7717   0.812   3.448   6.273
 2378SOL    HW1 7718   0.844   3.458   6.179
 2378SOL    HW2 7719   0.733   3.386   6.275
 2379SOL     OW 7720   1.001   1.896   6.740
 2379SOL    HW1 7721   0.938   1.824   6.709
 2379SOL    HW2 7722   1.094   1.860   6.740
 2380SOL     OW 7723   0.770   3.192   5.887
 2380SOL    HW1 7724   0.724   3.105   5.904
 2380SOL    HW2 7725   0.861   3.189   5.928
 2381SOL     OW 7726   0.618   3.429   6.870
 2381SOL    HW1 7727   0.613   3.511   6.927
 2381SOL    HW2 7728   0.707   3.426   6.825
 2382SOL     OW 7729   1.352   1.914   5.754
 2382SOL    HW1 7730   1.387   1.873   5.670
 2382SOL    HW2 7731   1.262   1.876   5.774
 2383SOL     OW 7732   1.300   2.315   6.277
 2383SOL    HW1 7733   1.241   2.395   6.281
 2383SOL    HW2 7734   1.315   2.280   6.370
 2384SOL     OW 7735   1.593   2.083   6.468
 2384SOL    HW1 7736   1.509   2.082   6.522
 2384SOL    HW2 7737   1.595   2.166   6.412
 2385SOL     OW 7738   0.039   2.939   5.886
 2385SOL    HW1 7739   0.138   2.928   5.877
 2385SOL    HW2 7740  -0.001   2.853   5.918
 2386SOL     OW 7741   0.875   3.508   5.923
 2386SOL    HW1 7742   0.798   3.473   5.869
 2386SOL    HW2 7743   0.843   3.579   5.985
 2387SOL     OW 7744   0.230   2.490   7.561
 2387SOL    HW1 7745   0.137   2.488   7.598
 2387SOL    HW2 7746   0.231   2.451   7.469
 2388SOL     OW 7747   0.225   2.137   8.444
 2388SOL    HW1 7748   0.260   2.120   8.536
 2388SOL    HW2 7749   0.137   2.092   8.432
 2389SOL     OW 7750   0.019   2.230   8.095
 2389SOL    HW1 7751  -0.063   2.273   8.134
 2389SOL    HW2 7752  -0.009   2.157   8.032
 2390SOL     OW 7753   0.569   3.137   8.613
 2390SOL    HW1 7754   0.476   3.130   8.576
 2390SOL    HW2 7755   0.580   3.226   8.657
 2391SOL     OW 7756   1.555   3.373   8.151
 2391SOL    HW1 7757   1.498   3.357   8.232
 2391SOL    HW2 7758   1.496   3.383   8.071
 2392SOL     OW 7759   1.135   2.565   8.165
 2392SOL    HW1 7760   1.192   2.643   8.140
 2392SOL    HW2 7761   1.075   2.591   8.241
 2393SOL     OW 7762   1.755   2.469   7.679
 2393SOL    HW1 7763   1.743   2.456   7.580
 2393SOL    HW2 7764   1.725   2.388   7.728
 2394SOL     OW 7765   0.768   3.006   8.471
 2394SOL    HW1 7766   0.690   3.023   8.531
 2394SOL    HW2 7767   0.802   3.093   8.435
 2395SOL     OW 7768   0.850   2.660   9.271
 2395SOL    HW1 7769   0.846   2.736   9.336
 2395SOL    HW2 7770   0.872   2.696   9.180
 2396SOL     OW 7771   0.685   2.874   8.113
 2396SOL    HW1 7772   0.754   2.858   8.183
 2396SOL    HW2 7773   0.612   2.931   8.151
 2397SOL     OW 7774   0.686   3.023   9.251
 2397SOL    HW1 7775   0.746   3.102   9.265
 2397SOL    HW2 7776   0.600   3.054   9.210
 2398SOL     OW 7777   0.335   3.297   8.509
 2398SOL    HW1 7778   0.257   3.266   8.456
 2398SOL    HW2 7779   0.393   3.355   8.452
 2399SOL     OW 7780   1.460   3.367   8.787
 2399SOL    HW1 7781   1.484   3.461   8.813
 2399SOL    HW2 7782   1.444   3.313   8.869
 2400SOL     OW 7783   0.438   2.254   8.947
 2400SOL    HW1 7784   0.520   2.198   8.956
 2400SOL    HW2 7785   0.357   2.196   8.951
 2401SOL     OW 7786   1.603   2.309   8.185
 2401SOL    HW1 7787   1.529   2.355   8.135
 2401SOL    HW2 7788   1.654   2.377   8.238
 2402SOL     OW 7789   0.231   3.575   7.931
 2402SOL    HW1 7790   0.265   3.652   7.985
 2402SOL    HW2 7791   0.275   3.575   7.841
 2403SOL     OW 7792   1.127   3.203   9.138
 2403SOL    HW1 7793   1.174   3.203   9.226
 2403SOL    HW2 7794   1.079   3.116   9.127
 2404SOL     OW 7795   0.230   3.296   7.986
 2404SOL    HW1 7796   0.204   3.392   7.986
 2404SOL    HW2 7797   0.159   3.242   8.031
 2405SOL     OW 7798   0.240   2.953   8.334
 2405SOL    HW1 7799   0.254   2.869   8.386
 2405SOL    HW2 7800   0.185   3.017   8.389
 2406SOL     OW 7801   0.620   3.648   8.887
 2406SOL    HW1 7802   0.528   3.631   8.922
 2406SOL    HW2 7803   0.648   3.740   8.913
 2407SOL     OW 7804   0.606   2.826   7.571
 2407SOL    HW1 7805   0.613   2.910   7.517
 2407SOL    HW2 7806   0.652   2.839   7.659
 2408SOL     OW 7807   1.594   1.976   8.928
 2408SOL    HW1 7808   1.576   2.043   8.856
 2408SOL    HW2 7809   1.591   2.022   9.017
 2409SOL     OW 7810   0.122   2.505   8.011
 2409SOL    HW1 7811   0.077   2.417   8.028
 2409SOL    HW2 7812   0.121   2.559   8.095
 2410SOL     OW 7813   1.842   3.629   7.807
 2410SOL    HW1 7814   1.896   3.600   7.887
 2410SOL    HW2 7815   1.872   3.719   7.778
 2411SOL     OW 7816   0.027   3.458   7.565
 2411SOL    HW1 7817   0.008   3.362   7.586
 2411SOL    HW2 7818  -0.006   3.516   7.640
 2412SOL     OW 7819   1.689   2.784   8.060
 2412SOL    HW1 7820   1.784   2.755   8.068
 2412SOL    HW2 7821   1.681   2.849   7.985
 2413SOL     OW 7822   1.641   2.970   7.880
 2413SOL    HW1 7823   1.727   2.972   7.828
 2413SOL    HW2 7824   1.655   3.017   7.968
 2414SOL     OW 7825   0.113   2.599   9.045
 2414SOL    HW1 7826   0.201   2.586   9.090
 2414SOL    HW2 7827   0.100   2.696   9.023
 2415SOL     OW 7828   0.613   3.227   8.174
 2415SOL    HW1 7829   0.564   3.140   8.183
 2415SOL    HW2 7830   0.590   3.270   8.087
 2416SOL     OW 7831   1.293   3.090   8.871
 2416SOL    HW1 7832   1.330   3.017   8.813
 2416SOL    HW2 7833   1.345   3.095   8.956
 2417SOL     OW 7834   0.809   1.866   7.950
 2417SOL    HW1 7835   0.849   1.957   7.941
 2417SOL    HW2 7836   0.709   1.874   7.956
 2418SOL     OW 7837   0.197   2.838   8.712
 2418SOL    HW1 7838   0.286   2.793   8.698
 2418SOL    HW2 7839   0.124   2.773   8.693
 2419SOL     OW 7840   1.525   2.861   7.638
 2419SOL    HW1 7841   1.462   2.785   7.651
 2419SOL    HW2 7842   1.573   2.879   7.724
 2420SOL     OW 7843   1.187   3.654   9.064
 2420SOL    HW1 7844   1.211   3.714   8.988
 2420SOL    HW2 7845   1.194   3.559   9.034
 2421SOL     OW 7846   0.317   2.113   9.249
 2421SOL    HW1 7847   0.388   2.184   9.255
 2421SOL    HW2 7848   0.229   2.152   9.277
 2422SOL     OW 7849   1.466   3.279   8.401
 2422SOL    HW1 7850   1.407   3.285   8.481
 2422SOL    HW2 7851   1.451   3.191   8.355
 2423SOL     OW 7852   1.667   3.576   8.020
 2423SOL    HW1 7853   1.626   3.553   7.932
 2423SOL    HW2 7854   1.649   3.502   8.085
 2424SOL     OW 7855   0.598   2.591   7.718
 2424SOL    HW1 7856   0.622   2.660   7.650
 2424SOL    HW2 7857   0.520   2.624   7.772
 2425SOL     OW 7858   1.281   2.207   8.392
 2425SOL    HW1 7859   1.195   2.157   8.379
 2425SOL    HW2 7860   1.343   2.153   8.448
 2426SOL     OW 7861   1.576   3.524   7.755
 2426SOL    HW1 7862   1.665   3.570   7.758
 2426SOL    HW2 7863   1.555   3.500   7.660
 2427SOL     OW 7864   0.807   2.467   8.913
 2427SOL    HW1 7865   0.760   2.464   9.002
 2427SOL    HW2 7866   0.756   2.412   8.847
 2428SOL     OW 7867   1.394   2.331   9.122
 2428SOL    HW1 7868   1.374   2.374   9.210
 2428SOL    HW2 7869   1.472   2.269   9.131
 2429SOL     OW 7870   0.973   2.752   9.020
 2429SOL    HW1 7871   1.019   2.668   8.991
 2429SOL    HW2 7872   0.917   2.786   8.945
 2430SOL     OW 7873   0.991   2.272   8.690
 2430SOL    HW1 7874   0.914   2.306   8.744
 2430SOL    HW2 7875   0.957   2.221   8.611
 2431SOL     OW 7876   1.041   2.563   7.877
 2431SOL    HW1 7877   1.067   2.559   7.973
 2431SOL    HW2 7878   0.956   2.512   7.863
 2432SOL     OW 7879   0.076   2.673   8.237
 2432SOL    HW1 7880   0.175   2.661   8.246
 2432SOL    HW2 7881   0.052   2.768   8.258
 2433SOL     OW 7882   0.130   3.683   9.019
 2433SOL    HW1 7883   0.120   3.668   9.118
 2433SOL    HW2 7884   0.044   3.719   8.983
 2434SOL     OW 7885   0.865   2.210   7.643
 2434SOL    HW1 7886   0.924   2.273   7.594
 2434SOL    HW2 7887   0.884   2.116   7.614
 2435SOL     OW 7888   1.719   2.447   9.279
 2435SOL    HW1 7889   1.693   2.536   9.243
 2435SOL    HW2 7890   1.717   2.379   9.206
 2436SOL     OW 7891   1.362   3.006   7.993
 2436SOL    HW1 7892   1.445   2.977   7.945
 2436SOL    HW2 7893   1.313   3.073   7.937
 2437SOL     OW 7894   0.550   2.058   8.333
 2437SOL    HW1 7895   0.545   2.053   8.433
 2437SOL    HW2 7896   0.552   2.154   8.304
 2438SOL     OW 7897   1.008   3.318   7.925
 2438SOL    HW1 7898   0.962   3.390   7.873
 2438SOL    HW2 7899   1.004   3.338   8.023
 2439SOL     OW 7900   0.351   3.663   8.301
 2439SOL    HW1 7901   0.401   3.577   8.307
 2439SOL    HW2 7902   0.416   3.740   8.298
 2440SOL     OW 7903   1.795   2.928   8.321
 2440SOL    HW1 7904   1.733   2.913   8.245
 2440SOL    HW2 7905   1.743   2.939   8.406
 2441SOL     OW 7906   1.227   3.412   8.954
 2441SOL    HW1 7907   1.233   3.335   9.018
 2441SOL    HW2 7908   1.175   3.386   8.874
 2442SOL     OW 7909   0.321   2.805   7.690
 2442SOL    HW1 7910   0.403   2.844   7.648
 2442SOL    HW2 7911   0.294   2.723   7.641
 2443SOL     OW 7912   1.458   2.597   8.176
 2443SOL    HW1 7913   1.453   2.532   8.251
 2443SOL    HW2 7914   1.538   2.656   8.189
 2444SOL     OW 7915   0.461   3.128   9.175
 2444SOL    HW1 7916   0.411   3.129   9.089
 2444SOL    HW2 7917   0.398   3.110   9.251
 2445SOL     OW 7918   1.111   3.638   7.685
 2445SOL    HW1 7919   1.051   3.576   7.735
 2445SOL    HW2 7920   1.142   3.594   7.600
 2446SOL     OW 7921   0.202   2.147   8.946
 2446SOL    HW1 7922   0.122   2.207   8.933
 2446SOL    HW2 7923   0.192   2.098   9.032
 2447SOL     OW 7924   1.632   3.239   7.529
 2447SOL    HW1 7925   1.600   3.333   7.519
 2447SOL    HW2 7926   1.556   3.176   7.517
 2448SOL     OW 7927   0.464   3.605   7.771
 2448SOL    HW1 7928   0.497   3.644   7.857
 2448SOL    HW2 7929   0.540   3.598   7.706
 2449SOL     OW 7930   1.400   1.969   7.874
 2449SOL    HW1 7931   1.376   1.932   7.784
 2449SOL    HW2 7932   1.499   1.985   7.878
 2450SOL     OW 7933   0.249   3.647   8.689
 2450SOL    HW1 7934   0.306   3.582   8.739
 2450SOL    HW2 7935   0.233   3.614   8.596
 2451SOL     OW 7936   0.940   3.560   8.352
 2451SOL    HW1 7937   1.020   3.503   8.373
 2451SOL    HW2 7938   0.891   3.520   8.275
 2452SOL     OW 7939   0.382   2.562   7.928
 2452SOL    HW1 7940   0.427   2.472   7.925
 2452SOL    HW2 7941   0.288   2.551   7.961
 2453SOL     OW 7942   1.547   2.084   9.177
 2453SOL    HW1 7943   1.542   2.121   9.269
 2453SOL    HW2 7944   1.475   2.015   9.165
 2454SOL     OW 7945   0.614   1.984   7.565
 2454SOL    HW1 7946   0.712   1.962   7.572
 2454SOL    HW2 7947   0.583   1.967   7.472
 2455SOL     OW 7948   0.781   2.126   9.197
 2455SOL    HW1 7949   0.848   2.065   9.240
 2455SOL    HW2 7950   0.708   2.145   9.262
 2456SOL     OW 7951   0.888   3.376   8.643
 2456SOL    HW1 7952   0.865   3.351   8.549
 2456SOL    HW2 7953   0.949   3.307   8.682
 2457SOL     OW 7954   1.351   2.452   8.881
 2457SOL    HW1 7955   1.379   2.409   8.966
 2457SOL    HW2 7956   1.376   2.548   8.882
 2458SOL     OW 7957   0.803   3.264   8.372
 2458SOL    HW1 7958   0.893   3.278   8.330
 2458SOL    HW2 7959   0.732   3.266   8.301
 2459SOL     OW 7960   0.922   2.365   8.347
 2459SOL    HW1 7961   0.897   2.356   8.251
 2459SOL    HW2 7962   0.970   2.283   8.378
 2460SOL     OW 7963   0.539   1.926   7.960
 2460SOL    HW1 7964   0.458   1.927   8.018
 2460SOL    HW2 7965   0.542   2.009   7.905
 2461SOL     OW 7966   1.434   3.050   7.489
 2461SOL    HW1 7967   1.466   2.974   7.546
 2461SOL    HW2 7968   1.342   3.077   7.519
 2462SOL     OW 7969   0.297   1.897   7.619
 2462SOL    HW1 7970   0.346   1.981   7.598
 2462SOL    HW2 7971   0.359   1.832   7.664
 2463SOL     OW 7972   0.935   2.098   7.928
 2463SOL    HW1 7973   0.887   2.139   7.850
 2463SOL    HW2 7974   1.034   2.096   7.909
 2464SOL     OW 7975   1.076   2.545   8.912
 2464SOL    HW1 7976   0.996   2.484   8.915
 2464SOL    HW2 7977   1.157   2.492   8.888
 2465SOL     OW 7978   1.227   3.432   8.241
 2465SOL    HW1 7979   1.248   3.506   8.176
 2465SOL    HW2 7980   1.295   3.432   8.314
 2466SOL     OW 7981   0.459   3.014   8.189
 2466SOL    HW1 7982   0.388   2.987   8.254
 2466SOL    HW2 7983   0.433   2.986   8.096
 2467SOL     OW 7984   1.271   3.659   8.039
 2467SOL    HW1 7985   1.315   3.723   7.975
 2467SOL    HW2 7986   1.221   3.711   8.109
 2468SOL     OW 7987   1.032   2.411   7.464
 2468SOL    HW1 7988   0.991   2.493   7.425
 2468SOL    HW2 7989   1.096   2.437   7.537
 2469SOL     OW 7990   0.078   2.418   8.834
 2469SOL    HW1 7991   0.170   2.417   8.793
 2469SOL    HW2 7992   0.072   2.492   8.901
 2470SOL     OW 7993   0.561   2.084   8.595
 2470SOL    HW1 7994   0.599   2.000   8.632
 2470SOL    HW2 7995   0.473   2.103   8.639
 2471SOL     OW 7996   0.866   2.316   8.090
 2471SOL    HW1 7997   0.834   2.388   8.028
 2471SOL    HW2 7998   0.890   2.235   8.037
 2472SOL     OW 7999   1.017   1.901   8.201
 2472SOL    HW1 8000   0.945   1.906   8.132
 2472SOL    HW2 8001   0.993   1.832   8.270
 2473SOL     OW 8002   1.429   3.035   8.315
 2473SOL    HW1 8003   1.374   2.951   8.308
 2473SOL    HW2 8004   1.455   3.064   8.223
 2474SOL     OW 8005   1.466   2.452   8.440
 2474SOL    HW1 8006   1.436   2.357   8.447
 2474SOL    HW2 8007   1.539   2.468   8.506
 2475SOL     OW 8008   1.857   2.695   7.825
 2475SOL    HW1 8009   1.899   2.631   7.889
 2475SOL    HW2 8010   1.819   2.644   7.747
 2476SOL     OW 8011   0.488   3.247   7.622
 2476SOL    HW1 8012   0.401   3.232   7.669
 2476SOL    HW2 8013   0.471   3.273   7.527
 2477SOL     OW 8014   1.664   3.142   8.105
 2477SOL    HW1 8015   1.763   3.150   8.119
 2477SOL    HW2 8016   1.619   3.226   8.136
 2478SOL     OW 8017   1.390   2.437   7.526
 2478SOL    HW1 8018   1.336   2.416   7.607
 2478SOL    HW2 8019   1.481   2.396   7.535
 2479SOL     OW 8020   0.527   2.118   7.776
 2479SOL    HW1 8021   0.554   2.059   7.701
 2479SOL    HW2 8022   0.527   2.213   7.745
 2480SOL     OW 8023   1.754   3.085   9.036
 2480SOL    HW1 8024   1.845   3.046   9.023
 2480SOL    HW2 8025   1.762   3.181   9.060
 2481SOL     OW 8026   1.064   3.209   8.788
 2481SOL    HW1 8027   0.984   3.186   8.843
 2481SOL    HW2 8028   1.147   3.183   8.837
 2482SOL     OW 8029   1.592   3.491   9.073
 2482SOL    HW1 8030   1.619   3.525   8.983
 2482SOL    HW2 8031   1.671   3.453   9.119
 2483SOL     OW 8032   1.111   3.057   8.548
 2483SOL    HW1 8033   1.071   3.101   8.629
 2483SOL    HW2 8034   1.070   3.094   8.465
 2484SOL     OW 8035   1.638   2.961   8.527
 2484SOL    HW1 8036   1.643   3.042   8.586
 2484SOL    HW2 8037   1.552   2.963   8.476
 2485SOL     OW 8038   0.915   1.951   8.850
 2485SOL    HW1 8039   0.940   1.931   8.755
 2485SOL    HW2 8040   0.987   2.007   8.892
 2486SOL     OW 8041   0.980   2.978   9.167
 2486SOL    HW1 8042   0.881   2.984   9.177
 2486SOL    HW2 8043   1.003   2.898   9.111
 2487SOL     OW 8044   0.705   2.912   7.816
 2487SOL    HW1 8045   0.691   2.919   7.915
 2487SOL    HW2 8046   0.789   2.861   7.798
 2488SOL     OW 8047   0.410   2.675   8.699
 2488SOL    HW1 8048   0.496   2.687   8.749
 2488SOL    HW2 8049   0.368   2.588   8.726
 2489SOL     OW 8050   1.274   2.248   8.710
 2489SOL    HW1 8051   1.295   2.322   8.774
 2489SOL    HW2 8052   1.185   2.265   8.667
 2490SOL     OW 8053   0.064   3.426   8.779
 2490SOL    HW1 8054   0.018   3.508   8.745
 2490SOL    HW2 8055   0.162   3.445   8.788
 2491SOL     OW 8056   0.367   2.962   7.949
 2491SOL    HW1 8057   0.360   3.045   7.893
 2491SOL    HW2 8058   0.371   2.882   7.889
 2492SOL     OW 8059   0.566   2.399   8.313
 2492SOL    HW1 8060   0.578   2.465   8.239
 2492SOL    HW2 8061   0.612   2.433   8.396
 2493SOL     OW 8062   1.252   3.210   7.836
 2493SOL    HW1 8063   1.302   3.287   7.876
 2493SOL    HW2 8064   1.157   3.212   7.868
 2494SOL     OW 8065   1.272   3.307   8.590
 2494SOL    HW1 8066   1.319   3.320   8.677
 2494SOL    HW2 8067   1.206   3.233   8.599
 2495SOL     OW 8068   1.582   2.501   7.920
 2495SOL    HW1 8069   1.551   2.562   7.993
 2495SOL    HW2 8070   1.632   2.553   7.851
 2496SOL     OW 8071   0.354   3.372   8.777
 2496SOL    HW1 8072   0.333   3.328   8.690
 2496SOL    HW2 8073   0.451   3.398   8.780
 2497SOL     OW 8074   0.402   2.613   9.046
 2497SOL    HW1 8075   0.470   2.668   8.999
 2497SOL    HW2 8076   0.442   2.525   9.073
 2498SOL     OW 8077   1.587   2.641   9.118
 2498SOL    HW1 8078   1.495   2.679   9.113
 2498SOL    HW2 8079   1.647   2.688   9.053
 2499SOL     OW 8080   1.013   1.967   9.218
 2499SOL    HW1 8081   1.019   2.052   9.166
 2499SOL    HW2 8082   1.045   1.891   9.161
 2500SOL     OW 8083   0.504   1.912   9.188
 2500SOL    HW1 8084   0.462   1.855   9.118
 2500SOL    HW2 8085   0.438   1.981   9.220
 2501SOL     OW 8086   0.573   2.732   8.477
 2501SOL    HW1 8087   0.617   2.821   8.468
 2501SOL    HW2 8088   0.510   2.732   8.554
 2502SOL     OW 8089   1.360   2.724   8.493
 2502SOL    HW1 8090   1.285   2.724   8.427
 2502SOL    HW2 8091   1.397   2.632   8.502
 2503SOL     OW 8092   1.209   2.387   7.723
 2503SOL    HW1 8093   1.222   2.303   7.777
 2503SOL    HW2 8094   1.180   2.461   7.783
 2504SOL     OW 8095   0.307   2.075   8.679
 2504SOL    HW1 8096   0.284   2.112   8.769
 2504SOL    HW2 8097   0.277   1.980   8.673
 2505SOL     OW 8098   0.037   3.172   8.730
 2505SOL    HW1 8099   0.090   3.123   8.798
 2505SOL    HW2 8100   0.059   3.270   8.735
 2506SOL     OW 8101   0.732   2.496   8.512
 2506SOL    HW1 8102   0.791   2.470   8.436
 2506SOL    HW2 8103   0.704   2.592   8.501
 2507SOL     OW 8104   1.728   2.797   9.302
 2507SOL    HW1 8105   1.682   2.790   9.213
 2507SOL    HW2 8106   1.666   2.841   9.368
 2508SOL     OW 8107   0.307   1.925   8.066
 2508SOL    HW1 8108   0.296   2.019   8.099
 2508SOL    HW2 8109   0.302   1.862   8.143
 2509SOL     OW 8110   1.622   2.229   7.822
 2509SOL    HW1 8111   1.624   2.153   7.886
 2509SOL    HW2 8112   1.574   2.306   7.862
 2510SOL     OW 8113   1.023   2.628   8.414
 2510SOL    HW1 8114   1.038   2.649   8.510
 2510SOL    HW2 8115   0.993   2.533   8.405
 2511SOL     OW 8116   0.980   3.435   9.148
 2511SOL    HW1 8117   0.960   3.479   9.060
 2511SOL    HW2 8118   1.019   3.344   9.132
 2512SOL     OW 8119   1.859   3.380   9.053
 2512SOL    HW1 8120   1.873   3.407   8.958
 2512SOL    HW2 8121   1.942   3.402   9.106
 2513SOL     OW 8122   0.350   2.760   9.252
 2513SOL    HW1 8123   0.426   2.804   9.300
 2513SOL    HW2 8124   0.385   2.713   9.170
 2514SOL     OW 8125   1.540   2.136   7.573
 2514SOL    HW1 8126   1.479   2.061   7.596
 2514SOL    HW2 8127   1.562   2.188   7.656
 2515SOL     OW 8128   1.303   2.700   7.490
 2515SOL    HW1 8129   1.337   2.607   7.505
 2515SOL    HW2 8130   1.321   2.727   7.395
 2516SOL     OW 8131   1.068   3.195   8.297
 2516SOL    HW1 8132   1.075   3.111   8.242
 2516SOL    HW2 8133   1.130   3.264   8.261
 2517SOL     OW 8134   0.319   2.672   8.397
 2517SOL    HW1 8135   0.412   2.708   8.402
 2517SOL    HW2 8136   0.313   2.587   8.449
 2518SOL     OW 8137   0.339   2.371   8.454
 2518SOL    HW1 8138   0.287   2.288   8.437
 2518SOL    HW2 8139   0.416   2.376   8.390
 2519SOL     OW 8140   1.138   2.242   9.126
 2519SOL    HW1 8141   1.093   2.305   9.190
 2519SOL    HW2 8142   1.231   2.273   9.109
 2520SOL     OW 8143   1.160   2.069   8.925
 2520SOL    HW1 8144   1.160   2.133   9.002
 2520SOL    HW2 8145   1.188   2.117   8.842
 2521SOL     OW 8146   0.008   3.188   7.648
 2521SOL    HW1 8147  -0.085   3.209   7.617
 2521SOL    HW2 8148   0.018   3.089   7.661
 2522SOL     OW 8149   0.088   3.663   8.375
 2522SOL    HW1 8150   0.046   3.577   8.348
 2522SOL    HW2 8151   0.182   3.666   8.341
 2523SOL     OW 8152   0.504   3.430   8.358
 2523SOL    HW1 8153   0.570   3.504   8.367
 2523SOL    HW2 8154   0.548   3.351   8.316
 2524SOL     OW 8155   1.002   2.658   8.686
 2524SOL    HW1 8156   1.043   2.626   8.772
 2524SOL    HW2 8157   0.906   2.631   8.683
 2525SOL     OW 8158   0.040   2.406   8.562
 2525SOL    HW1 8159   0.125   2.373   8.521
 2525SOL    HW2 8160   0.053   2.421   8.660
 2526SOL     OW 8161   0.189   2.382   9.170
 2526SOL    HW1 8162   0.248   2.342   9.100
 2526SOL    HW2 8163   0.131   2.453   9.129
 2527SOL     OW 8164   1.369   2.812   9.108
 2527SOL    HW1 8165   1.408   2.901   9.128
 2527SOL    HW2 8166   1.379   2.792   9.011
 2528SOL     OW 8167   0.815   2.434   7.773
 2528SOL    HW1 8168   0.822   2.345   7.727
 2528SOL    HW2 8169   0.721   2.468   7.765
 2529SOL     OW 8170   1.657   2.466   8.654
 2529SOL    HW1 8171   1.619   2.397   8.716
 2529SOL    HW2 8172   1.739   2.430   8.610
 2530SOL     OW 8173   0.252   3.426   9.192
 2530SOL    HW1 8174   0.222   3.483   9.268
 2530SOL    HW2 8175   0.245   3.329   9.218
 2531SOL     OW 8176   0.671   2.326   8.717
 2531SOL    HW1 8177   0.637   2.237   8.687
 2531SOL    HW2 8178   0.697   2.380   8.637
 2532SOL     OW 8179   0.930   3.540   8.913
 2532SOL    HW1 8180   0.906   3.522   8.818
 2532SOL    HW2 8181   0.960   3.634   8.923
 2533SOL     OW 8182   0.473   2.362   7.639
 2533SOL    HW1 8183   0.534   2.442   7.643
 2533SOL    HW2 8184   0.378   2.393   7.646
 2534SOL     OW 8185   0.159   2.999   8.914
 2534SOL    HW1 8186   0.181   2.938   8.990
 2534SOL    HW2 8187   0.169   2.950   8.828
 2535SOL     OW 8188   1.347   2.921   8.682
 2535SOL    HW1 8189   1.371   2.858   8.608
 2535SOL    HW2 8190   1.257   2.961   8.664
 2536SOL     OW 8191   1.302   2.717   7.757
 2536SOL    HW1 8192   1.216   2.686   7.799
 2536SOL    HW2 8193   1.298   2.703   7.658
 2537SOL     OW 8194   1.759   3.609   8.602
 2537SOL    HW1 8195   1.820   3.639   8.529
 2537SOL    HW2 8196   1.721   3.520   8.580
 2538SOL     OW 8197   1.252   3.593   8.576
 2538SOL    HW1 8198   1.336   3.598   8.522
 2538SOL    HW2 8199   1.229   3.497   8.594
 2539SOL     OW 8200   0.083   3.120   8.470
 2539SOL    HW1 8201   0.078   3.119   8.570
 2539SOL    HW2 8202   0.000   3.079   8.432
 2540SOL     OW 8203   0.688   3.524   9.164
 2540SOL    HW1 8204   0.632   3.605   9.173
 2540SOL    HW2 8205   0.740   3.528   9.078
 2541SOL     OW 8206   1.726   1.997   7.971
 2541SOL    HW1 8207   1.799   1.980   7.904
 2541SOL    HW2 8208   1.695   1.910   8.009
 2542SOL     OW 8209   1.388   3.435   7.925
 2542SOL    HW1 8210   1.455   3.447   7.851
 2542SOL    HW2 8211   1.348   3.524   7.948
 2543SOL     OW 8212   0.130   3.656   9.299
 2543SOL    HW1 8213   0.089   3.582   9.352
 2543SOL    HW2 8214   0.194   3.707   9.357
 2544SOL     OW 8215   1.280   2.789   8.120
 2544SOL    HW1 8216   1.340   2.708   8.122
 2544SOL    HW2 8217   1.320   2.858   8.060
 2545SOL     OW 8218   0.830   3.135   8.870
 2545SOL    HW1 8219   0.825   3.168   8.965
 2545SOL    HW2 8220   0.744   3.154   8.824
 2546SOL     OW 8221   0.672   3.478   7.602
 2546SOL    HW1 8222   0.681   3.488   7.503
 2546SOL    HW2 8223   0.632   3.389   7.623
 2547SOL     OW 8224   1.650   3.582   8.842
 2547SOL    HW1 8225   1.703   3.592   8.758
 2547SOL    HW2 8226   1.623   3.672   8.876
 2548SOL     OW 8227   0.263   2.188   8.168
 2548SOL    HW1 8228   0.184   2.239   8.134
 2548SOL    HW2 8229   0.254   2.173   8.266
 2549SOL     OW 8230   1.194   3.474   7.479
 2549SOL    HW1 8231   1.200   3.381   7.516
 2549SOL    HW2 8232   1.135   3.474   7.399
 2550SOL     OW 8233   0.822   2.864   8.820
 2550SOL    HW1 8234   0.862   2.863   8.728
 2550SOL    HW2 8235   0.832   2.956   8.860
 2551SOL     OW 8236   0.916   2.772   7.739
 2551SOL    HW1 8237   0.979   2.810   7.671
 2551SOL    HW2 8238   0.956   2.689   7.778
 2552SOL     OW 8239   1.504   3.469   7.492
 2552SOL    HW1 8240   1.412   3.506   7.499
 2552SOL    HW2 8241   1.542   3.489   7.402
 2553SOL     OW 8242   0.372   3.150   8.938
 2553SOL    HW1 8243   0.359   3.243   8.904
 2553SOL    HW2 8244   0.288   3.098   8.925
 2554SOL     OW 8245   1.614   3.154   8.737
 2554SOL    HW1 8246   1.674   3.157   8.817
 2554SOL    HW2 8247   1.539   3.218   8.750
 2555SOL     OW 8248   1.039   2.960   8.144
 2555SOL    HW1 8249   0.969   2.913   8.198
 2555SOL    HW2 8250   1.098   2.892   8.101
 2556SOL     OW 8251   1.014   2.098   8.419
 2556SOL    HW1 8252   1.006   2.062   8.326
 2556SOL    HW2 8253   1.012   2.022   8.484
 2557SOL     OW 8254   0.590   3.349   7.939
 2557SOL    HW1 8255   0.632   3.291   7.869
 2557SOL    HW2 8256   0.546   3.428   7.895
 2558SOL     OW 8257   1.709   2.247   8.829
 2558SOL    HW1 8258   1.782   2.316   8.833
 2558SOL    HW2 8259   1.737   2.172   8.770
 2559SOL     OW 8260   0.255   3.210   7.738
 2559SOL    HW1 8261   0.159   3.211   7.711
 2559SOL    HW2 8262   0.267   3.263   7.822
 2560SOL     OW 8263   0.105   2.875   9.174
 2560SOL    HW1 8264   0.028   2.842   9.228
 2560SOL    HW2 8265   0.190   2.845   9.216
 2561SOL     OW 8266   0.672   2.065   8.937
 2561SOL    HW1 8267   0.762   2.049   8.897
 2561SOL    HW2 8268   0.680   2.070   9.036
 2562SOL     OW 8269   0.075   2.207   7.481
 2562SOL    HW1 8270  -0.017   2.179   7.452
 2562SOL    HW2 8271   0.106   2.284   7.425
 2563SOL     OW 8272   1.440   2.718   8.846
 2563SOL    HW1 8273   1.383   2.770   8.783
 2563SOL    HW2 8274   1.536   2.730   8.822
 2564SOL     OW 8275   0.072   2.028   7.766
 2564SOL    HW1 8276   0.055   2.111   7.712
 2564SOL    HW2 8277   0.162   1.991   7.744
 2565SOL     OW 8278   1.183   3.197   7.567
 2565SOL    HW1 8279   1.084   3.186   7.569
 2565SOL    HW2 8280   1.217   3.212   7.660
 2566SOL     OW 8281   0.613   2.704   8.879
 2566SOL    HW1 8282   0.669   2.785   8.862
 2566SOL    HW2 8283   0.672   2.624   8.882
 2567SOL     OW 8284   1.493   3.629   8.407
 2567SOL    HW1 8285   1.526   3.693   8.338
 2567SOL    HW2 8286   1.559   3.623   8.482
 2568SOL     OW 8287   0.716   2.427   9.156
 2568SOL    HW1 8288   0.735   2.492   9.230
 2568SOL    HW2 8289   0.776   2.347   9.165
 2569SOL     OW 8290   1.450   3.082   9.081
 2569SOL    HW1 8291   1.441   3.072   9.180
 2569SOL    HW2 8292   1.546   3.075   9.055
 2570SOL     OW 8293   0.390   3.603   9.008
 2570SOL    HW1 8294   0.299   3.644   9.006
 2570SOL    HW2 8295   0.383   3.509   9.040
 2571SOL     OW 8296   1.674   2.745   8.702
 2571SOL    HW1 8297   1.647   2.656   8.665
 2571SOL    HW2 8298   1.675   2.813   8.629
 2572SOL     OW 8299   1.225   2.187   7.897
 2572SOL    HW1 8300   1.290   2.113   7.886
 2572SOL    HW2 8301   1.245   2.237   7.981
 2573SOL     OW 8302   0.594   2.607   8.100
 2573SOL    HW1 8303   0.644   2.692   8.081
 2573SOL    HW2 8304   0.506   2.609   8.052
 2574SOL     OW 8305   1.730   2.796   8.965
 2574SOL    HW1 8306   1.768   2.887   8.980
 2574SOL    HW2 8307   1.722   2.779   8.866
 2575SOL     OW 8308   0.859   3.236   7.464
 2575SOL    HW1 8309   0.813   3.251   7.552
 2575SOL    HW2 8310   0.903   3.321   7.434
 2576SOL     OW 8311   0.661   3.652   8.401
 2576SOL    HW1 8312   0.615   3.740   8.388
 2576SOL    HW2 8313   0.760   3.664   8.394
 2577SOL     OW 8314   0.859   2.818   8.309
 2577SOL    HW1 8315   0.913   2.749   8.357
 2577SOL    HW2 8316   0.827   2.887   8.375
 2578SOL     OW 8317   1.083   2.846   7.535
 2578SOL    HW1 8318   1.060   2.899   7.453
 2578SOL    HW2 8319   1.164   2.790   7.516
 2579SOL     OW 8320   1.861   3.431   8.299
 2579SOL    HW1 8321   1.790   3.419   8.229
 2579SOL    HW2 8322   1.862   3.352   8.359
 2580SOL     OW 8323   0.221   3.176   9.292
 2580SOL    HW1 8324   0.156   3.103   9.271
 2580SOL    HW2 8325   0.225   3.190   9.390
 2581SOL     OW 8326   0.079   3.102   8.101
 2581SOL    HW1 8327   0.078   3.055   8.189
 2581SOL    HW2 8328   0.161   3.074   8.050
 2582SOL     OW 8329   0.672   3.253   9.072
 2582SOL    HW1 8330   0.594   3.203   9.110
 2582SOL    HW2 8331   0.669   3.348   9.103
 2583SOL     OW 8332   0.428   2.286   7.968
 2583SOL    HW1 8333   0.458   2.214   7.906
 2583SOL    HW2 8334   0.389   2.246   8.051
 2584SOL     OW 8335   1.705   3.349   8.552
 2584SOL    HW1 8336   1.612   3.324   8.525
 2584SOL    HW2 8337   1.731   3.299   8.634
 2585SOL     OW 8338   0.317   2.409   8.728
 2585SOL    HW1 8339   0.355   2.350   8.800
 2585SOL    HW2 8340   0.357   2.383   8.640
 2586SOL     OW 8341   0.812   3.448   8.135
 2586SOL    HW1 8342   0.844   3.458   8.041
 2586SOL    HW2 8343   0.733   3.386   8.137
 2587SOL     OW 8344   1.424   2.076   8.560
 2587SOL    HW1 8345   1.476   2.011   8.615
 2587SOL    HW2 8346   1.375   2.139   8.621
 2588SOL     OW 8347   1.001   1.896   8.602
 2588SOL    HW1 8348   0.938   1.824   8.571
 2588SOL    HW2 8349   1.094   1.860   8.602
 2589SOL     OW 8350   0.770   3.192   7.749
 2589SOL    HW1 8351   0.724   3.105   7.766
 2589SOL    HW2 8352   0.861   3.189   7.790
 2590SOL     OW 8353   0.618   3.429   8.732
 2590SOL    HW1 8354   0.613   3.511   8.789
 2590SOL    HW2 8355   0.707   3.426   8.687
 2591SOL     OW 8356   1.352   1.914   7.616
 2591SOL    HW1 8357   1.387   1.873   7.532
 2591SOL    HW2 8358   1.262   1.876   7.636
 2592SOL     OW 8359   1.300   2.315   8.139
 2592SOL    HW1 8360   1.241   2.395   8.143
 2592SOL    HW2 8361   1.315   2.280   8.232
 2593SOL     OW 8362   1.593   2.083   8.330
 2593SOL    HW1 8363   1.509   2.082   8.384
 2593SOL    HW2 8364   1.595   2.166   8.274
 2594SOL     OW 8365   0.039   2.939   7.748
 2594SOL    HW1 8366   0.138   2.928   7.739
 2594SOL    HW2 8367  -0.001   2.853   7.780
 2595SOL     OW 8368   0.875   3.508   7.785
 2595SOL    HW1 8369   0.798   3.473   7.731
 2595SOL    HW2 8370   0.843   3.579   7.847
 2596SOL     OW 8371   0.230   2.490   9.423
 2596SOL    HW1 8372   0.137   2.488   9.460
 2596SOL    HW2 8373   0.231   2.451   9.331
 2597SOL     OW 8374   0.225   2.137  10.306
 2597SOL    HW1 8375   0.260   2.120  10.398
 2597SOL    HW2 8376   0.137   2.092  10.294
 2598SOL     OW 8377   0.019   2.230   9.957
 2598SOL    HW1 8378  -0.063   2.273   9.996
 2598SOL    HW2 8379  -0.009   2.157   9.894
 2599SOL     OW 8380   0.569   3.137  10.475
 2599SOL    HW1 8381   0.476   3.130  10.438
 2599SOL    HW2 8382   0.580   3.226  10.519
 2600SOL     OW 8383   1.555   3.373  10.013
 2600SOL    HW1 8384   1.498   3.357  10.094
 2600SOL    HW2 8385   1.496   3.383   9.933
 2601SOL     OW 8386   1.135   2.565  10.027
 2601SOL    HW1 8387   1.192   2.643  10.002
 2601SOL    HW2 8388   1.075   2.591  10.103
 2602SOL     OW 8389   1.755   2.469   9.541
 2602SOL    HW1 8390   1.743   2.456   9.442
 2602SOL    HW2 8391   1.725   2.388   9.590
 2603SOL     OW 8392   0.768   3.006  10.333
 2603SOL    HW1 8393   0.690   3.023  10.393
 2603SOL    HW2 8394   0.802   3.093  10.297
 2604SOL     OW 8395   0.850   2.660  11.133
 2604SOL    HW1 8396   0.846   2.736  11.198
 2604SOL    HW2 8397   0.872   2.696  11.042
 2605SOL     OW 8398   0.685   2.874   9.975
 2605SOL    HW1 8399   0.754   2.858  10.045
 2605SOL    HW2 8400   0.612   2.931  10.013
 2606SOL     OW 8401   0.686   3.023  11.113
 2606SOL    HW1 8402   0.746   3.102  11.127
 2606SOL    HW2 8403   0.600   3.054  11.072
 2607SOL     OW 8404   0.335   3.297  10.371
 2607SOL    HW1 8405   0.257   3.266  10.318
 2607SOL    HW2 8406   0.393   3.355  10.314
 2608SOL     OW 8407   1.460   3.367  10.649
 2608SOL    HW1 8408   1.484   3.461  10.675
 2608SOL    HW2 8409   1.444   3.313  10.731
 2609SOL     OW 8410   0.438   2.254  10.809
 2609SOL    HW1 8411   0.520   2.198  10.818
 2609SOL    HW2 8412   0.357   2.196  10.813
 2610SOL     OW 8413   1.603   2.309  10.047
 2610SOL    HW1 8414   1.529   2.355   9.997
 2610SOL    HW2 8415   1.654   2.377  10.100
 2611SOL     OW 8416   0.231   3.575   9.793
 2611SOL    HW1 8417   0.265   3.652   9.847
 2611SOL    HW2 8418   0.275   3.575   9.703
 2612SOL     OW 8419   1.127   3.203  11.000
 2612SOL    HW1 8420   1.174   3.203  11.088
 2612SOL    HW2 8421   1.079   3.116  10.989
 2613SOL     OW 8422   0.230   3.296   9.848
 2613SOL    HW1 8423   0.204   3.392   9.848
 2613SOL    HW2 8424   0.159   3.242   9.893
 2614SOL     OW 8425   0.240   2.953  10.196
 2614SOL    HW1 8426   0.254   2.869  10.248
 2614SOL    HW2 8427   0.185   3.017  10.251
 2615SOL     OW 8428   0.620   3.648  10.749
 2615SOL    HW1 8429   0.528   3.631  10.784
 2615SOL    HW2 8430   0.648   3.740  10.775
 2616SOL     OW 8431   0.606   2.826   9.433
 2616SOL    HW1 8432   0.613   2.910   9.379
 2616SOL    HW2 8433   0.652   2.839   9.521
 2617SOL     OW 8434   1.594   1.976  10.790
 2617SOL    HW1 8435   1.576   2.043  10.718
 2617SOL    HW2 8436   1.591   2.022  10.879
 2618SOL     OW 8437   0.122   2.505   9.873
 2618SOL    HW1 8438   0.077   2.417   9.890
 2618SOL    HW2 8439   0.121   2.559   9.957
 2619SOL     OW 8440   1.842   3.629   9.669
 2619SOL    HW1 8441   1.896   3.600   9.749
 2619SOL    HW2 8442   1.872   3.719   9.640
 2620SOL     OW 8443   0.027   3.458   9.427
 2620SOL    HW1 8444   0.008   3.362   9.448
 2620SOL    HW2 8445  -0.006   3.516   9.502
 2621SOL     OW 8446   1.689   2.784   9.922
 2621SOL    HW1 8447   1.784   2.755   9.930
 2621SOL    HW2 8448   1.681   2.849   9.847
 2622SOL     OW 8449   1.641   2.970   9.742
 2622SOL    HW1 8450   1.727   2.972   9.690
 2622SOL    HW2 8451   1.655   3.017   9.830
 2623SOL     OW 8452   0.113   2.599  10.907
 2623SOL    HW1 8453   0.201   2.586  10.952
 2623SOL    HW2 8454   0.100   2.696  10.885
 2624SOL     OW 8455   0.613   3.227  10.036
 2624SOL    HW1 8456   0.564   3.140  10.045
 2624SOL    HW2 8457   0.590   3.270   9.949
 2625SOL     OW 8458   1.293   3.090  10.733
 2625SOL    HW1 8459   1.330   3.017  10.675
 2625SOL    HW2 8460   1.345   3.095  10.818
 2626SOL     OW 8461   0.809   1.866   9.812
 2626SOL    HW1 8462   0.849   1.957   9.803
 2626SOL    HW2 8463   0.709   1.874   9.818
 2627SOL     OW 8464   0.197   2.838  10.574
 2627SOL    HW1 8465   0.286   2.793  10.560
 2627SOL    HW2 8466   0.124   2.773  10.555
 2628SOL     OW 8467   1.525   2.861   9.500
 2628SOL    HW1 8468   1.462   2.785   9.513
 2628SOL    HW2 8469   1.573   2.879   9.586
 2629SOL     OW 8470   1.187   3.654  10.926
 2629SOL    HW1 8471   1.211   3.714  10.850
 2629SOL    HW2 8472   1.194   3.559  10.896
 2630SOL     OW 8473   0.317   2.113  11.111
 2630SOL    HW1 8474   0.388   2.184  11.117
 2630SOL    HW2 8475   0.229   2.152  11.139
 2631SOL     OW 8476   1.466   3.279  10.263
 2631SOL    HW1 8477   1.407   3.285  10.343
 2631SOL    HW2 8478   1.451   3.191  10.217
 2632SOL     OW 8479   1.667   3.576   9.882
 2632SOL    HW1 8480   1.626   3.553   9.794
 2632SOL    HW2 8481   1.649   3.502   9.947
 2633SOL     OW 8482   0.598   2.591   9.580
 2633SOL    HW1 8483   0.622   2.660   9.512
 2633SOL    HW2 8484   0.520   2.624   9.634
 2634SOL     OW 8485   1.281   2.207  10.254
 2634SOL    HW1 8486   1.195   2.157  10.241
 2634SOL    HW2 8487   1.343   2.153  10.310
 2635SOL     OW 8488   1.576   3.524   9.617
 2635SOL    HW1 8489   1.665   3.570   9.620
 2635SOL    HW2 8490   1.555   3.500   9.522
 2636SOL     OW 8491   0.807   2.467  10.775
 2636SOL    HW1 8492   0.760   2.464  10.864
 2636SOL    HW2 8493   0.756   2.412  10.709
 2637SOL     OW 8494   1.394   2.331  10.984
 2637SOL    HW1 8495   1.374   2.374  11.072
 2637SOL    HW2 8496   1.472   2.269  10.993
 2638SOL     OW 8497   0.973   2.752  10.882
 2638SOL    HW1 8498   1.019   2.668  10.853
 2638SOL    HW2 8499   0.917   2.786  10.807
 2639SOL     OW 8500   0.991   2.272  10.552
 2639SOL    HW1 8501   0.914   2.306  10.606
 2639SOL    HW2 8502   0.957   2.221  10.473
 2640SOL     OW 8503   1.041   2.563   9.739
 2640SOL    HW1 8504   1.067   2.559   9.835
 2640SOL    HW2 8505   0.956   2.512   9.725
 2641SOL     OW 8506   0.076   2.673  10.099
 2641SOL    HW1 8507   0.175   2.661  10.108
 2641SOL    HW2 8508   0.052   2.768  10.120
 2642SOL     OW 8509   0.130   3.683  10.881
 2642SOL    HW1 8510   0.120   3.668  10.980
 2642SOL    HW2 8511   0.044   3.719  10.845
 2643SOL     OW 8512   0.865   2.210   9.505
 2643SOL    HW1 8513   0.924   2.273   9.456
 2643SOL    HW2 8514   0.884   2.116   9.476
 2644SOL     OW 8515   1.719   2.447  11.141
 2644SOL    HW1 8516   1.693   2.536  11.105
 2644SOL    HW2 8517   1.717   2.379  11.068
 2645SOL     OW 8518   1.362   3.006   9.855
 2645SOL    HW1 8519   1.445   2.977   9.807
 2645SOL    HW2 8520   1.313   3.073   9.799
 2646SOL     OW 8521   0.550   2.058  10.195
 2646SOL    HW1 8522   0.545   2.053  10.295
 2646SOL    HW2 8523   0.552   2.154  10.166
 2647SOL     OW 8524   1.008   3.318   9.787
 2647SOL    HW1 8525   0.962   3.390   9.735
 2647SOL    HW2 8526   1.004   3.338   9.885
 2648SOL     OW 8527   0.351   3.663  10.163
 2648SOL    HW1 8528   0.401   3.577  10.169
 2648SOL    HW2 8529   0.416   3.740  10.160
 2649SOL     OW 8530   1.795   2.928  10.183
 2649SOL    HW1 8531   1.733   2.913  10.107
 2649SOL    HW2 8532   1.743   2.939  10.268
 2650SOL     OW 8533   1.227   3.412  10.816
 2650SOL    HW1 8534   1.233   3.335  10.880
 2650SOL    HW2 8535   1.175   3.386  10.736
 2651SOL     OW 8536   0.321   2.805   9.552
 2651SOL    HW1 8537   0.403   2.844   9.510
 2651SOL    HW2 8538   0.294   2.723   9.503
 2652SOL     OW 8539   1.458   2.597  10.038
 2652SOL    HW1 8540   1.453   2.532  10.113
 2652SOL    HW2 8541   1.538   2.656  10.051
 2653SOL     OW 8542   0.461   3.128  11.037
 2653SOL    HW1 8543   0.411   3.129  10.951
 2653SOL    HW2 8544   0.398   3.110  11.113
 2654SOL     OW 8545   1.111   3.638   9.547
 2654SOL    HW1 8546   1.051   3.576   9.597
 2654SOL    HW2 8547   1.142   3.594   9.462
 2655SOL     OW 8548   0.202   2.147  10.808
 2655SOL    HW1 8549   0.122   2.207  10.795
 2655SOL    HW2 8550   0.192   2.098  10.894
 2656SOL     OW 8551   1.632   3.239   9.391
 2656SOL    HW1 8552   1.600   3.333   9.381
 2656SOL    HW2 8553   1.556   3.176   9.379
 2657SOL     OW 8554   0.464   3.605   9.633
 2657SOL    HW1 8555   0.497   3.644   9.719
 2657SOL    HW2 8556   0.540   3.598   9.568
 2658SOL     OW 8557   1.400   1.969   9.736
 2658SOL    HW1 8558   1.376   1.932   9.646
 2658SOL    HW2 8559   1.499   1.985   9.740
 2659SOL     OW 8560   0.249   3.647  10.551
 2659SOL    HW1 8561   0.306   3.582  10.601
 2659SOL    HW2 8562   0.233   3.614  10.458
 2660SOL     OW 8563   0.940   3.560  10.214
 2660SOL    HW1 8564   1.020   3.503  10.235
 2660SOL    HW2 8565   0.891   3.520  10.137
 2661SOL     OW 8566   0.382   2.562   9.790
 2661SOL    HW1 8567   0.427   2.472   9.787
 2661SOL    HW2 8568   0.288   2.551   9.823
 2662SOL     OW 8569   1.547   2.084  11.039
 2662SOL    HW1 8570   1.542   2.121  11.131
 2662SOL    HW2 8571   1.475   2.015  11.027
 2663SOL     OW 8572   0.614   1.984   9.427
 2663SOL    HW1 8573   0.712   1.962   9.434
 2663SOL    HW2 8574   0.583   1.967   9.334
 2664SOL     OW 8575   0.781   2.126  11.059
 2664SOL    HW1 8576   0.848   2.065  11.102
 2664SOL    HW2 8577   0.708   2.145  11.124
 2665SOL     OW 8578   0.888   3.376  10.505
 2665SOL    HW1 8579   0.865   3.351  10.411
 2665SOL    HW2 8580   0.949   3.307  10.544
 2666SOL     OW 8581   1.351   2.452  10.743
 2666SOL    HW1 8582   1.379   2.409  10.828
 2666SOL    HW2 8583   1.376   2.548  10.744
 2667SOL     OW 8584   0.803   3.264  10.234
 2667SOL    HW1 8585   0.893   3.278  10.192
 2667SOL    HW2 8586   0.732   3.266  10.163
 2668SOL     OW 8587   0.922   2.365  10.209
 2668SOL    HW1 8588   0.897   2.356  10.113
 2668SOL    HW2 8589   0.970   2.283  10.240
 2669SOL     OW 8590   0.539   1.926   9.822
 2669SOL    HW1 8591   0.458   1.927   9.880
 2669SOL    HW2 8592   0.542   2.009   9.767
 2670SOL     OW 8593   1.434   3.050   9.351
 2670SOL    HW1 8594   1.466   2.974   9.408
 2670SOL    HW2 8595   1.342   3.077   9.381
 2671SOL     OW 8596   0.297   1.897   9.481
 2671SOL    HW1 8597   0.346   1.981   9.460
 2671SOL    HW2 8598   0.359   1.832   9.526
 2672SOL     OW 8599   0.935   2.098   9.790
 2672SOL    HW1 8600   0.887   2.139   9.712
 2672SOL    HW2 8601   1.034   2.096   9.771
 2673SOL     OW 8602   1.076   2.545  10.774
 2673SOL    HW1 8603   0.996   2.484  10.777
 2673SOL    HW2 8604   1.157   2.492  10.750
 2674SOL     OW 8605   1.227   3.432  10.103
 2674SOL    HW1 8606   1.248   3.506  10.038
 2674SOL    HW2 8607   1.295   3.432  10.176
 2675SOL     OW 8608   0.459   3.014  10.051
 2675SOL    HW1 8609   0.388   2.987  10.116
 2675SOL    HW2 8610   0.433   2.986   9.958
 2676SOL     OW 8611   1.271   3.659   9.901
 2676SOL    HW1 8612   1.315   3.723   9.837
 2676SOL    HW2 8613   1.221   3.711   9.971
 2677SOL     OW 8614   1.032   2.411   9.326
 2677SOL    HW1 8615   0.991   2.493   9.287
 2677SOL    HW2 8616   1.096   2.437   9.399
 2678SOL     OW 8617   0.078   2.418  10.696
 2678SOL    HW1 8618   0.170   2.417  10.655
 2678SOL    HW2 8619   0.072   2.492  10.763
 2679SOL     OW 8620   0.561   2.084  10.457
 2679SOL    HW1 8621   0.599   2.000  10.494
 2679SOL    HW2 8622   0.473   2.103  10.501
 2680SOL     OW 8623   0.866   2.316   9.952
 2680SOL    HW1 8624   0.834   2.388   9.890
 2680SOL    HW2 8625   0.890   2.235   9.899
 2681SOL     OW 8626   1.017   1.901  10.063
 2681SOL    HW1 8627   0.945   1.906   9.994
 2681SOL    HW2 8628   0.993   1.832  10.132
 2682SOL     OW 8629   1.429   3.035  10.177
 2682SOL    HW1 8630   1.374   2.951  10.170
 2682SOL    HW2 8631   1.455   3.064  10.085
 2683SOL     OW 8632   1.466   2.452  10.302
 2683SOL    HW1 8633   1.436   2.357  10.309
 2683SOL    HW2 8634   1.539   2.468  10.368
 2684SOL     OW 8635   1.857   2.695   9.687
 2684SOL    HW1 8636   1.899   2.631   9.751
 2684SOL    HW2 8637   1.819   2.644   9.609
 2685SOL     OW 8638   0.488   3.247   9.484
 2685SOL    HW1 8639   0.401   3.232   9.531
 2685SOL    HW2 8640   0.471   3.273   9.389
 2686SOL     OW 8641   1.664   3.142   9.967
 2686SOL    HW1 8642   1.763   3.150   9.981
 2686SOL    HW2 8643   1.619   3.226   9.998
 2687SOL     OW 8644   1.390   2.437   9.388
 2687SOL    HW1 8645   1.336   2.416   9.469
 2687SOL    HW2 8646   1.481   2.396   9.397
 2688SOL     OW 8647   0.527   2.118   9.638
 2688SOL    HW1 8648   0.554   2.059   9.563
 2688SOL    HW2 8649   0.527   2.213   9.607
 2689SOL     OW 8650   1.754   3.085  10.898
 2689SOL    HW1 8651   1.845   3.046  10.885
 2689SOL    HW2 8652   1.762   3.181  10.922
 2690SOL     OW 8653   1.064   3.209  10.650
 2690SOL    HW1 8654   0.984   3.186  10.705
 2690SOL    HW2 8655   1.147   3.183  10.699
 2691SOL     OW 8656   1.592   3.491  10.935
 2691SOL    HW1 8657   1.619   3.525  10.845
 2691SOL    HW2 8658   1.671   3.453  10.981
 2692SOL     OW 8659   1.111   3.057  10.410
 2692SOL    HW1 8660   1.071   3.101  10.491
 2692SOL    HW2 8661   1.070   3.094  10.327
 2693SOL     OW 8662   1.638   2.961  10.389
 2693SOL    HW1 8663   1.643   3.042  10.448
 2693SOL    HW2 8664   1.552   2.963  10.338
 2694SOL     OW 8665   0.915   1.951  10.712
 2694SOL    HW1 8666   0.940   1.931  10.617
 2694SOL    HW2 8667   0.987   2.007  10.754
 2695SOL     OW 8668   0.980   2.978  11.029
 2695SOL    HW1 8669   0.881   2.984  11.039
 2695SOL    HW2 8670   1.003   2.898  10.973
 2696SOL     OW 8671   0.705   2.912   9.678
 2696SOL    HW1 8672   0.691   2.919   9.777
 2696SOL    HW2 8673   0.789   2.861   9.660
 2697SOL     OW 8674   0.410   2.675  10.561
 2697SOL    HW1 8675   0.496   2.687  10.611
 2697SOL    HW2 8676   0.368   2.588  10.588
 2698SOL     OW 8677   1.274   2.248  10.572
 2698SOL    HW1 8678   1.295   2.322  10.636
 2698SOL    HW2 8679   1.185   2.265  10.529
 2699SOL     OW 8680   0.064   3.426  10.641
 2699SOL    HW1 8681   0.018   3.508  10.607
 2699SOL    HW2 8682   0.162   3.445  10.650
 2700SOL     OW 8683   0.367   2.962   9.811
 2700SOL    HW1 8684   0.360   3.045   9.755
 2700SOL    HW2 8685   0.371   2.882   9.751
 2701SOL     OW 8686   0.566   2.399  10.175
 2701SOL    HW1 8687   0.578   2.465  10.101
 2701SOL    HW2 8688   0.612   2.433  10.258
 2702SOL     OW 8689   1.252   3.210   9.698
 2702SOL    HW1 8690   1.302   3.287   9.738
 2702SOL    HW2 8691   1.157   3.212   9.730
 2703SOL     OW 8692   1.272   3.307  10.452
 2703SOL    HW1 8693   1.319   3.320  10.539
 2703SOL    HW2 8694   1.206   3.233  10.461
 2704SOL     OW 8695   1.582   2.501   9.782
 2704SOL    HW1 8696   1.551   2.562   9.855
 2704SOL    HW2 8697   1.632   2.553   9.713
 2705SOL     OW 8698   0.354   3.372  10.639
 2705SOL    HW1 8699   0.333   3.328  10.552
 2705SOL    HW2 8700   0.451   3.398  10.642
 2706SOL     OW 8701   0.402   2.613  10.908
 2706SOL    HW1 8702   0.470   2.668  10.861
 2706SOL    HW2 8703   0.442   2.525  10.935
 2707SOL     OW 8704   1.587   2.641  10.980
 2707SOL    HW1 8705   1.495   2.679  10.975
 2707SOL    HW2 8706   1.647   2.688  10.915
 2708SOL     OW 8707   1.013   1.967  11.080
 2708SOL    HW1 8708   1.019   2.052  11.028
 2708SOL    HW2 8709   1.045   1.891  11.023
 2709SOL     OW 8710   0.504   1.912  11.050
 2709SOL    HW1 8711   0.462   1.855  10.980
 2709SOL    HW2 8712   0.438   1.981  11.082
 2710SOL     OW 8713   0.573   2.732  10.339
 2710SOL    HW1 8714   0.617   2.821  10.330
 2710SOL    HW2 8715   0.510   2.732  10.416
 2711SOL     OW 8716   1.360   2.724  10.355
 2711SOL    HW1 8717   1.285   2.724  10.289
 2711SOL    HW2 8718   1.397   2.632  10.364
 2712SOL     OW 8719   1.209   2.387   9.585
 2712SOL    HW1 8720   1.222   2.303   9.639
 2712SOL    HW2 8721   1.180   2.461   9.645
 2713SOL     OW 8722   0.307   2.075  10.541
 2713SOL    HW1 8723   0.284   2.112  10.631
 2713SOL    HW2 8724   0.277   1.980  10.535
 2714SOL     OW 8725   0.037   3.172  10.592
 2714SOL    HW1 8726   0.090   3.123  10.660
 2714SOL    HW2 8727   0.059   3.270  10.597
 2715SOL     OW 8728   0.732   2.496  10.374
 2715SOL    HW1 8729   0.791   2.470  10.298
 2715SOL    HW2 8730   0.704   2.592  10.363
 2716SOL     OW 8731   1.728   2.797  11.164
 2716SOL    HW1 8732   1.682   2.790  11.075
 2716SOL    HW2 8733   1.666   2.841  11.230
 2717SOL     OW 8734   0.307   1.925   9.928
 2717SOL    HW1 8735   0.296   2.019   9.961
 2717SOL    HW2 8736   0.302   1.862  10.005
 2718SOL     OW 8737   1.622   2.229   9.684
 2718SOL    HW1 8738   1.624   2.153   9.748
 2718SOL    HW2 8739   1.574   2.306   9.724
 2719SOL     OW 8740   1.023   2.628  10.276
 2719SOL    HW1 8741   1.038   2.649  10.372
 2719SOL    HW2 8742   0.993   2.533  10.267
 2720SOL     OW 8743   0.980   3.435  11.010
 2720SOL    HW1 8744   0.960   3.479  10.922
 2720SOL    HW2 8745   1.019   3.344  10.994
 2721SOL     OW 8746   1.859   3.380  10.915
 2721SOL    HW1 8747   1.873   3.407  10.820
 2721SOL    HW2 8748   1.942   3.402  10.968
 2722SOL     OW 8749   0.350   2.760  11.114
 2722SOL    HW1 8750   0.426   2.804  11.162
 2722SOL    HW2 8751   0.385   2.713  11.032
 2723SOL     OW 8752   1.540   2.136   9.435
 2723SOL    HW1 8753   1.479   2.061   9.458
 2723SOL    HW2 8754   1.562   2.188   9.518
 2724SOL     OW 8755   1.303   2.700   9.352
 2724SOL    HW1 8756   1.337   2.607   9.367
 2724SOL    HW2 8757   1.321   2.727   9.257
 2725SOL     OW 8758   1.068   3.195  10.159
 2725SOL    HW1 8759   1.075   3.111  10.104
 2725SOL    HW2 8760   1.130   3.264  10.123
 2726SOL     OW 8761   0.319   2.672  10.259
 2726SOL    HW1 8762   0.412   2.708  10.264
 2726SOL    HW2 8763   0.313   2.587  10.311
 2727SOL     OW 8764   0.339   2.371  10.316
 2727SOL    HW1 8765   0.287   2.288  10.299
 2727SOL    HW2 8766   0.416   2.376  10.252
 2728SOL     OW 8767   1.138   2.242  10.988
 2728SOL    HW1 8768   1.093   2.305  11.052
 2728SOL    HW2 8769   1.231   2.273  10.971
 2729SOL     OW 8770   1.160   2.069  10.787
 2729SOL    HW1 8771   1.160   2.133  10.864
 2729SOL    HW2 8772   1.188   2.117  10.704
 2730SOL     OW 8773   0.008   3.188   9.510
 2730SOL    HW1 8774  -0.085   3.209   9.479
 2730SOL    HW2 8775   0.018   3.089   9.523
 2731SOL     OW 8776   0.088   3.663  10.237
 2731SOL    HW1 8777   0.046   3.577  10.210
 2731SOL    HW2 8778   0.182   3.666  10.203
 2732SOL     OW 8779   0.504   3.430  10.220
 2732SOL    HW1 8780   0.570   3.504  10.229
 2732SOL    HW2 8781   0.548   3.351  10.178
 2733SOL     OW 8782   1.002   2.658  10.548
 2733SOL    HW1 8783   1.043   2.626  10.634
 2733SOL    HW2 8784   0.906   2.631  10.545
 2734SOL     OW 8785   0.040   2.406  10.424
 2734SOL    HW1 8786   0.125   2.373  10.383
 2734SOL    HW2 8787   0.053   2.421  10.522
 2735SOL     OW 8788   0.189   2.382  11.032
 2735SOL    HW1 8789   0.248   2.342  10.962
 2735SOL    HW2 8790   0.131   2.453  10.991
 2736SOL     OW 8791   1.369   2.812  10.970
 2736SOL    HW1 8792   1.408   2.901  10.990
 2736SOL    HW2 8793   1.379   2.792  10.873
 2737SOL     OW 8794   0.815   2.434   9.635
 2737SOL    HW1 8795   0.822   2.345   9.589
 2737SOL    HW2 8796   0.721   2.468   9.627
 2738SOL     OW 8797   1.657   2.466  10.516
 2738SOL    HW1 8798   1.619   2.397  10.578
 2738SOL    HW2 8799   1.739   2.430  10.472
 2739SOL     OW 8800   0.252   3.426  11.054
 2739SOL    HW1 8801   0.222   3.483  11.130
 2739SOL    HW2 8802   0.245   3.329  11.080
 2740SOL     OW 8803   0.671   2.326  10.579
 2740SOL    HW1 8804   0.637   2.237  10.549
 2740SOL    HW2 8805   0.697   2.380  10.499
 2741SOL     OW 8806   0.930   3.540  10.775
 2741SOL    HW1 8807   0.906   3.522  10.680
 2741SOL    HW2 8808   0.960   3.634  10.785
 2742SOL     OW 8809   0.473   2.362   9.501
 2742SOL    HW1 8810   0.534   2.442   9.505
 2742SOL    HW2 8811   0.378   2.393   9.508
 2743SOL     OW 8812   0.159   2.999  10.776
 2743SOL    HW1 8813   0.181   2.938  10.852
 2743SOL    HW2 8814   0.169   2.950  10.690
 2744SOL     OW 8815   1.347   2.921  10.544
 2744SOL    HW1 8816   1.371   2.858  10.470
 2744SOL    HW2 8817   1.257   2.961  10.526
 2745SOL     OW 8818   1.302   2.717   9.619
 2745SOL    HW1 8819   1.216   2.686   9.661
 2745SOL    HW2 8820   1.298   2.703   9.520
 2746SOL     OW 8821   1.759   3.609  10.464
 2746SOL    HW1 8822   1.820   3.639  10.391
 2746SOL    HW2 8823   1.721   3.520  10.442
 2747SOL     OW 8824   1.252   3.593  10.438
 2747SOL    HW1 8825   1.336   3.598  10.384
 2747SOL    HW2 8826   1.229   3.497  10.456
 2748SOL     OW 8827   0.083   3.120  10.332
 2748SOL    HW1 8828   0.078   3.119  10.432
 2748SOL    HW2 8829   0.000   3.079  10.294
 2749SOL     OW 8830   0.688   3.524  11.026
 2749SOL    HW1 8831   0.632   3.605  11.035
 2749SOL    HW2 8832   0.740   3.528  10.940
 2750SOL     OW 8833   1.726   1.997   9.833
 2750SOL    HW1 8834   1.799   1.980   9.766
 2750SOL    HW2 8835   1.695   1.910   9.871
 2751SOL     OW 8836   1.388   3.435   9.787
 2751SOL    HW1 8837   1.455   3.447   9.713
 2751SOL    HW2 8838   1.348   3.524   9.810
 2752SOL     OW 8839   0.130   3.656  11.161
 2752SOL    HW1 8840   0.089   3.582  11.214
 2752SOL    HW2 8841   0.194   3.707  11.219
 2753SOL     OW 8842   1.280   2.789   9.982
 2753SOL    HW1 8843   1.340   2.708   9.984
 2753SOL    HW2 8844   1.320   2.858   9.922
 2754SOL     OW 8845   0.830   3.135  10.732
 2754SOL    HW1 8846   0.825   3.168  10.827
 2754SOL    HW2 8847   0.744   3.154  10.686
 2755SOL     OW 8848   0.672   3.478   9.464
 2755SOL    HW1 8849   0.681   3.488   9.365
 2755SOL    HW2 8850   0.632   3.389   9.485
 2756SOL     OW 8851   1.650   3.582  10.704
 2756SOL    HW1 8852   1.703   3.592  10.620
 2756SOL    HW2 8853   1.623   3.672  10.738
 2757SOL     OW 8854   0.263   2.188  10.030
 2757SOL    HW1 8855   0.184   2.239   9.996
 2757SOL    HW2 8856   0.254   2.173  10.128
 2758SOL     OW 8857   1.194   3.474   9.341
 2758SOL    HW1 8858   1.200   3.381   9.378
 2758SOL    HW2 8859   1.135   3.474   9.261
 2759SOL     OW 8860   0.822   2.864  10.682
 2759SOL    HW1 8861   0.862   2.863  10.590
 2759SOL    HW2 8862   0.832   2.956  10.722
 2760SOL     OW 8863   0.916   2.772   9.601
 2760SOL    HW1 8864   0.979   2.810   9.533
 2760SOL    HW2 8865   0.956   2.689   9.640
 2761SOL     OW 8866   1.504   3.469   9.354
 2761SOL    HW1 8867   1.412   3.506   9.361
 2761SOL    HW2 8868   1.542   3.489   9.264
 2762SOL     OW 8869   0.372   3.150  10.800
 2762SOL    HW1 8870   0.359   3.243  10.766
 2762SOL    HW2 8871   0.288   3.098  10.787
 2763SOL     OW 8872   1.614   3.154  10.599
 2763SOL    HW1 8873   1.674   3.157  10.679
 2763SOL    HW2 8874   1.539   3.218  10.612
 2764SOL     OW 8875   1.039   2.960  10.006
 2764SOL    HW1 8876   0.969   2.913  10.060
 2764SOL    HW2 8877   1.098   2.892   9.963
 2765SOL     OW 8878   1.014   2.098  10.281
 2765SOL    HW1 8879   1.006   2.062  10.188
 2765SOL    HW2 8880   1.012   2.022  10.346
 2766SOL     OW 8881   0.590   3.349   9.801
 2766SOL    HW1 8882   0.632   3.291   9.731
 2766SOL    HW2 8883   0.546   3.428   9.757
 2767SOL     OW 8884   1.709   2.247  10.691
 2767SOL    HW1 8885   1.782   2.316  10.695
 2767SOL    HW2 8886   1.737   2.172  10.632
 2768SOL     OW 8887   0.255   3.210   9.600
 2768SOL    HW1 8888   0.159   3.211   9.573
 2768SOL    HW2 8889   0.267   3.263   9.684
 2769SOL     OW 8890   0.105   2.875  11.036
 2769SOL    HW1 8891   0.028   2.842  11.090
 2769SOL    HW2 8892   0.190   2.845  11.078
 2770SOL     OW 8893   0.672   2.065  10.799
 2770SOL    HW1 8894   0.762   2.049  10.759
 2770SOL    HW2 8895   0.680   2.070  10.898
 2771SOL     OW 8896   0.075   2.207   9.343
 2771SOL    HW1 8897  -0.017   2.179   9.314
 2771SOL    HW2 8898   0.106   2.284   9.287
 2772SOL     OW 8899   1.440   2.718  10.708
 2772SOL    HW1 8900   1.383   2.770  10.645
 2772SOL    HW2 8901   1.536   2.730  10.684
 2773SOL     OW 8902   0.072   2.028   9.628
 2773SOL    HW1 8903   0.055   2.111   9.574
 2773SOL    HW2 8904   0.162   1.991   9.606
 2774SOL     OW 8905   1.183   3.197   9.429
 2774SOL    HW1 8906   1.084   3.186   9.431
 2774SOL    HW2 8907   1.217   3.212   9.522
 2775SOL     OW 8908   0.613   2.704  10.741
 2775SOL    HW1 8909   0.669   2.785  10.724
 2775SOL    HW2 8910   0.672   2.624  10.744
 2776SOL     OW 8911   1.493   3.629  10.269
 2776SOL    HW1 8912   1.526   3.693  10.200
 2776SOL    HW2 8913   1.559   3.623  10.344
 2777SOL     OW 8914   0.716   2.427  11.018
 2777SOL    HW1 8915   0.735   2.492  11.092
 2777SOL    HW2 8916   0.776   2.347  11.027
 2778SOL     OW 8917   1.450   3.082  10.943
 2778SOL    HW1 8918   1.441   3.072  11.042
 2778SOL    HW2 8919   1.546   3.075  10.917
 2779SOL     OW 8920   0.390   3.603  10.870
 2779SOL    HW1 8921   0.299   3.644  10.868
 2779SOL    HW2 8922   0.383   3.509  10.902
 2780SOL     OW 8923   1.674   2.745  10.564
 2780SOL    HW1 8924   1.647   2.656  10.527
 2780SOL    HW2 8925   1.675   2.813  10.491
 2781SOL     OW 8926   1.225   2.187   9.759
 2781SOL    HW1 8927   1.290   2.113   9.748
 2781SOL    HW2 8928   1.245   2.237   9.843
 2782SOL     OW 8929   0.594   2.607   9.962
 2782SOL    HW1 8930   0.644   2.692   9.943
 2782SOL    HW2 8931   0.506   2.609   9.914
 2783SOL     OW 8932   1.730   2.796  10.827
 2783SOL    HW1 8933   1.768   2.887  10.842
 2783SOL    HW2 8934   1.722   2.779  10.728
 2784SOL     OW 8935   0.859   3.236   9.326
 2784SOL    HW1 8936   0.813   3.251   9.414
 2784SOL    HW2 8937   0.903   3.321   9.296
 2785SOL     OW 8938   0.661   3.652  10.263
 2785SOL    HW1 8939   0.615   3.740  10.250
 2785SOL    HW2 8940   0.760   3.664  10.256
 2786SOL     OW 8941   0.859   2.818  10.171
 2786SOL    HW1 8942   0.913   2.749  10.219
 2786SOL    HW2 8943   0.827   2.887  10.237
 2787SOL     OW 8944   1.083   2.846   9.397
 2787SOL    HW1 8945   1.060   2.899   9.315
 2787SOL    HW2 8946   1.164   2.790   9.378
 2788SOL     OW 8947   1.861   3.431  10.161
 2788SOL    HW1 8948   1.790   3.419  10.091
 2788SOL    HW2 8949   1.862   3.352  10.221
 2789SOL     OW 8950   0.221   3.176  11.154
 2789SOL    HW1 8951   0.156   3.103  11.133
 2789SOL    HW2 8952   0.225   3.190  11.252
 2790SOL     OW 8953   0.079   3.102   9.963
 2790SOL    HW1 8954   0.078   3.055  10.051
 2790SOL    HW2 8955   0.161   3.074   9.912
 2791SOL     OW 8956   0.672   3.253  10.934
 2791SOL    HW1 8957   0.594   3.203  10.972
 2791SOL    HW2 8958   0.669   3.348  10.965
 2792SOL     OW 8959   0.428   2.286   9.830
 2792SOL    HW1 8960   0.458   2.214   9.768
 2792SOL    HW2 8961   0.389   2.246   9.913
 2793SOL     OW 8962   1.705   3.349  10.414
 2793SOL    HW1 8963   1.612   3.324  10.387
 2793SOL    HW2 8964   1.731   3.299  10.496
 2794SOL     OW 8965   0.317   2.409  10.590
 2794SOL    HW1 8966   0.355   2.350  10.662
 2794SOL    HW2 8967   0.357   2.383  10.502
 2795SOL     OW 8968   0.812   3.448   9.997
 2795SOL    HW1 8969   0.844   3.458   9.903
 2795SOL    HW2 8970   0.733   3.386   9.999
 2796SOL     OW 8971   1.424   2.076  10.422
 2796SOL    HW1 8972   1.476   2.011  10.477
 2796SOL    HW2 8973   1.375   2.139  10.483
 2797SOL     OW 8974   1.001   1.896  10.464
 2797SOL    HW1 8975   0.938   1.824  10.433
 2797SOL    HW2 8976   1.094   1.860  10.464
 2798SOL     OW 8977   0.770   3.192   9.611
 2798SOL    HW1 8978   0.724   3.105   9.628
 2798SOL    HW2 8979   0.861   3.189   9.652
 2799SOL     OW 8980   0.618   3.429  10.594
 2799SOL    HW1 8981   0.613   3.511  10.651
 2799SOL    HW2 8982   0.707   3.426  10.549
 2800SOL     OW 8983   1.352   1.914   9.478
 2800SOL    HW1 8984   1.387   1.873   9.394
 2800SOL    HW2 8985   1.262   1.876   9.498
 2801SOL     OW 8986   1.300   2.315  10.001
 2801SOL    HW1 8987   1.241   2.395  10.005
 2801SOL    HW2 8988   1.315   2.280  10.094
 2802SOL     OW 8989   1.593   2.083  10.192
 2802SOL    HW1 8990   1.509   2.082  10.246
 2802SOL    HW2 8991   1.595   2.166  10.136
 2803SOL     OW 8992   0.039   2.939   9.610
 2803SOL    HW1 8993   0.138   2.928   9.601
 2803SOL    HW2 8994  -0.001   2.853   9.642
 2804SOL     OW 8995   0.875   3.508   9.647
 2804SOL    HW1 8996   0.798   3.473   9.593
 2804SOL    HW2 8997   0.843   3.579   9.709
 2805SOL     OW 8998   0.230   2.490  11.285
 2805SOL    HW1 8999   0.137   2.488  11.322
 2805SOL    HW2 9000   0.231   2.451  11.193
 2806SOL     OW 9001   0.225   2.137  12.168
 2806SOL    HW1 9002   0.260   2.120  12.260
 2806SOL    HW2 9003   0.137   2.092  12.156
 2807SOL     OW 9004   0.019   2.230  11.819
 2807SOL    HW1 9005  -0.063   2.273  11.858
 2807SOL    HW2 9006  -0.009   2.157  11.756
 2808SOL     OW 9007   0.569   3.137  12.337
 2808SOL    HW1 9008   0.476   3.130  12.300
 2808SOL    HW2 9009   0.580   3.226  12.381
 2809SOL     OW 9010   1.555   3.373  11.875
 2809SOL    HW1 9011   1.498   3.357  11.956
 2809SOL    HW2 9012   1.496   3.383  11.795
 2810SOL     OW 9013   1.135   2.565  11.889
 2810SOL    HW1 9014   1.192   2.643  11.864
 2810SOL    HW2 9015   1.075   2.591  11.965
 2811SOL     OW 9016   1.755   2.469  11.403
 2811SOL    HW1 9017   1.743   2.456  11.304
 2811SOL    HW2 9018   1.725   2.388  11.452
 2812SOL     OW 9019   0.768   3.006  12.195
 2812SOL    HW1 9020   0.690   3.023  12.255
 2812SOL    HW2 9021   0.802   3.093  12.159
 2813SOL     OW 9022   0.850   2.660  12.995
 2813SOL    HW1 9023   0.846   2.736  13.060
 2813SOL    HW2 9024   0.872   2.696  12.904
 2814SOL     OW 9025   0.685   2.874  11.837
 2814SOL    HW1 9026   0.754   2.858  11.907
 2814SOL    HW2 9027   0.612   2.931  11.875
 2815SOL     OW 9028   0.686   3.023  12.975
 2815SOL    HW1 9029   0.746   3.102  12.989
 2815SOL    HW2 9030   0.600   3.054  12.934
 2816SOL     OW 9031   0.335   3.297  12.233
 2816SOL    HW1 9032   0.257   3.266  12.180
 2816SOL    HW2 9033   0.393   3.355  12.176
 2817SOL     OW 9034   1.460   3.367  12.511
 2817SOL    HW1 9035   1.484   3.461  12.537
 2817SOL    HW2 9036   1.444   3.313  12.593
 2818SOL     OW 9037   0.438   2.254  12.671
 2818SOL    HW1 9038   0.520   2.198  12.680
 2818SOL    HW2 9039   0.357   2.196  12.675
 2819SOL     OW 9040   1.603   2.309  11.909
 2819SOL    HW1 9041   1.529   2.355  11.859
 2819SOL    HW2 9042   1.654   2.377  11.962
 2820SOL     OW 9043   0.231   3.575  11.655
 2820SOL    HW1 9044   0.265   3.652  11.709
 2820SOL    HW2 9045   0.275   3.575  11.565
 2821SOL     OW 9046   1.127   3.203  12.862
 2821SOL    HW1 9047   1.174   3.203  12.950
 2821SOL    HW2 9048   1.079   3.116  12.851
 2822SOL     OW 9049   0.230   3.296  11.710
 2822SOL    HW1 9050   0.204   3.392  11.710
 2822SOL    HW2 9051   0.159   3.242  11.755
 2823SOL     OW 9052   0.240   2.953  12.058
 2823SOL    HW1 9053   0.254   2.869  12.110
 2823SOL    HW2 9054   0.185   3.017  12.113
 2824SOL     OW 9055   0.620   3.648  12.611
 2824SOL    HW1 9056   0.528   3.631  12.646
 2824SOL    HW2 9057   0.648   3.740  12.637
 2825SOL     OW 9058   0.606   2.826  11.295
 2825SOL    HW1 9059   0.613   2.910  11.241
 2825SOL    HW2 9060   0.652   2.839  11.383
 2826SOL     OW 9061   1.594   1.976  12.652
 2826SOL    HW1 9062   1.576   2.043  12.580
 2826SOL    HW2 9063   1.591   2.022  12.741
 2827SOL     OW 9064   0.122   2.505  11.735
 2827SOL    HW1 9065   0.077   2.417  11.752
 2827SOL    HW2 9066   0.121   2.559  11.819
 2828SOL     OW 9067   1.842   3.629  11.531
 2828SOL    HW1 9068   1.896   3.600  11.611
 2828SOL    HW2 9069   1.872   3.719  11.502
 2829SOL     OW 9070   0.027   3.458  11.289
 2829SOL    HW1 9071   0.008   3.362  11.310
 2829SOL    HW2 9072  -0.006   3.516  11.364
 2830SOL     OW 9073   1.689   2.784  11.784
 2830SOL    HW1 9074   1.784   2.755  11.792
 2830SOL    HW2 9075   1.681   2.849  11.709
 2831SOL     OW 9076   1.641   2.970  11.604
 2831SOL    HW1 9077   1.727   2.972  11.552
 2831SOL    HW2 9078   1.655   3.017  11.692
 2832SOL     OW 9079   0.113   2.599  12.769
 2832SOL    HW1 9080   0.201   2.586  12.814
 2832SOL    HW2 9081   0.100   2.696  12.747
 2833SOL     OW 9082   0.613   3.227  11.898
 2833SOL    HW1 9083   0.564   3.140  11.907
 2833SOL    HW2 9084   0.590   3.270  11.811
 2834SOL     OW 9085   1.293   3.090  12.595
 2834SOL    HW1 9086   1.330   3.017  12.537
 2834SOL    HW2 9087   1.345   3.095  12.680
 2835SOL     OW 9088   0.809   1.866  11.674
 2835SOL    HW1 9089   0.849   1.957  11.665
 2835SOL    HW2 9090   0.709   1.874  11.680
 2836SOL     OW 9091   0.197   2.838  12.436
 2836SOL    HW1 9092   0.286   2.793  12.422
 2836SOL    HW2 9093   0.124   2.773  12.417
 2837SOL     OW 9094   1.525   2.861  11.362
 2837SOL    HW1 9095   1.462   2.785  11.375
 2837SOL    HW2 9096   1.573   2.879  11.448
 2838SOL     OW 9097   1.187   3.654  12.788
 2838SOL    HW1 9098   1.211   3.714  12.712
 2838SOL    HW2 9099   1.194   3.559  12.758
 2839SOL     OW 9100   0.317   2.113  12.973
 2839SOL    HW1 9101   0.388   2.184  12.979
 2839SOL    HW2 9102   0.229   2.152  13.001
 2840SOL     OW 9103   1.466   3.279  12.125
 2840SOL    HW1 9104   1.407   3.285  12.205
 2840SOL    HW2 9105   1.451   3.191  12.079
 2841SOL     OW 9106   1.667   3.576  11.744
 2841SOL    HW1 9107   1.626   3.553  11.656
 2841SOL    HW2 9108   1.649   3.502  11.809
 2842SOL     OW 9109   0.598   2.591  11.442
 2842SOL    HW1 9110   0.622   2.660  11.374
 2842SOL    HW2 9111   0.520   2.624  11.496
 2843SOL     OW 9112   1.281   2.207  12.116
 2843SOL    HW1 9113   1.195   2.157  12.103
 2843SOL    HW2 9114   1.343   2.153  12.172
 2844SOL     OW 9115   1.576   3.524  11.479
 2844SOL    HW1 9116   1.665   3.570  11.482
 2844SOL    HW2 9117   1.555   3.500  11.384
 2845SOL     OW 9118   0.807   2.467  12.637
 2845SOL    HW1 9119   0.760   2.464  12.726
 2845SOL    HW2 9120   0.756   2.412  12.571
 2846SOL     OW 9121   1.394   2.331  12.846
 2846SOL    HW1 9122   1.374   2.374  12.934
 2846SOL    HW2 9123   1.472   2.269  12.855
 2847SOL     OW 9124   0.973   2.752  12.744
 2847SOL    HW1 9125   1.019   2.668  12.715
 2847SOL    HW2 9126   0.917   2.786  12.669
 2848SOL     OW 9127   0.991   2.272  12.414
 2848SOL    HW1 9128   0.914   2.306  12.468
 2848SOL    HW2 9129   0.957   2.221  12.335
 2849SOL     OW 9130   1.041   2.563  11.601
 2849SOL    HW1 9131   1.067   2.559  11.697
 2849SOL    HW2 9132   0.956   2.512  11.587
 2850SOL     OW 9133   0.076   2.673  11.961
 2850SOL    HW1 9134   0.175   2.661  11.970
 2850SOL    HW2 9135   0.052   2.768  11.982
 2851SOL     OW 9136   0.130   3.683  12.743
 2851SOL    HW1 9137   0.120   3.668  12.842
 2851SOL    HW2 9138   0.044   3.719  12.707
 2852SOL     OW 9139   0.865   2.210  11.367
 2852SOL    HW1 9140   0.924   2.273  11.318
 2852SOL    HW2 9141   0.884   2.116  11.338
 2853SOL     OW 9142   1.719   2.447  13.003
 2853SOL    HW1 9143   1.693   2.536  12.967
 2853SOL    HW2 9144   1.717   2.379  12.930
 2854SOL     OW 9145   1.362   3.006  11.717
 2854SOL    HW1 9146   1.445   2.977  11.669
 2854SOL    HW2 9147   1.313   3.073  11.661
 2855SOL     OW 9148   0.550   2.058  12.057
 2855SOL    HW1 9149   0.545   2.053  12.157
 2855SOL    HW2 9150   0.552   2.154  12.028
 2856SOL     OW 9151   1.008   3.318  11.649
 2856SOL    HW1 9152   0.962   3.390  11.597
 2856SOL    HW2 9153   1.004   3.338  11.747
 2857SOL     OW 9154   0.351   3.663  12.025
 2857SOL    HW1 9155   0.401   3.577  12.031
 2857SOL    HW2 9156   0.416   3.740  12.022
 2858SOL     OW 9157   1.795   2.928  12.045
 2858SOL    HW1 9158   1.733   2.913  11.969
 2858SOL    HW2 9159   1.743   2.939  12.130
 2859SOL     OW 9160   1.227   3.412  12.678
 2859SOL    HW1 9161   1.233   3.335  12.742
 2859SOL    HW2 9162   1.175   3.386  12.598
 2860SOL     OW 9163   0.321   2.805  11.414
 2860SOL    HW1 9164   0.403   2.844  11.372
 2860SOL    HW2 9165   0.294   2.723  11.365
 2861SOL     OW 9166   1.458   2.597  11.900
 2861SOL    HW1 9167   1.453   2.532  11.975
 2861SOL    HW2 9168   1.538   2.656  11.913
 2862SOL     OW 9169   0.461   3.128  12.899
 2862SOL    HW1 9170   0.411   3.129  12.813
 2862SOL    HW2 9171   0.398   3.110  12.975
 2863SOL     OW 9172   1.111   3.638  11.409
 2863SOL    HW1 9173   1.051   3.576  11.459
 2863SOL    HW2 9174   1.142   3.594  11.324
 2864SOL     OW 9175   0.202   2.147  12.670
 2864SOL    HW1 9176   0.122   2.207  12.657
 2864SOL    HW2 9177   0.192   2.098  12.756
 2865SOL     OW 9178   1.632   3.239  11.253
 2865SOL    HW1 9179   1.600   3.333  11.243
 2865SOL    HW2 9180   1.556   3.176  11.241
 2866SOL     OW 9181   0.464   3.605  11.495
 2866SOL    HW1 9182   0.497   3.644  11.581
 2866SOL    HW2 9183   0.540   3.598  11.430
 2867SOL     OW 9184   1.400   1.969  11.598
 2867SOL    HW1 9185   1.376   1.932  11.508
 2867SOL    HW2 9186   1.499   1.985  11.602
 2868SOL     OW 9187   0.249   3.647  12.413
 2868SOL    HW1 9188   0.306   3.582  12.463
 2868SOL    HW2 9189   0.233   3.614  12.320
 2869SOL     OW 9190   0.940   3.560  12.076
 2869SOL    HW1 9191   1.020   3.503  12.097
 2869SOL    HW2 9192   0.891   3.520  11.999
 2870SOL     OW 9193   0.382   2.562  11.652
 2870SOL    HW1 9194   0.427   2.472  11.649
 2870SOL    HW2 9195   0.288   2.551  11.685
 2871SOL     OW 9196   1.547   2.084  12.901
 2871SOL    HW1 9197   1.542   2.121  12.993
 2871SOL    HW2 9198   1.475   2.015  12.889
 2872SOL     OW 9199   0.614   1.984  11.289
 2872SOL    HW1 9200   0.712   1.962  11.296
 2872SOL    HW2 9201   0.583   1.967  11.196
 2873SOL     OW 9202   0.781   2.126  12.921
 2873SOL    HW1 9203   0.848   2.065  12.964
 2873SOL    HW2 9204   0.708   2.145  12.986
 2874SOL     OW 9205   0.888   3.376  12.367
 2874SOL    HW1 9206   0.865   3.351  12.273
 2874SOL    HW2 9207   0.949   3.307  12.406
 2875SOL     OW 9208   1.351   2.452  12.605
 2875SOL    HW1 9209   1.379   2.409  12.690
 2875SOL    HW2 9210   1.376   2.548  12.606
 2876SOL     OW 9211   0.803   3.264  12.096
 2876SOL    HW1 9212   0.893   3.278  12.054
 2876SOL    HW2 9213   0.732   3.266  12.025
 2877SOL     OW 9214   0.922   2.365  12.071
 2877SOL    HW1 9215   0.897   2.356  11.975
 2877SOL    HW2 9216   0.970   2.283  12.102
 2878SOL     OW 9217   0.539   1.926  11.684
 2878SOL    HW1 9218   0.458   1.927  11.742
 2878SOL    HW2 9219   0.542   2.009  11.629
 2879SOL     OW 9220   1.434   3.050  11.213
 2879SOL    HW1 9221   1.466   2.974  11.270
 2879SOL    HW2 9222   1.342   3.077  11.243
 2880SOL     OW 9223   0.297   1.897  11.343
 2880SOL    HW1 9224   0.346   1.981  11.322
 2880SOL    HW2 9225   0.359   1.832  11.388
 2881SOL     OW 9226   0.935   2.098  11.652
 2881SOL    HW1 9227   0.887   2.139  11.574
 2881SOL    HW2 9228   1.034   2.096  11.633
 2882SOL     OW 9229   1.076   2.545  12.636
 2882SOL    HW1 9230   0.996   2.484  12.639
 2882SOL    HW2 9231   1.157   2.492  12.612
 2883SOL     OW 9232   1.227   3.432  11.965
 2883SOL    HW1 9233   1.248   3.506  11.900
 2883SOL    HW2 9234   1.295   3.432  12.038
 2884SOL     OW 9235   0.459   3.014  11.913
 2884SOL    HW1 9236   0.388   2.987  11.978
 2884SOL    HW2 9237   0.433   2.986  11.820
 2885SOL     OW 9238   1.271   3.659  11.763
 2885SOL    HW1 9239   1.315   3.723  11.699
 2885SOL    HW2 9240   1.221   3.711  11.833
 2886SOL     OW 9241   1.032   2.411  11.188
 2886SOL    HW1 9242   0.991   2.493  11.149
 2886SOL    HW2 9243   1.096   2.437  11.261
 2887SOL     OW 9244   0.078   2.418  12.558
 2887SOL    HW1 9245   0.170   2.417  12.517
 2887SOL    HW2 9246   0.072   2.492  12.625
 2888SOL     OW 9247   0.561   2.084  12.319
 2888SOL    HW1 9248   0.599   2.000  12.356
 2888SOL    HW2 9249   0.473   2.103  12.363
 2889SOL     OW 9250   0.866   2.316  11.814
 2889SOL    HW1 9251   0.834   2.388  11.752
 2889SOL    HW2 9252   0.890   2.235  11.761
 2890SOL     OW 9253   1.017   1.901  11.925
 2890SOL    HW1 9254   0.945   1.906  11.856
 2890SOL    HW2 9255   0.993   1.832  11.994
 2891SOL     OW 9256   1.429   3.035  12.039
 2891SOL    HW1 9257   1.374   2.951  12.032
 2891SOL    HW2 9258   1.455   3.064  11.947
 2892SOL     OW 9259   1.466   2.452  12.164
 2892SOL    HW1 9260   1.436   2.357  12.171
 2892SOL    HW2 9261   1.539   2.468  12.230
 2893SOL     OW 9262   1.857   2.695  11.549
 2893SOL    HW1 9263   1.899   2.631  11.613
 2893SOL    HW2 9264   1.819   2.644  11.471
 2894SOL     OW 9265   0.488   3.247  11.346
 2894SOL    HW1 9266   0.401   3.232  11.393
 2894SOL    HW2 9267   0.471   3.273  11.251
 2895SOL     OW 9268   1.664   3.142  11.829
 2895SOL    HW1 9269   1.763   3.150  11.843
 2895SOL    HW2 9270   1.619   3.226  11.860
 2896SOL     OW 9271   1.390   2.437  11.250
 2896SOL    HW1 9272   1.336   2.416  11.331
 2896SOL    HW2 9273   1.481   2.396  11.259
 2897SOL     OW 9274   0.527   2.118  11.500
 2897SOL    HW1 9275   0.554   2.059  11.425
 2897SOL    HW2 9276   0.527   2.213  11.469
 2898SOL     OW 9277   1.754   3.085  12.760
 2898SOL    HW1 9278   1.845   3.046  12.747
 2898SOL    HW2 9279   1.762   3.181  12.784
 2899SOL     OW 9280   1.064   3.209  12.512
 2899SOL    HW1 9281   0.984   3.186  12.567
 2899SOL    HW2 9282   1.147   3.183  12.561
 2900SOL     OW 9283   1.592   3.491  12.797
 2900SOL    HW1 9284   1.619   3.525  12.707
 2900SOL    HW2 9285   1.671   3.453  12.843
 2901SOL     OW 9286   1.111   3.057  12.272
 2901SOL    HW1 9287   1.071   3.101  12.353
 2901SOL    HW2 9288   1.070   3.094  12.189
 2902SOL     OW 9289   1.638   2.961  12.251
 2902SOL    HW1 9290   1.643   3.042  12.310
 2902SOL    HW2 9291   1.552   2.963  12.200
 2903SOL     OW 9292   0.915   1.951  12.574
 2903SOL    HW1 9293   0.940   1.931  12.479
 2903SOL    HW2 9294   0.987   2.007  12.616
 2904SOL     OW 9295   0.980   2.978  12.891
 2904SOL    HW1 9296   0.881   2.984  12.901
 2904SOL    HW2 9297   1.003   2.898  12.835
 2905SOL     OW 9298   0.705   2.912  11.540
 2905SOL    HW1 9299   0.691   2.919  11.639
 2905SOL    HW2 9300   0.789   2.861  11.522
 2906SOL     OW 9301   0.410   2.675  12.423
 2906SOL    HW1 9302   0.496   2.687  12.473
 2906SOL    HW2 9303   0.368   2.588  12.450
 2907SOL     OW 9304   1.274   2.248  12.434
 2907SOL    HW1 9305   1.295   2.322  12.498
 2907SOL    HW2 9306   1.185   2.265  12.391
 2908SOL     OW 9307   0.064   3.426  12.503
 2908SOL    HW1 9308   0.018   3.508  12.469
 2908SOL    HW2 9309   0.162   3.445  12.512
 2909SOL     OW 9310   0.367   2.962  11.673
 2909SOL    HW1 9311   0.360   3.045  11.617
 2909SOL    HW2 9312   0.371   2.882  11.613
 2910SOL     OW 9313   0.566   2.399  12.037
 2910SOL    HW1 9314   0.578   2.465  11.963
 2910SOL    HW2 9315   0.612   2.433  12.120
 2911SOL     OW 9316   1.252   3.210  11.560
 2911SOL    HW1 9317   1.302   3.287  11.600
 2911SOL    HW2 9318   1.157   3.212  11.592
 2912SOL     OW 9319   1.272   3.307  12.314
 2912SOL    HW1 9320   1.319   3.320  12.401
 2912SOL    HW2 9321   1.206   3.233  12.323
 2913SOL     OW 9322   1.582   2.501  11.644
 2913SOL    HW1 9323   1.551   2.562  11.717
 2913SOL    HW2 9324   1.632   2.553  11.575
 2914SOL     OW 9325   0.354   3.372  12.501
 2914SOL    HW1 9326   0.333   3.328  12.414
 2914SOL    HW2 9327   0.451   3.398  12.504
 2915SOL     OW 9328   0.402   2.613  12.770
 2915SOL    HW1 9329   0.470   2.668  12.723
 2915SOL    HW2 9330   0.442   2.525  12.797
 2916SOL     OW 9331   1.587   2.641  12.842
 2916SOL    HW1 9332   1.495   2.679  12.837
 2916SOL    HW2 9333   1.647   2.688  12.777
 2917SOL     OW 9334   1.013   1.967  12.942
 2917SOL    HW1 9335   1.019   2.052  12.890
 2917SOL    HW2 9336   1.045   1.891  12.885
 2918SOL     OW 9337   0.504   1.912  12.912
 2918SOL    HW1 9338   0.462   1.855  12.842
 2918SOL    HW2 9339   0.438   1.981  12.944
 2919SOL     OW 9340   0.573   2.732  12.201
 2919SOL    HW1 9341   0.617   2.821  12.192
 2919SOL    HW2 9342   0.510   2.732  12.278
 2920SOL     OW 9343   1.360   2.724  12.217
 2920SOL    HW1 9344   1.285   2.724  12.151
 2920SOL    HW2 9345   1.397   2.632  12.226
 2921SOL     OW 9346   1.209   2.387  11.447
 2921SOL    HW1 9347   1.222   2.303  11.501
 2921SOL    HW2 9348   1.180   2.461  11.507
 2922SOL     OW 9349   0.307   2.075  12.403
 2922SOL    HW1 9350   0.284   2.112  12.493
 2922SOL    HW2 9351   0.277   1.980  12.397
 2923SOL     OW 9352   0.037   3.172  12.454
 2923SOL    HW1 9353   0.090   3.123  12.522
 2923SOL    HW2 9354   0.059   3.270  12.459
 2924SOL     OW 9355   0.732   2.496  12.236
 2924SOL    HW1 9356   0.791   2.470  12.160
 2924SOL    HW2 9357   0.704   2.592  12.225
 2925SOL     OW 9358   1.728   2.797  13.026
 2925SOL    HW1 9359   1.682   2.790  12.937
 2925SOL    HW2 9360   1.666   2.841  13.092
 2926SOL     OW 9361   0.307   1.925  11.790
 2926SOL    HW1 9362   0.296   2.019  11.823
 2926SOL    HW2 9363   0.302   1.862  11.867
 2927SOL     OW 9364   1.622   2.229  11.546
 2927SOL    HW1 9365   1.624   2.153  11.610
 2927SOL    HW2 9366   1.574   2.306  11.586
 2928SOL     OW 9367   1.023   2.628  12.138
 2928SOL    HW1 9368   1.038   2.649  12.234
 2928SOL    HW2 9369   0.993   2.533  12.129
 2929SOL     OW 9370   0.980   3.435  12.872
 2929SOL    HW1 9371   0.960   3.479  12.784
 2929SOL    HW2 9372   1.019   3.344  12.856
 2930SOL     OW 9373   1.859   3.380  12.777
 2930SOL    HW1 9374   1.873   3.407  12.682
 2930SOL    HW2 9375   1.942   3.402  12.830
 2931SOL     OW 9376   0.350   2.760  12.976
 2931SOL    HW1 9377   0.426   2.804  13.024
 2931SOL    HW2 9378   0.385   2.713  12.894
 2932SOL     OW 9379   1.540   2.136  11.297
 2932SOL    HW1 9380   1.479   2.061  11.320
 2932SOL    HW2 9381   1.562   2.188  11.380
 2933SOL     OW 9382   1.303   2.700  11.214
 2933SOL    HW1 9383   1.337   2.607  11.229
 2933SOL    HW2 9384   1.321   2.727  11.119
 2934SOL     OW 9385   1.068   3.195  12.021
 2934SOL    HW1 9386   1.075   3.111  11.966
 2934SOL    HW2 9387   1.130   3.264  11.985
 2935SOL     OW 9388   0.319   2.672  12.121
 2935SOL    HW1 9389   0.412   2.708  12.126
 2935SOL    HW2 9390   0.313   2.587  12.173
 2936SOL     OW 9391   0.339   2.371  12.178
 2936SOL    HW1 9392   0.287   2.288  12.161
 2936SOL    HW2 9393   0.416   2.376  12.114
 2937SOL     OW 9394   1.138   2.242  12.850
 2937SOL    HW1 9395   1.093   2.305  12.914
 2937SOL    HW2 9396   1.231   2.273  12.833
 2938SOL     OW 9397   1.160   2.069  12.649
 2938SOL    HW1 9398   1.160   2.133  12.726
 2938SOL    HW2 9399   1.188   2.117  12.566
 2939SOL     OW 9400   0.008   3.188  11.372
 2939SOL    HW1 9401  -0.085   3.209  11.341
 2939SOL    HW2 9402   0.018   3.089  11.385
 2940SOL     OW 9403   0.088   3.663  12.099
 2940SOL    HW1 9404   0.046   3.577  12.072
 2940SOL    HW2 9405   0.182   3.666  12.065
 2941SOL     OW 9406   0.504   3.430  12.082
 2941SOL    HW1 9407   0.570   3.504  12.091
 2941SOL    HW2 9408   0.548   3.351  12.040
 2942SOL     OW 9409   1.002   2.658  12.410
 2942SOL    HW1 9410   1.043   2.626  12.496
 2942SOL    HW2 9411   0.906   2.631  12.407
 2943SOL     OW 9412   0.040   2.406  12.286
 2943SOL    HW1 9413   0.125   2.373  12.245
 2943SOL    HW2 9414   0.053   2.421  12.384
 2944SOL     OW 9415   0.189   2.382  12.894
 2944SOL    HW1 9416   0.248   2.342  12.824
 2944SOL    HW2 9417   0.131   2.453  12.853
 2945SOL     OW 9418   1.369   2.812  12.832
 2945SOL    HW1 9419   1.408   2.901  12.852
 2945SOL    HW2 9420   1.379   2.792  12.735
 2946SOL     OW 9421   0.815   2.434  11.497
 2946SOL    HW1 9422   0.822   2.345  11.451
 2946SOL    HW2 9423   0.721   2.468  11.489
 2947SOL     OW 9424   1.657   2.466  12.378
 2947SOL    HW1 9425   1.619   2.397  12.440
 2947SOL    HW2 9426   1.739   2.430  12.334
 2948SOL     OW 9427   0.252   3.426  12.916
 2948SOL    HW1 9428   0.222   3.483  12.992
 2948SOL    HW2 9429   0.245   3.329  12.942
 2949SOL     OW 9430   0.671   2.326  12.441
 2949SOL    HW1 9431   0.637   2.237  12.411
 2949SOL    HW2 9432   0.697   2.380  12.361
 2950SOL     OW 9433   0.930   3.540  12.637
 2950SOL    HW1 9434   0.906   3.522  12.542
 2950SOL    HW2 9435   0.960   3.634  12.647
 2951SOL     OW 9436   0.473   2.362  11.363
 2951SOL    HW1 9437   0.534   2.442  11.367
 2951SOL    HW2 9438   0.378   2.393  11.370
 2952SOL     OW 9439   0.159   2.999  12.638
 2952SOL    HW1 9440   0.181   2.938  12.714
 2952SOL    HW2 9441   0.169   2.950  12.552
 2953SOL     OW 9442   1.347   2.921  12.406
 2953SOL    HW1 9443   1.371   2.858  12.332
 2953SOL    HW2 9444   1.257   2.961  12.388
 2954SOL     OW 9445   1.302   2.717  11.481
 2954SOL    HW1 9446   1.216   2.686  11.523
 2954SOL    HW2 9447   1.298   2.703  11.382
 2955SOL     OW 9448   1.759   3.609  12.326
 2955SOL    HW1 9449   1.820   3.639  12.253
 2955SOL    HW2 9450   1.721   3.520  12.304
 2956SOL     OW 9451   1.252   3.593  12.300
 2956SOL    HW1 9452   1.336   3.598  12.246
 2956SOL    HW2 9453   1.229   3.497  12.318
 2957SOL     OW 9454   0.083   3.120  12.194
 2957SOL    HW1 9455   0.078   3.119  12.294
 2957SOL    HW2 9456   0.000   3.079  12.156
 2958SOL     OW 9457   0.688   3.524  12.888
 2958SOL    HW1 9458   0.632   3.605  12.897
 2958SOL    HW2 9459   0.740   3.528  12.802
 2959SOL     OW 9460   1.726   1.997  11.695
 2959SOL    HW1 9461   1.799   1.980  11.628
 2959SOL    HW2 9462   1.695   1.910  11.733
 2960SOL     OW 9463   1.388   3.435  11.649
 2960SOL    HW1 9464   1.455   3.447  11.575
 2960SOL    HW2 9465   1.348   3.524  11.672
 2961SOL     OW 9466   0.130   3.656  13.023
 2961SOL    HW1 9467   0.089   3.582  13.076
 2961SOL    HW2 9468   0.194   3.707  13.081
 2962SOL     OW 9469   1.280   2.789  11.844
 2962SOL    HW1 9470   1.340   2.708  11.846
 2962SOL    HW2 9471   1.320   2.858  11.784
 2963SOL     OW 9472   0.830   3.135  12.594
 2963SOL    HW1 9473   0.825   3.168  12.689
 2963SOL    HW2 9474   0.744   3.154  12.548
 2964SOL     OW 9475   0.672   3.478  11.326
 2964SOL    HW1 9476   0.681   3.488  11.227
 2964SOL    HW2 9477   0.632   3.389  11.347
 2965SOL     OW 9478   1.650   3.582  12.566
 2965SOL    HW1 9479   1.703   3.592  12.482
 2965SOL    HW2 9480   1.623   3.672  12.600
 2966SOL     OW 9481   1.841   2.037  12.135
 2966SOL    HW1 9482   1.880   1.952  12.099
 2966SOL    HW2 9483   1.743   2.039  12.116
 2967SOL     OW 9484   0.263   2.188  11.892
 2967SOL    HW1 9485   0.184   2.239  11.858
 2967SOL    HW2 9486   0.254   2.173  11.990
 2968SOL     OW 9487   1.194   3.474  11.203
 2968SOL    HW1 9488   1.200   3.381  11.240
 2968SOL    HW2 9489   1.135   3.474  11.123
 2969SOL     OW 9490   0.822   2.864  12.544
 2969SOL    HW1 9491   0.862   2.863  12.452
 2969SOL    HW2 9492   0.832   2.956  12.584
 2970SOL     OW 9493   0.916   2.772  11.463
 2970SOL    HW1 9494   0.979   2.810  11.395
 2970SOL    HW2 9495   0.956   2.689  11.502
 2971SOL     OW 9496   1.504   3.469  11.216
 2971SOL    HW1 9497   1.412   3.506  11.223
 2971SOL    HW2 9498   1.542   3.489  11.126
 2972SOL     OW 9499   0.372   3.150  12.662
 2972SOL    HW1 9500   0.359   3.243  12.628
 2972SOL    HW2 9501   0.288   3.098  12.649
 2973SOL     OW 9502   1.614   3.154  12.461
 2973SOL    HW1 9503   1.674   3.157  12.541
 2973SOL    HW2 9504   1.539   3.218  12.474
 2974SOL     OW 9505   1.039   2.960  11.868
 2974SOL    HW1 9506   0.969   2.913  11.922
 2974SOL    HW2 9507   1.098   2.892  11.825
 2975SOL     OW 9508   1.014   2.098  12.143
 2975SOL    HW1 9509   1.006   2.062  12.050
 2975SOL    HW2 9510   1.012   2.022  12.208
 2976SOL     OW 9511   0.590   3.349  11.663
 2976SOL    HW1 9512   0.632   3.291  11.593
 2976SOL    HW2 9513   0.546   3.428  11.619
 2977SOL     OW 9514   1.709   2.247  12.553
 2977SOL    HW1 9515   1.782   2.316  12.557
 2977SOL    HW2 9516   1.737   2.172  12.494
 2978SOL     OW 9517   0.255   3.210  11.462
 2978SOL    HW1 9518   0.159   3.211  11.435
 2978SOL    HW2 9519   0.267   3.263  11.546
 2979SOL     OW 9520   0.105   2.875  12.898
 2979SOL    HW1 9521   0.028   2.842  12.952
 2979SOL    HW2 9522   0.190   2.845  12.940
 2980SOL     OW 9523   0.672   2.065  12.661
 2980SOL    HW1 9524   0.762   2.049  12.621
 2980SOL    HW2 9525   0.680   2.070  12.760
 2981SOL     OW 9526   0.075   2.207  11.205
 2981SOL    HW1 9527  -0.017   2.179  11.176
 2981SOL    HW2 9528   0.106   2.284  11.149
 2982SOL     OW 9529   1.440   2.718  12.570
 2982SOL    HW1 9530   1.383   2.770  12.507
 2982SOL    HW2 9531   1.536   2.730  12.546
 2983SOL     OW 9532   0.072   2.028  11.490
 2983SOL    HW1 9533   0.055   2.111  11.436
 2983SOL    HW2 9534   0.162   1.991  11.468
 2984SOL     OW 9535   1.183   3.197  11.291
 2984SOL    HW1 9536   1.084   3.186  11.293
 2984SOL    HW2 9537   1.217   3.212  11.384
 2985SOL     OW 9538   0.613   2.704  12.603
 2985SOL    HW1 9539   0.669   2.785  12.586
 2985SOL    HW2 9540   0.672   2.624  12.606
 2986SOL     OW 9541   1.493   3.629  12.131
 2986SOL    HW1 9542   1.526   3.693  12.062
 2986SOL    HW2 9543   1.559   3.623  12.206
 2987SOL     OW 9544   0.716   2.427  12.880
 2987SOL    HW1 9545   0.735   2.492  12.954
 2987SOL    HW2 9546   0.776   2.347  12.889
 2988SOL     OW 9547   1.450   3.082  12.805
 2988SOL    HW1 9548   1.441   3.072  12.904
 2988SOL    HW2 9549   1.546   3.075  12.779
 2989SOL     OW 9550   0.390   3.603  12.732
 2989SOL    HW1 9551   0.299   3.644  12.730
 2989SOL    HW2 9552   0.383   3.509  12.764
 2990SOL     OW 9553   1.674   2.745  12.426
 2990SOL    HW1 9554   1.647   2.656  12.389
 2990SOL    HW2 9555   1.675   2.813  12.353
 2991SOL     OW 9556   1.225   2.187  11.621
 2991SOL    HW1 9557   1.290   2.113  11.610
 2991SOL    HW2 9558   1.245   2.237  11.705
 2992SOL     OW 9559   0.594   2.607  11.824
 2992SOL    HW1 9560   0.644   2.692  11.805
 2992SOL    HW2 9561   0.506   2.609  11.776
 2993SOL     OW 9562   1.777   2.204  12.814
 2993SOL    HW1 9563   1.760   2.235  12.720
 2993SOL    HW2 9564   1.693   2.167  12.852
 2994SOL     OW 9565   1.730   2.796  12.689
 2994SOL    HW1 9566   1.768   2.887  12.704
 2994SOL    HW2 9567   1.722   2.779  12.590
 2995SOL     OW 9568   0.859   3.236  11.188
 2995SOL    HW1 9569   0.813   3.251  11.276
 2995SOL    HW2 9570   0.903   3.321  11.158
 2996SOL     OW 9571   0.661   3.652  12.125
 2996SOL    HW1 9572   0.615   3.740  12.112
 2996SOL    HW2 9573   0.760   3.664  12.118
 2997SOL     OW 9574   0.859   2.818  12.033
 2997SOL    HW1 9575   0.913   2.749  12.081
 2997SOL    HW2 9576   0.827   2.887  12.099
 2998SOL     OW 9577   1.083   2.846  11.259
 2998SOL    HW1 9578   1.060   2.899  11.177
 2998SOL    HW2 9579   1.164   2.790  11.240
 2999SOL     OW 9580   1.861   3.431  12.023
 2999SOL    HW1 9581   1.790   3.419  11.953
 2999SOL    HW2 9582   1.862   3.352  12.083
 3000SOL     OW 9583   0.221   3.176  13.016
 3000SOL    HW1 9584   0.156   3.103  12.995
 3000SOL    HW2 9585   0.225   3.190  13.114
 3001SOL     OW 9586   0.079   3.102  11.825
 3001SOL    HW1 9587   0.078   3.055  11.913
 3001SOL    HW2 9588   0.161   3.074  11.774
 3002SOL     OW 9589   0.672   3.253  12.796
 3002SOL    HW1 9590   0.594   3.203  12.834
 3002SOL    HW2 9591   0.669   3.348  12.827
 3003SOL     OW 9592   0.428   2.286  11.692
 3003SOL    HW1 9593   0.458   2.214  11.630
 3003SOL    HW2 9594   0.389   2.246  11.775
 3004SOL     OW 9595   1.705   3.349  12.276
 3004SOL    HW1 9596   1.612   3.324  12.249
 3004SOL    HW2 9597   1.731   3.299  12.358
 3005SOL     OW 9598   0.317   2.409  12.452
 3005SOL    HW1 9599   0.355   2.350  12.524
 3005SOL    HW2 9600   0.357   2.383  12.364
 3006SOL     OW 9601   0.812   3.448  11.859
 3006SOL    HW1 9602   0.844   3.458  11.765
 3006SOL    HW2 9603   0.733   3.386  11.861
 3007SOL     OW 9604   1.424   2.076  12.284
 3007SOL    HW1 9605   1.476   2.011  12.339
 3007SOL    HW2 9606   1.375   2.139  12.345
 3008SOL     OW 9607   1.001   1.896  12.326
 3008SOL    HW1 9608   0.938   1.824  12.295
 3008SOL    HW2 9609   1.094   1.860  12.326
 3009SOL     OW 9610   0.770   3.192  11.473
 3009SOL    HW1 9611   0.724   3.105  11.490
 3009SOL    HW2 9612   0.861   3.189  11.514
 3010SOL     OW 9613   0.618   3.429  12.456
 3010SOL    HW1 9614   0.613   3.511  12.513
 3010SOL    HW2 9615   0.707   3.426  12.411
 3011SOL     OW 9616   1.352   1.914  11.340
 3011SOL    HW1 9617   1.387   1.873  11.256
 3011SOL    HW2 9618   1.262   1.876  11.360
 3012SOL     OW 9619   1.300   2.315  11.863
 3012SOL    HW1 9620   1.241   2.395  11.867
 3012SOL    HW2 9621   1.315   2.280  11.956
 3013SOL     OW 9622   1.593   2.083  12.054
 3013SOL    HW1 9623   1.509   2.082  12.108
 3013SOL    HW2 9624   1.595   2.166  11.998
 3014SOL     OW 9625   0.039   2.939  11.472
 3014SOL    HW1 9626   0.138   2.928  11.463
 3014SOL    HW2 9627  -0.001   2.853  11.504
 3015SOL     OW 9628   0.875   3.508  11.509
 3015SOL    HW1 9629   0.798   3.473  11.455
 3015SOL    HW2 9630   0.843   3.579  11.571
 3016SOL     OW 9631   0.230   2.490  13.147
 3016SOL    HW1 9632   0.137   2.488  13.184
 3016SOL    HW2 9633   0.231   2.451  13.055
 3017SOL     OW 9634   0.225   2.137  14.030
 3017SOL    HW1 9635   0.260   2.120  14.122
 3017SOL    HW2 9636   0.137   2.092  14.018
 3018SOL     OW 9637   0.019   2.230  13.681
 3018SOL    HW1 9638  -0.063   2.273  13.720
 3018SOL    HW2 9639  -0.009   2.157  13.618
 3019SOL     OW 9640   1.555   3.373  13.737
 3019SOL    HW1 9641   1.498   3.357  13.818
 3019SOL    HW2 9642   1.496   3.383  13.657
 3020SOL     OW 9643   1.135   2.565  13.751
 3020SOL    HW1 9644   1.192   2.643  13.726
 3020SOL    HW2 9645   1.075   2.591  13.827
 3021SOL     OW 9646   1.755   2.469  13.265
 3021SOL    HW1 9647   1.743   2.456  13.166
 3021SOL    HW2 9648   1.725   2.388  13.314
 3022SOL     OW 9649   0.685   2.874  13.699
 3022SOL    HW1 9650   0.754   2.858  13.769
 3022SOL    HW2 9651   0.612   2.931  13.737
 3023SOL     OW 9652   1.603   2.309  13.771
 3023SOL    HW1 9653   1.529   2.355  13.721
 3023SOL    HW2 9654   1.654   2.377  13.824
 3024SOL     OW 9655   0.231   3.575  13.517
 3024SOL    HW1 9656   0.265   3.652  13.571
 3024SOL    HW2 9657   0.275   3.575  13.427
 3025SOL     OW 9658   0.230   3.296  13.572
 3025SOL    HW1 9659   0.204   3.392  13.572
 3025SOL    HW2 9660   0.159   3.242  13.617
 3026SOL     OW 9661   0.240   2.953  13.920
 3026SOL    HW1 9662   0.254   2.869  13.972
 3026SOL    HW2 9663   0.185   3.017  13.975
 3027SOL     OW 9664   0.606   2.826  13.157
 3027SOL    HW1 9665   0.613   2.910  13.103
 3027SOL    HW2 9666   0.652   2.839  13.245
 3028SOL     OW 9667   0.122   2.505  13.597
 3028SOL    HW1 9668   0.077   2.417  13.614
 3028SOL    HW2 9669   0.121   2.559  13.681
 3029SOL     OW 9670   1.842   3.629  13.393
 3029SOL    HW1 9671   1.896   3.600  13.473
 3029SOL    HW2 9672   1.872   3.719  13.364
 3030SOL     OW 9673   0.027   3.458  13.151
 3030SOL    HW1 9674   0.008   3.362  13.172
 3030SOL    HW2 9675  -0.006   3.516  13.226
 3031SOL     OW 9676   1.689   2.784  13.646
 3031SOL    HW1 9677   1.784   2.755  13.654
 3031SOL    HW2 9678   1.681   2.849  13.571
 3032SOL     OW 9679   1.641   2.970  13.466
 3032SOL    HW1 9680   1.727   2.972  13.414
 3032SOL    HW2 9681   1.655   3.017  13.554
 3033SOL     OW 9682   0.613   3.227  13.760
 3033SOL    HW1 9683   0.564   3.140  13.769
 3033SOL    HW2 9684   0.590   3.270  13.673
 3034SOL     OW 9685   0.809   1.866  13.536
 3034SOL    HW1 9686   0.849   1.957  13.527
 3034SOL    HW2 9687   0.709   1.874  13.542
 3035SOL     OW 9688   1.525   2.861  13.224
 3035SOL    HW1 9689   1.462   2.785  13.237
 3035SOL    HW2 9690   1.573   2.879  13.310
 3036SOL     OW 9691   1.667   3.576  13.606
 3036SOL    HW1 9692   1.626   3.553  13.518
 3036SOL    HW2 9693   1.649   3.502  13.671
 3037SOL     OW 9694   0.598   2.591  13.304
 3037SOL    HW1 9695   0.622   2.660  13.236
 3037SOL    HW2 9696   0.520   2.624  13.358
 3038SOL     OW 9697   1.281   2.207  13.978
 3038SOL    HW1 9698   1.195   2.157  13.965
 3038SOL    HW2 9699   1.343   2.153  14.034
 3039SOL     OW 9700   1.576   3.524  13.341
 3039SOL    HW1 9701   1.665   3.570  13.344
 3039SOL    HW2 9702   1.555   3.500  13.246
 3040SOL     OW 9703   1.041   2.563  13.463
 3040SOL    HW1 9704   1.067   2.559  13.559
 3040SOL    HW2 9705   0.956   2.512  13.449
 3041SOL     OW 9706   0.076   2.673  13.823
 3041SOL    HW1 9707   0.175   2.661  13.832
 3041SOL    HW2 9708   0.052   2.768  13.844
 3042SOL     OW 9709   0.865   2.210  13.229
 3042SOL    HW1 9710   0.924   2.273  13.180
 3042SOL    HW2 9711   0.884   2.116  13.200
 3043SOL     OW 9712   1.362   3.006  13.579
 3043SOL    HW1 9713   1.445   2.977  13.531
 3043SOL    HW2 9714   1.313   3.073  13.523
 3044SOL     OW 9715   1.008   3.318  13.511
 3044SOL    HW1 9716   0.962   3.390  13.459
 3044SOL    HW2 9717   1.004   3.338  13.609
 3045SOL     OW 9718   0.351   3.663  13.887
 3045SOL    HW1 9719   0.401   3.577  13.893
 3045SOL    HW2 9720   0.416   3.740  13.884
 3046SOL     OW 9721   1.795   2.928  13.907
 3046SOL    HW1 9722   1.733   2.913  13.831
 3046SOL    HW2 9723   1.743   2.939  13.992
 3047SOL     OW 9724   0.321   2.805  13.276
 3047SOL    HW1 9725   0.403   2.844  13.234
 3047SOL    HW2 9726   0.294   2.723  13.227
 3048SOL     OW 9727   1.458   2.597  13.762
 3048SOL    HW1 9728   1.453   2.532  13.837
 3048SOL    HW2 9729   1.538   2.656  13.775
 3049SOL     OW 9730   1.111   3.638  13.271
 3049SOL    HW1 9731   1.051   3.576  13.321
 3049SOL    HW2 9732   1.142   3.594  13.186
 3050SOL     OW 9733   1.632   3.239  13.115
 3050SOL    HW1 9734   1.600   3.333  13.105
 3050SOL    HW2 9735   1.556   3.176  13.103
 3051SOL     OW 9736   0.464   3.605  13.357
 3051SOL    HW1 9737   0.497   3.644  13.443
 3051SOL    HW2 9738   0.540   3.598  13.292
 3052SOL     OW 9739   1.400   1.969  13.460
 3052SOL    HW1 9740   1.376   1.932  13.370
 3052SOL    HW2 9741   1.499   1.985  13.464
 3053SOL     OW 9742   0.940   3.560  13.938
 3053SOL    HW1 9743   1.020   3.503  13.959
 3053SOL    HW2 9744   0.891   3.520  13.861
 3054SOL     OW 9745   0.382   2.562  13.514
 3054SOL    HW1 9746   0.427   2.472  13.511
 3054SOL    HW2 9747   0.288   2.551  13.547
 3055SOL     OW 9748   0.614   1.984  13.151
 3055SOL    HW1 9749   0.712   1.962  13.158
 3055SOL    HW2 9750   0.583   1.967  13.058
 3056SOL     OW 9751   0.539   1.926  13.546
 3056SOL    HW1 9752   0.458   1.927  13.604
 3056SOL    HW2 9753   0.542   2.009  13.491
 3057SOL     OW 9754   1.434   3.050  13.075
 3057SOL    HW1 9755   1.466   2.974  13.132
 3057SOL    HW2 9756   1.342   3.077  13.105
 3058SOL     OW 9757   0.297   1.897  13.205
 3058SOL    HW1 9758   0.346   1.981  13.184
 3058SOL    HW2 9759   0.359   1.832  13.250
 3059SOL     OW 9760   0.935   2.098  13.514
 3059SOL    HW1 9761   0.887   2.139  13.436
 3059SOL    HW2 9762   1.034   2.096  13.495
 3060SOL     OW 9763   0.459   3.014  13.775
 3060SOL    HW1 9764   0.388   2.987  13.840
 3060SOL    HW2 9765   0.433   2.986  13.682
 3061SOL     OW 9766   1.271   3.659  13.625
 3061SOL    HW1 9767   1.315   3.723  13.561
 3061SOL    HW2 9768   1.221   3.711  13.695
 3062SOL     OW 9769   1.032   2.411  13.050
 3062SOL    HW1 9770   0.991   2.493  13.011
 3062SOL    HW2 9771   1.096   2.437  13.123
 3063SOL     OW 9772   0.866   2.316  13.676
 3063SOL    HW1 9773   0.834   2.388  13.614
 3063SOL    HW2 9774   0.890   2.235  13.623
 3064SOL     OW 9775   1.017   1.901  13.787
 3064SOL    HW1 9776   0.945   1.906  13.718
 3064SOL    HW2 9777   0.993   1.832  13.856
 3065SOL     OW 9778   1.857   2.695  13.411
 3065SOL    HW1 9779   1.899   2.631  13.475
 3065SOL    HW2 9780   1.819   2.644  13.333
 3066SOL     OW 9781   0.488   3.247  13.208
 3066SOL    HW1 9782   0.401   3.232  13.255
 3066SOL    HW2 9783   0.471   3.273  13.113
 3067SOL     OW 9784   1.664   3.142  13.691
 3067SOL    HW1 9785   1.763   3.150  13.705
 3067SOL    HW2 9786   1.619   3.226  13.722
 3068SOL     OW 9787   1.390   2.437  13.112
 3068SOL    HW1 9788   1.336   2.416  13.193
 3068SOL    HW2 9789   1.481   2.396  13.121
 3069SOL     OW 9790   0.527   2.118  13.362
 3069SOL    HW1 9791   0.554   2.059  13.287
 3069SOL    HW2 9792   0.527   2.213  13.331
 3070SOL     OW 9793   0.705   2.912  13.402
 3070SOL    HW1 9794   0.691   2.919  13.501
 3070SOL    HW2 9795   0.789   2.861  13.384
 3071SOL     OW 9796   0.367   2.962  13.535
 3071SOL    HW1 9797   0.360   3.045  13.479
 3071SOL    HW2 9798   0.371   2.882  13.475
 3072SOL     OW 9799   0.566   2.399  13.899
 3072SOL    HW1 9800   0.578   2.465  13.825
 3072SOL    HW2 9801   0.612   2.433  13.982
 3073SOL     OW 9802   1.252   3.210  13.422
 3073SOL    HW1 9803   1.302   3.287  13.462
 3073SOL    HW2 9804   1.157   3.212  13.454
 3074SOL     OW 9805   1.582   2.501  13.506
 3074SOL    HW1 9806   1.551   2.562  13.579
 3074SOL    HW2 9807   1.632   2.553  13.437
 3075SOL     OW 9808   1.209   2.387  13.309
 3075SOL    HW1 9809   1.222   2.303  13.363
 3075SOL    HW2 9810   1.180   2.461  13.369
 3076SOL     OW 9811   0.307   1.925  13.652
 3076SOL    HW1 9812   0.296   2.019  13.685
 3076SOL    HW2 9813   0.302   1.862  13.729
 3077SOL     OW 9814   1.622   2.229  13.408
 3077SOL    HW1 9815   1.624   2.153  13.472
 3077SOL    HW2 9816   1.574   2.306  13.448
 3078SOL     OW 9817   1.540   2.136  13.159
 3078SOL    HW1 9818   1.479   2.061  13.182
 3078SOL    HW2 9819   1.562   2.188  13.242
 3079SOL     OW 9820   1.303   2.700  13.076
 3079SOL    HW1 9821   1.337   2.607  13.091
 3079SOL    HW2 9822   1.321   2.727  12.981
 3080SOL     OW 9823   0.008   3.188  13.234
 3080SOL    HW1 9824  -0.085   3.209  13.203
 3080SOL    HW2 9825   0.018   3.089  13.247
 3081SOL     OW 9826   0.815   2.434  13.359
 3081SOL    HW1 9827   0.822   2.345  13.313
 3081SOL    HW2 9828   0.721   2.468  13.351
 3082SOL     OW 9829   0.473   2.362  13.225
 3082SOL    HW1 9830   0.534   2.442  13.229
 3082SOL    HW2 9831   0.378   2.393  13.232
 3083SOL     OW 9832   1.302   2.717  13.343
 3083SOL    HW1 9833   1.216   2.686  13.385
 3083SOL    HW2 9834   1.298   2.703  13.244
 3084SOL     OW 9835   1.726   1.997  13.557
 3084SOL    HW1 9836   1.799   1.980  13.490
 3084SOL    HW2 9837   1.695   1.910  13.595
 3085SOL     OW 9838   1.388   3.435  13.511
 3085SOL    HW1 9839   1.455   3.447  13.437
 3085SOL    HW2 9840   1.348   3.524  13.534
 3086SOL     OW 9841   1.280   2.789  13.706
 3086SOL    HW1 9842   1.340   2.708  13.708
 3086SOL    HW2 9843   1.320   2.858  13.646
 3087SOL     OW 9844   0.672   3.478  13.188
 3087SOL    HW1 9845   0.681   3.488  13.089
 3087SOL    HW2 9846   0.632   3.389  13.209
 3088SOL     OW 9847   0.263   2.188  13.754
 3088SOL    HW1 9848   0.184   2.239  13.720
 3088SOL    HW2 9849   0.254   2.173  13.852
 3089SOL     OW 9850   1.194   3.474  13.065
 3089SOL    HW1 9851   1.200   3.381  13.102
 3089SOL    HW2 9852   1.135   3.474  12.985
 3090SOL     OW 9853   0.916   2.772  13.325
 3090SOL    HW1 9854   0.979   2.810  13.257
 3090SOL    HW2 9855   0.956   2.689  13.364
 3091SOL     OW 9856   1.504   3.469  13.078
 3091SOL    HW1 9857   1.412   3.506  13.085
 3091SOL    HW2 9858   1.542   3.489  12.988
 3092SOL     OW 9859   1.039   2.960  13.730
 3092SOL    HW1 9860   0.969   2.913  13.784
 3092SOL    HW2 9861   1.098   2.892  13.687
 3093SOL     OW 9862   0.590   3.349  13.525
 3093SOL    HW1 9863   0.632   3.291  13.455
 3093SOL    HW2 9864   0.546   3.428  13.481
 3094SOL     OW 9865   0.255   3.210  13.324
 3094SOL    HW1 9866   0.159   3.211  13.297
 3094SOL    HW2 9867   0.267   3.263  13.408
 3095SOL     OW 9868   0.075   2.207  13.067
 3095SOL    HW1 9869  -0.017   2.179  13.038
 3095SOL    HW2 9870   0.106   2.284  13.011
 3096SOL     OW 9871   0.072   2.028  13.352
 3096SOL    HW1 9872   0.055   2.111  13.298
 3096SOL    HW2 9873   0.162   1.991  13.330
 3097SOL     OW 9874   1.183   3.197  13.153
 3097SOL    HW1 9875   1.084   3.186  13.155
 3097SOL    HW2 9876   1.217   3.212  13.246
 3098SOL     OW 9877   1.225   2.187  13.483
 3098SOL    HW1 9878   1.290   2.113  13.472
 3098SOL    HW2 9879   1.245   2.237  13.567
 3099SOL     OW 9880   0.594   2.607  13.686
 3099SOL    HW1 9881   0.644   2.692  13.667
 3099SOL    HW2 9882   0.506   2.609  13.638
 3100SOL     OW 9883   0.859   3.236  13.050
 3100SOL    HW1 9884   0.813   3.251  13.138
 3100SOL    HW2 9885   0.903   3.321  13.020
 3101SOL     OW 9886   0.661   3.652  13.987
 3101SOL    HW1 9887   0.615   3.740  13.974
 3101SOL    HW2 9888   0.760   3.664  13.980
 3102SOL     OW 9889   0.859   2.818  13.895
 3102SOL    HW1 9890   0.913   2.749  13.943
 3102SOL    HW2 9891   0.827   2.887  13.961
 3103SOL     OW 9892   1.083   2.846  13.121
 3103SOL    HW1 9893   1.060   2.899  13.039
 3103SOL    HW2 9894   1.164   2.790  13.102
 3104SOL     OW 9895   0.079   3.102  13.687
 3104SOL    HW1 9896   0.078   3.055  13.775
 3104SOL    HW2 9897   0.161   3.074  13.636
 3105SOL     OW 9898   0.428   2.286  13.554
 3105SOL    HW1 9899   0.458   2.214  13.492
 3105SOL    HW2 9900   0.389   2.246  13.637
 3106SOL     OW 9901   1.705   3.349  14.138
 3106SOL    HW1 9902   1.612   3.324  14.111
 3106SOL    HW2 9903   1.731   3.299  14.220
 3107SOL     OW 9904   0.812   3.448  13.721
 3107SOL    HW1 9905   0.844   3.458  13.627
 3107SOL    HW2 9906   0.733   3.386  13.723
 3108SOL     OW 9907   0.770   3.192  13.335
 3108SOL    HW1 9908   0.724   3.105  13.352
 3108SOL    HW2 9909   0.861   3.189  13.376
 3109SOL     OW 9910   1.352   1.914  13.202
 3109SOL    HW1 9911   1.387   1.873  13.118
 3109SOL    HW2 9912   1.262   1.876  13.222
 3110SOL     OW 9913   1.300   2.315  13.725
 3110SOL    HW1 9914   1.241   2.395  13.729
 3110SOL    HW2 9915   1.315   2.280  13.818
 3111SOL     OW 9916   0.039   2.939  13.334
 3111SOL    HW1 9917   0.138   2.928  13.325
 3111SOL    HW2 9918  -0.001   2.853  13.366
 3112SOL     OW 9919   0.875   3.508  13.371
 3112SOL    HW1 9920   0.798   3.473  13.317
 3112SOL    HW2 9921   0.843   3.579  13.433
 3113SOL     OW 9922   0.225   3.999   0.996
 3113SOL    HW1 9923   0.260   3.982   1.088
 3113SOL    HW2 9924   0.137   3.954   0.984
 3114SOL     OW 9925   0.019   4.092   0.647
 3114SOL    HW1 9926  -0.063   4.135   0.686
 3114SOL    HW2 9927  -0.009   4.019   0.584
 3115SOL     OW 9928   1.755   4.331   0.231
 3115SOL    HW1 9929   1.743   4.318   0.132
 3115SOL    HW2 9930   1.725   4.250   0.280
 3116SOL     OW 9931   0.438   4.116   1.499
 3116SOL    HW1 9932   0.520   4.060   1.508
 3116SOL    HW2 9933   0.357   4.058   1.503
 3117SOL     OW 9934   1.594   3.838   1.480
 3117SOL    HW1 9935   1.576   3.905   1.408
 3117SOL    HW2 9936   1.591   3.884   1.569
 3118SOL     OW 9937   0.809   3.728   0.502
 3118SOL    HW1 9938   0.849   3.819   0.493
 3118SOL    HW2 9939   0.709   3.736   0.508
 3119SOL     OW 9940   1.281   4.069   0.944
 3119SOL    HW1 9941   1.195   4.019   0.931
 3119SOL    HW2 9942   1.343   4.015   1.000
 3120SOL     OW 9943   0.550   3.920   0.885
 3120SOL    HW1 9944   0.545   3.915   0.985
 3120SOL    HW2 9945   0.552   4.016   0.856
 3121SOL     OW 9946   0.202   4.009   1.498
 3121SOL    HW1 9947   0.122   4.069   1.485
 3121SOL    HW2 9948   0.192   3.960   1.584
 3122SOL     OW 9949   1.400   3.831   0.426
 3122SOL    HW1 9950   1.376   3.794   0.336
 3122SOL    HW2 9951   1.499   3.847   0.430
 3123SOL     OW 9952   1.547   3.946   1.729
 3123SOL    HW1 9953   1.542   3.983   1.821
 3123SOL    HW2 9954   1.475   3.877   1.717
 3124SOL     OW 9955   0.781   3.988   1.749
 3124SOL    HW1 9956   0.848   3.927   1.792
 3124SOL    HW2 9957   0.708   4.007   1.814
 3125SOL     OW 9958   0.539   3.788   0.512
 3125SOL    HW1 9959   0.458   3.789   0.570
 3125SOL    HW2 9960   0.542   3.871   0.457
 3126SOL     OW 9961   0.297   3.759   0.171
 3126SOL    HW1 9962   0.346   3.843   0.150
 3126SOL    HW2 9963   0.359   3.694   0.216
 3127SOL     OW 9964   0.561   3.946   1.147
 3127SOL    HW1 9965   0.599   3.862   1.184
 3127SOL    HW2 9966   0.473   3.965   1.191
 3128SOL     OW 9967   1.017   3.763   0.753
 3128SOL    HW1 9968   0.945   3.768   0.684
 3128SOL    HW2 9969   0.993   3.694   0.822
 3129SOL     OW 9970   0.915   3.813   1.402
 3129SOL    HW1 9971   0.940   3.793   1.307
 3129SOL    HW2 9972   0.987   3.869   1.444
 3130SOL     OW 9973   1.274   4.110   1.262
 3130SOL    HW1 9974   1.295   4.184   1.326
 3130SOL    HW2 9975   1.185   4.127   1.219
 3131SOL     OW 9976   0.504   3.774   1.740
 3131SOL    HW1 9977   0.462   3.717   1.670
 3131SOL    HW2 9978   0.438   3.843   1.772
 3132SOL     OW 9979   0.307   3.937   1.231
 3132SOL    HW1 9980   0.284   3.974   1.321
 3132SOL    HW2 9981   0.277   3.842   1.225
 3133SOL     OW 9982   1.540   3.998   0.125
 3133SOL    HW1 9983   1.479   3.923   0.148
 3133SOL    HW2 9984   1.562   4.050   0.208
 3134SOL     OW 9985   1.160   3.931   1.477
 3134SOL    HW1 9986   1.160   3.995   1.554
 3134SOL    HW2 9987   1.188   3.979   1.394
 3135SOL     OW 9988   0.903   3.810   0.133
 3135SOL    HW1 9989   0.954   3.811   0.047
 3135SOL    HW2 9990   0.959   3.768   0.204
 3136SOL     OW 9991   1.726   3.859   0.523
 3136SOL    HW1 9992   1.799   3.842   0.456
 3136SOL    HW2 9993   1.695   3.772   0.561
 3137SOL     OW 9994   1.841   3.899   0.963
 3137SOL    HW1 9995   1.880   3.814   0.927
 3137SOL    HW2 9996   1.743   3.901   0.944
 3138SOL     OW 9997   0.672   3.927   1.489
 3138SOL    HW1 9998   0.762   3.911   1.449
 3138SOL    HW2 9999   0.680   3.932   1.588
 3139SOL     OW10000   0.075   4.069   0.033
 3139SOL    HW110001  -0.017   4.041   0.004
 3139SOL    HW210002   0.106   4.146  -0.023
 3140SOL     OW10003   0.072   3.890   0.318
 3140SOL    HW110004   0.055   3.973   0.264
 3140SOL    HW210005   0.162   3.853   0.296
 3141SOL     OW10006   1.225   4.049   0.449
 3141SOL    HW110007   1.290   3.975   0.438
 3141SOL    HW210008   1.245   4.099   0.533
 3142SOL     OW10009   1.777   4.066   1.642
 3142SOL    HW110010   1.760   4.097   1.548
 3142SOL    HW210011   1.693   4.029   1.680
 3143SOL     OW10012   1.824   3.916   1.227
 3143SOL    HW110013   1.820   3.826   1.271
 3143SOL    HW210014   1.827   3.905   1.128
 3144SOL     OW10015   1.424   3.938   1.112
 3144SOL    HW110016   1.476   3.873   1.167
 3144SOL    HW210017   1.375   4.001   1.173
 3145SOL     OW10018   1.001   3.758   1.154
 3145SOL    HW110019   0.938   3.686   1.123
 3145SOL    HW210020   1.094   3.722   1.154
 3146SOL     OW10021   1.352   3.776   0.168
 3146SOL    HW110022   1.387   3.735   0.084
 3146SOL    HW210023   1.262   3.738   0.188
 3147SOL     OW10024   1.300   4.177   0.691
 3147SOL    HW110025   1.241   4.257   0.695
 3147SOL    HW210026   1.315   4.142   0.784
 3148SOL     OW10027   1.593   3.945   0.882
 3148SOL    HW110028   1.509   3.944   0.936
 3148SOL    HW210029   1.595   4.028   0.826
 3149SOL     OW10030   0.225   3.999   2.858
 3149SOL    HW110031   0.260   3.982   2.950
 3149SOL    HW210032   0.137   3.954   2.846
 3150SOL     OW10033   0.019   4.092   2.509
 3150SOL    HW110034  -0.063   4.135   2.548
 3150SOL    HW210035  -0.009   4.019   2.446
 3151SOL     OW10036   1.755   4.331   2.093
 3151SOL    HW110037   1.743   4.318   1.994
 3151SOL    HW210038   1.725   4.250   2.142
 3152SOL     OW10039   0.438   4.116   3.361
 3152SOL    HW110040   0.520   4.060   3.370
 3152SOL    HW210041   0.357   4.058   3.365
 3153SOL     OW10042   1.594   3.838   3.342
 3153SOL    HW110043   1.576   3.905   3.270
 3153SOL    HW210044   1.591   3.884   3.431
 3154SOL     OW10045   0.809   3.728   2.364
 3154SOL    HW110046   0.849   3.819   2.355
 3154SOL    HW210047   0.709   3.736   2.370
 3155SOL     OW10048   1.281   4.069   2.806
 3155SOL    HW110049   1.195   4.019   2.793
 3155SOL    HW210050   1.343   4.015   2.862
 3156SOL     OW10051   0.550   3.920   2.747
 3156SOL    HW110052   0.545   3.915   2.847
 3156SOL    HW210053   0.552   4.016   2.718
 3157SOL     OW10054   0.202   4.009   3.360
 3157SOL    HW110055   0.122   4.069   3.347
 3157SOL    HW210056   0.192   3.960   3.446
 3158SOL     OW10057   1.400   3.831   2.288
 3158SOL    HW110058   1.376   3.794   2.198
 3158SOL    HW210059   1.499   3.847   2.292
 3159SOL     OW10060   1.547   3.946   3.591
 3159SOL    HW110061   1.542   3.983   3.683
 3159SOL    HW210062   1.475   3.877   3.579
 3160SOL     OW10063   0.614   3.846   1.979
 3160SOL    HW110064   0.712   3.824   1.986
 3160SOL    HW210065   0.583   3.829   1.886
 3161SOL     OW10066   0.781   3.988   3.611
 3161SOL    HW110067   0.848   3.927   3.654
 3161SOL    HW210068   0.708   4.007   3.676
 3162SOL     OW10069   0.539   3.788   2.374
 3162SOL    HW110070   0.458   3.789   2.432
 3162SOL    HW210071   0.542   3.871   2.319
 3163SOL     OW10072   0.297   3.759   2.033
 3163SOL    HW110073   0.346   3.843   2.012
 3163SOL    HW210074   0.359   3.694   2.078
 3164SOL     OW10075   0.561   3.946   3.009
 3164SOL    HW110076   0.599   3.862   3.046
 3164SOL    HW210077   0.473   3.965   3.053
 3165SOL     OW10078   1.017   3.763   2.615
 3165SOL    HW110079   0.945   3.768   2.546
 3165SOL    HW210080   0.993   3.694   2.684
 3166SOL     OW10081   0.915   3.813   3.264
 3166SOL    HW110082   0.940   3.793   3.169
 3166SOL    HW210083   0.987   3.869   3.306
 3167SOL     OW10084   1.274   4.110   3.124
 3167SOL    HW110085   1.295   4.184   3.188
 3167SOL    HW210086   1.185   4.127   3.081
 3168SOL     OW10087   0.504   3.774   3.602
 3168SOL    HW110088   0.462   3.717   3.532
 3168SOL    HW210089   0.438   3.843   3.634
 3169SOL     OW10090   0.307   3.937   3.093
 3169SOL    HW110091   0.284   3.974   3.183
 3169SOL    HW210092   0.277   3.842   3.087
 3170SOL     OW10093   1.540   3.998   1.987
 3170SOL    HW110094   1.479   3.923   2.010
 3170SOL    HW210095   1.562   4.050   2.070
 3171SOL     OW10096   1.160   3.931   3.339
 3171SOL    HW110097   1.160   3.995   3.416
 3171SOL    HW210098   1.188   3.979   3.256
 3172SOL     OW10099   0.903   3.810   1.995
 3172SOL    HW110100   0.954   3.811   1.909
 3172SOL    HW210101   0.959   3.768   2.066
 3173SOL     OW10102   1.726   3.859   2.385
 3173SOL    HW110103   1.799   3.842   2.318
 3173SOL    HW210104   1.695   3.772   2.423
 3174SOL     OW10105   1.841   3.899   2.825
 3174SOL    HW110106   1.880   3.814   2.789
 3174SOL    HW210107   1.743   3.901   2.806
 3175SOL     OW10108   0.672   3.927   3.351
 3175SOL    HW110109   0.762   3.911   3.311
 3175SOL    HW210110   0.680   3.932   3.450
 3176SOL     OW10111   0.075   4.069   1.895
 3176SOL    HW110112  -0.017   4.041   1.866
 3176SOL    HW210113   0.106   4.146   1.839
 3177SOL     OW10114   0.072   3.890   2.180
 3177SOL    HW110115   0.055   3.973   2.126
 3177SOL    HW210116   0.162   3.853   2.158
 3178SOL     OW10117   1.225   4.049   2.311
 3178SOL    HW110118   1.290   3.975   2.300
 3178SOL    HW210119   1.245   4.099   2.395
 3179SOL     OW10120   1.777   4.066   3.504
 3179SOL    HW110121   1.760   4.097   3.410
 3179SOL    HW210122   1.693   4.029   3.542
 3180SOL     OW10123   1.824   3.916   3.089
 3180SOL    HW110124   1.820   3.826   3.133
 3180SOL    HW210125   1.827   3.905   2.990
 3181SOL     OW10126   1.424   3.938   2.974
 3181SOL    HW110127   1.476   3.873   3.029
 3181SOL    HW210128   1.375   4.001   3.035
 3182SOL     OW10129   1.001   3.758   3.016
 3182SOL    HW110130   0.938   3.686   2.985
 3182SOL    HW210131   1.094   3.722   3.016
 3183SOL     OW10132   1.352   3.776   2.030
 3183SOL    HW110133   1.387   3.735   1.946
 3183SOL    HW210134   1.262   3.738   2.050
 3184SOL     OW10135   1.300   4.177   2.553
 3184SOL    HW110136   1.241   4.257   2.557
 3184SOL    HW210137   1.315   4.142   2.646
 3185SOL     OW10138   1.593   3.945   2.744
 3185SOL    HW110139   1.509   3.944   2.798
 3185SOL    HW210140   1.595   4.028   2.688
 3186SOL     OW10141   0.225   3.999   4.720
 3186SOL    HW110142   0.260   3.982   4.812
 3186SOL    HW210143   0.137   3.954   4.708
 3187SOL     OW10144   0.019   4.092   4.371
 3187SOL    HW110145  -0.063   4.135   4.410
 3187SOL    HW210146  -0.009   4.019   4.308
 3188SOL     OW10147   1.755   4.331   3.955
 3188SOL    HW110148   1.743   4.318   3.856
 3188SOL    HW210149   1.725   4.250   4.004
 3189SOL     OW10150   0.438   4.116   5.223
 3189SOL    HW110151   0.520   4.060   5.232
 3189SOL    HW210152   0.357   4.058   5.227
 3190SOL     OW10153   1.594   3.838   5.204
 3190SOL    HW110154   1.576   3.905   5.132
 3190SOL    HW210155   1.591   3.884   5.293
 3191SOL     OW10156   0.809   3.728   4.226
 3191SOL    HW110157   0.849   3.819   4.217
 3191SOL    HW210158   0.709   3.736   4.232
 3192SOL     OW10159   1.281   4.069   4.668
 3192SOL    HW110160   1.195   4.019   4.655
 3192SOL    HW210161   1.343   4.015   4.724
 3193SOL     OW10162   0.550   3.920   4.609
 3193SOL    HW110163   0.545   3.915   4.709
 3193SOL    HW210164   0.552   4.016   4.580
 3194SOL     OW10165   0.202   4.009   5.222
 3194SOL    HW110166   0.122   4.069   5.209
 3194SOL    HW210167   0.192   3.960   5.308
 3195SOL     OW10168   1.400   3.831   4.150
 3195SOL    HW110169   1.376   3.794   4.060
 3195SOL    HW210170   1.499   3.847   4.154
 3196SOL     OW10171   1.547   3.946   5.453
 3196SOL    HW110172   1.542   3.983   5.545
 3196SOL    HW210173   1.475   3.877   5.441
 3197SOL     OW10174   0.614   3.846   3.841
 3197SOL    HW110175   0.712   3.824   3.848
 3197SOL    HW210176   0.583   3.829   3.748
 3198SOL     OW10177   0.781   3.988   5.473
 3198SOL    HW110178   0.848   3.927   5.516
 3198SOL    HW210179   0.708   4.007   5.538
 3199SOL     OW10180   0.539   3.788   4.236
 3199SOL    HW110181   0.458   3.789   4.294
 3199SOL    HW210182   0.542   3.871   4.181
 3200SOL     OW10183   0.297   3.759   3.895
 3200SOL    HW110184   0.346   3.843   3.874
 3200SOL    HW210185   0.359   3.694   3.940
 3201SOL     OW10186   0.561   3.946   4.871
 3201SOL    HW110187   0.599   3.862   4.908
 3201SOL    HW210188   0.473   3.965   4.915
 3202SOL     OW10189   1.017   3.763   4.477
 3202SOL    HW110190   0.945   3.768   4.408
 3202SOL    HW210191   0.993   3.694   4.546
 3203SOL     OW10192   0.915   3.813   5.126
 3203SOL    HW110193   0.940   3.793   5.031
 3203SOL    HW210194   0.987   3.869   5.168
 3204SOL     OW10195   1.274   4.110   4.986
 3204SOL    HW110196   1.295   4.184   5.050
 3204SOL    HW210197   1.185   4.127   4.943
 3205SOL     OW10198   0.504   3.774   5.464
 3205SOL    HW110199   0.462   3.717   5.394
 3205SOL    HW210200   0.438   3.843   5.496
 3206SOL     OW10201   0.307   3.937   4.955
 3206SOL    HW110202   0.284   3.974   5.045
 3206SOL    HW210203   0.277   3.842   4.949
 3207SOL     OW10204   1.540   3.998   3.849
 3207SOL    HW110205   1.479   3.923   3.872
 3207SOL    HW210206   1.562   4.050   3.932
 3208SOL     OW10207   1.160   3.931   5.201
 3208SOL    HW110208   1.160   3.995   5.278
 3208SOL    HW210209   1.188   3.979   5.118
 3209SOL     OW10210   0.903   3.810   3.857
 3209SOL    HW110211   0.954   3.811   3.771
 3209SOL    HW210212   0.959   3.768   3.928
 3210SOL     OW10213   1.726   3.859   4.247
 3210SOL    HW110214   1.799   3.842   4.180
 3210SOL    HW210215   1.695   3.772   4.285
 3211SOL     OW10216   1.841   3.899   4.687
 3211SOL    HW110217   1.880   3.814   4.651
 3211SOL    HW210218   1.743   3.901   4.668
 3212SOL     OW10219   0.672   3.927   5.213
 3212SOL    HW110220   0.762   3.911   5.173
 3212SOL    HW210221   0.680   3.932   5.312
 3213SOL     OW10222   0.075   4.069   3.757
 3213SOL    HW110223  -0.017   4.041   3.728
 3213SOL    HW210224   0.106   4.146   3.701
 3214SOL     OW10225   0.072   3.890   4.042
 3214SOL    HW110226   0.055   3.973   3.988
 3214SOL    HW210227   0.162   3.853   4.020
 3215SOL     OW10228   1.225   4.049   4.173
 3215SOL    HW110229   1.290   3.975   4.162
 3215SOL    HW210230   1.245   4.099   4.257
 3216SOL     OW10231   1.777   4.066   5.366
 3216SOL    HW110232   1.760   4.097   5.272
 3216SOL    HW210233   1.693   4.029   5.404
 3217SOL     OW10234   1.824   3.916   4.951
 3217SOL    HW110235   1.820   3.826   4.995
 3217SOL    HW210236   1.827   3.905   4.852
 3218SOL     OW10237   1.424   3.938   4.836
 3218SOL    HW110238   1.476   3.873   4.891
 3218SOL    HW210239   1.375   4.001   4.897
 3219SOL     OW10240   1.001   3.758   4.878
 3219SOL    HW110241   0.938   3.686   4.847
 3219SOL    HW210242   1.094   3.722   4.878
 3220SOL     OW10243   1.352   3.776   3.892
 3220SOL    HW110244   1.387   3.735   3.808
 3220SOL    HW210245   1.262   3.738   3.912
 3221SOL     OW10246   1.300   4.177   4.415
 3221SOL    HW110247   1.241   4.257   4.419
 3221SOL    HW210248   1.315   4.142   4.508
 3222SOL     OW10249   1.593   3.945   4.606
 3222SOL    HW110250   1.509   3.944   4.660
 3222SOL    HW210251   1.595   4.028   4.550
 3223SOL     OW10252   0.225   3.999   6.582
 3223SOL    HW110253   0.260   3.982   6.674
 3223SOL    HW210254   0.137   3.954   6.570
 3224SOL     OW10255   0.019   4.092   6.233
 3224SOL    HW110256  -0.063   4.135   6.272
 3224SOL    HW210257  -0.009   4.019   6.170
 3225SOL     OW10258   1.755   4.331   5.817
 3225SOL    HW110259   1.743   4.318   5.718
 3225SOL    HW210260   1.725   4.250   5.866
 3226SOL     OW10261   0.438   4.116   7.085
 3226SOL    HW110262   0.520   4.060   7.094
 3226SOL    HW210263   0.357   4.058   7.089
 3227SOL     OW10264   1.594   3.838   7.066
 3227SOL    HW110265   1.576   3.905   6.994
 3227SOL    HW210266   1.591   3.884   7.155
 3228SOL     OW10267   0.809   3.728   6.088
 3228SOL    HW110268   0.849   3.819   6.079
 3228SOL    HW210269   0.709   3.736   6.094
 3229SOL     OW10270   1.281   4.069   6.530
 3229SOL    HW110271   1.195   4.019   6.517
 3229SOL    HW210272   1.343   4.015   6.586
 3230SOL     OW10273   0.550   3.920   6.471
 3230SOL    HW110274   0.545   3.915   6.571
 3230SOL    HW210275   0.552   4.016   6.442
 3231SOL     OW10276   0.202   4.009   7.084
 3231SOL    HW110277   0.122   4.069   7.071
 3231SOL    HW210278   0.192   3.960   7.170
 3232SOL     OW10279   1.400   3.831   6.012
 3232SOL    HW110280   1.376   3.794   5.922
 3232SOL    HW210281   1.499   3.847   6.016
 3233SOL     OW10282   1.547   3.946   7.315
 3233SOL    HW110283   1.542   3.983   7.407
 3233SOL    HW210284   1.475   3.877   7.303
 3234SOL     OW10285   0.614   3.846   5.703
 3234SOL    HW110286   0.712   3.824   5.710
 3234SOL    HW210287   0.583   3.829   5.610
 3235SOL     OW10288   0.781   3.988   7.335
 3235SOL    HW110289   0.848   3.927   7.378
 3235SOL    HW210290   0.708   4.007   7.400
 3236SOL     OW10291   0.539   3.788   6.098
 3236SOL    HW110292   0.458   3.789   6.156
 3236SOL    HW210293   0.542   3.871   6.043
 3237SOL     OW10294   0.297   3.759   5.757
 3237SOL    HW110295   0.346   3.843   5.736
 3237SOL    HW210296   0.359   3.694   5.802
 3238SOL     OW10297   0.561   3.946   6.733
 3238SOL    HW110298   0.599   3.862   6.770
 3238SOL    HW210299   0.473   3.965   6.777
 3239SOL     OW10300   1.017   3.763   6.339
 3239SOL    HW110301   0.945   3.768   6.270
 3239SOL    HW210302   0.993   3.694   6.408
 3240SOL     OW10303   0.915   3.813   6.988
 3240SOL    HW110304   0.940   3.793   6.893
 3240SOL    HW210305   0.987   3.869   7.030
 3241SOL     OW10306   1.274   4.110   6.848
 3241SOL    HW110307   1.295   4.184   6.912
 3241SOL    HW210308   1.185   4.127   6.805
 3242SOL     OW10309   0.504   3.774   7.326
 3242SOL    HW110310   0.462   3.717   7.256
 3242SOL    HW210311   0.438   3.843   7.358
 3243SOL     OW10312   0.307   3.937   6.817
 3243SOL    HW110313   0.284   3.974   6.907
 3243SOL    HW210314   0.277   3.842   6.811
 3244SOL     OW10315   1.540   3.998   5.711
 3244SOL    HW110316   1.479   3.923   5.734
 3244SOL    HW210317   1.562   4.050   5.794
 3245SOL     OW10318   1.160   3.931   7.063
 3245SOL    HW110319   1.160   3.995   7.140
 3245SOL    HW210320   1.188   3.979   6.980
 3246SOL     OW10321   0.903   3.810   5.719
 3246SOL    HW110322   0.954   3.811   5.633
 3246SOL    HW210323   0.959   3.768   5.790
 3247SOL     OW10324   1.726   3.859   6.109
 3247SOL    HW110325   1.799   3.842   6.042
 3247SOL    HW210326   1.695   3.772   6.147
 3248SOL     OW10327   1.841   3.899   6.549
 3248SOL    HW110328   1.880   3.814   6.513
 3248SOL    HW210329   1.743   3.901   6.530
 3249SOL     OW10330   0.672   3.927   7.075
 3249SOL    HW110331   0.762   3.911   7.035
 3249SOL    HW210332   0.680   3.932   7.174
 3250SOL     OW10333   0.075   4.069   5.619
 3250SOL    HW110334  -0.017   4.041   5.590
 3250SOL    HW210335   0.106   4.146   5.563
 3251SOL     OW10336   0.072   3.890   5.904
 3251SOL    HW110337   0.055   3.973   5.850
 3251SOL    HW210338   0.162   3.853   5.882
 3252SOL     OW10339   1.225   4.049   6.035
 3252SOL    HW110340   1.290   3.975   6.024
 3252SOL    HW210341   1.245   4.099   6.119
 3253SOL     OW10342   1.777   4.066   7.228
 3253SOL    HW110343   1.760   4.097   7.134
 3253SOL    HW210344   1.693   4.029   7.266
 3254SOL     OW10345   1.824   3.916   6.813
 3254SOL    HW110346   1.820   3.826   6.857
 3254SOL    HW210347   1.827   3.905   6.714
 3255SOL     OW10348   1.424   3.938   6.698
 3255SOL    HW110349   1.476   3.873   6.753
 3255SOL    HW210350   1.375   4.001   6.759
 3256SOL     OW10351   1.001   3.758   6.740
 3256SOL    HW110352   0.938   3.686   6.709
 3256SOL    HW210353   1.094   3.722   6.740
 3257SOL     OW10354   1.352   3.776   5.754
 3257SOL    HW110355   1.387   3.735   5.670
 3257SOL    HW210356   1.262   3.738   5.774
 3258SOL     OW10357   1.300   4.177   6.277
 3258SOL    HW110358   1.241   4.257   6.281
 3258SOL    HW210359   1.315   4.142   6.370
 3259SOL     OW10360   1.593   3.945   6.468
 3259SOL    HW110361   1.509   3.944   6.522
 3259SOL    HW210362   1.595   4.028   6.412
 3260SOL     OW10363   0.225   3.999   8.444
 3260SOL    HW110364   0.260   3.982   8.536
 3260SOL    HW210365   0.137   3.954   8.432
 3261SOL     OW10366   0.019   4.092   8.095
 3261SOL    HW110367  -0.063   4.135   8.134
 3261SOL    HW210368  -0.009   4.019   8.032
 3262SOL     OW10369   1.755   4.331   7.679
 3262SOL    HW110370   1.743   4.318   7.580
 3262SOL    HW210371   1.725   4.250   7.728
 3263SOL     OW10372   0.438   4.116   8.947
 3263SOL    HW110373   0.520   4.060   8.956
 3263SOL    HW210374   0.357   4.058   8.951
 3264SOL     OW10375   1.594   3.838   8.928
 3264SOL    HW110376   1.576   3.905   8.856
 3264SOL    HW210377   1.591   3.884   9.017
 3265SOL     OW10378   0.809   3.728   7.950
 3265SOL    HW110379   0.849   3.819   7.941
 3265SOL    HW210380   0.709   3.736   7.956
 3266SOL     OW10381   1.281   4.069   8.392
 3266SOL    HW110382   1.195   4.019   8.379
 3266SOL    HW210383   1.343   4.015   8.448
 3267SOL     OW10384   0.550   3.920   8.333
 3267SOL    HW110385   0.545   3.915   8.433
 3267SOL    HW210386   0.552   4.016   8.304
 3268SOL     OW10387   0.202   4.009   8.946
 3268SOL    HW110388   0.122   4.069   8.933
 3268SOL    HW210389   0.192   3.960   9.032
 3269SOL     OW10390   1.400   3.831   7.874
 3269SOL    HW110391   1.376   3.794   7.784
 3269SOL    HW210392   1.499   3.847   7.878
 3270SOL     OW10393   1.547   3.946   9.177
 3270SOL    HW110394   1.542   3.983   9.269
 3270SOL    HW210395   1.475   3.877   9.165
 3271SOL     OW10396   0.614   3.846   7.565
 3271SOL    HW110397   0.712   3.824   7.572
 3271SOL    HW210398   0.583   3.829   7.472
 3272SOL     OW10399   0.781   3.988   9.197
 3272SOL    HW110400   0.848   3.927   9.240
 3272SOL    HW210401   0.708   4.007   9.262
 3273SOL     OW10402   0.539   3.788   7.960
 3273SOL    HW110403   0.458   3.789   8.018
 3273SOL    HW210404   0.542   3.871   7.905
 3274SOL     OW10405   0.297   3.759   7.619
 3274SOL    HW110406   0.346   3.843   7.598
 3274SOL    HW210407   0.359   3.694   7.664
 3275SOL     OW10408   0.561   3.946   8.595
 3275SOL    HW110409   0.599   3.862   8.632
 3275SOL    HW210410   0.473   3.965   8.639
 3276SOL     OW10411   1.017   3.763   8.201
 3276SOL    HW110412   0.945   3.768   8.132
 3276SOL    HW210413   0.993   3.694   8.270
 3277SOL     OW10414   0.915   3.813   8.850
 3277SOL    HW110415   0.940   3.793   8.755
 3277SOL    HW210416   0.987   3.869   8.892
 3278SOL     OW10417   1.274   4.110   8.710
 3278SOL    HW110418   1.295   4.184   8.774
 3278SOL    HW210419   1.185   4.127   8.667
 3279SOL     OW10420   0.504   3.774   9.188
 3279SOL    HW110421   0.462   3.717   9.118
 3279SOL    HW210422   0.438   3.843   9.220
 3280SOL     OW10423   0.307   3.937   8.679
 3280SOL    HW110424   0.284   3.974   8.769
 3280SOL    HW210425   0.277   3.842   8.673
 3281SOL     OW10426   1.540   3.998   7.573
 3281SOL    HW110427   1.479   3.923   7.596
 3281SOL    HW210428   1.562   4.050   7.656
 3282SOL     OW10429   1.160   3.931   8.925
 3282SOL    HW110430   1.160   3.995   9.002
 3282SOL    HW210431   1.188   3.979   8.842
 3283SOL     OW10432   0.903   3.810   7.581
 3283SOL    HW110433   0.954   3.811   7.495
 3283SOL    HW210434   0.959   3.768   7.652
 3284SOL     OW10435   1.726   3.859   7.971
 3284SOL    HW110436   1.799   3.842   7.904
 3284SOL    HW210437   1.695   3.772   8.009
 3285SOL     OW10438   1.841   3.899   8.411
 3285SOL    HW110439   1.880   3.814   8.375
 3285SOL    HW210440   1.743   3.901   8.392
 3286SOL     OW10441   0.672   3.927   8.937
 3286SOL    HW110442   0.762   3.911   8.897
 3286SOL    HW210443   0.680   3.932   9.036
 3287SOL     OW10444   0.075   4.069   7.481
 3287SOL    HW110445  -0.017   4.041   7.452
 3287SOL    HW210446   0.106   4.146   7.425
 3288SOL     OW10447   0.072   3.890   7.766
 3288SOL    HW110448   0.055   3.973   7.712
 3288SOL    HW210449   0.162   3.853   7.744
 3289SOL     OW10450   1.225   4.049   7.897
 3289SOL    HW110451   1.290   3.975   7.886
 3289SOL    HW210452   1.245   4.099   7.981
 3290SOL     OW10453   1.777   4.066   9.090
 3290SOL    HW110454   1.760   4.097   8.996
 3290SOL    HW210455   1.693   4.029   9.128
 3291SOL     OW10456   1.824   3.916   8.675
 3291SOL    HW110457   1.820   3.826   8.719
 3291SOL    HW210458   1.827   3.905   8.576
 3292SOL     OW10459   1.424   3.938   8.560
 3292SOL    HW110460   1.476   3.873   8.615
 3292SOL    HW210461   1.375   4.001   8.621
 3293SOL     OW10462   1.001   3.758   8.602
 3293SOL    HW110463   0.938   3.686   8.571
 3293SOL    HW210464   1.094   3.722   8.602
 3294SOL     OW10465   1.352   3.776   7.616
 3294SOL    HW110466   1.387   3.735   7.532
 3294SOL    HW210467   1.262   3.738   7.636
 3295SOL     OW10468   1.300   4.177   8.139
 3295SOL    HW110469   1.241   4.257   8.143
 3295SOL    HW210470   1.315   4.142   8.232
 3296SOL     OW10471   1.593   3.945   8.330
 3296SOL    HW110472   1.509   3.944   8.384
 3296SOL    HW210473   1.595   4.028   8.274
 3297SOL     OW10474   0.225   3.999  10.306
 3297SOL    HW110475   0.260   3.982  10.398
 3297SOL    HW210476   0.137   3.954  10.294
 3298SOL     OW10477   0.019   4.092   9.957
 3298SOL    HW110478  -0.063   4.135   9.996
 3298SOL    HW210479  -0.009   4.019   9.894
 3299SOL     OW10480   1.755   4.331   9.541
 3299SOL    HW110481   1.743   4.318   9.442
 3299SOL    HW210482   1.725   4.250   9.590
 3300SOL     OW10483   0.438   4.116  10.809
 3300SOL    HW110484   0.520   4.060  10.818
 3300SOL    HW210485   0.357   4.058  10.813
 3301SOL     OW10486   1.594   3.838  10.790
 3301SOL    HW110487   1.576   3.905  10.718
 3301SOL    HW210488   1.591   3.884  10.879
 3302SOL     OW10489   0.809   3.728   9.812
 3302SOL    HW110490   0.849   3.819   9.803
 3302SOL    HW210491   0.709   3.736   9.818
 3303SOL     OW10492   1.281   4.069  10.254
 3303SOL    HW110493   1.195   4.019  10.241
 3303SOL    HW210494   1.343   4.015  10.310
 3304SOL     OW10495   0.550   3.920  10.195
 3304SOL    HW110496   0.545   3.915  10.295
 3304SOL    HW210497   0.552   4.016  10.166
 3305SOL     OW10498   0.202   4.009  10.808
 3305SOL    HW110499   0.122   4.069  10.795
 3305SOL    HW210500   0.192   3.960  10.894
 3306SOL     OW10501   1.400   3.831   9.736
 3306SOL    HW110502   1.376   3.794   9.646
 3306SOL    HW210503   1.499   3.847   9.740
 3307SOL     OW10504   1.547   3.946  11.039
 3307SOL    HW110505   1.542   3.983  11.131
 3307SOL    HW210506   1.475   3.877  11.027
 3308SOL     OW10507   0.614   3.846   9.427
 3308SOL    HW110508   0.712   3.824   9.434
 3308SOL    HW210509   0.583   3.829   9.334
 3309SOL     OW10510   0.781   3.988  11.059
 3309SOL    HW110511   0.848   3.927  11.102
 3309SOL    HW210512   0.708   4.007  11.124
 3310SOL     OW10513   0.539   3.788   9.822
 3310SOL    HW110514   0.458   3.789   9.880
 3310SOL    HW210515   0.542   3.871   9.767
 3311SOL     OW10516   0.297   3.759   9.481
 3311SOL    HW110517   0.346   3.843   9.460
 3311SOL    HW210518   0.359   3.694   9.526
 3312SOL     OW10519   0.561   3.946  10.457
 3312SOL    HW110520   0.599   3.862  10.494
 3312SOL    HW210521   0.473   3.965  10.501
 3313SOL     OW10522   1.017   3.763  10.063
 3313SOL    HW110523   0.945   3.768   9.994
 3313SOL    HW210524   0.993   3.694  10.132
 3314SOL     OW10525   0.915   3.813  10.712
 3314SOL    HW110526   0.940   3.793  10.617
 3314SOL    HW210527   0.987   3.869  10.754
 3315SOL     OW10528   1.274   4.110  10.572
 3315SOL    HW110529   1.295   4.184  10.636
 3315SOL    HW210530   1.185   4.127  10.529
 3316SOL     OW10531   0.504   3.774  11.050
 3316SOL    HW110532   0.462   3.717  10.980
 3316SOL    HW210533   0.438   3.843  11.082
 3317SOL     OW10534   0.307   3.937  10.541
 3317SOL    HW110535   0.284   3.974  10.631
 3317SOL    HW210536   0.277   3.842  10.535
 3318SOL     OW10537   1.540   3.998   9.435
 3318SOL    HW110538   1.479   3.923   9.458
 3318SOL    HW210539   1.562   4.050   9.518
 3319SOL     OW10540   1.160   3.931  10.787
 3319SOL    HW110541   1.160   3.995  10.864
 3319SOL    HW210542   1.188   3.979  10.704
 3320SOL     OW10543   0.903   3.810   9.443
 3320SOL    HW110544   0.954   3.811   9.357
 3320SOL    HW210545   0.959   3.768   9.514
 3321SOL     OW10546   1.726   3.859   9.833
 3321SOL    HW110547   1.799   3.842   9.766
 3321SOL    HW210548   1.695   3.772   9.871
 3322SOL     OW10549   1.841   3.899  10.273
 3322SOL    HW110550   1.880   3.814  10.237
 3322SOL    HW210551   1.743   3.901  10.254
 3323SOL     OW10552   0.672   3.927  10.799
 3323SOL    HW110553   0.762   3.911  10.759
 3323SOL    HW210554   0.680   3.932  10.898
 3324SOL     OW10555   0.075   4.069   9.343
 3324SOL    HW110556  -0.017   4.041   9.314
 3324SOL    HW210557   0.106   4.146   9.287
 3325SOL     OW10558   0.072   3.890   9.628
 3325SOL    HW110559   0.055   3.973   9.574
 3325SOL    HW210560   0.162   3.853   9.606
 3326SOL     OW10561   1.225   4.049   9.759
 3326SOL    HW110562   1.290   3.975   9.748
 3326SOL    HW210563   1.245   4.099   9.843
 3327SOL     OW10564   1.777   4.066  10.952
 3327SOL    HW110565   1.760   4.097  10.858
 3327SOL    HW210566   1.693   4.029  10.990
 3328SOL     OW10567   1.824   3.916  10.537
 3328SOL    HW110568   1.820   3.826  10.581
 3328SOL    HW210569   1.827   3.905  10.438
 3329SOL     OW10570   1.424   3.938  10.422
 3329SOL    HW110571   1.476   3.873  10.477
 3329SOL    HW210572   1.375   4.001  10.483
 3330SOL     OW10573   1.001   3.758  10.464
 3330SOL    HW110574   0.938   3.686  10.433
 3330SOL    HW210575   1.094   3.722  10.464
 3331SOL     OW10576   1.352   3.776   9.478
 3331SOL    HW110577   1.387   3.735   9.394
 3331SOL    HW210578   1.262   3.738   9.498
 3332SOL     OW10579   1.300   4.177  10.001
 3332SOL    HW110580   1.241   4.257  10.005
 3332SOL    HW210581   1.315   4.142  10.094
 3333SOL     OW10582   1.593   3.945  10.192
 3333SOL    HW110583   1.509   3.944  10.246
 3333SOL    HW210584   1.595   4.028  10.136
 3334SOL     OW10585   0.225   3.999  12.168
 3334SOL    HW110586   0.260   3.982  12.260
 3334SOL    HW210587   0.137   3.954  12.156
 3335SOL     OW10588   0.019   4.092  11.819
 3335SOL    HW110589  -0.063   4.135  11.858
 3335SOL    HW210590  -0.009   4.019  11.756
 3336SOL     OW10591   1.755   4.331  11.403
 3336SOL    HW110592   1.743   4.318  11.304
 3336SOL    HW210593   1.725   4.250  11.452
 3337SOL     OW10594   0.438   4.116  12.671
 3337SOL    HW110595   0.520   4.060  12.680
 3337SOL    HW210596   0.357   4.058  12.675
 3338SOL     OW10597   1.594   3.838  12.652
 3338SOL    HW110598   1.576   3.905  12.580
 3338SOL    HW210599   1.591   3.884  12.741
 3339SOL     OW10600   0.809   3.728  11.674
 3339SOL    HW110601   0.849   3.819  11.665
 3339SOL    HW210602   0.709   3.736  11.680
 3340SOL     OW10603   1.281   4.069  12.116
 3340SOL    HW110604   1.195   4.019  12.103
 3340SOL    HW210605   1.343   4.015  12.172
 3341SOL     OW10606   0.550   3.920  12.057
 3341SOL    HW110607   0.545   3.915  12.157
 3341SOL    HW210608   0.552   4.016  12.028
 3342SOL     OW10609   0.202   4.009  12.670
 3342SOL    HW110610   0.122   4.069  12.657
 3342SOL    HW210611   0.192   3.960  12.756
 3343SOL     OW10612   1.400   3.831  11.598
 3343SOL    HW110613   1.376   3.794  11.508
 3343SOL    HW210614   1.499   3.847  11.602
 3344SOL     OW10615   1.547   3.946  12.901
 3344SOL    HW110616   1.542   3.983  12.993
 3344SOL    HW210617   1.475   3.877  12.889
 3345SOL     OW10618   0.614   3.846  11.289
 3345SOL    HW110619   0.712   3.824  11.296
 3345SOL    HW210620   0.583   3.829  11.196
 3346SOL     OW10621   0.781   3.988  12.921
 3346SOL    HW110622   0.848   3.927  12.964
 3346SOL    HW210623   0.708   4.007  12.986
 3347SOL     OW10624   0.539   3.788  11.684
 3347SOL    HW110625   0.458   3.789  11.742
 3347SOL    HW210626   0.542   3.871  11.629
 3348SOL     OW10627   0.297   3.759  11.343
 3348SOL    HW110628   0.346   3.843  11.322
 3348SOL    HW210629   0.359   3.694  11.388
 3349SOL     OW10630   0.561   3.946  12.319
 3349SOL    HW110631   0.599   3.862  12.356
 3349SOL    HW210632   0.473   3.965  12.363
 3350SOL     OW10633   1.017   3.763  11.925
 3350SOL    HW110634   0.945   3.768  11.856
 3350SOL    HW210635   0.993   3.694  11.994
 3351SOL     OW10636   0.915   3.813  12.574
 3351SOL    HW110637   0.940   3.793  12.479
 3351SOL    HW210638   0.987   3.869  12.616
 3352SOL     OW10639   1.274   4.110  12.434
 3352SOL    HW110640   1.295   4.184  12.498
 3352SOL    HW210641   1.185   4.127  12.391
 3353SOL     OW10642   0.504   3.774  12.912
 3353SOL    HW110643   0.462   3.717  12.842
 3353SOL    HW210644   0.438   3.843  12.944
 3354SOL     OW10645   0.307   3.937  12.403
 3354SOL    HW110646   0.284   3.974  12.493
 3354SOL    HW210647   0.277   3.842  12.397
 3355SOL     OW10648   1.540   3.998  11.297
 3355SOL    HW110649   1.479   3.923  11.320
 3355SOL    HW210650   1.562   4.050  11.380
 3356SOL     OW10651   1.160   3.931  12.649
 3356SOL    HW110652   1.160   3.995  12.726
 3356SOL    HW210653   1.188   3.979  12.566
 3357SOL     OW10654   0.903   3.810  11.305
 3357SOL    HW110655   0.954   3.811  11.219
 3357SOL    HW210656   0.959   3.768  11.376
 3358SOL     OW10657   1.726   3.859  11.695
 3358SOL    HW110658   1.799   3.842  11.628
 3358SOL    HW210659   1.695   3.772  11.733
 3359SOL     OW10660   1.841   3.899  12.135
 3359SOL    HW110661   1.880   3.814  12.099
 3359SOL    HW210662   1.743   3.901  12.116
 3360SOL     OW10663   0.672   3.927  12.661
 3360SOL    HW110664   0.762   3.911  12.621
 3360SOL    HW210665   0.680   3.932  12.760
 3361SOL     OW10666   0.075   4.069  11.205
 3361SOL    HW110667  -0.017   4.041  11.176
 3361SOL    HW210668   0.106   4.146  11.149
 3362SOL     OW10669   0.072   3.890  11.490
 3362SOL    HW110670   0.055   3.973  11.436
 3362SOL    HW210671   0.162   3.853  11.468
 3363SOL     OW10672   1.225   4.049  11.621
 3363SOL    HW110673   1.290   3.975  11.610
 3363SOL    HW210674   1.245   4.099  11.705
 3364SOL     OW10675   1.777   4.066  12.814
 3364SOL    HW110676   1.760   4.097  12.720
 3364SOL    HW210677   1.693   4.029  12.852
 3365SOL     OW10678   1.824   3.916  12.399
 3365SOL    HW110679   1.820   3.826  12.443
 3365SOL    HW210680   1.827   3.905  12.300
 3366SOL     OW10681   1.424   3.938  12.284
 3366SOL    HW110682   1.476   3.873  12.339
 3366SOL    HW210683   1.375   4.001  12.345
 3367SOL     OW10684   1.001   3.758  12.326
 3367SOL    HW110685   0.938   3.686  12.295
 3367SOL    HW210686   1.094   3.722  12.326
 3368SOL     OW10687   1.352   3.776  11.340
 3368SOL    HW110688   1.387   3.735  11.256
 3368SOL    HW210689   1.262   3.738  11.360
 3369SOL     OW10690   1.300   4.177  11.863
 3369SOL    HW110691   1.241   4.257  11.867
 3369SOL    HW210692   1.315   4.142  11.956
 3370SOL     OW10693   1.593   3.945  12.054
 3370SOL    HW110694   1.509   3.944  12.108
 3370SOL    HW210695   1.595   4.028  11.998
 3371SOL     OW10696   0.019   4.092  13.681
 3371SOL    HW110697  -0.063   4.135  13.720
 3371SOL    HW210698  -0.009   4.019  13.618
 3372SOL     OW10699   1.755   4.331  13.265
 3372SOL    HW110700   1.743   4.318  13.166
 3372SOL    HW210701   1.725   4.250  13.314
 3373SOL     OW10702   1.603   4.171  13.771
 3373SOL    HW110703   1.529   4.217  13.721
 3373SOL    HW210704   1.654   4.239  13.824
 3374SOL     OW10705   0.809   3.728  13.536
 3374SOL    HW110706   0.849   3.819  13.527
 3374SOL    HW210707   0.709   3.736  13.542
 3375SOL     OW10708   1.400   3.831  13.460
 3375SOL    HW110709   1.376   3.794  13.370
 3375SOL    HW210710   1.499   3.847  13.464
 3376SOL     OW10711   0.614   3.846  13.151
 3376SOL    HW110712   0.712   3.824  13.158
 3376SOL    HW210713   0.583   3.829  13.058
 3377SOL     OW10714   0.539   3.788  13.546
 3377SOL    HW110715   0.458   3.789  13.604
 3377SOL    HW210716   0.542   3.871  13.491
 3378SOL     OW10717   0.297   3.759  13.205
 3378SOL    HW110718   0.346   3.843  13.184
 3378SOL    HW210719   0.359   3.694  13.250
 3379SOL     OW10720   1.017   3.763  13.787
 3379SOL    HW110721   0.945   3.768  13.718
 3379SOL    HW210722   0.993   3.694  13.856
 3380SOL     OW10723   1.540   3.998  13.159
 3380SOL    HW110724   1.479   3.923  13.182
 3380SOL    HW210725   1.562   4.050  13.242
 3381SOL     OW10726   0.903   3.810  13.167
 3381SOL    HW110727   0.954   3.811  13.081
 3381SOL    HW210728   0.959   3.768  13.238
 3382SOL     OW10729   1.726   3.859  13.557
 3382SOL    HW110730   1.799   3.842  13.490
 3382SOL    HW210731   1.695   3.772  13.595
 3383SOL     OW10732   1.841   3.899  13.997
 3383SOL    HW110733   1.880   3.814  13.961
 3383SOL    HW210734   1.743   3.901  13.978
 3384SOL     OW10735   0.075   4.069  13.067
 3384SOL    HW110736  -0.017   4.041  13.038
 3384SOL    HW210737   0.106   4.146  13.011
 3385SOL     OW10738   0.072   3.890  13.352
 3385SOL    HW110739   0.055   3.973  13.298
 3385SOL    HW210740   0.162   3.853  13.330
 3386SOL     OW10741   1.225   4.049  13.483
 3386SOL    HW110742   1.290   3.975  13.472
 3386SOL    HW210743   1.245   4.099  13.567
 3387SOL     OW10744   1.352   3.776  13.202
 3387SOL    HW110745   1.387   3.735  13.118
 3387SOL    HW210746   1.262   3.738  13.222
 3388SOL     OW10747   1.300   4.177  13.725
 3388SOL    HW110748   1.241   4.257  13.729
 3388SOL    HW210749   1.315   4.142  13.818
 3389SOL     OW10750   2.092   0.628   0.113
 3389SOL    HW110751   1.999   0.626   0.150
 3389SOL    HW210752   2.093   0.589   0.021
 3390SOL     OW10753   2.087   0.275   0.996
 3390SOL    HW110754   2.122   0.258   1.088
 3390SOL    HW210755   1.999   0.230   0.984
 3391SOL     OW10756   1.881   0.368   0.647
 3391SOL    HW110757   1.799   0.411   0.686
 3391SOL    HW210758   1.853   0.295   0.584
 3392SOL     OW10759   2.431   1.275   1.165
 3392SOL    HW110760   2.338   1.268   1.128
 3392SOL    HW210761   2.442   1.364   1.209
 3393SOL     OW10762   3.417   1.511   0.703
 3393SOL    HW110763   3.360   1.495   0.784
 3393SOL    HW210764   3.358   1.521   0.623
 3394SOL     OW10765   2.997   0.703   0.717
 3394SOL    HW110766   3.054   0.781   0.692
 3394SOL    HW210767   2.937   0.729   0.793
 3395SOL     OW10768   3.617   0.607   0.231
 3395SOL    HW110769   3.605   0.594   0.132
 3395SOL    HW210770   3.587   0.526   0.280
 3396SOL     OW10771   2.630   1.144   1.023
 3396SOL    HW110772   2.552   1.161   1.083
 3396SOL    HW210773   2.664   1.231   0.987
 3397SOL     OW10774   2.712   0.798   1.823
 3397SOL    HW110775   2.708   0.874   1.888
 3397SOL    HW210776   2.734   0.834   1.732
 3398SOL     OW10777   2.547   1.012   0.665
 3398SOL    HW110778   2.616   0.996   0.735
 3398SOL    HW210779   2.474   1.069   0.703
 3399SOL     OW10780   2.548   1.161   1.803
 3399SOL    HW110781   2.608   1.240   1.817
 3399SOL    HW210782   2.462   1.192   1.762
 3400SOL     OW10783   2.197   1.435   1.061
 3400SOL    HW110784   2.119   1.404   1.008
 3400SOL    HW210785   2.255   1.493   1.004
 3401SOL     OW10786   3.322   1.505   1.339
 3401SOL    HW110787   3.346   1.599   1.365
 3401SOL    HW210788   3.306   1.451   1.421
 3402SOL     OW10789   2.300   0.392   1.499
 3402SOL    HW110790   2.382   0.336   1.508
 3402SOL    HW210791   2.219   0.334   1.503
 3403SOL     OW10792   3.465   0.447   0.737
 3403SOL    HW110793   3.391   0.493   0.687
 3403SOL    HW210794   3.516   0.515   0.790
 3404SOL     OW10795   2.989   1.341   1.690
 3404SOL    HW110796   3.036   1.341   1.778
 3404SOL    HW210797   2.941   1.254   1.679
 3405SOL     OW10798   2.092   1.434   0.538
 3405SOL    HW110799   2.066   1.530   0.538
 3405SOL    HW210800   2.021   1.380   0.583
 3406SOL     OW10801   2.102   1.091   0.886
 3406SOL    HW110802   2.116   1.007   0.938
 3406SOL    HW210803   2.047   1.155   0.941
 3407SOL     OW10804   2.482   1.786   1.439
 3407SOL    HW110805   2.390   1.769   1.474
 3407SOL    HW210806   2.510   1.878   1.465
 3408SOL     OW10807   2.468   0.964   0.123
 3408SOL    HW110808   2.475   1.048   0.069
 3408SOL    HW210809   2.514   0.977   0.211
 3409SOL     OW10810   3.456   0.114   1.480
 3409SOL    HW110811   3.438   0.181   1.408
 3409SOL    HW210812   3.453   0.160   1.569
 3410SOL     OW10813   1.984   0.643   0.563
 3410SOL    HW110814   1.939   0.555   0.580
 3410SOL    HW210815   1.983   0.697   0.647
 3411SOL     OW10816   3.704   1.767   0.359
 3411SOL    HW110817   3.758   1.738   0.439
 3411SOL    HW210818   3.734   1.857   0.330
 3412SOL     OW10819   1.889   1.596   0.117
 3412SOL    HW110820   1.870   1.500   0.138
 3412SOL    HW210821   1.856   1.654   0.192
 3413SOL     OW10822   3.551   0.922   0.612
 3413SOL    HW110823   3.646   0.893   0.620
 3413SOL    HW210824   3.543   0.987   0.537
 3414SOL     OW10825   3.503   1.108   0.432
 3414SOL    HW110826   3.589   1.110   0.380
 3414SOL    HW210827   3.517   1.155   0.520
 3415SOL     OW10828   1.975   0.737   1.597
 3415SOL    HW110829   2.063   0.724   1.642
 3415SOL    HW210830   1.962   0.834   1.575
 3416SOL     OW10831   2.475   1.365   0.726
 3416SOL    HW110832   2.426   1.278   0.735
 3416SOL    HW210833   2.452   1.408   0.639
 3417SOL     OW10834   3.155   1.228   1.423
 3417SOL    HW110835   3.192   1.155   1.365
 3417SOL    HW210836   3.207   1.233   1.508
 3418SOL     OW10837   2.671   0.004   0.502
 3418SOL    HW110838   2.711   0.095   0.493
 3418SOL    HW210839   2.571   0.012   0.508
 3419SOL     OW10840   2.059   0.976   1.264
 3419SOL    HW110841   2.148   0.931   1.250
 3419SOL    HW210842   1.986   0.911   1.245
 3420SOL     OW10843   3.387   0.999   0.190
 3420SOL    HW110844   3.324   0.923   0.203
 3420SOL    HW210845   3.435   1.017   0.276
 3421SOL     OW10846   3.049   1.792   1.616
 3421SOL    HW110847   3.073   1.852   1.540
 3421SOL    HW210848   3.056   1.697   1.586
 3422SOL     OW10849   2.179   0.251   1.801
 3422SOL    HW110850   2.250   0.322   1.807
 3422SOL    HW210851   2.091   0.290   1.829
 3423SOL     OW10852   3.328   1.417   0.953
 3423SOL    HW110853   3.269   1.423   1.033
 3423SOL    HW210854   3.313   1.329   0.907
 3424SOL     OW10855   3.529   1.714   0.572
 3424SOL    HW110856   3.488   1.691   0.484
 3424SOL    HW210857   3.511   1.640   0.637
 3425SOL     OW10858   2.460   0.729   0.270
 3425SOL    HW110859   2.484   0.798   0.202
 3425SOL    HW210860   2.382   0.762   0.324
 3426SOL     OW10861   3.143   0.345   0.944
 3426SOL    HW110862   3.057   0.295   0.931
 3426SOL    HW210863   3.205   0.291   1.000
 3427SOL     OW10864   3.438   1.662   0.307
 3427SOL    HW110865   3.527   1.708   0.310
 3427SOL    HW210866   3.417   1.638   0.212
 3428SOL     OW10867   2.669   0.605   1.465
 3428SOL    HW110868   2.622   0.602   1.554
 3428SOL    HW210869   2.618   0.550   1.399
 3429SOL     OW10870   3.256   0.469   1.674
 3429SOL    HW110871   3.236   0.512   1.762
 3429SOL    HW210872   3.334   0.407   1.683
 3430SOL     OW10873   2.835   0.890   1.572
 3430SOL    HW110874   2.881   0.806   1.543
 3430SOL    HW210875   2.779   0.924   1.497
 3431SOL     OW10876   2.853   0.410   1.242
 3431SOL    HW110877   2.776   0.444   1.296
 3431SOL    HW210878   2.819   0.359   1.163
 3432SOL     OW10879   2.903   0.701   0.429
 3432SOL    HW110880   2.929   0.697   0.525
 3432SOL    HW210881   2.818   0.650   0.415
 3433SOL     OW10882   1.938   0.811   0.789
 3433SOL    HW110883   2.037   0.799   0.798
 3433SOL    HW210884   1.914   0.906   0.810
 3434SOL     OW10885   2.727   0.348   0.195
 3434SOL    HW110886   2.786   0.411   0.146
 3434SOL    HW210887   2.746   0.254   0.166
 3435SOL     OW10888   3.581   0.585   1.831
 3435SOL    HW110889   3.555   0.674   1.795
 3435SOL    HW210890   3.579   0.517   1.758
 3436SOL     OW10891   3.224   1.144   0.545
 3436SOL    HW110892   3.307   1.115   0.497
 3436SOL    HW210893   3.175   1.211   0.489
 3437SOL     OW10894   2.412   0.196   0.885
 3437SOL    HW110895   2.407   0.191   0.985
 3437SOL    HW210896   2.414   0.292   0.856
 3438SOL     OW10897   2.870   1.456   0.477
 3438SOL    HW110898   2.824   1.528   0.425
 3438SOL    HW210899   2.866   1.476   0.575
 3439SOL     OW10900   3.657   1.066   0.873
 3439SOL    HW110901   3.595   1.051   0.797
 3439SOL    HW210902   3.605   1.077   0.958
 3440SOL     OW10903   3.089   1.550   1.506
 3440SOL    HW110904   3.095   1.473   1.570
 3440SOL    HW210905   3.037   1.524   1.426
 3441SOL     OW10906   2.183   0.943   0.242
 3441SOL    HW110907   2.265   0.982   0.200
 3441SOL    HW210908   2.156   0.861   0.193
 3442SOL     OW10909   3.320   0.735   0.728
 3442SOL    HW110910   3.315   0.670   0.803
 3442SOL    HW210911   3.400   0.794   0.741
 3443SOL     OW10912   2.323   1.266   1.727
 3443SOL    HW110913   2.273   1.267   1.641
 3443SOL    HW210914   2.260   1.248   1.803
 3444SOL     OW10915   2.973   1.776   0.237
 3444SOL    HW110916   2.913   1.714   0.287
 3444SOL    HW210917   3.004   1.732   0.152
 3445SOL     OW10918   2.064   0.285   1.498
 3445SOL    HW110919   1.984   0.345   1.485
 3445SOL    HW210920   2.054   0.236   1.584
 3446SOL     OW10921   3.494   1.377   0.081
 3446SOL    HW110922   3.462   1.471   0.071
 3446SOL    HW210923   3.418   1.314   0.069
 3447SOL     OW10924   2.326   1.743   0.323
 3447SOL    HW110925   2.359   1.782   0.409
 3447SOL    HW210926   2.402   1.736   0.258
 3448SOL     OW10927   3.262   0.107   0.426
 3448SOL    HW110928   3.238   0.070   0.336
 3448SOL    HW210929   3.361   0.123   0.430
 3449SOL     OW10930   2.802   1.698   0.904
 3449SOL    HW110931   2.882   1.641   0.925
 3449SOL    HW210932   2.753   1.658   0.827
 3450SOL     OW10933   2.244   0.700   0.480
 3450SOL    HW110934   2.289   0.610   0.477
 3450SOL    HW210935   2.150   0.689   0.513
 3451SOL     OW10936   3.409   0.222   1.729
 3451SOL    HW110937   3.404   0.259   1.821
 3451SOL    HW210938   3.337   0.153   1.717
 3452SOL     OW10939   2.476   0.122   0.117
 3452SOL    HW110940   2.574   0.100   0.124
 3452SOL    HW210941   2.445   0.105   0.024
 3453SOL     OW10942   2.643   0.264   1.749
 3453SOL    HW110943   2.710   0.203   1.792
 3453SOL    HW210944   2.570   0.283   1.814
 3454SOL     OW10945   2.750   1.514   1.195
 3454SOL    HW110946   2.727   1.489   1.101
 3454SOL    HW210947   2.811   1.445   1.234
 3455SOL     OW10948   3.213   0.590   1.433
 3455SOL    HW110949   3.241   0.547   1.518
 3455SOL    HW210950   3.238   0.686   1.434
 3456SOL     OW10951   2.665   1.402   0.924
 3456SOL    HW110952   2.755   1.416   0.882
 3456SOL    HW210953   2.594   1.404   0.853
 3457SOL     OW10954   2.784   0.503   0.899
 3457SOL    HW110955   2.759   0.494   0.803
 3457SOL    HW210956   2.832   0.421   0.930
 3458SOL     OW10957   2.401   0.064   0.512
 3458SOL    HW110958   2.320   0.065   0.570
 3458SOL    HW210959   2.404   0.147   0.457
 3459SOL     OW10960   3.296   1.188   0.041
 3459SOL    HW110961   3.328   1.112   0.098
 3459SOL    HW210962   3.204   1.215   0.071
 3460SOL     OW10963   2.159   0.035   0.171
 3460SOL    HW110964   2.208   0.119   0.150
 3460SOL    HW210965   2.221  -0.030   0.216
 3461SOL     OW10966   2.797   0.236   0.480
 3461SOL    HW110967   2.749   0.277   0.402
 3461SOL    HW210968   2.896   0.234   0.461
 3462SOL     OW10969   2.938   0.683   1.464
 3462SOL    HW110970   2.858   0.622   1.467
 3462SOL    HW210971   3.019   0.630   1.440
 3463SOL     OW10972   3.089   1.570   0.793
 3463SOL    HW110973   3.110   1.644   0.728
 3463SOL    HW210974   3.157   1.570   0.866
 3464SOL     OW10975   2.321   1.152   0.741
 3464SOL    HW110976   2.250   1.125   0.806
 3464SOL    HW210977   2.295   1.124   0.648
 3465SOL     OW10978   3.133   1.797   0.591
 3465SOL    HW110979   3.177   1.861   0.527
 3465SOL    HW210980   3.083   1.849   0.661
 3466SOL     OW10981   2.894   0.549   0.016
 3466SOL    HW110982   2.853   0.631  -0.023
 3466SOL    HW210983   2.958   0.575   0.089
 3467SOL     OW10984   1.940   0.556   1.386
 3467SOL    HW110985   2.032   0.555   1.345
 3467SOL    HW210986   1.934   0.630   1.453
 3468SOL     OW10987   2.423   0.222   1.147
 3468SOL    HW110988   2.461   0.138   1.184
 3468SOL    HW210989   2.335   0.241   1.191
 3469SOL     OW10990   2.728   0.454   0.642
 3469SOL    HW110991   2.696   0.526   0.580
 3469SOL    HW210992   2.752   0.373   0.589
 3470SOL     OW10993   2.879   0.039   0.753
 3470SOL    HW110994   2.807   0.044   0.684
 3470SOL    HW210995   2.855  -0.030   0.822
 3471SOL     OW10996   3.291   1.173   0.867
 3471SOL    HW110997   3.236   1.089   0.860
 3471SOL    HW210998   3.317   1.202   0.775
 3472SOL     OW10999   3.328   0.590   0.992
 3472SOL    HW111000   3.298   0.495   0.999
 3472SOL    HW211001   3.401   0.606   1.058
 3473SOL     OW11002   3.719   0.833   0.377
 3473SOL    HW111003   3.761   0.769   0.441
 3473SOL    HW211004   3.681   0.782   0.299
 3474SOL     OW11005   2.350   1.385   0.174
 3474SOL    HW111006   2.263   1.370   0.221
 3474SOL    HW211007   2.333   1.411   0.079
 3475SOL     OW11008   3.526   1.280   0.657
 3475SOL    HW111009   3.625   1.288   0.671
 3475SOL    HW211010   3.481   1.364   0.688
 3476SOL     OW11011   3.252   0.575   0.078
 3476SOL    HW111012   3.198   0.554   0.159
 3476SOL    HW211013   3.343   0.534   0.087
 3477SOL     OW11014   2.389   0.256   0.328
 3477SOL    HW111015   2.416   0.197   0.253
 3477SOL    HW211016   2.389   0.351   0.297
 3478SOL     OW11017   3.616   1.223   1.588
 3478SOL    HW111018   3.707   1.184   1.575
 3478SOL    HW211019   3.624   1.319   1.612
 3479SOL     OW11020   2.926   1.347   1.340
 3479SOL    HW111021   2.846   1.324   1.395
 3479SOL    HW211022   3.009   1.321   1.389
 3480SOL     OW11023   3.454   1.629   1.625
 3480SOL    HW111024   3.481   1.663   1.535
 3480SOL    HW211025   3.533   1.591   1.671
 3481SOL     OW11026   2.973   1.195   1.100
 3481SOL    HW111027   2.933   1.239   1.181
 3481SOL    HW211028   2.932   1.232   1.017
 3482SOL     OW11029   3.500   1.099   1.079
 3482SOL    HW111030   3.505   1.180   1.138
 3482SOL    HW211031   3.414   1.101   1.028
 3483SOL     OW11032   2.777   0.089   1.402
 3483SOL    HW111033   2.802   0.069   1.307
 3483SOL    HW211034   2.849   0.145   1.444
 3484SOL     OW11035   2.842   1.116   1.719
 3484SOL    HW111036   2.743   1.122   1.729
 3484SOL    HW211037   2.865   1.036   1.663
 3485SOL     OW11038   2.567   1.050   0.368
 3485SOL    HW111039   2.553   1.057   0.467
 3485SOL    HW211040   2.651   0.999   0.350
 3486SOL     OW11041   2.272   0.813   1.251
 3486SOL    HW111042   2.358   0.825   1.301
 3486SOL    HW211043   2.230   0.726   1.278
 3487SOL     OW11044   3.136   0.386   1.262
 3487SOL    HW111045   3.157   0.460   1.326
 3487SOL    HW211046   3.047   0.403   1.219
 3488SOL     OW11047   2.229   1.100   0.501
 3488SOL    HW111048   2.222   1.183   0.445
 3488SOL    HW211049   2.233   1.020   0.441
 3489SOL     OW11050   2.428   0.537   0.865
 3489SOL    HW111051   2.440   0.603   0.791
 3489SOL    HW211052   2.474   0.571   0.948
 3490SOL     OW11053   3.114   1.348   0.388
 3490SOL    HW111054   3.164   1.425   0.428
 3490SOL    HW211055   3.019   1.350   0.420
 3491SOL     OW11056   3.134   1.445   1.142
 3491SOL    HW111057   3.181   1.458   1.229
 3491SOL    HW211058   3.068   1.371   1.151
 3492SOL     OW11059   3.444   0.639   0.472
 3492SOL    HW111060   3.413   0.700   0.545
 3492SOL    HW211061   3.494   0.691   0.403
 3493SOL     OW11062   2.216   1.510   1.329
 3493SOL    HW111063   2.195   1.466   1.242
 3493SOL    HW211064   2.313   1.536   1.332
 3494SOL     OW11065   2.264   0.751   1.598
 3494SOL    HW111066   2.332   0.806   1.551
 3494SOL    HW211067   2.304   0.663   1.625
 3495SOL     OW11068   3.449   0.779   1.670
 3495SOL    HW111069   3.357   0.817   1.665
 3495SOL    HW211070   3.509   0.826   1.605
 3496SOL     OW11071   2.875   0.105   1.770
 3496SOL    HW111072   2.881   0.190   1.718
 3496SOL    HW211073   2.907   0.029   1.713
 3497SOL     OW11074   2.366   0.050   1.740
 3497SOL    HW111075   2.324  -0.007   1.670
 3497SOL    HW211076   2.300   0.119   1.772
 3498SOL     OW11077   2.435   0.870   1.029
 3498SOL    HW111078   2.479   0.959   1.020
 3498SOL    HW211079   2.372   0.870   1.106
 3499SOL     OW11080   3.222   0.862   1.045
 3499SOL    HW111081   3.147   0.862   0.979
 3499SOL    HW211082   3.259   0.770   1.054
 3500SOL     OW11083   3.071   0.525   0.275
 3500SOL    HW111084   3.084   0.441   0.329
 3500SOL    HW211085   3.042   0.599   0.335
 3501SOL     OW11086   2.169   0.213   1.231
 3501SOL    HW111087   2.146   0.250   1.321
 3501SOL    HW211088   2.139   0.118   1.225
 3502SOL     OW11089   1.899   1.310   1.282
 3502SOL    HW111090   1.952   1.261   1.350
 3502SOL    HW211091   1.921   1.408   1.287
 3503SOL     OW11092   2.594   0.634   1.064
 3503SOL    HW111093   2.653   0.608   0.988
 3503SOL    HW211094   2.566   0.730   1.053
 3504SOL     OW11095   3.590   0.935   1.854
 3504SOL    HW111096   3.544   0.928   1.765
 3504SOL    HW211097   3.528   0.979   1.920
 3505SOL     OW11098   2.169   0.063   0.618
 3505SOL    HW111099   2.158   0.157   0.651
 3505SOL    HW211100   2.164   0.000   0.695
 3506SOL     OW11101   3.484   0.367   0.374
 3506SOL    HW111102   3.486   0.291   0.438
 3506SOL    HW211103   3.436   0.444   0.414
 3507SOL     OW11104   2.885   0.766   0.966
 3507SOL    HW111105   2.900   0.787   1.062
 3507SOL    HW211106   2.855   0.671   0.957
 3508SOL     OW11107   2.842   1.573   1.700
 3508SOL    HW111108   2.822   1.617   1.612
 3508SOL    HW211109   2.881   1.482   1.684
 3509SOL     OW11110   3.721   1.518   1.605
 3509SOL    HW111111   3.735   1.545   1.510
 3509SOL    HW211112   3.804   1.540   1.658
 3510SOL     OW11113   2.212   0.898   1.804
 3510SOL    HW111114   2.288   0.942   1.852
 3510SOL    HW211115   2.247   0.851   1.722
 3511SOL     OW11116   3.402   0.274   0.125
 3511SOL    HW111117   3.341   0.199   0.148
 3511SOL    HW211118   3.424   0.326   0.208
 3512SOL     OW11119   3.165   0.838   0.042
 3512SOL    HW111120   3.199   0.745   0.057
 3512SOL    HW211121   3.183   0.865  -0.053
 3513SOL     OW11122   2.930   1.333   0.849
 3513SOL    HW111123   2.937   1.249   0.794
 3513SOL    HW211124   2.992   1.402   0.813
 3514SOL     OW11125   2.181   0.810   0.949
 3514SOL    HW111126   2.274   0.846   0.954
 3514SOL    HW211127   2.175   0.725   1.001
 3515SOL     OW11128   2.201   0.509   1.006
 3515SOL    HW111129   2.149   0.426   0.989
 3515SOL    HW211130   2.278   0.514   0.942
 3516SOL     OW11131   3.000   0.380   1.678
 3516SOL    HW111132   2.955   0.443   1.742
 3516SOL    HW211133   3.093   0.411   1.661
 3517SOL     OW11134   3.022   0.207   1.477
 3517SOL    HW111135   3.022   0.271   1.554
 3517SOL    HW211136   3.050   0.255   1.394
 3518SOL     OW11137   1.870   1.326   0.200
 3518SOL    HW111138   1.777   1.347   0.169
 3518SOL    HW211139   1.880   1.227   0.213
 3519SOL     OW11140   2.366   1.568   0.910
 3519SOL    HW111141   2.432   1.642   0.919
 3519SOL    HW211142   2.410   1.489   0.868
 3520SOL     OW11143   2.864   0.796   1.238
 3520SOL    HW111144   2.905   0.764   1.324
 3520SOL    HW211145   2.768   0.769   1.235
 3521SOL     OW11146   1.902   0.544   1.114
 3521SOL    HW111147   1.987   0.511   1.073
 3521SOL    HW211148   1.915   0.559   1.212
 3522SOL     OW11149   2.051   0.520   1.722
 3522SOL    HW111150   2.110   0.480   1.652
 3522SOL    HW211151   1.993   0.591   1.681
 3523SOL     OW11152   3.231   0.950   1.660
 3523SOL    HW111153   3.270   1.039   1.680
 3523SOL    HW211154   3.241   0.930   1.563
 3524SOL     OW11155   2.677   0.572   0.325
 3524SOL    HW111156   2.684   0.483   0.279
 3524SOL    HW211157   2.583   0.606   0.317
 3525SOL     OW11158   3.519   0.604   1.206
 3525SOL    HW111159   3.481   0.535   1.268
 3525SOL    HW211160   3.601   0.568   1.162
 3526SOL     OW11161   2.114   1.564   1.744
 3526SOL    HW111162   2.084   1.621   1.820
 3526SOL    HW211163   2.107   1.467   1.770
 3527SOL     OW11164   2.533   0.464   1.269
 3527SOL    HW111165   2.499   0.375   1.239
 3527SOL    HW211166   2.559   0.518   1.189
 3528SOL     OW11167   2.792   1.678   1.465
 3528SOL    HW111168   2.768   1.660   1.370
 3528SOL    HW211169   2.822   1.772   1.475
 3529SOL     OW11170   2.335   0.500   0.191
 3529SOL    HW111171   2.396   0.580   0.195
 3529SOL    HW211172   2.240   0.531   0.198
 3530SOL     OW11173   2.021   1.137   1.466
 3530SOL    HW111174   2.043   1.076   1.542
 3530SOL    HW211175   2.031   1.088   1.380
 3531SOL     OW11176   3.209   1.059   1.234
 3531SOL    HW111177   3.233   0.996   1.160
 3531SOL    HW211178   3.119   1.099   1.216
 3532SOL     OW11179   3.164   0.855   0.309
 3532SOL    HW111180   3.078   0.824   0.351
 3532SOL    HW211181   3.160   0.841   0.210
 3533SOL     OW11182   3.621   1.747   1.154
 3533SOL    HW111183   3.682   1.777   1.081
 3533SOL    HW211184   3.583   1.658   1.132
 3534SOL     OW11185   3.114   1.731   1.128
 3534SOL    HW111186   3.198   1.736   1.074
 3534SOL    HW211187   3.091   1.635   1.146
 3535SOL     OW11188   1.945   1.258   1.022
 3535SOL    HW111189   1.940   1.257   1.122
 3535SOL    HW211190   1.862   1.217   0.984
 3536SOL     OW11191   2.550   1.662   1.716
 3536SOL    HW111192   2.494   1.743   1.725
 3536SOL    HW211193   2.602   1.666   1.630
 3537SOL     OW11194   2.765   0.086   0.133
 3537SOL    HW111195   2.816   0.087   0.047
 3537SOL    HW211196   2.821   0.044   0.204
 3538SOL     OW11197   3.588   0.135   0.523
 3538SOL    HW111198   3.661   0.118   0.456
 3538SOL    HW211199   3.557   0.048   0.561
 3539SOL     OW11200   3.250   1.573   0.477
 3539SOL    HW111201   3.317   1.585   0.403
 3539SOL    HW211202   3.210   1.662   0.500
 3540SOL     OW11203   3.142   0.927   0.672
 3540SOL    HW111204   3.202   0.846   0.674
 3540SOL    HW211205   3.182   0.996   0.612
 3541SOL     OW11206   2.692   1.273   1.422
 3541SOL    HW111207   2.687   1.306   1.517
 3541SOL    HW211208   2.606   1.292   1.376
 3542SOL     OW11209   2.534   1.616   0.154
 3542SOL    HW111210   2.543   1.626   0.055
 3542SOL    HW211211   2.494   1.527   0.175
 3543SOL     OW11212   3.512   1.720   1.394
 3543SOL    HW111213   3.565   1.730   1.310
 3543SOL    HW211214   3.485   1.810   1.428
 3544SOL     OW11215   3.703   0.175   0.963
 3544SOL    HW111216   3.742   0.090   0.927
 3544SOL    HW211217   3.605   0.177   0.944
 3545SOL     OW11218   2.125   0.326   0.720
 3545SOL    HW111219   2.046   0.377   0.686
 3545SOL    HW211220   2.116   0.311   0.818
 3546SOL     OW11221   3.056   1.612   0.031
 3546SOL    HW111222   3.062   1.519   0.068
 3546SOL    HW211223   2.997   1.612  -0.049
 3547SOL     OW11224   2.684   1.002   1.372
 3547SOL    HW111225   2.724   1.001   1.280
 3547SOL    HW211226   2.694   1.094   1.412
 3548SOL     OW11227   2.778   0.910   0.291
 3548SOL    HW111228   2.841   0.948   0.223
 3548SOL    HW211229   2.818   0.827   0.330
 3549SOL     OW11230   3.366   1.607   0.044
 3549SOL    HW111231   3.274   1.644   0.051
 3549SOL    HW211232   3.404   1.627  -0.046
 3550SOL     OW11233   2.234   1.288   1.490
 3550SOL    HW111234   2.221   1.381   1.456
 3550SOL    HW211235   2.150   1.236   1.477
 3551SOL     OW11236   3.476   1.292   1.289
 3551SOL    HW111237   3.536   1.295   1.369
 3551SOL    HW211238   3.401   1.356   1.302
 3552SOL     OW11239   2.901   1.098   0.696
 3552SOL    HW111240   2.831   1.051   0.750
 3552SOL    HW211241   2.960   1.030   0.653
 3553SOL     OW11242   2.876   0.236   0.971
 3553SOL    HW111243   2.868   0.200   0.878
 3553SOL    HW211244   2.874   0.160   1.036
 3554SOL     OW11245   2.452   1.487   0.491
 3554SOL    HW111246   2.494   1.429   0.421
 3554SOL    HW211247   2.408   1.566   0.447
 3555SOL     OW11248   3.571   0.385   1.381
 3555SOL    HW111249   3.644   0.454   1.385
 3555SOL    HW211250   3.599   0.310   1.322
 3556SOL     OW11251   2.117   1.348   0.290
 3556SOL    HW111252   2.021   1.349   0.263
 3556SOL    HW211253   2.129   1.401   0.374
 3557SOL     OW11254   1.967   1.013   1.726
 3557SOL    HW111255   1.890   0.980   1.780
 3557SOL    HW211256   2.052   0.983   1.768
 3558SOL     OW11257   2.534   0.203   1.489
 3558SOL    HW111258   2.624   0.187   1.449
 3558SOL    HW211259   2.542   0.208   1.588
 3559SOL     OW11260   1.937   0.345   0.033
 3559SOL    HW111261   1.845   0.317   0.004
 3559SOL    HW211262   1.968   0.422  -0.023
 3560SOL     OW11263   3.302   0.856   1.398
 3560SOL    HW111264   3.245   0.908   1.335
 3560SOL    HW211265   3.398   0.868   1.374
 3561SOL     OW11266   1.934   0.166   0.318
 3561SOL    HW111267   1.917   0.249   0.264
 3561SOL    HW211268   2.024   0.129   0.296
 3562SOL     OW11269   3.045   1.335   0.119
 3562SOL    HW111270   2.946   1.324   0.121
 3562SOL    HW211271   3.079   1.350   0.212
 3563SOL     OW11272   2.475   0.842   1.431
 3563SOL    HW111273   2.531   0.923   1.414
 3563SOL    HW211274   2.534   0.762   1.434
 3564SOL     OW11275   3.355   1.767   0.959
 3564SOL    HW111276   3.388   1.831   0.890
 3564SOL    HW211277   3.421   1.761   1.034
 3565SOL     OW11278   2.578   0.565   1.708
 3565SOL    HW111279   2.597   0.630   1.782
 3565SOL    HW211280   2.638   0.485   1.717
 3566SOL     OW11281   3.312   1.220   1.633
 3566SOL    HW111282   3.303   1.210   1.732
 3566SOL    HW211283   3.408   1.213   1.607
 3567SOL     OW11284   2.252   1.741   1.560
 3567SOL    HW111285   2.161   1.782   1.558
 3567SOL    HW211286   2.245   1.647   1.592
 3568SOL     OW11287   3.536   0.883   1.254
 3568SOL    HW111288   3.509   0.794   1.217
 3568SOL    HW211289   3.537   0.951   1.181
 3569SOL     OW11290   3.087   0.325   0.449
 3569SOL    HW111291   3.152   0.251   0.438
 3569SOL    HW211292   3.107   0.375   0.533
 3570SOL     OW11293   2.456   0.745   0.652
 3570SOL    HW111294   2.506   0.830   0.633
 3570SOL    HW211295   2.368   0.747   0.604
 3571SOL     OW11296   3.639   0.342   1.642
 3571SOL    HW111297   3.622   0.373   1.548
 3571SOL    HW211298   3.555   0.305   1.680
 3572SOL     OW11299   3.592   0.934   1.517
 3572SOL    HW111300   3.630   1.025   1.532
 3572SOL    HW211301   3.584   0.917   1.418
 3573SOL     OW11302   2.721   1.374   0.016
 3573SOL    HW111303   2.675   1.389   0.104
 3573SOL    HW211304   2.765   1.459  -0.014
 3574SOL     OW11305   2.523   1.790   0.953
 3574SOL    HW111306   2.477   1.878   0.940
 3574SOL    HW211307   2.622   1.802   0.946
 3575SOL     OW11308   2.721   0.956   0.861
 3575SOL    HW111309   2.775   0.887   0.909
 3575SOL    HW211310   2.689   1.025   0.927
 3576SOL     OW11311   2.945   0.984   0.087
 3576SOL    HW111312   2.922   1.037   0.005
 3576SOL    HW211313   3.026   0.928   0.068
 3577SOL     OW11314   3.723   1.569   0.851
 3577SOL    HW111315   3.652   1.557   0.781
 3577SOL    HW211316   3.724   1.490   0.911
 3578SOL     OW11317   2.083   1.314   1.844
 3578SOL    HW111318   2.018   1.241   1.823
 3578SOL    HW211319   2.087   1.328   1.942
 3579SOL     OW11320   1.941   1.240   0.653
 3579SOL    HW111321   1.940   1.193   0.741
 3579SOL    HW211322   2.023   1.212   0.602
 3580SOL     OW11323   2.534   1.391   1.624
 3580SOL    HW111324   2.456   1.341   1.662
 3580SOL    HW211325   2.531   1.486   1.655
 3581SOL     OW11326   3.686   0.192   1.227
 3581SOL    HW111327   3.682   0.102   1.271
 3581SOL    HW211328   3.689   0.181   1.128
 3582SOL     OW11329   2.290   0.424   0.520
 3582SOL    HW111330   2.320   0.352   0.458
 3582SOL    HW211331   2.251   0.384   0.603
 3583SOL     OW11332   3.567   1.487   1.104
 3583SOL    HW111333   3.474   1.462   1.077
 3583SOL    HW211334   3.593   1.437   1.186
 3584SOL     OW11335   2.179   0.547   1.280
 3584SOL    HW111336   2.217   0.488   1.352
 3584SOL    HW211337   2.219   0.521   1.192
 3585SOL     OW11338   2.674   1.586   0.687
 3585SOL    HW111339   2.706   1.596   0.593
 3585SOL    HW211340   2.595   1.524   0.689
 3586SOL     OW11341   3.286   0.214   1.112
 3586SOL    HW111342   3.338   0.149   1.167
 3586SOL    HW211343   3.237   0.277   1.173
 3587SOL     OW11344   2.863   0.034   1.154
 3587SOL    HW111345   2.800  -0.038   1.123
 3587SOL    HW211346   2.956  -0.002   1.154
 3588SOL     OW11347   2.632   1.330   0.301
 3588SOL    HW111348   2.586   1.243   0.318
 3588SOL    HW211349   2.723   1.327   0.342
 3589SOL     OW11350   2.480   1.567   1.284
 3589SOL    HW111351   2.475   1.649   1.341
 3589SOL    HW211352   2.569   1.564   1.239
 3590SOL     OW11353   3.214   0.052   0.168
 3590SOL    HW111354   3.249   0.011   0.084
 3590SOL    HW211355   3.124   0.014   0.188
 3591SOL     OW11356   3.162   0.453   0.691
 3591SOL    HW111357   3.103   0.533   0.695
 3591SOL    HW211358   3.177   0.418   0.784
 3592SOL     OW11359   3.455   0.221   0.882
 3592SOL    HW111360   3.371   0.220   0.936
 3592SOL    HW211361   3.457   0.304   0.826
 3593SOL     OW11362   1.901   1.077   0.300
 3593SOL    HW111363   2.000   1.066   0.291
 3593SOL    HW211364   1.861   0.991   0.332
 3594SOL     OW11365   2.737   1.646   0.337
 3594SOL    HW111366   2.660   1.611   0.283
 3594SOL    HW211367   2.705   1.717   0.399
 3595SOL     OW11368   2.092   0.628   1.975
 3595SOL    HW111369   1.999   0.626   2.012
 3595SOL    HW211370   2.093   0.589   1.883
 3596SOL     OW11371   2.087   0.275   2.858
 3596SOL    HW111372   2.122   0.258   2.950
 3596SOL    HW211373   1.999   0.230   2.846
 3597SOL     OW11374   1.881   0.368   2.509
 3597SOL    HW111375   1.799   0.411   2.548
 3597SOL    HW211376   1.853   0.295   2.446
 3598SOL     OW11377   2.431   1.275   3.027
 3598SOL    HW111378   2.338   1.268   2.990
 3598SOL    HW211379   2.442   1.364   3.071
 3599SOL     OW11380   3.417   1.511   2.565
 3599SOL    HW111381   3.360   1.495   2.646
 3599SOL    HW211382   3.358   1.521   2.485
 3600SOL     OW11383   2.997   0.703   2.579
 3600SOL    HW111384   3.054   0.781   2.554
 3600SOL    HW211385   2.937   0.729   2.655
 3601SOL     OW11386   3.617   0.607   2.093
 3601SOL    HW111387   3.605   0.594   1.994
 3601SOL    HW211388   3.587   0.526   2.142
 3602SOL     OW11389   2.630   1.144   2.885
 3602SOL    HW111390   2.552   1.161   2.945
 3602SOL    HW211391   2.664   1.231   2.849
 3603SOL     OW11392   2.712   0.798   3.685
 3603SOL    HW111393   2.708   0.874   3.750
 3603SOL    HW211394   2.734   0.834   3.594
 3604SOL     OW11395   2.547   1.012   2.527
 3604SOL    HW111396   2.616   0.996   2.597
 3604SOL    HW211397   2.474   1.069   2.565
 3605SOL     OW11398   2.548   1.161   3.665
 3605SOL    HW111399   2.608   1.240   3.679
 3605SOL    HW211400   2.462   1.192   3.624
 3606SOL     OW11401   2.197   1.435   2.923
 3606SOL    HW111402   2.119   1.404   2.870
 3606SOL    HW211403   2.255   1.493   2.866
 3607SOL     OW11404   3.322   1.505   3.201
 3607SOL    HW111405   3.346   1.599   3.227
 3607SOL    HW211406   3.306   1.451   3.283
 3608SOL     OW11407   2.300   0.392   3.361
 3608SOL    HW111408   2.382   0.336   3.370
 3608SOL    HW211409   2.219   0.334   3.365
 3609SOL     OW11410   3.465   0.447   2.599
 3609SOL    HW111411   3.391   0.493   2.549
 3609SOL    HW211412   3.516   0.515   2.652
 3610SOL     OW11413   2.989   1.341   3.552
 3610SOL    HW111414   3.036   1.341   3.640
 3610SOL    HW211415   2.941   1.254   3.541
 3611SOL     OW11416   2.092   1.434   2.400
 3611SOL    HW111417   2.066   1.530   2.400
 3611SOL    HW211418   2.021   1.380   2.445
 3612SOL     OW11419   2.102   1.091   2.748
 3612SOL    HW111420   2.116   1.007   2.800
 3612SOL    HW211421   2.047   1.155   2.803
 3613SOL     OW11422   2.482   1.786   3.301
 3613SOL    HW111423   2.390   1.769   3.336
 3613SOL    HW211424   2.510   1.878   3.327
 3614SOL     OW11425   2.468   0.964   1.985
 3614SOL    HW111426   2.475   1.048   1.931
 3614SOL    HW211427   2.514   0.977   2.073
 3615SOL     OW11428   3.456   0.114   3.342
 3615SOL    HW111429   3.438   0.181   3.270
 3615SOL    HW211430   3.453   0.160   3.431
 3616SOL     OW11431   1.984   0.643   2.425
 3616SOL    HW111432   1.939   0.555   2.442
 3616SOL    HW211433   1.983   0.697   2.509
 3617SOL     OW11434   3.704   1.767   2.221
 3617SOL    HW111435   3.758   1.738   2.301
 3617SOL    HW211436   3.734   1.857   2.192
 3618SOL     OW11437   1.889   1.596   1.979
 3618SOL    HW111438   1.870   1.500   2.000
 3618SOL    HW211439   1.856   1.654   2.054
 3619SOL     OW11440   3.551   0.922   2.474
 3619SOL    HW111441   3.646   0.893   2.482
 3619SOL    HW211442   3.543   0.987   2.399
 3620SOL     OW11443   3.503   1.108   2.294
 3620SOL    HW111444   3.589   1.110   2.242
 3620SOL    HW211445   3.517   1.155   2.382
 3621SOL     OW11446   1.975   0.737   3.459
 3621SOL    HW111447   2.063   0.724   3.504
 3621SOL    HW211448   1.962   0.834   3.437
 3622SOL     OW11449   2.475   1.365   2.588
 3622SOL    HW111450   2.426   1.278   2.597
 3622SOL    HW211451   2.452   1.408   2.501
 3623SOL     OW11452   3.155   1.228   3.285
 3623SOL    HW111453   3.192   1.155   3.227
 3623SOL    HW211454   3.207   1.233   3.370
 3624SOL     OW11455   2.671   0.004   2.364
 3624SOL    HW111456   2.711   0.095   2.355
 3624SOL    HW211457   2.571   0.012   2.370
 3625SOL     OW11458   2.059   0.976   3.126
 3625SOL    HW111459   2.148   0.931   3.112
 3625SOL    HW211460   1.986   0.911   3.107
 3626SOL     OW11461   3.387   0.999   2.052
 3626SOL    HW111462   3.324   0.923   2.065
 3626SOL    HW211463   3.435   1.017   2.138
 3627SOL     OW11464   3.049   1.792   3.478
 3627SOL    HW111465   3.073   1.852   3.402
 3627SOL    HW211466   3.056   1.697   3.448
 3628SOL     OW11467   2.179   0.251   3.663
 3628SOL    HW111468   2.250   0.322   3.669
 3628SOL    HW211469   2.091   0.290   3.691
 3629SOL     OW11470   3.328   1.417   2.815
 3629SOL    HW111471   3.269   1.423   2.895
 3629SOL    HW211472   3.313   1.329   2.769
 3630SOL     OW11473   3.529   1.714   2.434
 3630SOL    HW111474   3.488   1.691   2.346
 3630SOL    HW211475   3.511   1.640   2.499
 3631SOL     OW11476   2.460   0.729   2.132
 3631SOL    HW111477   2.484   0.798   2.064
 3631SOL    HW211478   2.382   0.762   2.186
 3632SOL     OW11479   3.143   0.345   2.806
 3632SOL    HW111480   3.057   0.295   2.793
 3632SOL    HW211481   3.205   0.291   2.862
 3633SOL     OW11482   3.438   1.662   2.169
 3633SOL    HW111483   3.527   1.708   2.172
 3633SOL    HW211484   3.417   1.638   2.074
 3634SOL     OW11485   2.669   0.605   3.327
 3634SOL    HW111486   2.622   0.602   3.416
 3634SOL    HW211487   2.618   0.550   3.261
 3635SOL     OW11488   3.256   0.469   3.536
 3635SOL    HW111489   3.236   0.512   3.624
 3635SOL    HW211490   3.334   0.407   3.545
 3636SOL     OW11491   2.835   0.890   3.434
 3636SOL    HW111492   2.881   0.806   3.405
 3636SOL    HW211493   2.779   0.924   3.359
 3637SOL     OW11494   2.853   0.410   3.104
 3637SOL    HW111495   2.776   0.444   3.158
 3637SOL    HW211496   2.819   0.359   3.025
 3638SOL     OW11497   2.903   0.701   2.291
 3638SOL    HW111498   2.929   0.697   2.387
 3638SOL    HW211499   2.818   0.650   2.277
 3639SOL     OW11500   1.938   0.811   2.651
 3639SOL    HW111501   2.037   0.799   2.660
 3639SOL    HW211502   1.914   0.906   2.672
 3640SOL     OW11503   2.727   0.348   2.057
 3640SOL    HW111504   2.786   0.411   2.008
 3640SOL    HW211505   2.746   0.254   2.028
 3641SOL     OW11506   3.581   0.585   3.693
 3641SOL    HW111507   3.555   0.674   3.657
 3641SOL    HW211508   3.579   0.517   3.620
 3642SOL     OW11509   3.224   1.144   2.407
 3642SOL    HW111510   3.307   1.115   2.359
 3642SOL    HW211511   3.175   1.211   2.351
 3643SOL     OW11512   2.412   0.196   2.747
 3643SOL    HW111513   2.407   0.191   2.847
 3643SOL    HW211514   2.414   0.292   2.718
 3644SOL     OW11515   2.870   1.456   2.339
 3644SOL    HW111516   2.824   1.528   2.287
 3644SOL    HW211517   2.866   1.476   2.437
 3645SOL     OW11518   3.657   1.066   2.735
 3645SOL    HW111519   3.595   1.051   2.659
 3645SOL    HW211520   3.605   1.077   2.820
 3646SOL     OW11521   3.089   1.550   3.368
 3646SOL    HW111522   3.095   1.473   3.432
 3646SOL    HW211523   3.037   1.524   3.288
 3647SOL     OW11524   2.183   0.943   2.104
 3647SOL    HW111525   2.265   0.982   2.062
 3647SOL    HW211526   2.156   0.861   2.055
 3648SOL     OW11527   3.320   0.735   2.590
 3648SOL    HW111528   3.315   0.670   2.665
 3648SOL    HW211529   3.400   0.794   2.603
 3649SOL     OW11530   2.323   1.266   3.589
 3649SOL    HW111531   2.273   1.267   3.503
 3649SOL    HW211532   2.260   1.248   3.665
 3650SOL     OW11533   2.973   1.776   2.099
 3650SOL    HW111534   2.913   1.714   2.149
 3650SOL    HW211535   3.004   1.732   2.014
 3651SOL     OW11536   2.064   0.285   3.360
 3651SOL    HW111537   1.984   0.345   3.347
 3651SOL    HW211538   2.054   0.236   3.446
 3652SOL     OW11539   3.494   1.377   1.943
 3652SOL    HW111540   3.462   1.471   1.933
 3652SOL    HW211541   3.418   1.314   1.931
 3653SOL     OW11542   2.326   1.743   2.185
 3653SOL    HW111543   2.359   1.782   2.271
 3653SOL    HW211544   2.402   1.736   2.120
 3654SOL     OW11545   3.262   0.107   2.288
 3654SOL    HW111546   3.238   0.070   2.198
 3654SOL    HW211547   3.361   0.123   2.292
 3655SOL     OW11548   2.802   1.698   2.766
 3655SOL    HW111549   2.882   1.641   2.787
 3655SOL    HW211550   2.753   1.658   2.689
 3656SOL     OW11551   2.244   0.700   2.342
 3656SOL    HW111552   2.289   0.610   2.339
 3656SOL    HW211553   2.150   0.689   2.375
 3657SOL     OW11554   3.409   0.222   3.591
 3657SOL    HW111555   3.404   0.259   3.683
 3657SOL    HW211556   3.337   0.153   3.579
 3658SOL     OW11557   2.476   0.122   1.979
 3658SOL    HW111558   2.574   0.100   1.986
 3658SOL    HW211559   2.445   0.105   1.886
 3659SOL     OW11560   2.643   0.264   3.611
 3659SOL    HW111561   2.710   0.203   3.654
 3659SOL    HW211562   2.570   0.283   3.676
 3660SOL     OW11563   2.750   1.514   3.057
 3660SOL    HW111564   2.727   1.489   2.963
 3660SOL    HW211565   2.811   1.445   3.096
 3661SOL     OW11566   3.213   0.590   3.295
 3661SOL    HW111567   3.241   0.547   3.380
 3661SOL    HW211568   3.238   0.686   3.296
 3662SOL     OW11569   2.665   1.402   2.786
 3662SOL    HW111570   2.755   1.416   2.744
 3662SOL    HW211571   2.594   1.404   2.715
 3663SOL     OW11572   2.784   0.503   2.761
 3663SOL    HW111573   2.759   0.494   2.665
 3663SOL    HW211574   2.832   0.421   2.792
 3664SOL     OW11575   2.401   0.064   2.374
 3664SOL    HW111576   2.320   0.065   2.432
 3664SOL    HW211577   2.404   0.147   2.319
 3665SOL     OW11578   3.296   1.188   1.903
 3665SOL    HW111579   3.328   1.112   1.960
 3665SOL    HW211580   3.204   1.215   1.933
 3666SOL     OW11581   2.159   0.035   2.033
 3666SOL    HW111582   2.208   0.119   2.012
 3666SOL    HW211583   2.221  -0.030   2.078
 3667SOL     OW11584   2.797   0.236   2.342
 3667SOL    HW111585   2.749   0.277   2.264
 3667SOL    HW211586   2.896   0.234   2.323
 3668SOL     OW11587   2.938   0.683   3.326
 3668SOL    HW111588   2.858   0.622   3.329
 3668SOL    HW211589   3.019   0.630   3.302
 3669SOL     OW11590   3.089   1.570   2.655
 3669SOL    HW111591   3.110   1.644   2.590
 3669SOL    HW211592   3.157   1.570   2.728
 3670SOL     OW11593   2.321   1.152   2.603
 3670SOL    HW111594   2.250   1.125   2.668
 3670SOL    HW211595   2.295   1.124   2.510
 3671SOL     OW11596   3.133   1.797   2.453
 3671SOL    HW111597   3.177   1.861   2.389
 3671SOL    HW211598   3.083   1.849   2.523
 3672SOL     OW11599   2.894   0.549   1.878
 3672SOL    HW111600   2.853   0.631   1.839
 3672SOL    HW211601   2.958   0.575   1.951
 3673SOL     OW11602   1.940   0.556   3.248
 3673SOL    HW111603   2.032   0.555   3.207
 3673SOL    HW211604   1.934   0.630   3.315
 3674SOL     OW11605   2.423   0.222   3.009
 3674SOL    HW111606   2.461   0.138   3.046
 3674SOL    HW211607   2.335   0.241   3.053
 3675SOL     OW11608   2.728   0.454   2.504
 3675SOL    HW111609   2.696   0.526   2.442
 3675SOL    HW211610   2.752   0.373   2.451
 3676SOL     OW11611   2.879   0.039   2.615
 3676SOL    HW111612   2.807   0.044   2.546
 3676SOL    HW211613   2.855  -0.030   2.684
 3677SOL     OW11614   3.291   1.173   2.729
 3677SOL    HW111615   3.236   1.089   2.722
 3677SOL    HW211616   3.317   1.202   2.637
 3678SOL     OW11617   3.328   0.590   2.854
 3678SOL    HW111618   3.298   0.495   2.861
 3678SOL    HW211619   3.401   0.606   2.920
 3679SOL     OW11620   3.719   0.833   2.239
 3679SOL    HW111621   3.761   0.769   2.303
 3679SOL    HW211622   3.681   0.782   2.161
 3680SOL     OW11623   2.350   1.385   2.036
 3680SOL    HW111624   2.263   1.370   2.083
 3680SOL    HW211625   2.333   1.411   1.941
 3681SOL     OW11626   3.526   1.280   2.519
 3681SOL    HW111627   3.625   1.288   2.533
 3681SOL    HW211628   3.481   1.364   2.550
 3682SOL     OW11629   3.252   0.575   1.940
 3682SOL    HW111630   3.198   0.554   2.021
 3682SOL    HW211631   3.343   0.534   1.949
 3683SOL     OW11632   2.389   0.256   2.190
 3683SOL    HW111633   2.416   0.197   2.115
 3683SOL    HW211634   2.389   0.351   2.159
 3684SOL     OW11635   3.616   1.223   3.450
 3684SOL    HW111636   3.707   1.184   3.437
 3684SOL    HW211637   3.624   1.319   3.474
 3685SOL     OW11638   2.926   1.347   3.202
 3685SOL    HW111639   2.846   1.324   3.257
 3685SOL    HW211640   3.009   1.321   3.251
 3686SOL     OW11641   3.454   1.629   3.487
 3686SOL    HW111642   3.481   1.663   3.397
 3686SOL    HW211643   3.533   1.591   3.533
 3687SOL     OW11644   2.973   1.195   2.962
 3687SOL    HW111645   2.933   1.239   3.043
 3687SOL    HW211646   2.932   1.232   2.879
 3688SOL     OW11647   3.500   1.099   2.941
 3688SOL    HW111648   3.505   1.180   3.000
 3688SOL    HW211649   3.414   1.101   2.890
 3689SOL     OW11650   2.777   0.089   3.264
 3689SOL    HW111651   2.802   0.069   3.169
 3689SOL    HW211652   2.849   0.145   3.306
 3690SOL     OW11653   2.842   1.116   3.581
 3690SOL    HW111654   2.743   1.122   3.591
 3690SOL    HW211655   2.865   1.036   3.525
 3691SOL     OW11656   2.567   1.050   2.230
 3691SOL    HW111657   2.553   1.057   2.329
 3691SOL    HW211658   2.651   0.999   2.212
 3692SOL     OW11659   2.272   0.813   3.113
 3692SOL    HW111660   2.358   0.825   3.163
 3692SOL    HW211661   2.230   0.726   3.140
 3693SOL     OW11662   3.136   0.386   3.124
 3693SOL    HW111663   3.157   0.460   3.188
 3693SOL    HW211664   3.047   0.403   3.081
 3694SOL     OW11665   2.229   1.100   2.363
 3694SOL    HW111666   2.222   1.183   2.307
 3694SOL    HW211667   2.233   1.020   2.303
 3695SOL     OW11668   2.428   0.537   2.727
 3695SOL    HW111669   2.440   0.603   2.653
 3695SOL    HW211670   2.474   0.571   2.810
 3696SOL     OW11671   3.114   1.348   2.250
 3696SOL    HW111672   3.164   1.425   2.290
 3696SOL    HW211673   3.019   1.350   2.282
 3697SOL     OW11674   3.134   1.445   3.004
 3697SOL    HW111675   3.181   1.458   3.091
 3697SOL    HW211676   3.068   1.371   3.013
 3698SOL     OW11677   3.444   0.639   2.334
 3698SOL    HW111678   3.413   0.700   2.407
 3698SOL    HW211679   3.494   0.691   2.265
 3699SOL     OW11680   2.216   1.510   3.191
 3699SOL    HW111681   2.195   1.466   3.104
 3699SOL    HW211682   2.313   1.536   3.194
 3700SOL     OW11683   2.264   0.751   3.460
 3700SOL    HW111684   2.332   0.806   3.413
 3700SOL    HW211685   2.304   0.663   3.487
 3701SOL     OW11686   3.449   0.779   3.532
 3701SOL    HW111687   3.357   0.817   3.527
 3701SOL    HW211688   3.509   0.826   3.467
 3702SOL     OW11689   2.875   0.105   3.632
 3702SOL    HW111690   2.881   0.190   3.580
 3702SOL    HW211691   2.907   0.029   3.575
 3703SOL     OW11692   2.366   0.050   3.602
 3703SOL    HW111693   2.324  -0.007   3.532
 3703SOL    HW211694   2.300   0.119   3.634
 3704SOL     OW11695   2.435   0.870   2.891
 3704SOL    HW111696   2.479   0.959   2.882
 3704SOL    HW211697   2.372   0.870   2.968
 3705SOL     OW11698   3.222   0.862   2.907
 3705SOL    HW111699   3.147   0.862   2.841
 3705SOL    HW211700   3.259   0.770   2.916
 3706SOL     OW11701   3.071   0.525   2.137
 3706SOL    HW111702   3.084   0.441   2.191
 3706SOL    HW211703   3.042   0.599   2.197
 3707SOL     OW11704   2.169   0.213   3.093
 3707SOL    HW111705   2.146   0.250   3.183
 3707SOL    HW211706   2.139   0.118   3.087
 3708SOL     OW11707   1.899   1.310   3.144
 3708SOL    HW111708   1.952   1.261   3.212
 3708SOL    HW211709   1.921   1.408   3.149
 3709SOL     OW11710   2.594   0.634   2.926
 3709SOL    HW111711   2.653   0.608   2.850
 3709SOL    HW211712   2.566   0.730   2.915
 3710SOL     OW11713   3.590   0.935   3.716
 3710SOL    HW111714   3.544   0.928   3.627
 3710SOL    HW211715   3.528   0.979   3.782
 3711SOL     OW11716   2.169   0.063   2.480
 3711SOL    HW111717   2.158   0.157   2.513
 3711SOL    HW211718   2.164   0.000   2.557
 3712SOL     OW11719   3.484   0.367   2.236
 3712SOL    HW111720   3.486   0.291   2.300
 3712SOL    HW211721   3.436   0.444   2.276
 3713SOL     OW11722   2.885   0.766   2.828
 3713SOL    HW111723   2.900   0.787   2.924
 3713SOL    HW211724   2.855   0.671   2.819
 3714SOL     OW11725   2.842   1.573   3.562
 3714SOL    HW111726   2.822   1.617   3.474
 3714SOL    HW211727   2.881   1.482   3.546
 3715SOL     OW11728   3.721   1.518   3.467
 3715SOL    HW111729   3.735   1.545   3.372
 3715SOL    HW211730   3.804   1.540   3.520
 3716SOL     OW11731   2.212   0.898   3.666
 3716SOL    HW111732   2.288   0.942   3.714
 3716SOL    HW211733   2.247   0.851   3.584
 3717SOL     OW11734   3.402   0.274   1.987
 3717SOL    HW111735   3.341   0.199   2.010
 3717SOL    HW211736   3.424   0.326   2.070
 3718SOL     OW11737   3.165   0.838   1.904
 3718SOL    HW111738   3.199   0.745   1.919
 3718SOL    HW211739   3.183   0.865   1.809
 3719SOL     OW11740   2.930   1.333   2.711
 3719SOL    HW111741   2.937   1.249   2.656
 3719SOL    HW211742   2.992   1.402   2.675
 3720SOL     OW11743   2.181   0.810   2.811
 3720SOL    HW111744   2.274   0.846   2.816
 3720SOL    HW211745   2.175   0.725   2.863
 3721SOL     OW11746   2.201   0.509   2.868
 3721SOL    HW111747   2.149   0.426   2.851
 3721SOL    HW211748   2.278   0.514   2.804
 3722SOL     OW11749   3.000   0.380   3.540
 3722SOL    HW111750   2.955   0.443   3.604
 3722SOL    HW211751   3.093   0.411   3.523
 3723SOL     OW11752   3.022   0.207   3.339
 3723SOL    HW111753   3.022   0.271   3.416
 3723SOL    HW211754   3.050   0.255   3.256
 3724SOL     OW11755   1.870   1.326   2.062
 3724SOL    HW111756   1.777   1.347   2.031
 3724SOL    HW211757   1.880   1.227   2.075
 3725SOL     OW11758   2.366   1.568   2.772
 3725SOL    HW111759   2.432   1.642   2.781
 3725SOL    HW211760   2.410   1.489   2.730
 3726SOL     OW11761   2.864   0.796   3.100
 3726SOL    HW111762   2.905   0.764   3.186
 3726SOL    HW211763   2.768   0.769   3.097
 3727SOL     OW11764   1.902   0.544   2.976
 3727SOL    HW111765   1.987   0.511   2.935
 3727SOL    HW211766   1.915   0.559   3.074
 3728SOL     OW11767   2.051   0.520   3.584
 3728SOL    HW111768   2.110   0.480   3.514
 3728SOL    HW211769   1.993   0.591   3.543
 3729SOL     OW11770   3.231   0.950   3.522
 3729SOL    HW111771   3.270   1.039   3.542
 3729SOL    HW211772   3.241   0.930   3.425
 3730SOL     OW11773   2.677   0.572   2.187
 3730SOL    HW111774   2.684   0.483   2.141
 3730SOL    HW211775   2.583   0.606   2.179
 3731SOL     OW11776   3.519   0.604   3.068
 3731SOL    HW111777   3.481   0.535   3.130
 3731SOL    HW211778   3.601   0.568   3.024
 3732SOL     OW11779   2.114   1.564   3.606
 3732SOL    HW111780   2.084   1.621   3.682
 3732SOL    HW211781   2.107   1.467   3.632
 3733SOL     OW11782   2.533   0.464   3.131
 3733SOL    HW111783   2.499   0.375   3.101
 3733SOL    HW211784   2.559   0.518   3.051
 3734SOL     OW11785   2.792   1.678   3.327
 3734SOL    HW111786   2.768   1.660   3.232
 3734SOL    HW211787   2.822   1.772   3.337
 3735SOL     OW11788   2.335   0.500   2.053
 3735SOL    HW111789   2.396   0.580   2.057
 3735SOL    HW211790   2.240   0.531   2.060
 3736SOL     OW11791   2.021   1.137   3.328
 3736SOL    HW111792   2.043   1.076   3.404
 3736SOL    HW211793   2.031   1.088   3.242
 3737SOL     OW11794   3.209   1.059   3.096
 3737SOL    HW111795   3.233   0.996   3.022
 3737SOL    HW211796   3.119   1.099   3.078
 3738SOL     OW11797   3.164   0.855   2.171
 3738SOL    HW111798   3.078   0.824   2.213
 3738SOL    HW211799   3.160   0.841   2.072
 3739SOL     OW11800   3.621   1.747   3.016
 3739SOL    HW111801   3.682   1.777   2.943
 3739SOL    HW211802   3.583   1.658   2.994
 3740SOL     OW11803   3.114   1.731   2.990
 3740SOL    HW111804   3.198   1.736   2.936
 3740SOL    HW211805   3.091   1.635   3.008
 3741SOL     OW11806   1.945   1.258   2.884
 3741SOL    HW111807   1.940   1.257   2.984
 3741SOL    HW211808   1.862   1.217   2.846
 3742SOL     OW11809   2.550   1.662   3.578
 3742SOL    HW111810   2.494   1.743   3.587
 3742SOL    HW211811   2.602   1.666   3.492
 3743SOL     OW11812   3.588   0.135   2.385
 3743SOL    HW111813   3.661   0.118   2.318
 3743SOL    HW211814   3.557   0.048   2.423
 3744SOL     OW11815   3.250   1.573   2.339
 3744SOL    HW111816   3.317   1.585   2.265
 3744SOL    HW211817   3.210   1.662   2.362
 3745SOL     OW11818   3.142   0.927   2.534
 3745SOL    HW111819   3.202   0.846   2.536
 3745SOL    HW211820   3.182   0.996   2.474
 3746SOL     OW11821   2.692   1.273   3.284
 3746SOL    HW111822   2.687   1.306   3.379
 3746SOL    HW211823   2.606   1.292   3.238
 3747SOL     OW11824   2.534   1.616   2.016
 3747SOL    HW111825   2.543   1.626   1.917
 3747SOL    HW211826   2.494   1.527   2.037
 3748SOL     OW11827   3.512   1.720   3.256
 3748SOL    HW111828   3.565   1.730   3.172
 3748SOL    HW211829   3.485   1.810   3.290
 3749SOL     OW11830   3.703   0.175   2.825
 3749SOL    HW111831   3.742   0.090   2.789
 3749SOL    HW211832   3.605   0.177   2.806
 3750SOL     OW11833   2.125   0.326   2.582
 3750SOL    HW111834   2.046   0.377   2.548
 3750SOL    HW211835   2.116   0.311   2.680
 3751SOL     OW11836   3.056   1.612   1.893
 3751SOL    HW111837   3.062   1.519   1.930
 3751SOL    HW211838   2.997   1.612   1.813
 3752SOL     OW11839   2.684   1.002   3.234
 3752SOL    HW111840   2.724   1.001   3.142
 3752SOL    HW211841   2.694   1.094   3.274
 3753SOL     OW11842   2.778   0.910   2.153
 3753SOL    HW111843   2.841   0.948   2.085
 3753SOL    HW211844   2.818   0.827   2.192
 3754SOL     OW11845   3.366   1.607   1.906
 3754SOL    HW111846   3.274   1.644   1.913
 3754SOL    HW211847   3.404   1.627   1.816
 3755SOL     OW11848   2.234   1.288   3.352
 3755SOL    HW111849   2.221   1.381   3.318
 3755SOL    HW211850   2.150   1.236   3.339
 3756SOL     OW11851   3.476   1.292   3.151
 3756SOL    HW111852   3.536   1.295   3.231
 3756SOL    HW211853   3.401   1.356   3.164
 3757SOL     OW11854   2.901   1.098   2.558
 3757SOL    HW111855   2.831   1.051   2.612
 3757SOL    HW211856   2.960   1.030   2.515
 3758SOL     OW11857   2.876   0.236   2.833
 3758SOL    HW111858   2.868   0.200   2.740
 3758SOL    HW211859   2.874   0.160   2.898
 3759SOL     OW11860   2.452   1.487   2.353
 3759SOL    HW111861   2.494   1.429   2.283
 3759SOL    HW211862   2.408   1.566   2.309
 3760SOL     OW11863   3.571   0.385   3.243
 3760SOL    HW111864   3.644   0.454   3.247
 3760SOL    HW211865   3.599   0.310   3.184
 3761SOL     OW11866   2.117   1.348   2.152
 3761SOL    HW111867   2.021   1.349   2.125
 3761SOL    HW211868   2.129   1.401   2.236
 3762SOL     OW11869   1.967   1.013   3.588
 3762SOL    HW111870   1.890   0.980   3.642
 3762SOL    HW211871   2.052   0.983   3.630
 3763SOL     OW11872   2.534   0.203   3.351
 3763SOL    HW111873   2.624   0.187   3.311
 3763SOL    HW211874   2.542   0.208   3.450
 3764SOL     OW11875   1.937   0.345   1.895
 3764SOL    HW111876   1.845   0.317   1.866
 3764SOL    HW211877   1.968   0.422   1.839
 3765SOL     OW11878   3.302   0.856   3.260
 3765SOL    HW111879   3.245   0.908   3.197
 3765SOL    HW211880   3.398   0.868   3.236
 3766SOL     OW11881   1.934   0.166   2.180
 3766SOL    HW111882   1.917   0.249   2.126
 3766SOL    HW211883   2.024   0.129   2.158
 3767SOL     OW11884   3.045   1.335   1.981
 3767SOL    HW111885   2.946   1.324   1.983
 3767SOL    HW211886   3.079   1.350   2.074
 3768SOL     OW11887   2.475   0.842   3.293
 3768SOL    HW111888   2.531   0.923   3.276
 3768SOL    HW211889   2.534   0.762   3.296
 3769SOL     OW11890   3.355   1.767   2.821
 3769SOL    HW111891   3.388   1.831   2.752
 3769SOL    HW211892   3.421   1.761   2.896
 3770SOL     OW11893   2.578   0.565   3.570
 3770SOL    HW111894   2.597   0.630   3.644
 3770SOL    HW211895   2.638   0.485   3.579
 3771SOL     OW11896   3.312   1.220   3.495
 3771SOL    HW111897   3.303   1.210   3.594
 3771SOL    HW211898   3.408   1.213   3.469
 3772SOL     OW11899   2.252   1.741   3.422
 3772SOL    HW111900   2.161   1.782   3.420
 3772SOL    HW211901   2.245   1.647   3.454
 3773SOL     OW11902   3.536   0.883   3.116
 3773SOL    HW111903   3.509   0.794   3.079
 3773SOL    HW211904   3.537   0.951   3.043
 3774SOL     OW11905   3.087   0.325   2.311
 3774SOL    HW111906   3.152   0.251   2.300
 3774SOL    HW211907   3.107   0.375   2.395
 3775SOL     OW11908   2.456   0.745   2.514
 3775SOL    HW111909   2.506   0.830   2.495
 3775SOL    HW211910   2.368   0.747   2.466
 3776SOL     OW11911   3.639   0.342   3.504
 3776SOL    HW111912   3.622   0.373   3.410
 3776SOL    HW211913   3.555   0.305   3.542
 3777SOL     OW11914   3.592   0.934   3.379
 3777SOL    HW111915   3.630   1.025   3.394
 3777SOL    HW211916   3.584   0.917   3.280
 3778SOL     OW11917   2.721   1.374   1.878
 3778SOL    HW111918   2.675   1.389   1.966
 3778SOL    HW211919   2.765   1.459   1.848
 3779SOL     OW11920   2.523   1.790   2.815
 3779SOL    HW111921   2.477   1.878   2.802
 3779SOL    HW211922   2.622   1.802   2.808
 3780SOL     OW11923   2.721   0.956   2.723
 3780SOL    HW111924   2.775   0.887   2.771
 3780SOL    HW211925   2.689   1.025   2.789
 3781SOL     OW11926   2.945   0.984   1.949
 3781SOL    HW111927   2.922   1.037   1.867
 3781SOL    HW211928   3.026   0.928   1.930
 3782SOL     OW11929   3.723   1.569   2.713
 3782SOL    HW111930   3.652   1.557   2.643
 3782SOL    HW211931   3.724   1.490   2.773
 3783SOL     OW11932   2.083   1.314   3.706
 3783SOL    HW111933   2.018   1.241   3.685
 3783SOL    HW211934   2.087   1.328   3.804
 3784SOL     OW11935   1.941   1.240   2.515
 3784SOL    HW111936   1.940   1.193   2.603
 3784SOL    HW211937   2.023   1.212   2.464
 3785SOL     OW11938   2.534   1.391   3.486
 3785SOL    HW111939   2.456   1.341   3.524
 3785SOL    HW211940   2.531   1.486   3.517
 3786SOL     OW11941   3.686   0.192   3.089
 3786SOL    HW111942   3.682   0.102   3.133
 3786SOL    HW211943   3.689   0.181   2.990
 3787SOL     OW11944   2.290   0.424   2.382
 3787SOL    HW111945   2.320   0.352   2.320
 3787SOL    HW211946   2.251   0.384   2.465
 3788SOL     OW11947   3.567   1.487   2.966
 3788SOL    HW111948   3.474   1.462   2.939
 3788SOL    HW211949   3.593   1.437   3.048
 3789SOL     OW11950   2.179   0.547   3.142
 3789SOL    HW111951   2.217   0.488   3.214
 3789SOL    HW211952   2.219   0.521   3.054
 3790SOL     OW11953   2.674   1.586   2.549
 3790SOL    HW111954   2.706   1.596   2.455
 3790SOL    HW211955   2.595   1.524   2.551
 3791SOL     OW11956   3.286   0.214   2.974
 3791SOL    HW111957   3.338   0.149   3.029
 3791SOL    HW211958   3.237   0.277   3.035
 3792SOL     OW11959   2.863   0.034   3.016
 3792SOL    HW111960   2.800  -0.038   2.985
 3792SOL    HW211961   2.956  -0.002   3.016
 3793SOL     OW11962   2.632   1.330   2.163
 3793SOL    HW111963   2.586   1.243   2.180
 3793SOL    HW211964   2.723   1.327   2.204
 3794SOL     OW11965   2.480   1.567   3.146
 3794SOL    HW111966   2.475   1.649   3.203
 3794SOL    HW211967   2.569   1.564   3.101
 3795SOL     OW11968   3.214   0.052   2.030
 3795SOL    HW111969   3.249   0.011   1.946
 3795SOL    HW211970   3.124   0.014   2.050
 3796SOL     OW11971   3.162   0.453   2.553
 3796SOL    HW111972   3.103   0.533   2.557
 3796SOL    HW211973   3.177   0.418   2.646
 3797SOL     OW11974   3.455   0.221   2.744
 3797SOL    HW111975   3.371   0.220   2.798
 3797SOL    HW211976   3.457   0.304   2.688
 3798SOL     OW11977   1.901   1.077   2.162
 3798SOL    HW111978   2.000   1.066   2.153
 3798SOL    HW211979   1.861   0.991   2.194
 3799SOL     OW11980   2.737   1.646   2.199
 3799SOL    HW111981   2.660   1.611   2.145
 3799SOL    HW211982   2.705   1.717   2.261
 3800SOL     OW11983   2.092   0.628   3.837
 3800SOL    HW111984   1.999   0.626   3.874
 3800SOL    HW211985   2.093   0.589   3.745
 3801SOL     OW11986   2.087   0.275   4.720
 3801SOL    HW111987   2.122   0.258   4.812
 3801SOL    HW211988   1.999   0.230   4.708
 3802SOL     OW11989   1.881   0.368   4.371
 3802SOL    HW111990   1.799   0.411   4.410
 3802SOL    HW211991   1.853   0.295   4.308
 3803SOL     OW11992   2.431   1.275   4.889
 3803SOL    HW111993   2.338   1.268   4.852
 3803SOL    HW211994   2.442   1.364   4.933
 3804SOL     OW11995   3.417   1.511   4.427
 3804SOL    HW111996   3.360   1.495   4.508
 3804SOL    HW211997   3.358   1.521   4.347
 3805SOL     OW11998   2.997   0.703   4.441
 3805SOL    HW111999   3.054   0.781   4.416
 3805SOL    HW212000   2.937   0.729   4.517
 3806SOL     OW12001   3.617   0.607   3.955
 3806SOL    HW112002   3.605   0.594   3.856
 3806SOL    HW212003   3.587   0.526   4.004
 3807SOL     OW12004   2.630   1.144   4.747
 3807SOL    HW112005   2.552   1.161   4.807
 3807SOL    HW212006   2.664   1.231   4.711
 3808SOL     OW12007   2.712   0.798   5.547
 3808SOL    HW112008   2.708   0.874   5.612
 3808SOL    HW212009   2.734   0.834   5.456
 3809SOL     OW12010   2.547   1.012   4.389
 3809SOL    HW112011   2.616   0.996   4.459
 3809SOL    HW212012   2.474   1.069   4.427
 3810SOL     OW12013   2.548   1.161   5.527
 3810SOL    HW112014   2.608   1.240   5.541
 3810SOL    HW212015   2.462   1.192   5.486
 3811SOL     OW12016   2.197   1.435   4.785
 3811SOL    HW112017   2.119   1.404   4.732
 3811SOL    HW212018   2.255   1.493   4.728
 3812SOL     OW12019   3.322   1.505   5.063
 3812SOL    HW112020   3.346   1.599   5.089
 3812SOL    HW212021   3.306   1.451   5.145
 3813SOL     OW12022   2.300   0.392   5.223
 3813SOL    HW112023   2.382   0.336   5.232
 3813SOL    HW212024   2.219   0.334   5.227
 3814SOL     OW12025   3.465   0.447   4.461
 3814SOL    HW112026   3.391   0.493   4.411
 3814SOL    HW212027   3.516   0.515   4.514
 3815SOL     OW12028   2.989   1.341   5.414
 3815SOL    HW112029   3.036   1.341   5.502
 3815SOL    HW212030   2.941   1.254   5.403
 3816SOL     OW12031   2.092   1.434   4.262
 3816SOL    HW112032   2.066   1.530   4.262
 3816SOL    HW212033   2.021   1.380   4.307
 3817SOL     OW12034   2.102   1.091   4.610
 3817SOL    HW112035   2.116   1.007   4.662
 3817SOL    HW212036   2.047   1.155   4.665
 3818SOL     OW12037   2.482   1.786   5.163
 3818SOL    HW112038   2.390   1.769   5.198
 3818SOL    HW212039   2.510   1.878   5.189
 3819SOL     OW12040   2.468   0.964   3.847
 3819SOL    HW112041   2.475   1.048   3.793
 3819SOL    HW212042   2.514   0.977   3.935
 3820SOL     OW12043   3.456   0.114   5.204
 3820SOL    HW112044   3.438   0.181   5.132
 3820SOL    HW212045   3.453   0.160   5.293
 3821SOL     OW12046   1.984   0.643   4.287
 3821SOL    HW112047   1.939   0.555   4.304
 3821SOL    HW212048   1.983   0.697   4.371
 3822SOL     OW12049   3.704   1.767   4.083
 3822SOL    HW112050   3.758   1.738   4.163
 3822SOL    HW212051   3.734   1.857   4.054
 3823SOL     OW12052   1.889   1.596   3.841
 3823SOL    HW112053   1.870   1.500   3.862
 3823SOL    HW212054   1.856   1.654   3.916
 3824SOL     OW12055   3.551   0.922   4.336
 3824SOL    HW112056   3.646   0.893   4.344
 3824SOL    HW212057   3.543   0.987   4.261
 3825SOL     OW12058   3.503   1.108   4.156
 3825SOL    HW112059   3.589   1.110   4.104
 3825SOL    HW212060   3.517   1.155   4.244
 3826SOL     OW12061   1.975   0.737   5.321
 3826SOL    HW112062   2.063   0.724   5.366
 3826SOL    HW212063   1.962   0.834   5.299
 3827SOL     OW12064   2.475   1.365   4.450
 3827SOL    HW112065   2.426   1.278   4.459
 3827SOL    HW212066   2.452   1.408   4.363
 3828SOL     OW12067   3.155   1.228   5.147
 3828SOL    HW112068   3.192   1.155   5.089
 3828SOL    HW212069   3.207   1.233   5.232
 3829SOL     OW12070   2.671   0.004   4.226
 3829SOL    HW112071   2.711   0.095   4.217
 3829SOL    HW212072   2.571   0.012   4.232
 3830SOL     OW12073   2.059   0.976   4.988
 3830SOL    HW112074   2.148   0.931   4.974
 3830SOL    HW212075   1.986   0.911   4.969
 3831SOL     OW12076   3.387   0.999   3.914
 3831SOL    HW112077   3.324   0.923   3.927
 3831SOL    HW212078   3.435   1.017   4.000
 3832SOL     OW12079   3.049   1.792   5.340
 3832SOL    HW112080   3.073   1.852   5.264
 3832SOL    HW212081   3.056   1.697   5.310
 3833SOL     OW12082   2.179   0.251   5.525
 3833SOL    HW112083   2.250   0.322   5.531
 3833SOL    HW212084   2.091   0.290   5.553
 3834SOL     OW12085   3.328   1.417   4.677
 3834SOL    HW112086   3.269   1.423   4.757
 3834SOL    HW212087   3.313   1.329   4.631
 3835SOL     OW12088   3.529   1.714   4.296
 3835SOL    HW112089   3.488   1.691   4.208
 3835SOL    HW212090   3.511   1.640   4.361
 3836SOL     OW12091   2.460   0.729   3.994
 3836SOL    HW112092   2.484   0.798   3.926
 3836SOL    HW212093   2.382   0.762   4.048
 3837SOL     OW12094   3.143   0.345   4.668
 3837SOL    HW112095   3.057   0.295   4.655
 3837SOL    HW212096   3.205   0.291   4.724
 3838SOL     OW12097   3.438   1.662   4.031
 3838SOL    HW112098   3.527   1.708   4.034
 3838SOL    HW212099   3.417   1.638   3.936
 3839SOL     OW12100   2.669   0.605   5.189
 3839SOL    HW112101   2.622   0.602   5.278
 3839SOL    HW212102   2.618   0.550   5.123
 3840SOL     OW12103   3.256   0.469   5.398
 3840SOL    HW112104   3.236   0.512   5.486
 3840SOL    HW212105   3.334   0.407   5.407
 3841SOL     OW12106   2.835   0.890   5.296
 3841SOL    HW112107   2.881   0.806   5.267
 3841SOL    HW212108   2.779   0.924   5.221
 3842SOL     OW12109   2.853   0.410   4.966
 3842SOL    HW112110   2.776   0.444   5.020
 3842SOL    HW212111   2.819   0.359   4.887
 3843SOL     OW12112   2.903   0.701   4.153
 3843SOL    HW112113   2.929   0.697   4.249
 3843SOL    HW212114   2.818   0.650   4.139
 3844SOL     OW12115   1.938   0.811   4.513
 3844SOL    HW112116   2.037   0.799   4.522
 3844SOL    HW212117   1.914   0.906   4.534
 3845SOL     OW12118   2.727   0.348   3.919
 3845SOL    HW112119   2.786   0.411   3.870
 3845SOL    HW212120   2.746   0.254   3.890
 3846SOL     OW12121   3.581   0.585   5.555
 3846SOL    HW112122   3.555   0.674   5.519
 3846SOL    HW212123   3.579   0.517   5.482
 3847SOL     OW12124   3.224   1.144   4.269
 3847SOL    HW112125   3.307   1.115   4.221
 3847SOL    HW212126   3.175   1.211   4.213
 3848SOL     OW12127   2.412   0.196   4.609
 3848SOL    HW112128   2.407   0.191   4.709
 3848SOL    HW212129   2.414   0.292   4.580
 3849SOL     OW12130   2.870   1.456   4.201
 3849SOL    HW112131   2.824   1.528   4.149
 3849SOL    HW212132   2.866   1.476   4.299
 3850SOL     OW12133   3.657   1.066   4.597
 3850SOL    HW112134   3.595   1.051   4.521
 3850SOL    HW212135   3.605   1.077   4.682
 3851SOL     OW12136   3.089   1.550   5.230
 3851SOL    HW112137   3.095   1.473   5.294
 3851SOL    HW212138   3.037   1.524   5.150
 3852SOL     OW12139   2.183   0.943   3.966
 3852SOL    HW112140   2.265   0.982   3.924
 3852SOL    HW212141   2.156   0.861   3.917
 3853SOL     OW12142   3.320   0.735   4.452
 3853SOL    HW112143   3.315   0.670   4.527
 3853SOL    HW212144   3.400   0.794   4.465
 3854SOL     OW12145   2.323   1.266   5.451
 3854SOL    HW112146   2.273   1.267   5.365
 3854SOL    HW212147   2.260   1.248   5.527
 3855SOL     OW12148   2.973   1.776   3.961
 3855SOL    HW112149   2.913   1.714   4.011
 3855SOL    HW212150   3.004   1.732   3.876
 3856SOL     OW12151   2.064   0.285   5.222
 3856SOL    HW112152   1.984   0.345   5.209
 3856SOL    HW212153   2.054   0.236   5.308
 3857SOL     OW12154   3.494   1.377   3.805
 3857SOL    HW112155   3.462   1.471   3.795
 3857SOL    HW212156   3.418   1.314   3.793
 3858SOL     OW12157   2.326   1.743   4.047
 3858SOL    HW112158   2.359   1.782   4.133
 3858SOL    HW212159   2.402   1.736   3.982
 3859SOL     OW12160   3.262   0.107   4.150
 3859SOL    HW112161   3.238   0.070   4.060
 3859SOL    HW212162   3.361   0.123   4.154
 3860SOL     OW12163   2.802   1.698   4.628
 3860SOL    HW112164   2.882   1.641   4.649
 3860SOL    HW212165   2.753   1.658   4.551
 3861SOL     OW12166   2.244   0.700   4.204
 3861SOL    HW112167   2.289   0.610   4.201
 3861SOL    HW212168   2.150   0.689   4.237
 3862SOL     OW12169   3.409   0.222   5.453
 3862SOL    HW112170   3.404   0.259   5.545
 3862SOL    HW212171   3.337   0.153   5.441
 3863SOL     OW12172   2.476   0.122   3.841
 3863SOL    HW112173   2.574   0.100   3.848
 3863SOL    HW212174   2.445   0.105   3.748
 3864SOL     OW12175   2.643   0.264   5.473
 3864SOL    HW112176   2.710   0.203   5.516
 3864SOL    HW212177   2.570   0.283   5.538
 3865SOL     OW12178   2.750   1.514   4.919
 3865SOL    HW112179   2.727   1.489   4.825
 3865SOL    HW212180   2.811   1.445   4.958
 3866SOL     OW12181   3.213   0.590   5.157
 3866SOL    HW112182   3.241   0.547   5.242
 3866SOL    HW212183   3.238   0.686   5.158
 3867SOL     OW12184   2.665   1.402   4.648
 3867SOL    HW112185   2.755   1.416   4.606
 3867SOL    HW212186   2.594   1.404   4.577
 3868SOL     OW12187   2.784   0.503   4.623
 3868SOL    HW112188   2.759   0.494   4.527
 3868SOL    HW212189   2.832   0.421   4.654
 3869SOL     OW12190   2.401   0.064   4.236
 3869SOL    HW112191   2.320   0.065   4.294
 3869SOL    HW212192   2.404   0.147   4.181
 3870SOL     OW12193   3.296   1.188   3.765
 3870SOL    HW112194   3.328   1.112   3.822
 3870SOL    HW212195   3.204   1.215   3.795
 3871SOL     OW12196   2.159   0.035   3.895
 3871SOL    HW112197   2.208   0.119   3.874
 3871SOL    HW212198   2.221  -0.030   3.940
 3872SOL     OW12199   2.797   0.236   4.204
 3872SOL    HW112200   2.749   0.277   4.126
 3872SOL    HW212201   2.896   0.234   4.185
 3873SOL     OW12202   2.938   0.683   5.188
 3873SOL    HW112203   2.858   0.622   5.191
 3873SOL    HW212204   3.019   0.630   5.164
 3874SOL     OW12205   3.089   1.570   4.517
 3874SOL    HW112206   3.110   1.644   4.452
 3874SOL    HW212207   3.157   1.570   4.590
 3875SOL     OW12208   2.321   1.152   4.465
 3875SOL    HW112209   2.250   1.125   4.530
 3875SOL    HW212210   2.295   1.124   4.372
 3876SOL     OW12211   3.133   1.797   4.315
 3876SOL    HW112212   3.177   1.861   4.251
 3876SOL    HW212213   3.083   1.849   4.385
 3877SOL     OW12214   2.894   0.549   3.740
 3877SOL    HW112215   2.853   0.631   3.701
 3877SOL    HW212216   2.958   0.575   3.813
 3878SOL     OW12217   1.940   0.556   5.110
 3878SOL    HW112218   2.032   0.555   5.069
 3878SOL    HW212219   1.934   0.630   5.177
 3879SOL     OW12220   2.423   0.222   4.871
 3879SOL    HW112221   2.461   0.138   4.908
 3879SOL    HW212222   2.335   0.241   4.915
 3880SOL     OW12223   2.728   0.454   4.366
 3880SOL    HW112224   2.696   0.526   4.304
 3880SOL    HW212225   2.752   0.373   4.313
 3881SOL     OW12226   2.879   0.039   4.477
 3881SOL    HW112227   2.807   0.044   4.408
 3881SOL    HW212228   2.855  -0.030   4.546
 3882SOL     OW12229   3.291   1.173   4.591
 3882SOL    HW112230   3.236   1.089   4.584
 3882SOL    HW212231   3.317   1.202   4.499
 3883SOL     OW12232   3.328   0.590   4.716
 3883SOL    HW112233   3.298   0.495   4.723
 3883SOL    HW212234   3.401   0.606   4.782
 3884SOL     OW12235   3.719   0.833   4.101
 3884SOL    HW112236   3.761   0.769   4.165
 3884SOL    HW212237   3.681   0.782   4.023
 3885SOL     OW12238   2.350   1.385   3.898
 3885SOL    HW112239   2.263   1.370   3.945
 3885SOL    HW212240   2.333   1.411   3.803
 3886SOL     OW12241   3.526   1.280   4.381
 3886SOL    HW112242   3.625   1.288   4.395
 3886SOL    HW212243   3.481   1.364   4.412
 3887SOL     OW12244   3.252   0.575   3.802
 3887SOL    HW112245   3.198   0.554   3.883
 3887SOL    HW212246   3.343   0.534   3.811
 3888SOL     OW12247   2.389   0.256   4.052
 3888SOL    HW112248   2.416   0.197   3.977
 3888SOL    HW212249   2.389   0.351   4.021
 3889SOL     OW12250   3.616   1.223   5.312
 3889SOL    HW112251   3.707   1.184   5.299
 3889SOL    HW212252   3.624   1.319   5.336
 3890SOL     OW12253   2.926   1.347   5.064
 3890SOL    HW112254   2.846   1.324   5.119
 3890SOL    HW212255   3.009   1.321   5.113
 3891SOL     OW12256   3.454   1.629   5.349
 3891SOL    HW112257   3.481   1.663   5.259
 3891SOL    HW212258   3.533   1.591   5.395
 3892SOL     OW12259   2.973   1.195   4.824
 3892SOL    HW112260   2.933   1.239   4.905
 3892SOL    HW212261   2.932   1.232   4.741
 3893SOL     OW12262   3.500   1.099   4.803
 3893SOL    HW112263   3.505   1.180   4.862
 3893SOL    HW212264   3.414   1.101   4.752
 3894SOL     OW12265   2.777   0.089   5.126
 3894SOL    HW112266   2.802   0.069   5.031
 3894SOL    HW212267   2.849   0.145   5.168
 3895SOL     OW12268   2.842   1.116   5.443
 3895SOL    HW112269   2.743   1.122   5.453
 3895SOL    HW212270   2.865   1.036   5.387
 3896SOL     OW12271   2.567   1.050   4.092
 3896SOL    HW112272   2.553   1.057   4.191
 3896SOL    HW212273   2.651   0.999   4.074
 3897SOL     OW12274   2.272   0.813   4.975
 3897SOL    HW112275   2.358   0.825   5.025
 3897SOL    HW212276   2.230   0.726   5.002
 3898SOL     OW12277   3.136   0.386   4.986
 3898SOL    HW112278   3.157   0.460   5.050
 3898SOL    HW212279   3.047   0.403   4.943
 3899SOL     OW12280   2.229   1.100   4.225
 3899SOL    HW112281   2.222   1.183   4.169
 3899SOL    HW212282   2.233   1.020   4.165
 3900SOL     OW12283   2.428   0.537   4.589
 3900SOL    HW112284   2.440   0.603   4.515
 3900SOL    HW212285   2.474   0.571   4.672
 3901SOL     OW12286   3.114   1.348   4.112
 3901SOL    HW112287   3.164   1.425   4.152
 3901SOL    HW212288   3.019   1.350   4.144
 3902SOL     OW12289   3.134   1.445   4.866
 3902SOL    HW112290   3.181   1.458   4.953
 3902SOL    HW212291   3.068   1.371   4.875
 3903SOL     OW12292   3.444   0.639   4.196
 3903SOL    HW112293   3.413   0.700   4.269
 3903SOL    HW212294   3.494   0.691   4.127
 3904SOL     OW12295   2.216   1.510   5.053
 3904SOL    HW112296   2.195   1.466   4.966
 3904SOL    HW212297   2.313   1.536   5.056
 3905SOL     OW12298   2.264   0.751   5.322
 3905SOL    HW112299   2.332   0.806   5.275
 3905SOL    HW212300   2.304   0.663   5.349
 3906SOL     OW12301   3.449   0.779   5.394
 3906SOL    HW112302   3.357   0.817   5.389
 3906SOL    HW212303   3.509   0.826   5.329
 3907SOL     OW12304   2.875   0.105   5.494
 3907SOL    HW112305   2.881   0.190   5.442
 3907SOL    HW212306   2.907   0.029   5.437
 3908SOL     OW12307   2.366   0.050   5.464
 3908SOL    HW112308   2.324  -0.007   5.394
 3908SOL    HW212309   2.300   0.119   5.496
 3909SOL     OW12310   2.435   0.870   4.753
 3909SOL    HW112311   2.479   0.959   4.744
 3909SOL    HW212312   2.372   0.870   4.830
 3910SOL     OW12313   3.222   0.862   4.769
 3910SOL    HW112314   3.147   0.862   4.703
 3910SOL    HW212315   3.259   0.770   4.778
 3911SOL     OW12316   3.071   0.525   3.999
 3911SOL    HW112317   3.084   0.441   4.053
 3911SOL    HW212318   3.042   0.599   4.059
 3912SOL     OW12319   2.169   0.213   4.955
 3912SOL    HW112320   2.146   0.250   5.045
 3912SOL    HW212321   2.139   0.118   4.949
 3913SOL     OW12322   1.899   1.310   5.006
 3913SOL    HW112323   1.952   1.261   5.074
 3913SOL    HW212324   1.921   1.408   5.011
 3914SOL     OW12325   2.594   0.634   4.788
 3914SOL    HW112326   2.653   0.608   4.712
 3914SOL    HW212327   2.566   0.730   4.777
 3915SOL     OW12328   3.590   0.935   5.578
 3915SOL    HW112329   3.544   0.928   5.489
 3915SOL    HW212330   3.528   0.979   5.644
 3916SOL     OW12331   2.169   0.063   4.342
 3916SOL    HW112332   2.158   0.157   4.375
 3916SOL    HW212333   2.164   0.000   4.419
 3917SOL     OW12334   3.484   0.367   4.098
 3917SOL    HW112335   3.486   0.291   4.162
 3917SOL    HW212336   3.436   0.444   4.138
 3918SOL     OW12337   2.885   0.766   4.690
 3918SOL    HW112338   2.900   0.787   4.786
 3918SOL    HW212339   2.855   0.671   4.681
 3919SOL     OW12340   2.842   1.573   5.424
 3919SOL    HW112341   2.822   1.617   5.336
 3919SOL    HW212342   2.881   1.482   5.408
 3920SOL     OW12343   3.721   1.518   5.329
 3920SOL    HW112344   3.735   1.545   5.234
 3920SOL    HW212345   3.804   1.540   5.382
 3921SOL     OW12346   2.212   0.898   5.528
 3921SOL    HW112347   2.288   0.942   5.576
 3921SOL    HW212348   2.247   0.851   5.446
 3922SOL     OW12349   3.402   0.274   3.849
 3922SOL    HW112350   3.341   0.199   3.872
 3922SOL    HW212351   3.424   0.326   3.932
 3923SOL     OW12352   3.165   0.838   3.766
 3923SOL    HW112353   3.199   0.745   3.781
 3923SOL    HW212354   3.183   0.865   3.671
 3924SOL     OW12355   2.930   1.333   4.573
 3924SOL    HW112356   2.937   1.249   4.518
 3924SOL    HW212357   2.992   1.402   4.537
 3925SOL     OW12358   2.181   0.810   4.673
 3925SOL    HW112359   2.274   0.846   4.678
 3925SOL    HW212360   2.175   0.725   4.725
 3926SOL     OW12361   2.201   0.509   4.730
 3926SOL    HW112362   2.149   0.426   4.713
 3926SOL    HW212363   2.278   0.514   4.666
 3927SOL     OW12364   3.000   0.380   5.402
 3927SOL    HW112365   2.955   0.443   5.466
 3927SOL    HW212366   3.093   0.411   5.385
 3928SOL     OW12367   3.022   0.207   5.201
 3928SOL    HW112368   3.022   0.271   5.278
 3928SOL    HW212369   3.050   0.255   5.118
 3929SOL     OW12370   1.870   1.326   3.924
 3929SOL    HW112371   1.777   1.347   3.893
 3929SOL    HW212372   1.880   1.227   3.937
 3930SOL     OW12373   2.366   1.568   4.634
 3930SOL    HW112374   2.432   1.642   4.643
 3930SOL    HW212375   2.410   1.489   4.592
 3931SOL     OW12376   2.864   0.796   4.962
 3931SOL    HW112377   2.905   0.764   5.048
 3931SOL    HW212378   2.768   0.769   4.959
 3932SOL     OW12379   1.902   0.544   4.838
 3932SOL    HW112380   1.987   0.511   4.797
 3932SOL    HW212381   1.915   0.559   4.936
 3933SOL     OW12382   2.051   0.520   5.446
 3933SOL    HW112383   2.110   0.480   5.376
 3933SOL    HW212384   1.993   0.591   5.405
 3934SOL     OW12385   3.231   0.950   5.384
 3934SOL    HW112386   3.270   1.039   5.404
 3934SOL    HW212387   3.241   0.930   5.287
 3935SOL     OW12388   2.677   0.572   4.049
 3935SOL    HW112389   2.684   0.483   4.003
 3935SOL    HW212390   2.583   0.606   4.041
 3936SOL     OW12391   3.519   0.604   4.930
 3936SOL    HW112392   3.481   0.535   4.992
 3936SOL    HW212393   3.601   0.568   4.886
 3937SOL     OW12394   2.114   1.564   5.468
 3937SOL    HW112395   2.084   1.621   5.544
 3937SOL    HW212396   2.107   1.467   5.494
 3938SOL     OW12397   2.533   0.464   4.993
 3938SOL    HW112398   2.499   0.375   4.963
 3938SOL    HW212399   2.559   0.518   4.913
 3939SOL     OW12400   2.792   1.678   5.189
 3939SOL    HW112401   2.768   1.660   5.094
 3939SOL    HW212402   2.822   1.772   5.199
 3940SOL     OW12403   2.335   0.500   3.915
 3940SOL    HW112404   2.396   0.580   3.919
 3940SOL    HW212405   2.240   0.531   3.922
 3941SOL     OW12406   2.021   1.137   5.190
 3941SOL    HW112407   2.043   1.076   5.266
 3941SOL    HW212408   2.031   1.088   5.104
 3942SOL     OW12409   3.209   1.059   4.958
 3942SOL    HW112410   3.233   0.996   4.884
 3942SOL    HW212411   3.119   1.099   4.940
 3943SOL     OW12412   3.164   0.855   4.033
 3943SOL    HW112413   3.078   0.824   4.075
 3943SOL    HW212414   3.160   0.841   3.934
 3944SOL     OW12415   3.621   1.747   4.878
 3944SOL    HW112416   3.682   1.777   4.805
 3944SOL    HW212417   3.583   1.658   4.856
 3945SOL     OW12418   3.114   1.731   4.852
 3945SOL    HW112419   3.198   1.736   4.798
 3945SOL    HW212420   3.091   1.635   4.870
 3946SOL     OW12421   1.945   1.258   4.746
 3946SOL    HW112422   1.940   1.257   4.846
 3946SOL    HW212423   1.862   1.217   4.708
 3947SOL     OW12424   2.550   1.662   5.440
 3947SOL    HW112425   2.494   1.743   5.449
 3947SOL    HW212426   2.602   1.666   5.354
 3948SOL     OW12427   3.588   0.135   4.247
 3948SOL    HW112428   3.661   0.118   4.180
 3948SOL    HW212429   3.557   0.048   4.285
 3949SOL     OW12430   3.250   1.573   4.201
 3949SOL    HW112431   3.317   1.585   4.127
 3949SOL    HW212432   3.210   1.662   4.224
 3950SOL     OW12433   3.142   0.927   4.396
 3950SOL    HW112434   3.202   0.846   4.398
 3950SOL    HW212435   3.182   0.996   4.336
 3951SOL     OW12436   2.692   1.273   5.146
 3951SOL    HW112437   2.687   1.306   5.241
 3951SOL    HW212438   2.606   1.292   5.100
 3952SOL     OW12439   2.534   1.616   3.878
 3952SOL    HW112440   2.543   1.626   3.779
 3952SOL    HW212441   2.494   1.527   3.899
 3953SOL     OW12442   3.512   1.720   5.118
 3953SOL    HW112443   3.565   1.730   5.034
 3953SOL    HW212444   3.485   1.810   5.152
 3954SOL     OW12445   3.703   0.175   4.687
 3954SOL    HW112446   3.742   0.090   4.651
 3954SOL    HW212447   3.605   0.177   4.668
 3955SOL     OW12448   2.125   0.326   4.444
 3955SOL    HW112449   2.046   0.377   4.410
 3955SOL    HW212450   2.116   0.311   4.542
 3956SOL     OW12451   3.056   1.612   3.755
 3956SOL    HW112452   3.062   1.519   3.792
 3956SOL    HW212453   2.997   1.612   3.675
 3957SOL     OW12454   2.684   1.002   5.096
 3957SOL    HW112455   2.724   1.001   5.004
 3957SOL    HW212456   2.694   1.094   5.136
 3958SOL     OW12457   2.778   0.910   4.015
 3958SOL    HW112458   2.841   0.948   3.947
 3958SOL    HW212459   2.818   0.827   4.054
 3959SOL     OW12460   3.366   1.607   3.768
 3959SOL    HW112461   3.274   1.644   3.775
 3959SOL    HW212462   3.404   1.627   3.678
 3960SOL     OW12463   2.234   1.288   5.214
 3960SOL    HW112464   2.221   1.381   5.180
 3960SOL    HW212465   2.150   1.236   5.201
 3961SOL     OW12466   3.476   1.292   5.013
 3961SOL    HW112467   3.536   1.295   5.093
 3961SOL    HW212468   3.401   1.356   5.026
 3962SOL     OW12469   2.901   1.098   4.420
 3962SOL    HW112470   2.831   1.051   4.474
 3962SOL    HW212471   2.960   1.030   4.377
 3963SOL     OW12472   2.876   0.236   4.695
 3963SOL    HW112473   2.868   0.200   4.602
 3963SOL    HW212474   2.874   0.160   4.760
 3964SOL     OW12475   2.452   1.487   4.215
 3964SOL    HW112476   2.494   1.429   4.145
 3964SOL    HW212477   2.408   1.566   4.171
 3965SOL     OW12478   3.571   0.385   5.105
 3965SOL    HW112479   3.644   0.454   5.109
 3965SOL    HW212480   3.599   0.310   5.046
 3966SOL     OW12481   2.117   1.348   4.014
 3966SOL    HW112482   2.021   1.349   3.987
 3966SOL    HW212483   2.129   1.401   4.098
 3967SOL     OW12484   1.967   1.013   5.450
 3967SOL    HW112485   1.890   0.980   5.504
 3967SOL    HW212486   2.052   0.983   5.492
 3968SOL     OW12487   2.534   0.203   5.213
 3968SOL    HW112488   2.624   0.187   5.173
 3968SOL    HW212489   2.542   0.208   5.312
 3969SOL     OW12490   1.937   0.345   3.757
 3969SOL    HW112491   1.845   0.317   3.728
 3969SOL    HW212492   1.968   0.422   3.701
 3970SOL     OW12493   3.302   0.856   5.122
 3970SOL    HW112494   3.245   0.908   5.059
 3970SOL    HW212495   3.398   0.868   5.098
 3971SOL     OW12496   1.934   0.166   4.042
 3971SOL    HW112497   1.917   0.249   3.988
 3971SOL    HW212498   2.024   0.129   4.020
 3972SOL     OW12499   3.045   1.335   3.843
 3972SOL    HW112500   2.946   1.324   3.845
 3972SOL    HW212501   3.079   1.350   3.936
 3973SOL     OW12502   2.475   0.842   5.155
 3973SOL    HW112503   2.531   0.923   5.138
 3973SOL    HW212504   2.534   0.762   5.158
 3974SOL     OW12505   3.355   1.767   4.683
 3974SOL    HW112506   3.388   1.831   4.614
 3974SOL    HW212507   3.421   1.761   4.758
 3975SOL     OW12508   2.578   0.565   5.432
 3975SOL    HW112509   2.597   0.630   5.506
 3975SOL    HW212510   2.638   0.485   5.441
 3976SOL     OW12511   3.312   1.220   5.357
 3976SOL    HW112512   3.303   1.210   5.456
 3976SOL    HW212513   3.408   1.213   5.331
 3977SOL     OW12514   2.252   1.741   5.284
 3977SOL    HW112515   2.161   1.782   5.282
 3977SOL    HW212516   2.245   1.647   5.316
 3978SOL     OW12517   3.536   0.883   4.978
 3978SOL    HW112518   3.509   0.794   4.941
 3978SOL    HW212519   3.537   0.951   4.905
 3979SOL     OW12520   3.087   0.325   4.173
 3979SOL    HW112521   3.152   0.251   4.162
 3979SOL    HW212522   3.107   0.375   4.257
 3980SOL     OW12523   2.456   0.745   4.376
 3980SOL    HW112524   2.506   0.830   4.357
 3980SOL    HW212525   2.368   0.747   4.328
 3981SOL     OW12526   3.639   0.342   5.366
 3981SOL    HW112527   3.622   0.373   5.272
 3981SOL    HW212528   3.555   0.305   5.404
 3982SOL     OW12529   3.592   0.934   5.241
 3982SOL    HW112530   3.630   1.025   5.256
 3982SOL    HW212531   3.584   0.917   5.142
 3983SOL     OW12532   2.721   1.374   3.740
 3983SOL    HW112533   2.675   1.389   3.828
 3983SOL    HW212534   2.765   1.459   3.710
 3984SOL     OW12535   2.523   1.790   4.677
 3984SOL    HW112536   2.477   1.878   4.664
 3984SOL    HW212537   2.622   1.802   4.670
 3985SOL     OW12538   2.721   0.956   4.585
 3985SOL    HW112539   2.775   0.887   4.633
 3985SOL    HW212540   2.689   1.025   4.651
 3986SOL     OW12541   2.945   0.984   3.811
 3986SOL    HW112542   2.922   1.037   3.729
 3986SOL    HW212543   3.026   0.928   3.792
 3987SOL     OW12544   3.723   1.569   4.575
 3987SOL    HW112545   3.652   1.557   4.505
 3987SOL    HW212546   3.724   1.490   4.635
 3988SOL     OW12547   2.083   1.314   5.568
 3988SOL    HW112548   2.018   1.241   5.547
 3988SOL    HW212549   2.087   1.328   5.666
 3989SOL     OW12550   1.941   1.240   4.377
 3989SOL    HW112551   1.940   1.193   4.465
 3989SOL    HW212552   2.023   1.212   4.326
 3990SOL     OW12553   2.534   1.391   5.348
 3990SOL    HW112554   2.456   1.341   5.386
 3990SOL    HW212555   2.531   1.486   5.379
 3991SOL     OW12556   3.686   0.192   4.951
 3991SOL    HW112557   3.682   0.102   4.995
 3991SOL    HW212558   3.689   0.181   4.852
 3992SOL     OW12559   2.290   0.424   4.244
 3992SOL    HW112560   2.320   0.352   4.182
 3992SOL    HW212561   2.251   0.384   4.327
 3993SOL     OW12562   3.567   1.487   4.828
 3993SOL    HW112563   3.474   1.462   4.801
 3993SOL    HW212564   3.593   1.437   4.910
 3994SOL     OW12565   2.179   0.547   5.004
 3994SOL    HW112566   2.217   0.488   5.076
 3994SOL    HW212567   2.219   0.521   4.916
 3995SOL     OW12568   2.674   1.586   4.411
 3995SOL    HW112569   2.706   1.596   4.317
 3995SOL    HW212570   2.595   1.524   4.413
 3996SOL     OW12571   3.286   0.214   4.836
 3996SOL    HW112572   3.338   0.149   4.891
 3996SOL    HW212573   3.237   0.277   4.897
 3997SOL     OW12574   2.863   0.034   4.878
 3997SOL    HW112575   2.800  -0.038   4.847
 3997SOL    HW212576   2.956  -0.002   4.878
 3998SOL     OW12577   2.632   1.330   4.025
 3998SOL    HW112578   2.586   1.243   4.042
 3998SOL    HW212579   2.723   1.327   4.066
 3999SOL     OW12580   2.480   1.567   5.008
 3999SOL    HW112581   2.475   1.649   5.065
 3999SOL    HW212582   2.569   1.564   4.963
 4000SOL     OW12583   3.214   0.052   3.892
 4000SOL    HW112584   3.249   0.011   3.808
 4000SOL    HW212585   3.124   0.014   3.912
 4001SOL     OW12586   3.162   0.453   4.415
 4001SOL    HW112587   3.103   0.533   4.419
 4001SOL    HW212588   3.177   0.418   4.508
 4002SOL     OW12589   3.455   0.221   4.606
 4002SOL    HW112590   3.371   0.220   4.660
 4002SOL    HW212591   3.457   0.304   4.550
 4003SOL     OW12592   1.901   1.077   4.024
 4003SOL    HW112593   2.000   1.066   4.015
 4003SOL    HW212594   1.861   0.991   4.056
 4004SOL     OW12595   2.737   1.646   4.061
 4004SOL    HW112596   2.660   1.611   4.007
 4004SOL    HW212597   2.705   1.717   4.123
 4005SOL     OW12598   2.092   0.628   5.699
 4005SOL    HW112599   1.999   0.626   5.736
 4005SOL    HW212600   2.093   0.589   5.607
 4006SOL     OW12601   2.087   0.275   6.582
 4006SOL    HW112602   2.122   0.258   6.674
 4006SOL    HW212603   1.999   0.230   6.570
 4007SOL     OW12604   1.881   0.368   6.233
 4007SOL    HW112605   1.799   0.411   6.272
 4007SOL    HW212606   1.853   0.295   6.170
 4008SOL     OW12607   3.417   1.511   6.289
 4008SOL    HW112608   3.360   1.495   6.370
 4008SOL    HW212609   3.358   1.521   6.209
 4009SOL     OW12610   2.997   0.703   6.303
 4009SOL    HW112611   3.054   0.781   6.278
 4009SOL    HW212612   2.937   0.729   6.379
 4010SOL     OW12613   3.617   0.607   5.817
 4010SOL    HW112614   3.605   0.594   5.718
 4010SOL    HW212615   3.587   0.526   5.866
 4011SOL     OW12616   2.630   1.144   6.609
 4011SOL    HW112617   2.552   1.161   6.669
 4011SOL    HW212618   2.664   1.231   6.573
 4012SOL     OW12619   2.712   0.798   7.409
 4012SOL    HW112620   2.708   0.874   7.474
 4012SOL    HW212621   2.734   0.834   7.318
 4013SOL     OW12622   2.547   1.012   6.251
 4013SOL    HW112623   2.616   0.996   6.321
 4013SOL    HW212624   2.474   1.069   6.289
 4014SOL     OW12625   2.548   1.161   7.389
 4014SOL    HW112626   2.608   1.240   7.403
 4014SOL    HW212627   2.462   1.192   7.348
 4015SOL     OW12628   2.197   1.435   6.647
 4015SOL    HW112629   2.119   1.404   6.594
 4015SOL    HW212630   2.255   1.493   6.590
 4016SOL     OW12631   3.322   1.505   6.925
 4016SOL    HW112632   3.346   1.599   6.951
 4016SOL    HW212633   3.306   1.451   7.007
 4017SOL     OW12634   2.300   0.392   7.085
 4017SOL    HW112635   2.382   0.336   7.094
 4017SOL    HW212636   2.219   0.334   7.089
 4018SOL     OW12637   3.465   0.447   6.323
 4018SOL    HW112638   3.391   0.493   6.273
 4018SOL    HW212639   3.516   0.515   6.376
 4019SOL     OW12640   2.989   1.341   7.276
 4019SOL    HW112641   3.036   1.341   7.364
 4019SOL    HW212642   2.941   1.254   7.265
 4020SOL     OW12643   2.092   1.434   6.124
 4020SOL    HW112644   2.066   1.530   6.124
 4020SOL    HW212645   2.021   1.380   6.169
 4021SOL     OW12646   2.102   1.091   6.472
 4021SOL    HW112647   2.116   1.007   6.524
 4021SOL    HW212648   2.047   1.155   6.527
 4022SOL     OW12649   2.468   0.964   5.709
 4022SOL    HW112650   2.475   1.048   5.655
 4022SOL    HW212651   2.514   0.977   5.797
 4023SOL     OW12652   3.456   0.114   7.066
 4023SOL    HW112653   3.438   0.181   6.994
 4023SOL    HW212654   3.453   0.160   7.155
 4024SOL     OW12655   1.984   0.643   6.149
 4024SOL    HW112656   1.939   0.555   6.166
 4024SOL    HW212657   1.983   0.697   6.233
 4025SOL     OW12658   3.704   1.767   5.945
 4025SOL    HW112659   3.758   1.738   6.025
 4025SOL    HW212660   3.734   1.857   5.916
 4026SOL     OW12661   1.889   1.596   5.703
 4026SOL    HW112662   1.870   1.500   5.724
 4026SOL    HW212663   1.856   1.654   5.778
 4027SOL     OW12664   3.551   0.922   6.198
 4027SOL    HW112665   3.646   0.893   6.206
 4027SOL    HW212666   3.543   0.987   6.123
 4028SOL     OW12667   3.503   1.108   6.018
 4028SOL    HW112668   3.589   1.110   5.966
 4028SOL    HW212669   3.517   1.155   6.106
 4029SOL     OW12670   1.975   0.737   7.183
 4029SOL    HW112671   2.063   0.724   7.228
 4029SOL    HW212672   1.962   0.834   7.161
 4030SOL     OW12673   2.475   1.365   6.312
 4030SOL    HW112674   2.426   1.278   6.321
 4030SOL    HW212675   2.452   1.408   6.225
 4031SOL     OW12676   3.155   1.228   7.009
 4031SOL    HW112677   3.192   1.155   6.951
 4031SOL    HW212678   3.207   1.233   7.094
 4032SOL     OW12679   2.671   0.004   6.088
 4032SOL    HW112680   2.711   0.095   6.079
 4032SOL    HW212681   2.571   0.012   6.094
 4033SOL     OW12682   2.059   0.976   6.850
 4033SOL    HW112683   2.148   0.931   6.836
 4033SOL    HW212684   1.986   0.911   6.831
 4034SOL     OW12685   3.387   0.999   5.776
 4034SOL    HW112686   3.324   0.923   5.789
 4034SOL    HW212687   3.435   1.017   5.862
 4035SOL     OW12688   3.049   1.792   7.202
 4035SOL    HW112689   3.073   1.852   7.126
 4035SOL    HW212690   3.056   1.697   7.172
 4036SOL     OW12691   2.179   0.251   7.387
 4036SOL    HW112692   2.250   0.322   7.393
 4036SOL    HW212693   2.091   0.290   7.415
 4037SOL     OW12694   3.328   1.417   6.539
 4037SOL    HW112695   3.269   1.423   6.619
 4037SOL    HW212696   3.313   1.329   6.493
 4038SOL     OW12697   3.529   1.714   6.158
 4038SOL    HW112698   3.488   1.691   6.070
 4038SOL    HW212699   3.511   1.640   6.223
 4039SOL     OW12700   2.460   0.729   5.856
 4039SOL    HW112701   2.484   0.798   5.788
 4039SOL    HW212702   2.382   0.762   5.910
 4040SOL     OW12703   3.143   0.345   6.530
 4040SOL    HW112704   3.057   0.295   6.517
 4040SOL    HW212705   3.205   0.291   6.586
 4041SOL     OW12706   3.438   1.662   5.893
 4041SOL    HW112707   3.527   1.708   5.896
 4041SOL    HW212708   3.417   1.638   5.798
 4042SOL     OW12709   2.669   0.605   7.051
 4042SOL    HW112710   2.622   0.602   7.140
 4042SOL    HW212711   2.618   0.550   6.985
 4043SOL     OW12712   3.256   0.469   7.260
 4043SOL    HW112713   3.236   0.512   7.348
 4043SOL    HW212714   3.334   0.407   7.269
 4044SOL     OW12715   2.835   0.890   7.158
 4044SOL    HW112716   2.881   0.806   7.129
 4044SOL    HW212717   2.779   0.924   7.083
 4045SOL     OW12718   2.853   0.410   6.828
 4045SOL    HW112719   2.776   0.444   6.882
 4045SOL    HW212720   2.819   0.359   6.749
 4046SOL     OW12721   2.903   0.701   6.015
 4046SOL    HW112722   2.929   0.697   6.111
 4046SOL    HW212723   2.818   0.650   6.001
 4047SOL     OW12724   1.938   0.811   6.375
 4047SOL    HW112725   2.037   0.799   6.384
 4047SOL    HW212726   1.914   0.906   6.396
 4048SOL     OW12727   2.727   0.348   5.781
 4048SOL    HW112728   2.786   0.411   5.732
 4048SOL    HW212729   2.746   0.254   5.752
 4049SOL     OW12730   3.581   0.585   7.417
 4049SOL    HW112731   3.555   0.674   7.381
 4049SOL    HW212732   3.579   0.517   7.344
 4050SOL     OW12733   3.224   1.144   6.131
 4050SOL    HW112734   3.307   1.115   6.083
 4050SOL    HW212735   3.175   1.211   6.075
 4051SOL     OW12736   2.412   0.196   6.471
 4051SOL    HW112737   2.407   0.191   6.571
 4051SOL    HW212738   2.414   0.292   6.442
 4052SOL     OW12739   2.870   1.456   6.063
 4052SOL    HW112740   2.824   1.528   6.011
 4052SOL    HW212741   2.866   1.476   6.161
 4053SOL     OW12742   3.657   1.066   6.459
 4053SOL    HW112743   3.595   1.051   6.383
 4053SOL    HW212744   3.605   1.077   6.544
 4054SOL     OW12745   3.089   1.550   7.092
 4054SOL    HW112746   3.095   1.473   7.156
 4054SOL    HW212747   3.037   1.524   7.012
 4055SOL     OW12748   2.183   0.943   5.828
 4055SOL    HW112749   2.265   0.982   5.786
 4055SOL    HW212750   2.156   0.861   5.779
 4056SOL     OW12751   3.320   0.735   6.314
 4056SOL    HW112752   3.315   0.670   6.389
 4056SOL    HW212753   3.400   0.794   6.327
 4057SOL     OW12754   2.323   1.266   7.313
 4057SOL    HW112755   2.273   1.267   7.227
 4057SOL    HW212756   2.260   1.248   7.389
 4058SOL     OW12757   2.973   1.776   5.823
 4058SOL    HW112758   2.913   1.714   5.873
 4058SOL    HW212759   3.004   1.732   5.738
 4059SOL     OW12760   2.064   0.285   7.084
 4059SOL    HW112761   1.984   0.345   7.071
 4059SOL    HW212762   2.054   0.236   7.170
 4060SOL     OW12763   3.494   1.377   5.667
 4060SOL    HW112764   3.462   1.471   5.657
 4060SOL    HW212765   3.418   1.314   5.655
 4061SOL     OW12766   2.326   1.743   5.909
 4061SOL    HW112767   2.359   1.782   5.995
 4061SOL    HW212768   2.402   1.736   5.844
 4062SOL     OW12769   3.262   0.107   6.012
 4062SOL    HW112770   3.238   0.070   5.922
 4062SOL    HW212771   3.361   0.123   6.016
 4063SOL     OW12772   2.802   1.698   6.490
 4063SOL    HW112773   2.882   1.641   6.511
 4063SOL    HW212774   2.753   1.658   6.413
 4064SOL     OW12775   2.244   0.700   6.066
 4064SOL    HW112776   2.289   0.610   6.063
 4064SOL    HW212777   2.150   0.689   6.099
 4065SOL     OW12778   3.409   0.222   7.315
 4065SOL    HW112779   3.404   0.259   7.407
 4065SOL    HW212780   3.337   0.153   7.303
 4066SOL     OW12781   2.476   0.122   5.703
 4066SOL    HW112782   2.574   0.100   5.710
 4066SOL    HW212783   2.445   0.105   5.610
 4067SOL     OW12784   2.643   0.264   7.335
 4067SOL    HW112785   2.710   0.203   7.378
 4067SOL    HW212786   2.570   0.283   7.400
 4068SOL     OW12787   3.213   0.590   7.019
 4068SOL    HW112788   3.241   0.547   7.104
 4068SOL    HW212789   3.238   0.686   7.020
 4069SOL     OW12790   2.665   1.402   6.510
 4069SOL    HW112791   2.755   1.416   6.468
 4069SOL    HW212792   2.594   1.404   6.439
 4070SOL     OW12793   2.784   0.503   6.485
 4070SOL    HW112794   2.759   0.494   6.389
 4070SOL    HW212795   2.832   0.421   6.516
 4071SOL     OW12796   2.401   0.064   6.098
 4071SOL    HW112797   2.320   0.065   6.156
 4071SOL    HW212798   2.404   0.147   6.043
 4072SOL     OW12799   3.296   1.188   5.627
 4072SOL    HW112800   3.328   1.112   5.684
 4072SOL    HW212801   3.204   1.215   5.657
 4073SOL     OW12802   2.159   0.035   5.757
 4073SOL    HW112803   2.208   0.119   5.736
 4073SOL    HW212804   2.221  -0.030   5.802
 4074SOL     OW12805   2.797   0.236   6.066
 4074SOL    HW112806   2.749   0.277   5.988
 4074SOL    HW212807   2.896   0.234   6.047
 4075SOL     OW12808   2.938   0.683   7.050
 4075SOL    HW112809   2.858   0.622   7.053
 4075SOL    HW212810   3.019   0.630   7.026
 4076SOL     OW12811   3.089   1.570   6.379
 4076SOL    HW112812   3.110   1.644   6.314
 4076SOL    HW212813   3.157   1.570   6.452
 4077SOL     OW12814   2.321   1.152   6.327
 4077SOL    HW112815   2.250   1.125   6.392
 4077SOL    HW212816   2.295   1.124   6.234
 4078SOL     OW12817   3.133   1.797   6.177
 4078SOL    HW112818   3.177   1.861   6.113
 4078SOL    HW212819   3.083   1.849   6.247
 4079SOL     OW12820   2.894   0.549   5.602
 4079SOL    HW112821   2.853   0.631   5.563
 4079SOL    HW212822   2.958   0.575   5.675
 4080SOL     OW12823   1.940   0.556   6.972
 4080SOL    HW112824   2.032   0.555   6.931
 4080SOL    HW212825   1.934   0.630   7.039
 4081SOL     OW12826   2.423   0.222   6.733
 4081SOL    HW112827   2.461   0.138   6.770
 4081SOL    HW212828   2.335   0.241   6.777
 4082SOL     OW12829   2.728   0.454   6.228
 4082SOL    HW112830   2.696   0.526   6.166
 4082SOL    HW212831   2.752   0.373   6.175
 4083SOL     OW12832   2.879   0.039   6.339
 4083SOL    HW112833   2.807   0.044   6.270
 4083SOL    HW212834   2.855  -0.030   6.408
 4084SOL     OW12835   3.291   1.173   6.453
 4084SOL    HW112836   3.236   1.089   6.446
 4084SOL    HW212837   3.317   1.202   6.361
 4085SOL     OW12838   3.328   0.590   6.578
 4085SOL    HW112839   3.298   0.495   6.585
 4085SOL    HW212840   3.401   0.606   6.644
 4086SOL     OW12841   3.719   0.833   5.963
 4086SOL    HW112842   3.761   0.769   6.027
 4086SOL    HW212843   3.681   0.782   5.885
 4087SOL     OW12844   2.350   1.385   5.760
 4087SOL    HW112845   2.263   1.370   5.807
 4087SOL    HW212846   2.333   1.411   5.665
 4088SOL     OW12847   3.526   1.280   6.243
 4088SOL    HW112848   3.625   1.288   6.257
 4088SOL    HW212849   3.481   1.364   6.274
 4089SOL     OW12850   3.252   0.575   5.664
 4089SOL    HW112851   3.198   0.554   5.745
 4089SOL    HW212852   3.343   0.534   5.673
 4090SOL     OW12853   2.389   0.256   5.914
 4090SOL    HW112854   2.416   0.197   5.839
 4090SOL    HW212855   2.389   0.351   5.883
 4091SOL     OW12856   3.616   1.223   7.174
 4091SOL    HW112857   3.707   1.184   7.161
 4091SOL    HW212858   3.624   1.319   7.198
 4092SOL     OW12859   2.926   1.347   6.926
 4092SOL    HW112860   2.846   1.324   6.981
 4092SOL    HW212861   3.009   1.321   6.975
 4093SOL     OW12862   3.454   1.629   7.211
 4093SOL    HW112863   3.481   1.663   7.121
 4093SOL    HW212864   3.533   1.591   7.257
 4094SOL     OW12865   2.973   1.195   6.686
 4094SOL    HW112866   2.933   1.239   6.767
 4094SOL    HW212867   2.932   1.232   6.603
 4095SOL     OW12868   3.500   1.099   6.665
 4095SOL    HW112869   3.505   1.180   6.724
 4095SOL    HW212870   3.414   1.101   6.614
 4096SOL     OW12871   2.777   0.089   6.988
 4096SOL    HW112872   2.802   0.069   6.893
 4096SOL    HW212873   2.849   0.145   7.030
 4097SOL     OW12874   2.842   1.116   7.305
 4097SOL    HW112875   2.743   1.122   7.315
 4097SOL    HW212876   2.865   1.036   7.249
 4098SOL     OW12877   2.567   1.050   5.954
 4098SOL    HW112878   2.553   1.057   6.053
 4098SOL    HW212879   2.651   0.999   5.936
 4099SOL     OW12880   2.272   0.813   6.837
 4099SOL    HW112881   2.358   0.825   6.887
 4099SOL    HW212882   2.230   0.726   6.864
 4100SOL     OW12883   3.136   0.386   6.848
 4100SOL    HW112884   3.157   0.460   6.912
 4100SOL    HW212885   3.047   0.403   6.805
 4101SOL     OW12886   2.229   1.100   6.087
 4101SOL    HW112887   2.222   1.183   6.031
 4101SOL    HW212888   2.233   1.020   6.027
 4102SOL     OW12889   2.428   0.537   6.451
 4102SOL    HW112890   2.440   0.603   6.377
 4102SOL    HW212891   2.474   0.571   6.534
 4103SOL     OW12892   3.114   1.348   5.974
 4103SOL    HW112893   3.164   1.425   6.014
 4103SOL    HW212894   3.019   1.350   6.006
 4104SOL     OW12895   3.134   1.445   6.728
 4104SOL    HW112896   3.181   1.458   6.815
 4104SOL    HW212897   3.068   1.371   6.737
 4105SOL     OW12898   3.444   0.639   6.058
 4105SOL    HW112899   3.413   0.700   6.131
 4105SOL    HW212900   3.494   0.691   5.989
 4106SOL     OW12901   2.264   0.751   7.184
 4106SOL    HW112902   2.332   0.806   7.137
 4106SOL    HW212903   2.304   0.663   7.211
 4107SOL     OW12904   3.449   0.779   7.256
 4107SOL    HW112905   3.357   0.817   7.251
 4107SOL    HW212906   3.509   0.826   7.191
 4108SOL     OW12907   2.875   0.105   7.356
 4108SOL    HW112908   2.881   0.190   7.304
 4108SOL    HW212909   2.907   0.029   7.299
 4109SOL     OW12910   2.366   0.050   7.326
 4109SOL    HW112911   2.324  -0.007   7.256
 4109SOL    HW212912   2.300   0.119   7.358
 4110SOL     OW12913   2.435   0.870   6.615
 4110SOL    HW112914   2.479   0.959   6.606
 4110SOL    HW212915   2.372   0.870   6.692
 4111SOL     OW12916   3.222   0.862   6.631
 4111SOL    HW112917   3.147   0.862   6.565
 4111SOL    HW212918   3.259   0.770   6.640
 4112SOL     OW12919   3.071   0.525   5.861
 4112SOL    HW112920   3.084   0.441   5.915
 4112SOL    HW212921   3.042   0.599   5.921
 4113SOL     OW12922   2.169   0.213   6.817
 4113SOL    HW112923   2.146   0.250   6.907
 4113SOL    HW212924   2.139   0.118   6.811
 4114SOL     OW12925   2.594   0.634   6.650
 4114SOL    HW112926   2.653   0.608   6.574
 4114SOL    HW212927   2.566   0.730   6.639
 4115SOL     OW12928   3.590   0.935   7.440
 4115SOL    HW112929   3.544   0.928   7.351
 4115SOL    HW212930   3.528   0.979   7.506
 4116SOL     OW12931   2.169   0.063   6.204
 4116SOL    HW112932   2.158   0.157   6.237
 4116SOL    HW212933   2.164   0.000   6.281
 4117SOL     OW12934   3.484   0.367   5.960
 4117SOL    HW112935   3.486   0.291   6.024
 4117SOL    HW212936   3.436   0.444   6.000
 4118SOL     OW12937   2.885   0.766   6.552
 4118SOL    HW112938   2.900   0.787   6.648
 4118SOL    HW212939   2.855   0.671   6.543
 4119SOL     OW12940   2.842   1.573   7.286
 4119SOL    HW112941   2.822   1.617   7.198
 4119SOL    HW212942   2.881   1.482   7.270
 4120SOL     OW12943   3.721   1.518   7.191
 4120SOL    HW112944   3.735   1.545   7.096
 4120SOL    HW212945   3.804   1.540   7.244
 4121SOL     OW12946   2.212   0.898   7.390
 4121SOL    HW112947   2.288   0.942   7.438
 4121SOL    HW212948   2.247   0.851   7.308
 4122SOL     OW12949   3.402   0.274   5.711
 4122SOL    HW112950   3.341   0.199   5.734
 4122SOL    HW212951   3.424   0.326   5.794
 4123SOL     OW12952   3.165   0.838   5.628
 4123SOL    HW112953   3.199   0.745   5.643
 4123SOL    HW212954   3.183   0.865   5.533
 4124SOL     OW12955   2.930   1.333   6.435
 4124SOL    HW112956   2.937   1.249   6.380
 4124SOL    HW212957   2.992   1.402   6.399
 4125SOL     OW12958   2.181   0.810   6.535
 4125SOL    HW112959   2.274   0.846   6.540
 4125SOL    HW212960   2.175   0.725   6.587
 4126SOL     OW12961   2.201   0.509   6.592
 4126SOL    HW112962   2.149   0.426   6.575
 4126SOL    HW212963   2.278   0.514   6.528
 4127SOL     OW12964   3.000   0.380   7.264
 4127SOL    HW112965   2.955   0.443   7.328
 4127SOL    HW212966   3.093   0.411   7.247
 4128SOL     OW12967   3.022   0.207   7.063
 4128SOL    HW112968   3.022   0.271   7.140
 4128SOL    HW212969   3.050   0.255   6.980
 4129SOL     OW12970   1.870   1.326   5.786
 4129SOL    HW112971   1.777   1.347   5.755
 4129SOL    HW212972   1.880   1.227   5.799
 4130SOL     OW12973   2.366   1.568   6.496
 4130SOL    HW112974   2.432   1.642   6.505
 4130SOL    HW212975   2.410   1.489   6.454
 4131SOL     OW12976   2.864   0.796   6.824
 4131SOL    HW112977   2.905   0.764   6.910
 4131SOL    HW212978   2.768   0.769   6.821
 4132SOL     OW12979   1.902   0.544   6.700
 4132SOL    HW112980   1.987   0.511   6.659
 4132SOL    HW212981   1.915   0.559   6.798
 4133SOL     OW12982   2.051   0.520   7.308
 4133SOL    HW112983   2.110   0.480   7.238
 4133SOL    HW212984   1.993   0.591   7.267
 4134SOL     OW12985   3.231   0.950   7.246
 4134SOL    HW112986   3.270   1.039   7.266
 4134SOL    HW212987   3.241   0.930   7.149
 4135SOL     OW12988   2.677   0.572   5.911
 4135SOL    HW112989   2.684   0.483   5.865
 4135SOL    HW212990   2.583   0.606   5.903
 4136SOL     OW12991   3.519   0.604   6.792
 4136SOL    HW112992   3.481   0.535   6.854
 4136SOL    HW212993   3.601   0.568   6.748
 4137SOL     OW12994   2.533   0.464   6.855
 4137SOL    HW112995   2.499   0.375   6.825
 4137SOL    HW212996   2.559   0.518   6.775
 4138SOL     OW12997   2.335   0.500   5.777
 4138SOL    HW112998   2.396   0.580   5.781
 4138SOL    HW212999   2.240   0.531   5.784
 4139SOL     OW13000   2.021   1.137   7.052
 4139SOL    HW113001   2.043   1.076   7.128
 4139SOL    HW213002   2.031   1.088   6.966
 4140SOL     OW13003   3.209   1.059   6.820
 4140SOL    HW113004   3.233   0.996   6.746
 4140SOL    HW213005   3.119   1.099   6.802
 4141SOL     OW13006   3.164   0.855   5.895
 4141SOL    HW113007   3.078   0.824   5.937
 4141SOL    HW213008   3.160   0.841   5.796
 4142SOL     OW13009   3.621   1.747   6.740
 4142SOL    HW113010   3.682   1.777   6.667
 4142SOL    HW213011   3.583   1.658   6.718
 4143SOL     OW13012   3.114   1.731   6.714
 4143SOL    HW113013   3.198   1.736   6.660
 4143SOL    HW213014   3.091   1.635   6.732
 4144SOL     OW13015   3.588   0.135   6.109
 4144SOL    HW113016   3.661   0.118   6.042
 4144SOL    HW213017   3.557   0.048   6.147
 4145SOL     OW13018   3.250   1.573   6.063
 4145SOL    HW113019   3.317   1.585   5.989
 4145SOL    HW213020   3.210   1.662   6.086
 4146SOL     OW13021   3.142   0.927   6.258
 4146SOL    HW113022   3.202   0.846   6.260
 4146SOL    HW213023   3.182   0.996   6.198
 4147SOL     OW13024   2.692   1.273   7.008
 4147SOL    HW113025   2.687   1.306   7.103
 4147SOL    HW213026   2.606   1.292   6.962
 4148SOL     OW13027   2.534   1.616   5.740
 4148SOL    HW113028   2.543   1.626   5.641
 4148SOL    HW213029   2.494   1.527   5.761
 4149SOL     OW13030   3.512   1.720   6.980
 4149SOL    HW113031   3.565   1.730   6.896
 4149SOL    HW213032   3.485   1.810   7.014
 4150SOL     OW13033   3.703   0.175   6.549
 4150SOL    HW113034   3.742   0.090   6.513
 4150SOL    HW213035   3.605   0.177   6.530
 4151SOL     OW13036   2.125   0.326   6.306
 4151SOL    HW113037   2.046   0.377   6.272
 4151SOL    HW213038   2.116   0.311   6.404
 4152SOL     OW13039   3.056   1.612   5.617
 4152SOL    HW113040   3.062   1.519   5.654
 4152SOL    HW213041   2.997   1.612   5.537
 4153SOL     OW13042   2.684   1.002   6.958
 4153SOL    HW113043   2.724   1.001   6.866
 4153SOL    HW213044   2.694   1.094   6.998
 4154SOL     OW13045   2.778   0.910   5.877
 4154SOL    HW113046   2.841   0.948   5.809
 4154SOL    HW213047   2.818   0.827   5.916
 4155SOL     OW13048   3.366   1.607   5.630
 4155SOL    HW113049   3.274   1.644   5.637
 4155SOL    HW213050   3.404   1.627   5.540
 4156SOL     OW13051   3.476   1.292   6.875
 4156SOL    HW113052   3.536   1.295   6.955
 4156SOL    HW213053   3.401   1.356   6.888
 4157SOL     OW13054   2.901   1.098   6.282
 4157SOL    HW113055   2.831   1.051   6.336
 4157SOL    HW213056   2.960   1.030   6.239
 4158SOL     OW13057   2.876   0.236   6.557
 4158SOL    HW113058   2.868   0.200   6.464
 4158SOL    HW213059   2.874   0.160   6.622
 4159SOL     OW13060   2.452   1.487   6.077
 4159SOL    HW113061   2.494   1.429   6.007
 4159SOL    HW213062   2.408   1.566   6.033
 4160SOL     OW13063   3.571   0.385   6.967
 4160SOL    HW113064   3.644   0.454   6.971
 4160SOL    HW213065   3.599   0.310   6.908
 4161SOL     OW13066   2.117   1.348   5.876
 4161SOL    HW113067   2.021   1.349   5.849
 4161SOL    HW213068   2.129   1.401   5.960
 4162SOL     OW13069   1.967   1.013   7.312
 4162SOL    HW113070   1.890   0.980   7.366
 4162SOL    HW213071   2.052   0.983   7.354
 4163SOL     OW13072   2.534   0.203   7.075
 4163SOL    HW113073   2.624   0.187   7.035
 4163SOL    HW213074   2.542   0.208   7.174
 4164SOL     OW13075   1.937   0.345   5.619
 4164SOL    HW113076   1.845   0.317   5.590
 4164SOL    HW213077   1.968   0.422   5.563
 4165SOL     OW13078   3.302   0.856   6.984
 4165SOL    HW113079   3.245   0.908   6.921
 4165SOL    HW213080   3.398   0.868   6.960
 4166SOL     OW13081   1.934   0.166   5.904
 4166SOL    HW113082   1.917   0.249   5.850
 4166SOL    HW213083   2.024   0.129   5.882
 4167SOL     OW13084   3.045   1.335   5.705
 4167SOL    HW113085   2.946   1.324   5.707
 4167SOL    HW213086   3.079   1.350   5.798
 4168SOL     OW13087   2.475   0.842   7.017
 4168SOL    HW113088   2.531   0.923   7.000
 4168SOL    HW213089   2.534   0.762   7.020
 4169SOL     OW13090   3.355   1.767   6.545
 4169SOL    HW113091   3.388   1.831   6.476
 4169SOL    HW213092   3.421   1.761   6.620
 4170SOL     OW13093   2.578   0.565   7.294
 4170SOL    HW113094   2.597   0.630   7.368
 4170SOL    HW213095   2.638   0.485   7.303
 4171SOL     OW13096   3.312   1.220   7.219
 4171SOL    HW113097   3.303   1.210   7.318
 4171SOL    HW213098   3.408   1.213   7.193
 4172SOL     OW13099   2.252   1.741   7.146
 4172SOL    HW113100   2.161   1.782   7.144
 4172SOL    HW213101   2.245   1.647   7.178
 4173SOL     OW13102   3.536   0.883   6.840
 4173SOL    HW113103   3.509   0.794   6.803
 4173SOL    HW213104   3.537   0.951   6.767
 4174SOL     OW13105   3.087   0.325   6.035
 4174SOL    HW113106   3.152   0.251   6.024
 4174SOL    HW213107   3.107   0.375   6.119
 4175SOL     OW13108   2.456   0.745   6.238
 4175SOL    HW113109   2.506   0.830   6.219
 4175SOL    HW213110   2.368   0.747   6.190
 4176SOL     OW13111   3.639   0.342   7.228
 4176SOL    HW113112   3.622   0.373   7.134
 4176SOL    HW213113   3.555   0.305   7.266
 4177SOL     OW13114   3.592   0.934   7.103
 4177SOL    HW113115   3.630   1.025   7.118
 4177SOL    HW213116   3.584   0.917   7.004
 4178SOL     OW13117   2.721   1.374   5.602
 4178SOL    HW113118   2.675   1.389   5.690
 4178SOL    HW213119   2.765   1.459   5.572
 4179SOL     OW13120   2.721   0.956   6.447
 4179SOL    HW113121   2.775   0.887   6.495
 4179SOL    HW213122   2.689   1.025   6.513
 4180SOL     OW13123   2.945   0.984   5.673
 4180SOL    HW113124   2.922   1.037   5.591
 4180SOL    HW213125   3.026   0.928   5.654
 4181SOL     OW13126   3.723   1.569   6.437
 4181SOL    HW113127   3.652   1.557   6.367
 4181SOL    HW213128   3.724   1.490   6.497
 4182SOL     OW13129   2.083   1.314   7.430
 4182SOL    HW113130   2.018   1.241   7.409
 4182SOL    HW213131   2.087   1.328   7.528
 4183SOL     OW13132   1.941   1.240   6.239
 4183SOL    HW113133   1.940   1.193   6.327
 4183SOL    HW213134   2.023   1.212   6.188
 4184SOL     OW13135   3.686   0.192   6.813
 4184SOL    HW113136   3.682   0.102   6.857
 4184SOL    HW213137   3.689   0.181   6.714
 4185SOL     OW13138   2.290   0.424   6.106
 4185SOL    HW113139   2.320   0.352   6.044
 4185SOL    HW213140   2.251   0.384   6.189
 4186SOL     OW13141   3.567   1.487   6.690
 4186SOL    HW113142   3.474   1.462   6.663
 4186SOL    HW213143   3.593   1.437   6.772
 4187SOL     OW13144   2.179   0.547   6.866
 4187SOL    HW113145   2.217   0.488   6.938
 4187SOL    HW213146   2.219   0.521   6.778
 4188SOL     OW13147   2.674   1.586   6.273
 4188SOL    HW113148   2.706   1.596   6.179
 4188SOL    HW213149   2.595   1.524   6.275
 4189SOL     OW13150   3.286   0.214   6.698
 4189SOL    HW113151   3.338   0.149   6.753
 4189SOL    HW213152   3.237   0.277   6.759
 4190SOL     OW13153   2.863   0.034   6.740
 4190SOL    HW113154   2.800  -0.038   6.709
 4190SOL    HW213155   2.956  -0.002   6.740
 4191SOL     OW13156   2.632   1.330   5.887
 4191SOL    HW113157   2.586   1.243   5.904
 4191SOL    HW213158   2.723   1.327   5.928
 4192SOL     OW13159   3.214   0.052   5.754
 4192SOL    HW113160   3.249   0.011   5.670
 4192SOL    HW213161   3.124   0.014   5.774
 4193SOL     OW13162   3.162   0.453   6.277
 4193SOL    HW113163   3.103   0.533   6.281
 4193SOL    HW213164   3.177   0.418   6.370
 4194SOL     OW13165   3.455   0.221   6.468
 4194SOL    HW113166   3.371   0.220   6.522
 4194SOL    HW213167   3.457   0.304   6.412
 4195SOL     OW13168   1.901   1.077   5.886
 4195SOL    HW113169   2.000   1.066   5.877
 4195SOL    HW213170   1.861   0.991   5.918
 4196SOL     OW13171   2.737   1.646   5.923
 4196SOL    HW113172   2.660   1.611   5.869
 4196SOL    HW213173   2.705   1.717   5.985
 4197SOL     OW13174   2.092   0.628   7.561
 4197SOL    HW113175   1.999   0.626   7.598
 4197SOL    HW213176   2.093   0.589   7.469
 4198SOL     OW13177   2.087   0.275   8.444
 4198SOL    HW113178   2.122   0.258   8.536
 4198SOL    HW213179   1.999   0.230   8.432
 4199SOL     OW13180   1.881   0.368   8.095
 4199SOL    HW113181   1.799   0.411   8.134
 4199SOL    HW213182   1.853   0.295   8.032
 4200SOL     OW13183   2.431   1.275   8.613
 4200SOL    HW113184   2.338   1.268   8.576
 4200SOL    HW213185   2.442   1.364   8.657
 4201SOL     OW13186   3.417   1.511   8.151
 4201SOL    HW113187   3.360   1.495   8.232
 4201SOL    HW213188   3.358   1.521   8.071
 4202SOL     OW13189   2.997   0.703   8.165
 4202SOL    HW113190   3.054   0.781   8.140
 4202SOL    HW213191   2.937   0.729   8.241
 4203SOL     OW13192   3.617   0.607   7.679
 4203SOL    HW113193   3.605   0.594   7.580
 4203SOL    HW213194   3.587   0.526   7.728
 4204SOL     OW13195   2.630   1.144   8.471
 4204SOL    HW113196   2.552   1.161   8.531
 4204SOL    HW213197   2.664   1.231   8.435
 4205SOL     OW13198   2.712   0.798   9.271
 4205SOL    HW113199   2.708   0.874   9.336
 4205SOL    HW213200   2.734   0.834   9.180
 4206SOL     OW13201   2.547   1.012   8.113
 4206SOL    HW113202   2.616   0.996   8.183
 4206SOL    HW213203   2.474   1.069   8.151
 4207SOL     OW13204   2.548   1.161   9.251
 4207SOL    HW113205   2.608   1.240   9.265
 4207SOL    HW213206   2.462   1.192   9.210
 4208SOL     OW13207   2.197   1.435   8.509
 4208SOL    HW113208   2.119   1.404   8.456
 4208SOL    HW213209   2.255   1.493   8.452
 4209SOL     OW13210   3.322   1.505   8.787
 4209SOL    HW113211   3.346   1.599   8.813
 4209SOL    HW213212   3.306   1.451   8.869
 4210SOL     OW13213   2.300   0.392   8.947
 4210SOL    HW113214   2.382   0.336   8.956
 4210SOL    HW213215   2.219   0.334   8.951
 4211SOL     OW13216   3.465   0.447   8.185
 4211SOL    HW113217   3.391   0.493   8.135
 4211SOL    HW213218   3.516   0.515   8.238
 4212SOL     OW13219   2.989   1.341   9.138
 4212SOL    HW113220   3.036   1.341   9.226
 4212SOL    HW213221   2.941   1.254   9.127
 4213SOL     OW13222   2.092   1.434   7.986
 4213SOL    HW113223   2.066   1.530   7.986
 4213SOL    HW213224   2.021   1.380   8.031
 4214SOL     OW13225   2.102   1.091   8.334
 4214SOL    HW113226   2.116   1.007   8.386
 4214SOL    HW213227   2.047   1.155   8.389
 4215SOL     OW13228   2.482   1.786   8.887
 4215SOL    HW113229   2.390   1.769   8.922
 4215SOL    HW213230   2.510   1.878   8.913
 4216SOL     OW13231   2.468   0.964   7.571
 4216SOL    HW113232   2.475   1.048   7.517
 4216SOL    HW213233   2.514   0.977   7.659
 4217SOL     OW13234   3.456   0.114   8.928
 4217SOL    HW113235   3.438   0.181   8.856
 4217SOL    HW213236   3.453   0.160   9.017
 4218SOL     OW13237   1.984   0.643   8.011
 4218SOL    HW113238   1.939   0.555   8.028
 4218SOL    HW213239   1.983   0.697   8.095
 4219SOL     OW13240   3.704   1.767   7.807
 4219SOL    HW113241   3.758   1.738   7.887
 4219SOL    HW213242   3.734   1.857   7.778
 4220SOL     OW13243   1.889   1.596   7.565
 4220SOL    HW113244   1.870   1.500   7.586
 4220SOL    HW213245   1.856   1.654   7.640
 4221SOL     OW13246   3.551   0.922   8.060
 4221SOL    HW113247   3.646   0.893   8.068
 4221SOL    HW213248   3.543   0.987   7.985
 4222SOL     OW13249   3.503   1.108   7.880
 4222SOL    HW113250   3.589   1.110   7.828
 4222SOL    HW213251   3.517   1.155   7.968
 4223SOL     OW13252   1.975   0.737   9.045
 4223SOL    HW113253   2.063   0.724   9.090
 4223SOL    HW213254   1.962   0.834   9.023
 4224SOL     OW13255   2.475   1.365   8.174
 4224SOL    HW113256   2.426   1.278   8.183
 4224SOL    HW213257   2.452   1.408   8.087
 4225SOL     OW13258   3.155   1.228   8.871
 4225SOL    HW113259   3.192   1.155   8.813
 4225SOL    HW213260   3.207   1.233   8.956
 4226SOL     OW13261   2.671   0.004   7.950
 4226SOL    HW113262   2.711   0.095   7.941
 4226SOL    HW213263   2.571   0.012   7.956
 4227SOL     OW13264   2.059   0.976   8.712
 4227SOL    HW113265   2.148   0.931   8.698
 4227SOL    HW213266   1.986   0.911   8.693
 4228SOL     OW13267   3.387   0.999   7.638
 4228SOL    HW113268   3.324   0.923   7.651
 4228SOL    HW213269   3.435   1.017   7.724
 4229SOL     OW13270   3.049   1.792   9.064
 4229SOL    HW113271   3.073   1.852   8.988
 4229SOL    HW213272   3.056   1.697   9.034
 4230SOL     OW13273   2.179   0.251   9.249
 4230SOL    HW113274   2.250   0.322   9.255
 4230SOL    HW213275   2.091   0.290   9.277
 4231SOL     OW13276   3.328   1.417   8.401
 4231SOL    HW113277   3.269   1.423   8.481
 4231SOL    HW213278   3.313   1.329   8.355
 4232SOL     OW13279   3.529   1.714   8.020
 4232SOL    HW113280   3.488   1.691   7.932
 4232SOL    HW213281   3.511   1.640   8.085
 4233SOL     OW13282   2.460   0.729   7.718
 4233SOL    HW113283   2.484   0.798   7.650
 4233SOL    HW213284   2.382   0.762   7.772
 4234SOL     OW13285   3.143   0.345   8.392
 4234SOL    HW113286   3.057   0.295   8.379
 4234SOL    HW213287   3.205   0.291   8.448
 4235SOL     OW13288   3.438   1.662   7.755
 4235SOL    HW113289   3.527   1.708   7.758
 4235SOL    HW213290   3.417   1.638   7.660
 4236SOL     OW13291   2.669   0.605   8.913
 4236SOL    HW113292   2.622   0.602   9.002
 4236SOL    HW213293   2.618   0.550   8.847
 4237SOL     OW13294   3.256   0.469   9.122
 4237SOL    HW113295   3.236   0.512   9.210
 4237SOL    HW213296   3.334   0.407   9.131
 4238SOL     OW13297   2.835   0.890   9.020
 4238SOL    HW113298   2.881   0.806   8.991
 4238SOL    HW213299   2.779   0.924   8.945
 4239SOL     OW13300   2.853   0.410   8.690
 4239SOL    HW113301   2.776   0.444   8.744
 4239SOL    HW213302   2.819   0.359   8.611
 4240SOL     OW13303   2.903   0.701   7.877
 4240SOL    HW113304   2.929   0.697   7.973
 4240SOL    HW213305   2.818   0.650   7.863
 4241SOL     OW13306   1.938   0.811   8.237
 4241SOL    HW113307   2.037   0.799   8.246
 4241SOL    HW213308   1.914   0.906   8.258
 4242SOL     OW13309   2.727   0.348   7.643
 4242SOL    HW113310   2.786   0.411   7.594
 4242SOL    HW213311   2.746   0.254   7.614
 4243SOL     OW13312   3.581   0.585   9.279
 4243SOL    HW113313   3.555   0.674   9.243
 4243SOL    HW213314   3.579   0.517   9.206
 4244SOL     OW13315   3.224   1.144   7.993
 4244SOL    HW113316   3.307   1.115   7.945
 4244SOL    HW213317   3.175   1.211   7.937
 4245SOL     OW13318   2.412   0.196   8.333
 4245SOL    HW113319   2.407   0.191   8.433
 4245SOL    HW213320   2.414   0.292   8.304
 4246SOL     OW13321   2.870   1.456   7.925
 4246SOL    HW113322   2.824   1.528   7.873
 4246SOL    HW213323   2.866   1.476   8.023
 4247SOL     OW13324   3.657   1.066   8.321
 4247SOL    HW113325   3.595   1.051   8.245
 4247SOL    HW213326   3.605   1.077   8.406
 4248SOL     OW13327   3.089   1.550   8.954
 4248SOL    HW113328   3.095   1.473   9.018
 4248SOL    HW213329   3.037   1.524   8.874
 4249SOL     OW13330   2.183   0.943   7.690
 4249SOL    HW113331   2.265   0.982   7.648
 4249SOL    HW213332   2.156   0.861   7.641
 4250SOL     OW13333   3.320   0.735   8.176
 4250SOL    HW113334   3.315   0.670   8.251
 4250SOL    HW213335   3.400   0.794   8.189
 4251SOL     OW13336   2.323   1.266   9.175
 4251SOL    HW113337   2.273   1.267   9.089
 4251SOL    HW213338   2.260   1.248   9.251
 4252SOL     OW13339   2.973   1.776   7.685
 4252SOL    HW113340   2.913   1.714   7.735
 4252SOL    HW213341   3.004   1.732   7.600
 4253SOL     OW13342   2.064   0.285   8.946
 4253SOL    HW113343   1.984   0.345   8.933
 4253SOL    HW213344   2.054   0.236   9.032
 4254SOL     OW13345   3.494   1.377   7.529
 4254SOL    HW113346   3.462   1.471   7.519
 4254SOL    HW213347   3.418   1.314   7.517
 4255SOL     OW13348   2.326   1.743   7.771
 4255SOL    HW113349   2.359   1.782   7.857
 4255SOL    HW213350   2.402   1.736   7.706
 4256SOL     OW13351   3.262   0.107   7.874
 4256SOL    HW113352   3.238   0.070   7.784
 4256SOL    HW213353   3.361   0.123   7.878
 4257SOL     OW13354   2.802   1.698   8.352
 4257SOL    HW113355   2.882   1.641   8.373
 4257SOL    HW213356   2.753   1.658   8.275
 4258SOL     OW13357   2.244   0.700   7.928
 4258SOL    HW113358   2.289   0.610   7.925
 4258SOL    HW213359   2.150   0.689   7.961
 4259SOL     OW13360   3.409   0.222   9.177
 4259SOL    HW113361   3.404   0.259   9.269
 4259SOL    HW213362   3.337   0.153   9.165
 4260SOL     OW13363   2.476   0.122   7.565
 4260SOL    HW113364   2.574   0.100   7.572
 4260SOL    HW213365   2.445   0.105   7.472
 4261SOL     OW13366   2.643   0.264   9.197
 4261SOL    HW113367   2.710   0.203   9.240
 4261SOL    HW213368   2.570   0.283   9.262
 4262SOL     OW13369   2.750   1.514   8.643
 4262SOL    HW113370   2.727   1.489   8.549
 4262SOL    HW213371   2.811   1.445   8.682
 4263SOL     OW13372   3.213   0.590   8.881
 4263SOL    HW113373   3.241   0.547   8.966
 4263SOL    HW213374   3.238   0.686   8.882
 4264SOL     OW13375   2.665   1.402   8.372
 4264SOL    HW113376   2.755   1.416   8.330
 4264SOL    HW213377   2.594   1.404   8.301
 4265SOL     OW13378   2.784   0.503   8.347
 4265SOL    HW113379   2.759   0.494   8.251
 4265SOL    HW213380   2.832   0.421   8.378
 4266SOL     OW13381   2.401   0.064   7.960
 4266SOL    HW113382   2.320   0.065   8.018
 4266SOL    HW213383   2.404   0.147   7.905
 4267SOL     OW13384   3.296   1.188   7.489
 4267SOL    HW113385   3.328   1.112   7.546
 4267SOL    HW213386   3.204   1.215   7.519
 4268SOL     OW13387   2.159   0.035   7.619
 4268SOL    HW113388   2.208   0.119   7.598
 4268SOL    HW213389   2.221  -0.030   7.664
 4269SOL     OW13390   2.797   0.236   7.928
 4269SOL    HW113391   2.749   0.277   7.850
 4269SOL    HW213392   2.896   0.234   7.909
 4270SOL     OW13393   2.938   0.683   8.912
 4270SOL    HW113394   2.858   0.622   8.915
 4270SOL    HW213395   3.019   0.630   8.888
 4271SOL     OW13396   3.089   1.570   8.241
 4271SOL    HW113397   3.110   1.644   8.176
 4271SOL    HW213398   3.157   1.570   8.314
 4272SOL     OW13399   2.321   1.152   8.189
 4272SOL    HW113400   2.250   1.125   8.254
 4272SOL    HW213401   2.295   1.124   8.096
 4273SOL     OW13402   3.133   1.797   8.039
 4273SOL    HW113403   3.177   1.861   7.975
 4273SOL    HW213404   3.083   1.849   8.109
 4274SOL     OW13405   2.894   0.549   7.464
 4274SOL    HW113406   2.853   0.631   7.425
 4274SOL    HW213407   2.958   0.575   7.537
 4275SOL     OW13408   1.940   0.556   8.834
 4275SOL    HW113409   2.032   0.555   8.793
 4275SOL    HW213410   1.934   0.630   8.901
 4276SOL     OW13411   2.423   0.222   8.595
 4276SOL    HW113412   2.461   0.138   8.632
 4276SOL    HW213413   2.335   0.241   8.639
 4277SOL     OW13414   2.728   0.454   8.090
 4277SOL    HW113415   2.696   0.526   8.028
 4277SOL    HW213416   2.752   0.373   8.037
 4278SOL     OW13417   2.879   0.039   8.201
 4278SOL    HW113418   2.807   0.044   8.132
 4278SOL    HW213419   2.855  -0.030   8.270
 4279SOL     OW13420   3.291   1.173   8.315
 4279SOL    HW113421   3.236   1.089   8.308
 4279SOL    HW213422   3.317   1.202   8.223
 4280SOL     OW13423   3.328   0.590   8.440
 4280SOL    HW113424   3.298   0.495   8.447
 4280SOL    HW213425   3.401   0.606   8.506
 4281SOL     OW13426   3.719   0.833   7.825
 4281SOL    HW113427   3.761   0.769   7.889
 4281SOL    HW213428   3.681   0.782   7.747
 4282SOL     OW13429   2.350   1.385   7.622
 4282SOL    HW113430   2.263   1.370   7.669
 4282SOL    HW213431   2.333   1.411   7.527
 4283SOL     OW13432   3.526   1.280   8.105
 4283SOL    HW113433   3.625   1.288   8.119
 4283SOL    HW213434   3.481   1.364   8.136
 4284SOL     OW13435   3.252   0.575   7.526
 4284SOL    HW113436   3.198   0.554   7.607
 4284SOL    HW213437   3.343   0.534   7.535
 4285SOL     OW13438   2.389   0.256   7.776
 4285SOL    HW113439   2.416   0.197   7.701
 4285SOL    HW213440   2.389   0.351   7.745
 4286SOL     OW13441   3.616   1.223   9.036
 4286SOL    HW113442   3.707   1.184   9.023
 4286SOL    HW213443   3.624   1.319   9.060
 4287SOL     OW13444   2.926   1.347   8.788
 4287SOL    HW113445   2.846   1.324   8.843
 4287SOL    HW213446   3.009   1.321   8.837
 4288SOL     OW13447   3.454   1.629   9.073
 4288SOL    HW113448   3.481   1.663   8.983
 4288SOL    HW213449   3.533   1.591   9.119
 4289SOL     OW13450   2.973   1.195   8.548
 4289SOL    HW113451   2.933   1.239   8.629
 4289SOL    HW213452   2.932   1.232   8.465
 4290SOL     OW13453   3.500   1.099   8.527
 4290SOL    HW113454   3.505   1.180   8.586
 4290SOL    HW213455   3.414   1.101   8.476
 4291SOL     OW13456   2.777   0.089   8.850
 4291SOL    HW113457   2.802   0.069   8.755
 4291SOL    HW213458   2.849   0.145   8.892
 4292SOL     OW13459   2.842   1.116   9.167
 4292SOL    HW113460   2.743   1.122   9.177
 4292SOL    HW213461   2.865   1.036   9.111
 4293SOL     OW13462   2.567   1.050   7.816
 4293SOL    HW113463   2.553   1.057   7.915
 4293SOL    HW213464   2.651   0.999   7.798
 4294SOL     OW13465   2.272   0.813   8.699
 4294SOL    HW113466   2.358   0.825   8.749
 4294SOL    HW213467   2.230   0.726   8.726
 4295SOL     OW13468   3.136   0.386   8.710
 4295SOL    HW113469   3.157   0.460   8.774
 4295SOL    HW213470   3.047   0.403   8.667
 4296SOL     OW13471   2.229   1.100   7.949
 4296SOL    HW113472   2.222   1.183   7.893
 4296SOL    HW213473   2.233   1.020   7.889
 4297SOL     OW13474   2.428   0.537   8.313
 4297SOL    HW113475   2.440   0.603   8.239
 4297SOL    HW213476   2.474   0.571   8.396
 4298SOL     OW13477   3.114   1.348   7.836
 4298SOL    HW113478   3.164   1.425   7.876
 4298SOL    HW213479   3.019   1.350   7.868
 4299SOL     OW13480   3.134   1.445   8.590
 4299SOL    HW113481   3.181   1.458   8.677
 4299SOL    HW213482   3.068   1.371   8.599
 4300SOL     OW13483   3.444   0.639   7.920
 4300SOL    HW113484   3.413   0.700   7.993
 4300SOL    HW213485   3.494   0.691   7.851
 4301SOL     OW13486   2.216   1.510   8.777
 4301SOL    HW113487   2.195   1.466   8.690
 4301SOL    HW213488   2.313   1.536   8.780
 4302SOL     OW13489   2.264   0.751   9.046
 4302SOL    HW113490   2.332   0.806   8.999
 4302SOL    HW213491   2.304   0.663   9.073
 4303SOL     OW13492   3.449   0.779   9.118
 4303SOL    HW113493   3.357   0.817   9.113
 4303SOL    HW213494   3.509   0.826   9.053
 4304SOL     OW13495   2.875   0.105   9.218
 4304SOL    HW113496   2.881   0.190   9.166
 4304SOL    HW213497   2.907   0.029   9.161
 4305SOL     OW13498   2.366   0.050   9.188
 4305SOL    HW113499   2.324  -0.007   9.118
 4305SOL    HW213500   2.300   0.119   9.220
 4306SOL     OW13501   2.435   0.870   8.477
 4306SOL    HW113502   2.479   0.959   8.468
 4306SOL    HW213503   2.372   0.870   8.554
 4307SOL     OW13504   3.222   0.862   8.493
 4307SOL    HW113505   3.147   0.862   8.427
 4307SOL    HW213506   3.259   0.770   8.502
 4308SOL     OW13507   3.071   0.525   7.723
 4308SOL    HW113508   3.084   0.441   7.777
 4308SOL    HW213509   3.042   0.599   7.783
 4309SOL     OW13510   2.169   0.213   8.679
 4309SOL    HW113511   2.146   0.250   8.769
 4309SOL    HW213512   2.139   0.118   8.673
 4310SOL     OW13513   1.899   1.310   8.730
 4310SOL    HW113514   1.952   1.261   8.798
 4310SOL    HW213515   1.921   1.408   8.735
 4311SOL     OW13516   2.594   0.634   8.512
 4311SOL    HW113517   2.653   0.608   8.436
 4311SOL    HW213518   2.566   0.730   8.501
 4312SOL     OW13519   3.590   0.935   9.302
 4312SOL    HW113520   3.544   0.928   9.213
 4312SOL    HW213521   3.528   0.979   9.368
 4313SOL     OW13522   2.169   0.063   8.066
 4313SOL    HW113523   2.158   0.157   8.099
 4313SOL    HW213524   2.164   0.000   8.143
 4314SOL     OW13525   3.484   0.367   7.822
 4314SOL    HW113526   3.486   0.291   7.886
 4314SOL    HW213527   3.436   0.444   7.862
 4315SOL     OW13528   2.885   0.766   8.414
 4315SOL    HW113529   2.900   0.787   8.510
 4315SOL    HW213530   2.855   0.671   8.405
 4316SOL     OW13531   2.842   1.573   9.148
 4316SOL    HW113532   2.822   1.617   9.060
 4316SOL    HW213533   2.881   1.482   9.132
 4317SOL     OW13534   3.721   1.518   9.053
 4317SOL    HW113535   3.735   1.545   8.958
 4317SOL    HW213536   3.804   1.540   9.106
 4318SOL     OW13537   2.212   0.898   9.252
 4318SOL    HW113538   2.288   0.942   9.300
 4318SOL    HW213539   2.247   0.851   9.170
 4319SOL     OW13540   3.402   0.274   7.573
 4319SOL    HW113541   3.341   0.199   7.596
 4319SOL    HW213542   3.424   0.326   7.656
 4320SOL     OW13543   3.165   0.838   7.490
 4320SOL    HW113544   3.199   0.745   7.505
 4320SOL    HW213545   3.183   0.865   7.395
 4321SOL     OW13546   2.930   1.333   8.297
 4321SOL    HW113547   2.937   1.249   8.242
 4321SOL    HW213548   2.992   1.402   8.261
 4322SOL     OW13549   2.181   0.810   8.397
 4322SOL    HW113550   2.274   0.846   8.402
 4322SOL    HW213551   2.175   0.725   8.449
 4323SOL     OW13552   2.201   0.509   8.454
 4323SOL    HW113553   2.149   0.426   8.437
 4323SOL    HW213554   2.278   0.514   8.390
 4324SOL     OW13555   3.000   0.380   9.126
 4324SOL    HW113556   2.955   0.443   9.190
 4324SOL    HW213557   3.093   0.411   9.109
 4325SOL     OW13558   3.022   0.207   8.925
 4325SOL    HW113559   3.022   0.271   9.002
 4325SOL    HW213560   3.050   0.255   8.842
 4326SOL     OW13561   1.870   1.326   7.648
 4326SOL    HW113562   1.777   1.347   7.617
 4326SOL    HW213563   1.880   1.227   7.661
 4327SOL     OW13564   2.366   1.568   8.358
 4327SOL    HW113565   2.432   1.642   8.367
 4327SOL    HW213566   2.410   1.489   8.316
 4328SOL     OW13567   2.864   0.796   8.686
 4328SOL    HW113568   2.905   0.764   8.772
 4328SOL    HW213569   2.768   0.769   8.683
 4329SOL     OW13570   1.902   0.544   8.562
 4329SOL    HW113571   1.987   0.511   8.521
 4329SOL    HW213572   1.915   0.559   8.660
 4330SOL     OW13573   2.051   0.520   9.170
 4330SOL    HW113574   2.110   0.480   9.100
 4330SOL    HW213575   1.993   0.591   9.129
 4331SOL     OW13576   3.231   0.950   9.108
 4331SOL    HW113577   3.270   1.039   9.128
 4331SOL    HW213578   3.241   0.930   9.011
 4332SOL     OW13579   2.677   0.572   7.773
 4332SOL    HW113580   2.684   0.483   7.727
 4332SOL    HW213581   2.583   0.606   7.765
 4333SOL     OW13582   3.519   0.604   8.654
 4333SOL    HW113583   3.481   0.535   8.716
 4333SOL    HW213584   3.601   0.568   8.610
 4334SOL     OW13585   2.114   1.564   9.192
 4334SOL    HW113586   2.084   1.621   9.268
 4334SOL    HW213587   2.107   1.467   9.218
 4335SOL     OW13588   2.533   0.464   8.717
 4335SOL    HW113589   2.499   0.375   8.687
 4335SOL    HW213590   2.559   0.518   8.637
 4336SOL     OW13591   2.792   1.678   8.913
 4336SOL    HW113592   2.768   1.660   8.818
 4336SOL    HW213593   2.822   1.772   8.923
 4337SOL     OW13594   2.335   0.500   7.639
 4337SOL    HW113595   2.396   0.580   7.643
 4337SOL    HW213596   2.240   0.531   7.646
 4338SOL     OW13597   2.021   1.137   8.914
 4338SOL    HW113598   2.043   1.076   8.990
 4338SOL    HW213599   2.031   1.088   8.828
 4339SOL     OW13600   3.209   1.059   8.682
 4339SOL    HW113601   3.233   0.996   8.608
 4339SOL    HW213602   3.119   1.099   8.664
 4340SOL     OW13603   3.164   0.855   7.757
 4340SOL    HW113604   3.078   0.824   7.799
 4340SOL    HW213605   3.160   0.841   7.658
 4341SOL     OW13606   3.621   1.747   8.602
 4341SOL    HW113607   3.682   1.777   8.529
 4341SOL    HW213608   3.583   1.658   8.580
 4342SOL     OW13609   3.114   1.731   8.576
 4342SOL    HW113610   3.198   1.736   8.522
 4342SOL    HW213611   3.091   1.635   8.594
 4343SOL     OW13612   1.945   1.258   8.470
 4343SOL    HW113613   1.940   1.257   8.570
 4343SOL    HW213614   1.862   1.217   8.432
 4344SOL     OW13615   2.550   1.662   9.164
 4344SOL    HW113616   2.494   1.743   9.173
 4344SOL    HW213617   2.602   1.666   9.078
 4345SOL     OW13618   3.588   0.135   7.971
 4345SOL    HW113619   3.661   0.118   7.904
 4345SOL    HW213620   3.557   0.048   8.009
 4346SOL     OW13621   3.250   1.573   7.925
 4346SOL    HW113622   3.317   1.585   7.851
 4346SOL    HW213623   3.210   1.662   7.948
 4347SOL     OW13624   3.142   0.927   8.120
 4347SOL    HW113625   3.202   0.846   8.122
 4347SOL    HW213626   3.182   0.996   8.060
 4348SOL     OW13627   2.692   1.273   8.870
 4348SOL    HW113628   2.687   1.306   8.965
 4348SOL    HW213629   2.606   1.292   8.824
 4349SOL     OW13630   2.534   1.616   7.602
 4349SOL    HW113631   2.543   1.626   7.503
 4349SOL    HW213632   2.494   1.527   7.623
 4350SOL     OW13633   3.512   1.720   8.842
 4350SOL    HW113634   3.565   1.730   8.758
 4350SOL    HW213635   3.485   1.810   8.876
 4351SOL     OW13636   3.703   0.175   8.411
 4351SOL    HW113637   3.742   0.090   8.375
 4351SOL    HW213638   3.605   0.177   8.392
 4352SOL     OW13639   2.125   0.326   8.168
 4352SOL    HW113640   2.046   0.377   8.134
 4352SOL    HW213641   2.116   0.311   8.266
 4353SOL     OW13642   3.056   1.612   7.479
 4353SOL    HW113643   3.062   1.519   7.516
 4353SOL    HW213644   2.997   1.612   7.399
 4354SOL     OW13645   2.684   1.002   8.820
 4354SOL    HW113646   2.724   1.001   8.728
 4354SOL    HW213647   2.694   1.094   8.860
 4355SOL     OW13648   2.778   0.910   7.739
 4355SOL    HW113649   2.841   0.948   7.671
 4355SOL    HW213650   2.818   0.827   7.778
 4356SOL     OW13651   3.366   1.607   7.492
 4356SOL    HW113652   3.274   1.644   7.499
 4356SOL    HW213653   3.404   1.627   7.402
 4357SOL     OW13654   2.234   1.288   8.938
 4357SOL    HW113655   2.221   1.381   8.904
 4357SOL    HW213656   2.150   1.236   8.925
 4358SOL     OW13657   3.476   1.292   8.737
 4358SOL    HW113658   3.536   1.295   8.817
 4358SOL    HW213659   3.401   1.356   8.750
 4359SOL     OW13660   2.901   1.098   8.144
 4359SOL    HW113661   2.831   1.051   8.198
 4359SOL    HW213662   2.960   1.030   8.101
 4360SOL     OW13663   2.876   0.236   8.419
 4360SOL    HW113664   2.868   0.200   8.326
 4360SOL    HW213665   2.874   0.160   8.484
 4361SOL     OW13666   2.452   1.487   7.939
 4361SOL    HW113667   2.494   1.429   7.869
 4361SOL    HW213668   2.408   1.566   7.895
 4362SOL     OW13669   3.571   0.385   8.829
 4362SOL    HW113670   3.644   0.454   8.833
 4362SOL    HW213671   3.599   0.310   8.770
 4363SOL     OW13672   2.117   1.348   7.738
 4363SOL    HW113673   2.021   1.349   7.711
 4363SOL    HW213674   2.129   1.401   7.822
 4364SOL     OW13675   1.967   1.013   9.174
 4364SOL    HW113676   1.890   0.980   9.228
 4364SOL    HW213677   2.052   0.983   9.216
 4365SOL     OW13678   2.534   0.203   8.937
 4365SOL    HW113679   2.624   0.187   8.897
 4365SOL    HW213680   2.542   0.208   9.036
 4366SOL     OW13681   1.937   0.345   7.481
 4366SOL    HW113682   1.845   0.317   7.452
 4366SOL    HW213683   1.968   0.422   7.425
 4367SOL     OW13684   3.302   0.856   8.846
 4367SOL    HW113685   3.245   0.908   8.783
 4367SOL    HW213686   3.398   0.868   8.822
 4368SOL     OW13687   1.934   0.166   7.766
 4368SOL    HW113688   1.917   0.249   7.712
 4368SOL    HW213689   2.024   0.129   7.744
 4369SOL     OW13690   3.045   1.335   7.567
 4369SOL    HW113691   2.946   1.324   7.569
 4369SOL    HW213692   3.079   1.350   7.660
 4370SOL     OW13693   2.475   0.842   8.879
 4370SOL    HW113694   2.531   0.923   8.862
 4370SOL    HW213695   2.534   0.762   8.882
 4371SOL     OW13696   3.355   1.767   8.407
 4371SOL    HW113697   3.388   1.831   8.338
 4371SOL    HW213698   3.421   1.761   8.482
 4372SOL     OW13699   2.578   0.565   9.156
 4372SOL    HW113700   2.597   0.630   9.230
 4372SOL    HW213701   2.638   0.485   9.165
 4373SOL     OW13702   3.312   1.220   9.081
 4373SOL    HW113703   3.303   1.210   9.180
 4373SOL    HW213704   3.408   1.213   9.055
 4374SOL     OW13705   2.252   1.741   9.008
 4374SOL    HW113706   2.161   1.782   9.006
 4374SOL    HW213707   2.245   1.647   9.040
 4375SOL     OW13708   3.536   0.883   8.702
 4375SOL    HW113709   3.509   0.794   8.665
 4375SOL    HW213710   3.537   0.951   8.629
 4376SOL     OW13711   3.087   0.325   7.897
 4376SOL    HW113712   3.152   0.251   7.886
 4376SOL    HW213713   3.107   0.375   7.981
 4377SOL     OW13714   2.456   0.745   8.100
 4377SOL    HW113715   2.506   0.830   8.081
 4377SOL    HW213716   2.368   0.747   8.052
 4378SOL     OW13717   3.639   0.342   9.090
 4378SOL    HW113718   3.622   0.373   8.996
 4378SOL    HW213719   3.555   0.305   9.128
 4379SOL     OW13720   3.592   0.934   8.965
 4379SOL    HW113721   3.630   1.025   8.980
 4379SOL    HW213722   3.584   0.917   8.866
 4380SOL     OW13723   2.721   1.374   7.464
 4380SOL    HW113724   2.675   1.389   7.552
 4380SOL    HW213725   2.765   1.459   7.434
 4381SOL     OW13726   2.523   1.790   8.401
 4381SOL    HW113727   2.477   1.878   8.388
 4381SOL    HW213728   2.622   1.802   8.394
 4382SOL     OW13729   2.721   0.956   8.309
 4382SOL    HW113730   2.775   0.887   8.357
 4382SOL    HW213731   2.689   1.025   8.375
 4383SOL     OW13732   2.945   0.984   7.535
 4383SOL    HW113733   2.922   1.037   7.453
 4383SOL    HW213734   3.026   0.928   7.516
 4384SOL     OW13735   3.723   1.569   8.299
 4384SOL    HW113736   3.652   1.557   8.229
 4384SOL    HW213737   3.724   1.490   8.359
 4385SOL     OW13738   2.083   1.314   9.292
 4385SOL    HW113739   2.018   1.241   9.271
 4385SOL    HW213740   2.087   1.328   9.390
 4386SOL     OW13741   1.941   1.240   8.101
 4386SOL    HW113742   1.940   1.193   8.189
 4386SOL    HW213743   2.023   1.212   8.050
 4387SOL     OW13744   2.534   1.391   9.072
 4387SOL    HW113745   2.456   1.341   9.110
 4387SOL    HW213746   2.531   1.486   9.103
 4388SOL     OW13747   3.686   0.192   8.675
 4388SOL    HW113748   3.682   0.102   8.719
 4388SOL    HW213749   3.689   0.181   8.576
 4389SOL     OW13750   2.290   0.424   7.968
 4389SOL    HW113751   2.320   0.352   7.906
 4389SOL    HW213752   2.251   0.384   8.051
 4390SOL     OW13753   3.567   1.487   8.552
 4390SOL    HW113754   3.474   1.462   8.525
 4390SOL    HW213755   3.593   1.437   8.634
 4391SOL     OW13756   2.179   0.547   8.728
 4391SOL    HW113757   2.217   0.488   8.800
 4391SOL    HW213758   2.219   0.521   8.640
 4392SOL     OW13759   2.674   1.586   8.135
 4392SOL    HW113760   2.706   1.596   8.041
 4392SOL    HW213761   2.595   1.524   8.137
 4393SOL     OW13762   3.286   0.214   8.560
 4393SOL    HW113763   3.338   0.149   8.615
 4393SOL    HW213764   3.237   0.277   8.621
 4394SOL     OW13765   2.863   0.034   8.602
 4394SOL    HW113766   2.800  -0.038   8.571
 4394SOL    HW213767   2.956  -0.002   8.602
 4395SOL     OW13768   2.632   1.330   7.749
 4395SOL    HW113769   2.586   1.243   7.766
 4395SOL    HW213770   2.723   1.327   7.790
 4396SOL     OW13771   2.480   1.567   8.732
 4396SOL    HW113772   2.475   1.649   8.789
 4396SOL    HW213773   2.569   1.564   8.687
 4397SOL     OW13774   3.214   0.052   7.616
 4397SOL    HW113775   3.249   0.011   7.532
 4397SOL    HW213776   3.124   0.014   7.636
 4398SOL     OW13777   3.162   0.453   8.139
 4398SOL    HW113778   3.103   0.533   8.143
 4398SOL    HW213779   3.177   0.418   8.232
 4399SOL     OW13780   3.455   0.221   8.330
 4399SOL    HW113781   3.371   0.220   8.384
 4399SOL    HW213782   3.457   0.304   8.274
 4400SOL     OW13783   1.901   1.077   7.748
 4400SOL    HW113784   2.000   1.066   7.739
 4400SOL    HW213785   1.861   0.991   7.780
 4401SOL     OW13786   2.737   1.646   7.785
 4401SOL    HW113787   2.660   1.611   7.731
 4401SOL    HW213788   2.705   1.717   7.847
 4402SOL     OW13789   2.092   0.628   9.423
 4402SOL    HW113790   1.999   0.626   9.460
 4402SOL    HW213791   2.093   0.589   9.331
 4403SOL     OW13792   2.087   0.275  10.306
 4403SOL    HW113793   2.122   0.258  10.398
 4403SOL    HW213794   1.999   0.230  10.294
 4404SOL     OW13795   1.881   0.368   9.957
 4404SOL    HW113796   1.799   0.411   9.996
 4404SOL    HW213797   1.853   0.295   9.894
 4405SOL     OW13798   2.431   1.275  10.475
 4405SOL    HW113799   2.338   1.268  10.438
 4405SOL    HW213800   2.442   1.364  10.519
 4406SOL     OW13801   3.417   1.511  10.013
 4406SOL    HW113802   3.360   1.495  10.094
 4406SOL    HW213803   3.358   1.521   9.933
 4407SOL     OW13804   2.997   0.703  10.027
 4407SOL    HW113805   3.054   0.781  10.002
 4407SOL    HW213806   2.937   0.729  10.103
 4408SOL     OW13807   3.617   0.607   9.541
 4408SOL    HW113808   3.605   0.594   9.442
 4408SOL    HW213809   3.587   0.526   9.590
 4409SOL     OW13810   2.630   1.144  10.333
 4409SOL    HW113811   2.552   1.161  10.393
 4409SOL    HW213812   2.664   1.231  10.297
 4410SOL     OW13813   2.712   0.798  11.133
 4410SOL    HW113814   2.708   0.874  11.198
 4410SOL    HW213815   2.734   0.834  11.042
 4411SOL     OW13816   2.547   1.012   9.975
 4411SOL    HW113817   2.616   0.996  10.045
 4411SOL    HW213818   2.474   1.069  10.013
 4412SOL     OW13819   2.548   1.161  11.113
 4412SOL    HW113820   2.608   1.240  11.127
 4412SOL    HW213821   2.462   1.192  11.072
 4413SOL     OW13822   2.197   1.435  10.371
 4413SOL    HW113823   2.119   1.404  10.318
 4413SOL    HW213824   2.255   1.493  10.314
 4414SOL     OW13825   3.322   1.505  10.649
 4414SOL    HW113826   3.346   1.599  10.675
 4414SOL    HW213827   3.306   1.451  10.731
 4415SOL     OW13828   2.300   0.392  10.809
 4415SOL    HW113829   2.382   0.336  10.818
 4415SOL    HW213830   2.219   0.334  10.813
 4416SOL     OW13831   3.465   0.447  10.047
 4416SOL    HW113832   3.391   0.493   9.997
 4416SOL    HW213833   3.516   0.515  10.100
 4417SOL     OW13834   2.093   1.713   9.793
 4417SOL    HW113835   2.127   1.790   9.847
 4417SOL    HW213836   2.137   1.713   9.703
 4418SOL     OW13837   2.989   1.341  11.000
 4418SOL    HW113838   3.036   1.341  11.088
 4418SOL    HW213839   2.941   1.254  10.989
 4419SOL     OW13840   2.092   1.434   9.848
 4419SOL    HW113841   2.066   1.530   9.848
 4419SOL    HW213842   2.021   1.380   9.893
 4420SOL     OW13843   2.102   1.091  10.196
 4420SOL    HW113844   2.116   1.007  10.248
 4420SOL    HW213845   2.047   1.155  10.251
 4421SOL     OW13846   2.482   1.786  10.749
 4421SOL    HW113847   2.390   1.769  10.784
 4421SOL    HW213848   2.510   1.878  10.775
 4422SOL     OW13849   2.468   0.964   9.433
 4422SOL    HW113850   2.475   1.048   9.379
 4422SOL    HW213851   2.514   0.977   9.521
 4423SOL     OW13852   3.456   0.114  10.790
 4423SOL    HW113853   3.438   0.181  10.718
 4423SOL    HW213854   3.453   0.160  10.879
 4424SOL     OW13855   1.984   0.643   9.873
 4424SOL    HW113856   1.939   0.555   9.890
 4424SOL    HW213857   1.983   0.697   9.957
 4425SOL     OW13858   3.704   1.767   9.669
 4425SOL    HW113859   3.758   1.738   9.749
 4425SOL    HW213860   3.734   1.857   9.640
 4426SOL     OW13861   1.889   1.596   9.427
 4426SOL    HW113862   1.870   1.500   9.448
 4426SOL    HW213863   1.856   1.654   9.502
 4427SOL     OW13864   3.551   0.922   9.922
 4427SOL    HW113865   3.646   0.893   9.930
 4427SOL    HW213866   3.543   0.987   9.847
 4428SOL     OW13867   3.503   1.108   9.742
 4428SOL    HW113868   3.589   1.110   9.690
 4428SOL    HW213869   3.517   1.155   9.830
 4429SOL     OW13870   1.975   0.737  10.907
 4429SOL    HW113871   2.063   0.724  10.952
 4429SOL    HW213872   1.962   0.834  10.885
 4430SOL     OW13873   2.475   1.365  10.036
 4430SOL    HW113874   2.426   1.278  10.045
 4430SOL    HW213875   2.452   1.408   9.949
 4431SOL     OW13876   3.155   1.228  10.733
 4431SOL    HW113877   3.192   1.155  10.675
 4431SOL    HW213878   3.207   1.233  10.818
 4432SOL     OW13879   2.671   0.004   9.812
 4432SOL    HW113880   2.711   0.095   9.803
 4432SOL    HW213881   2.571   0.012   9.818
 4433SOL     OW13882   2.059   0.976  10.574
 4433SOL    HW113883   2.148   0.931  10.560
 4433SOL    HW213884   1.986   0.911  10.555
 4434SOL     OW13885   3.387   0.999   9.500
 4434SOL    HW113886   3.324   0.923   9.513
 4434SOL    HW213887   3.435   1.017   9.586
 4435SOL     OW13888   3.049   1.792  10.926
 4435SOL    HW113889   3.073   1.852  10.850
 4435SOL    HW213890   3.056   1.697  10.896
 4436SOL     OW13891   2.179   0.251  11.111
 4436SOL    HW113892   2.250   0.322  11.117
 4436SOL    HW213893   2.091   0.290  11.139
 4437SOL     OW13894   3.328   1.417  10.263
 4437SOL    HW113895   3.269   1.423  10.343
 4437SOL    HW213896   3.313   1.329  10.217
 4438SOL     OW13897   3.529   1.714   9.882
 4438SOL    HW113898   3.488   1.691   9.794
 4438SOL    HW213899   3.511   1.640   9.947
 4439SOL     OW13900   2.460   0.729   9.580
 4439SOL    HW113901   2.484   0.798   9.512
 4439SOL    HW213902   2.382   0.762   9.634
 4440SOL     OW13903   3.143   0.345  10.254
 4440SOL    HW113904   3.057   0.295  10.241
 4440SOL    HW213905   3.205   0.291  10.310
 4441SOL     OW13906   3.438   1.662   9.617
 4441SOL    HW113907   3.527   1.708   9.620
 4441SOL    HW213908   3.417   1.638   9.522
 4442SOL     OW13909   2.669   0.605  10.775
 4442SOL    HW113910   2.622   0.602  10.864
 4442SOL    HW213911   2.618   0.550  10.709
 4443SOL     OW13912   3.256   0.469  10.984
 4443SOL    HW113913   3.236   0.512  11.072
 4443SOL    HW213914   3.334   0.407  10.993
 4444SOL     OW13915   2.835   0.890  10.882
 4444SOL    HW113916   2.881   0.806  10.853
 4444SOL    HW213917   2.779   0.924  10.807
 4445SOL     OW13918   2.853   0.410  10.552
 4445SOL    HW113919   2.776   0.444  10.606
 4445SOL    HW213920   2.819   0.359  10.473
 4446SOL     OW13921   2.903   0.701   9.739
 4446SOL    HW113922   2.929   0.697   9.835
 4446SOL    HW213923   2.818   0.650   9.725
 4447SOL     OW13924   1.938   0.811  10.099
 4447SOL    HW113925   2.037   0.799  10.108
 4447SOL    HW213926   1.914   0.906  10.120
 4448SOL     OW13927   2.727   0.348   9.505
 4448SOL    HW113928   2.786   0.411   9.456
 4448SOL    HW213929   2.746   0.254   9.476
 4449SOL     OW13930   3.581   0.585  11.141
 4449SOL    HW113931   3.555   0.674  11.105
 4449SOL    HW213932   3.579   0.517  11.068
 4450SOL     OW13933   3.224   1.144   9.855
 4450SOL    HW113934   3.307   1.115   9.807
 4450SOL    HW213935   3.175   1.211   9.799
 4451SOL     OW13936   2.412   0.196  10.195
 4451SOL    HW113937   2.407   0.191  10.295
 4451SOL    HW213938   2.414   0.292  10.166
 4452SOL     OW13939   2.870   1.456   9.787
 4452SOL    HW113940   2.824   1.528   9.735
 4452SOL    HW213941   2.866   1.476   9.885
 4453SOL     OW13942   3.657   1.066  10.183
 4453SOL    HW113943   3.595   1.051  10.107
 4453SOL    HW213944   3.605   1.077  10.268
 4454SOL     OW13945   3.089   1.550  10.816
 4454SOL    HW113946   3.095   1.473  10.880
 4454SOL    HW213947   3.037   1.524  10.736
 4455SOL     OW13948   2.183   0.943   9.552
 4455SOL    HW113949   2.265   0.982   9.510
 4455SOL    HW213950   2.156   0.861   9.503
 4456SOL     OW13951   3.320   0.735  10.038
 4456SOL    HW113952   3.315   0.670  10.113
 4456SOL    HW213953   3.400   0.794  10.051
 4457SOL     OW13954   2.323   1.266  11.037
 4457SOL    HW113955   2.273   1.267  10.951
 4457SOL    HW213956   2.260   1.248  11.113
 4458SOL     OW13957   2.973   1.776   9.547
 4458SOL    HW113958   2.913   1.714   9.597
 4458SOL    HW213959   3.004   1.732   9.462
 4459SOL     OW13960   2.064   0.285  10.808
 4459SOL    HW113961   1.984   0.345  10.795
 4459SOL    HW213962   2.054   0.236  10.894
 4460SOL     OW13963   3.494   1.377   9.391
 4460SOL    HW113964   3.462   1.471   9.381
 4460SOL    HW213965   3.418   1.314   9.379
 4461SOL     OW13966   2.326   1.743   9.633
 4461SOL    HW113967   2.359   1.782   9.719
 4461SOL    HW213968   2.402   1.736   9.568
 4462SOL     OW13969   3.262   0.107   9.736
 4462SOL    HW113970   3.238   0.070   9.646
 4462SOL    HW213971   3.361   0.123   9.740
 4463SOL     OW13972   2.802   1.698  10.214
 4463SOL    HW113973   2.882   1.641  10.235
 4463SOL    HW213974   2.753   1.658  10.137
 4464SOL     OW13975   2.244   0.700   9.790
 4464SOL    HW113976   2.289   0.610   9.787
 4464SOL    HW213977   2.150   0.689   9.823
 4465SOL     OW13978   3.409   0.222  11.039
 4465SOL    HW113979   3.404   0.259  11.131
 4465SOL    HW213980   3.337   0.153  11.027
 4466SOL     OW13981   2.476   0.122   9.427
 4466SOL    HW113982   2.574   0.100   9.434
 4466SOL    HW213983   2.445   0.105   9.334
 4467SOL     OW13984   2.643   0.264  11.059
 4467SOL    HW113985   2.710   0.203  11.102
 4467SOL    HW213986   2.570   0.283  11.124
 4468SOL     OW13987   2.750   1.514  10.505
 4468SOL    HW113988   2.727   1.489  10.411
 4468SOL    HW213989   2.811   1.445  10.544
 4469SOL     OW13990   3.213   0.590  10.743
 4469SOL    HW113991   3.241   0.547  10.828
 4469SOL    HW213992   3.238   0.686  10.744
 4470SOL     OW13993   2.665   1.402  10.234
 4470SOL    HW113994   2.755   1.416  10.192
 4470SOL    HW213995   2.594   1.404  10.163
 4471SOL     OW13996   2.784   0.503  10.209
 4471SOL    HW113997   2.759   0.494  10.113
 4471SOL    HW213998   2.832   0.421  10.240
 4472SOL     OW13999   2.401   0.064   9.822
 4472SOL    HW114000   2.320   0.065   9.880
 4472SOL    HW214001   2.404   0.147   9.767
 4473SOL     OW14002   3.296   1.188   9.351
 4473SOL    HW114003   3.328   1.112   9.408
 4473SOL    HW214004   3.204   1.215   9.381
 4474SOL     OW14005   2.159   0.035   9.481
 4474SOL    HW114006   2.208   0.119   9.460
 4474SOL    HW214007   2.221  -0.030   9.526
 4475SOL     OW14008   2.797   0.236   9.790
 4475SOL    HW114009   2.749   0.277   9.712
 4475SOL    HW214010   2.896   0.234   9.771
 4476SOL     OW14011   2.938   0.683  10.774
 4476SOL    HW114012   2.858   0.622  10.777
 4476SOL    HW214013   3.019   0.630  10.750
 4477SOL     OW14014   3.089   1.570  10.103
 4477SOL    HW114015   3.110   1.644  10.038
 4477SOL    HW214016   3.157   1.570  10.176
 4478SOL     OW14017   2.321   1.152  10.051
 4478SOL    HW114018   2.250   1.125  10.116
 4478SOL    HW214019   2.295   1.124   9.958
 4479SOL     OW14020   3.133   1.797   9.901
 4479SOL    HW114021   3.177   1.861   9.837
 4479SOL    HW214022   3.083   1.849   9.971
 4480SOL     OW14023   2.894   0.549   9.326
 4480SOL    HW114024   2.853   0.631   9.287
 4480SOL    HW214025   2.958   0.575   9.399
 4481SOL     OW14026   1.940   0.556  10.696
 4481SOL    HW114027   2.032   0.555  10.655
 4481SOL    HW214028   1.934   0.630  10.763
 4482SOL     OW14029   2.423   0.222  10.457
 4482SOL    HW114030   2.461   0.138  10.494
 4482SOL    HW214031   2.335   0.241  10.501
 4483SOL     OW14032   2.728   0.454   9.952
 4483SOL    HW114033   2.696   0.526   9.890
 4483SOL    HW214034   2.752   0.373   9.899
 4484SOL     OW14035   2.879   0.039  10.063
 4484SOL    HW114036   2.807   0.044   9.994
 4484SOL    HW214037   2.855  -0.030  10.132
 4485SOL     OW14038   3.291   1.173  10.177
 4485SOL    HW114039   3.236   1.089  10.170
 4485SOL    HW214040   3.317   1.202  10.085
 4486SOL     OW14041   3.328   0.590  10.302
 4486SOL    HW114042   3.298   0.495  10.309
 4486SOL    HW214043   3.401   0.606  10.368
 4487SOL     OW14044   3.719   0.833   9.687
 4487SOL    HW114045   3.761   0.769   9.751
 4487SOL    HW214046   3.681   0.782   9.609
 4488SOL     OW14047   2.350   1.385   9.484
 4488SOL    HW114048   2.263   1.370   9.531
 4488SOL    HW214049   2.333   1.411   9.389
 4489SOL     OW14050   3.526   1.280   9.967
 4489SOL    HW114051   3.625   1.288   9.981
 4489SOL    HW214052   3.481   1.364   9.998
 4490SOL     OW14053   3.252   0.575   9.388
 4490SOL    HW114054   3.198   0.554   9.469
 4490SOL    HW214055   3.343   0.534   9.397
 4491SOL     OW14056   2.389   0.256   9.638
 4491SOL    HW114057   2.416   0.197   9.563
 4491SOL    HW214058   2.389   0.351   9.607
 4492SOL     OW14059   3.616   1.223  10.898
 4492SOL    HW114060   3.707   1.184  10.885
 4492SOL    HW214061   3.624   1.319  10.922
 4493SOL     OW14062   2.926   1.347  10.650
 4493SOL    HW114063   2.846   1.324  10.705
 4493SOL    HW214064   3.009   1.321  10.699
 4494SOL     OW14065   3.454   1.629  10.935
 4494SOL    HW114066   3.481   1.663  10.845
 4494SOL    HW214067   3.533   1.591  10.981
 4495SOL     OW14068   2.973   1.195  10.410
 4495SOL    HW114069   2.933   1.239  10.491
 4495SOL    HW214070   2.932   1.232  10.327
 4496SOL     OW14071   3.500   1.099  10.389
 4496SOL    HW114072   3.505   1.180  10.448
 4496SOL    HW214073   3.414   1.101  10.338
 4497SOL     OW14074   2.777   0.089  10.712
 4497SOL    HW114075   2.802   0.069  10.617
 4497SOL    HW214076   2.849   0.145  10.754
 4498SOL     OW14077   2.842   1.116  11.029
 4498SOL    HW114078   2.743   1.122  11.039
 4498SOL    HW214079   2.865   1.036  10.973
 4499SOL     OW14080   2.567   1.050   9.678
 4499SOL    HW114081   2.553   1.057   9.777
 4499SOL    HW214082   2.651   0.999   9.660
 4500SOL     OW14083   2.272   0.813  10.561
 4500SOL    HW114084   2.358   0.825  10.611
 4500SOL    HW214085   2.230   0.726  10.588
 4501SOL     OW14086   3.136   0.386  10.572
 4501SOL    HW114087   3.157   0.460  10.636
 4501SOL    HW214088   3.047   0.403  10.529
 4502SOL     OW14089   1.926   1.564  10.641
 4502SOL    HW114090   1.880   1.646  10.607
 4502SOL    HW214091   2.024   1.583  10.650
 4503SOL     OW14092   2.229   1.100   9.811
 4503SOL    HW114093   2.222   1.183   9.755
 4503SOL    HW214094   2.233   1.020   9.751
 4504SOL     OW14095   2.428   0.537  10.175
 4504SOL    HW114096   2.440   0.603  10.101
 4504SOL    HW214097   2.474   0.571  10.258
 4505SOL     OW14098   3.114   1.348   9.698
 4505SOL    HW114099   3.164   1.425   9.738
 4505SOL    HW214100   3.019   1.350   9.730
 4506SOL     OW14101   3.134   1.445  10.452
 4506SOL    HW114102   3.181   1.458  10.539
 4506SOL    HW214103   3.068   1.371  10.461
 4507SOL     OW14104   3.444   0.639   9.782
 4507SOL    HW114105   3.413   0.700   9.855
 4507SOL    HW214106   3.494   0.691   9.713
 4508SOL     OW14107   2.216   1.510  10.639
 4508SOL    HW114108   2.195   1.466  10.552
 4508SOL    HW214109   2.313   1.536  10.642
 4509SOL     OW14110   2.264   0.751  10.908
 4509SOL    HW114111   2.332   0.806  10.861
 4509SOL    HW214112   2.304   0.663  10.935
 4510SOL     OW14113   3.449   0.779  10.980
 4510SOL    HW114114   3.357   0.817  10.975
 4510SOL    HW214115   3.509   0.826  10.915
 4511SOL     OW14116   2.875   0.105  11.080
 4511SOL    HW114117   2.881   0.190  11.028
 4511SOL    HW214118   2.907   0.029  11.023
 4512SOL     OW14119   2.366   0.050  11.050
 4512SOL    HW114120   2.324  -0.007  10.980
 4512SOL    HW214121   2.300   0.119  11.082
 4513SOL     OW14122   2.435   0.870  10.339
 4513SOL    HW114123   2.479   0.959  10.330
 4513SOL    HW214124   2.372   0.870  10.416
 4514SOL     OW14125   3.222   0.862  10.355
 4514SOL    HW114126   3.147   0.862  10.289
 4514SOL    HW214127   3.259   0.770  10.364
 4515SOL     OW14128   3.071   0.525   9.585
 4515SOL    HW114129   3.084   0.441   9.639
 4515SOL    HW214130   3.042   0.599   9.645
 4516SOL     OW14131   2.169   0.213  10.541
 4516SOL    HW114132   2.146   0.250  10.631
 4516SOL    HW214133   2.139   0.118  10.535
 4517SOL     OW14134   1.899   1.310  10.592
 4517SOL    HW114135   1.952   1.261  10.660
 4517SOL    HW214136   1.921   1.408  10.597
 4518SOL     OW14137   2.594   0.634  10.374
 4518SOL    HW114138   2.653   0.608  10.298
 4518SOL    HW214139   2.566   0.730  10.363
 4519SOL     OW14140   3.590   0.935  11.164
 4519SOL    HW114141   3.544   0.928  11.075
 4519SOL    HW214142   3.528   0.979  11.230
 4520SOL     OW14143   2.169   0.063   9.928
 4520SOL    HW114144   2.158   0.157   9.961
 4520SOL    HW214145   2.164   0.000  10.005
 4521SOL     OW14146   3.484   0.367   9.684
 4521SOL    HW114147   3.486   0.291   9.748
 4521SOL    HW214148   3.436   0.444   9.724
 4522SOL     OW14149   2.885   0.766  10.276
 4522SOL    HW114150   2.900   0.787  10.372
 4522SOL    HW214151   2.855   0.671  10.267
 4523SOL     OW14152   2.842   1.573  11.010
 4523SOL    HW114153   2.822   1.617  10.922
 4523SOL    HW214154   2.881   1.482  10.994
 4524SOL     OW14155   3.721   1.518  10.915
 4524SOL    HW114156   3.735   1.545  10.820
 4524SOL    HW214157   3.804   1.540  10.968
 4525SOL     OW14158   2.212   0.898  11.114
 4525SOL    HW114159   2.288   0.942  11.162
 4525SOL    HW214160   2.247   0.851  11.032
 4526SOL     OW14161   3.402   0.274   9.435
 4526SOL    HW114162   3.341   0.199   9.458
 4526SOL    HW214163   3.424   0.326   9.518
 4527SOL     OW14164   3.165   0.838   9.352
 4527SOL    HW114165   3.199   0.745   9.367
 4527SOL    HW214166   3.183   0.865   9.257
 4528SOL     OW14167   2.930   1.333  10.159
 4528SOL    HW114168   2.937   1.249  10.104
 4528SOL    HW214169   2.992   1.402  10.123
 4529SOL     OW14170   2.181   0.810  10.259
 4529SOL    HW114171   2.274   0.846  10.264
 4529SOL    HW214172   2.175   0.725  10.311
 4530SOL     OW14173   2.201   0.509  10.316
 4530SOL    HW114174   2.149   0.426  10.299
 4530SOL    HW214175   2.278   0.514  10.252
 4531SOL     OW14176   3.000   0.380  10.988
 4531SOL    HW114177   2.955   0.443  11.052
 4531SOL    HW214178   3.093   0.411  10.971
 4532SOL     OW14179   3.022   0.207  10.787
 4532SOL    HW114180   3.022   0.271  10.864
 4532SOL    HW214181   3.050   0.255  10.704
 4533SOL     OW14182   1.870   1.326   9.510
 4533SOL    HW114183   1.777   1.347   9.479
 4533SOL    HW214184   1.880   1.227   9.523
 4534SOL     OW14185   2.366   1.568  10.220
 4534SOL    HW114186   2.432   1.642  10.229
 4534SOL    HW214187   2.410   1.489  10.178
 4535SOL     OW14188   2.864   0.796  10.548
 4535SOL    HW114189   2.905   0.764  10.634
 4535SOL    HW214190   2.768   0.769  10.545
 4536SOL     OW14191   1.902   0.544  10.424
 4536SOL    HW114192   1.987   0.511  10.383
 4536SOL    HW214193   1.915   0.559  10.522
 4537SOL     OW14194   2.051   0.520  11.032
 4537SOL    HW114195   2.110   0.480  10.962
 4537SOL    HW214196   1.993   0.591  10.991
 4538SOL     OW14197   3.231   0.950  10.970
 4538SOL    HW114198   3.270   1.039  10.990
 4538SOL    HW214199   3.241   0.930  10.873
 4539SOL     OW14200   2.677   0.572   9.635
 4539SOL    HW114201   2.684   0.483   9.589
 4539SOL    HW214202   2.583   0.606   9.627
 4540SOL     OW14203   3.519   0.604  10.516
 4540SOL    HW114204   3.481   0.535  10.578
 4540SOL    HW214205   3.601   0.568  10.472
 4541SOL     OW14206   2.114   1.564  11.054
 4541SOL    HW114207   2.084   1.621  11.130
 4541SOL    HW214208   2.107   1.467  11.080
 4542SOL     OW14209   2.533   0.464  10.579
 4542SOL    HW114210   2.499   0.375  10.549
 4542SOL    HW214211   2.559   0.518  10.499
 4543SOL     OW14212   2.792   1.678  10.775
 4543SOL    HW114213   2.768   1.660  10.680
 4543SOL    HW214214   2.822   1.772  10.785
 4544SOL     OW14215   2.335   0.500   9.501
 4544SOL    HW114216   2.396   0.580   9.505
 4544SOL    HW214217   2.240   0.531   9.508
 4545SOL     OW14218   2.021   1.137  10.776
 4545SOL    HW114219   2.043   1.076  10.852
 4545SOL    HW214220   2.031   1.088  10.690
 4546SOL     OW14221   3.209   1.059  10.544
 4546SOL    HW114222   3.233   0.996  10.470
 4546SOL    HW214223   3.119   1.099  10.526
 4547SOL     OW14224   3.164   0.855   9.619
 4547SOL    HW114225   3.078   0.824   9.661
 4547SOL    HW214226   3.160   0.841   9.520
 4548SOL     OW14227   3.621   1.747  10.464
 4548SOL    HW114228   3.682   1.777  10.391
 4548SOL    HW214229   3.583   1.658  10.442
 4549SOL     OW14230   3.114   1.731  10.438
 4549SOL    HW114231   3.198   1.736  10.384
 4549SOL    HW214232   3.091   1.635  10.456
 4550SOL     OW14233   1.945   1.258  10.332
 4550SOL    HW114234   1.940   1.257  10.432
 4550SOL    HW214235   1.862   1.217  10.294
 4551SOL     OW14236   2.550   1.662  11.026
 4551SOL    HW114237   2.494   1.743  11.035
 4551SOL    HW214238   2.602   1.666  10.940
 4552SOL     OW14239   3.588   0.135   9.833
 4552SOL    HW114240   3.661   0.118   9.766
 4552SOL    HW214241   3.557   0.048   9.871
 4553SOL     OW14242   3.250   1.573   9.787
 4553SOL    HW114243   3.317   1.585   9.713
 4553SOL    HW214244   3.210   1.662   9.810
 4554SOL     OW14245   3.142   0.927   9.982
 4554SOL    HW114246   3.202   0.846   9.984
 4554SOL    HW214247   3.182   0.996   9.922
 4555SOL     OW14248   2.692   1.273  10.732
 4555SOL    HW114249   2.687   1.306  10.827
 4555SOL    HW214250   2.606   1.292  10.686
 4556SOL     OW14251   2.534   1.616   9.464
 4556SOL    HW114252   2.543   1.626   9.365
 4556SOL    HW214253   2.494   1.527   9.485
 4557SOL     OW14254   3.512   1.720  10.704
 4557SOL    HW114255   3.565   1.730  10.620
 4557SOL    HW214256   3.485   1.810  10.738
 4558SOL     OW14257   3.703   0.175  10.273
 4558SOL    HW114258   3.742   0.090  10.237
 4558SOL    HW214259   3.605   0.177  10.254
 4559SOL     OW14260   2.125   0.326  10.030
 4559SOL    HW114261   2.046   0.377   9.996
 4559SOL    HW214262   2.116   0.311  10.128
 4560SOL     OW14263   3.056   1.612   9.341
 4560SOL    HW114264   3.062   1.519   9.378
 4560SOL    HW214265   2.997   1.612   9.261
 4561SOL     OW14266   2.684   1.002  10.682
 4561SOL    HW114267   2.724   1.001  10.590
 4561SOL    HW214268   2.694   1.094  10.722
 4562SOL     OW14269   2.778   0.910   9.601
 4562SOL    HW114270   2.841   0.948   9.533
 4562SOL    HW214271   2.818   0.827   9.640
 4563SOL     OW14272   3.366   1.607   9.354
 4563SOL    HW114273   3.274   1.644   9.361
 4563SOL    HW214274   3.404   1.627   9.264
 4564SOL     OW14275   2.234   1.288  10.800
 4564SOL    HW114276   2.221   1.381  10.766
 4564SOL    HW214277   2.150   1.236  10.787
 4565SOL     OW14278   3.476   1.292  10.599
 4565SOL    HW114279   3.536   1.295  10.679
 4565SOL    HW214280   3.401   1.356  10.612
 4566SOL     OW14281   2.901   1.098  10.006
 4566SOL    HW114282   2.831   1.051  10.060
 4566SOL    HW214283   2.960   1.030   9.963
 4567SOL     OW14284   2.876   0.236  10.281
 4567SOL    HW114285   2.868   0.200  10.188
 4567SOL    HW214286   2.874   0.160  10.346
 4568SOL     OW14287   2.452   1.487   9.801
 4568SOL    HW114288   2.494   1.429   9.731
 4568SOL    HW214289   2.408   1.566   9.757
 4569SOL     OW14290   3.571   0.385  10.691
 4569SOL    HW114291   3.644   0.454  10.695
 4569SOL    HW214292   3.599   0.310  10.632
 4570SOL     OW14293   2.117   1.348   9.600
 4570SOL    HW114294   2.021   1.349   9.573
 4570SOL    HW214295   2.129   1.401   9.684
 4571SOL     OW14296   1.967   1.013  11.036
 4571SOL    HW114297   1.890   0.980  11.090
 4571SOL    HW214298   2.052   0.983  11.078
 4572SOL     OW14299   2.534   0.203  10.799
 4572SOL    HW114300   2.624   0.187  10.759
 4572SOL    HW214301   2.542   0.208  10.898
 4573SOL     OW14302   1.937   0.345   9.343
 4573SOL    HW114303   1.845   0.317   9.314
 4573SOL    HW214304   1.968   0.422   9.287
 4574SOL     OW14305   3.302   0.856  10.708
 4574SOL    HW114306   3.245   0.908  10.645
 4574SOL    HW214307   3.398   0.868  10.684
 4575SOL     OW14308   1.934   0.166   9.628
 4575SOL    HW114309   1.917   0.249   9.574
 4575SOL    HW214310   2.024   0.129   9.606
 4576SOL     OW14311   3.045   1.335   9.429
 4576SOL    HW114312   2.946   1.324   9.431
 4576SOL    HW214313   3.079   1.350   9.522
 4577SOL     OW14314   2.475   0.842  10.741
 4577SOL    HW114315   2.531   0.923  10.724
 4577SOL    HW214316   2.534   0.762  10.744
 4578SOL     OW14317   3.355   1.767  10.269
 4578SOL    HW114318   3.388   1.831  10.200
 4578SOL    HW214319   3.421   1.761  10.344
 4579SOL     OW14320   2.578   0.565  11.018
 4579SOL    HW114321   2.597   0.630  11.092
 4579SOL    HW214322   2.638   0.485  11.027
 4580SOL     OW14323   3.312   1.220  10.943
 4580SOL    HW114324   3.303   1.210  11.042
 4580SOL    HW214325   3.408   1.213  10.917
 4581SOL     OW14326   3.536   0.883  10.564
 4581SOL    HW114327   3.509   0.794  10.527
 4581SOL    HW214328   3.537   0.951  10.491
 4582SOL     OW14329   3.087   0.325   9.759
 4582SOL    HW114330   3.152   0.251   9.748
 4582SOL    HW214331   3.107   0.375   9.843
 4583SOL     OW14332   2.456   0.745   9.962
 4583SOL    HW114333   2.506   0.830   9.943
 4583SOL    HW214334   2.368   0.747   9.914
 4584SOL     OW14335   3.639   0.342  10.952
 4584SOL    HW114336   3.622   0.373  10.858
 4584SOL    HW214337   3.555   0.305  10.990
 4585SOL     OW14338   3.592   0.934  10.827
 4585SOL    HW114339   3.630   1.025  10.842
 4585SOL    HW214340   3.584   0.917  10.728
 4586SOL     OW14341   2.721   1.374   9.326
 4586SOL    HW114342   2.675   1.389   9.414
 4586SOL    HW214343   2.765   1.459   9.296
 4587SOL     OW14344   2.523   1.790  10.263
 4587SOL    HW114345   2.477   1.878  10.250
 4587SOL    HW214346   2.622   1.802  10.256
 4588SOL     OW14347   2.721   0.956  10.171
 4588SOL    HW114348   2.775   0.887  10.219
 4588SOL    HW214349   2.689   1.025  10.237
 4589SOL     OW14350   2.945   0.984   9.397
 4589SOL    HW114351   2.922   1.037   9.315
 4589SOL    HW214352   3.026   0.928   9.378
 4590SOL     OW14353   3.723   1.569  10.161
 4590SOL    HW114354   3.652   1.557  10.091
 4590SOL    HW214355   3.724   1.490  10.221
 4591SOL     OW14356   2.083   1.314  11.154
 4591SOL    HW114357   2.018   1.241  11.133
 4591SOL    HW214358   2.087   1.328  11.252
 4592SOL     OW14359   1.941   1.240   9.963
 4592SOL    HW114360   1.940   1.193  10.051
 4592SOL    HW214361   2.023   1.212   9.912
 4593SOL     OW14362   2.534   1.391  10.934
 4593SOL    HW114363   2.456   1.341  10.972
 4593SOL    HW214364   2.531   1.486  10.965
 4594SOL     OW14365   3.686   0.192  10.537
 4594SOL    HW114366   3.682   0.102  10.581
 4594SOL    HW214367   3.689   0.181  10.438
 4595SOL     OW14368   2.290   0.424   9.830
 4595SOL    HW114369   2.320   0.352   9.768
 4595SOL    HW214370   2.251   0.384   9.913
 4596SOL     OW14371   3.567   1.487  10.414
 4596SOL    HW114372   3.474   1.462  10.387
 4596SOL    HW214373   3.593   1.437  10.496
 4597SOL     OW14374   2.179   0.547  10.590
 4597SOL    HW114375   2.217   0.488  10.662
 4597SOL    HW214376   2.219   0.521  10.502
 4598SOL     OW14377   2.674   1.586   9.997
 4598SOL    HW114378   2.706   1.596   9.903
 4598SOL    HW214379   2.595   1.524   9.999
 4599SOL     OW14380   3.286   0.214  10.422
 4599SOL    HW114381   3.338   0.149  10.477
 4599SOL    HW214382   3.237   0.277  10.483
 4600SOL     OW14383   2.863   0.034  10.464
 4600SOL    HW114384   2.800  -0.038  10.433
 4600SOL    HW214385   2.956  -0.002  10.464
 4601SOL     OW14386   2.632   1.330   9.611
 4601SOL    HW114387   2.586   1.243   9.628
 4601SOL    HW214388   2.723   1.327   9.652
 4602SOL     OW14389   2.480   1.567  10.594
 4602SOL    HW114390   2.475   1.649  10.651
 4602SOL    HW214391   2.569   1.564  10.549
 4603SOL     OW14392   3.214   0.052   9.478
 4603SOL    HW114393   3.249   0.011   9.394
 4603SOL    HW214394   3.124   0.014   9.498
 4604SOL     OW14395   3.162   0.453  10.001
 4604SOL    HW114396   3.103   0.533  10.005
 4604SOL    HW214397   3.177   0.418  10.094
 4605SOL     OW14398   3.455   0.221  10.192
 4605SOL    HW114399   3.371   0.220  10.246
 4605SOL    HW214400   3.457   0.304  10.136
 4606SOL     OW14401   1.901   1.077   9.610
 4606SOL    HW114402   2.000   1.066   9.601
 4606SOL    HW214403   1.861   0.991   9.642
 4607SOL     OW14404   2.737   1.646   9.647
 4607SOL    HW114405   2.660   1.611   9.593
 4607SOL    HW214406   2.705   1.717   9.709
 4608SOL     OW14407   2.092   0.628  11.285
 4608SOL    HW114408   1.999   0.626  11.322
 4608SOL    HW214409   2.093   0.589  11.193
 4609SOL     OW14410   2.087   0.275  12.168
 4609SOL    HW114411   2.122   0.258  12.260
 4609SOL    HW214412   1.999   0.230  12.156
 4610SOL     OW14413   1.881   0.368  11.819
 4610SOL    HW114414   1.799   0.411  11.858
 4610SOL    HW214415   1.853   0.295  11.756
 4611SOL     OW14416   2.431   1.275  12.337
 4611SOL    HW114417   2.338   1.268  12.300
 4611SOL    HW214418   2.442   1.364  12.381
 4612SOL     OW14419   3.417   1.511  11.875
 4612SOL    HW114420   3.360   1.495  11.956
 4612SOL    HW214421   3.358   1.521  11.795
 4613SOL     OW14422   2.997   0.703  11.889
 4613SOL    HW114423   3.054   0.781  11.864
 4613SOL    HW214424   2.937   0.729  11.965
 4614SOL     OW14425   3.617   0.607  11.403
 4614SOL    HW114426   3.605   0.594  11.304
 4614SOL    HW214427   3.587   0.526  11.452
 4615SOL     OW14428   2.630   1.144  12.195
 4615SOL    HW114429   2.552   1.161  12.255
 4615SOL    HW214430   2.664   1.231  12.159
 4616SOL     OW14431   2.712   0.798  12.995
 4616SOL    HW114432   2.708   0.874  13.060
 4616SOL    HW214433   2.734   0.834  12.904
 4617SOL     OW14434   2.547   1.012  11.837
 4617SOL    HW114435   2.616   0.996  11.907
 4617SOL    HW214436   2.474   1.069  11.875
 4618SOL     OW14437   2.548   1.161  12.975
 4618SOL    HW114438   2.608   1.240  12.989
 4618SOL    HW214439   2.462   1.192  12.934
 4619SOL     OW14440   2.197   1.435  12.233
 4619SOL    HW114441   2.119   1.404  12.180
 4619SOL    HW214442   2.255   1.493  12.176
 4620SOL     OW14443   3.322   1.505  12.511
 4620SOL    HW114444   3.346   1.599  12.537
 4620SOL    HW214445   3.306   1.451  12.593
 4621SOL     OW14446   2.300   0.392  12.671
 4621SOL    HW114447   2.382   0.336  12.680
 4621SOL    HW214448   2.219   0.334  12.675
 4622SOL     OW14449   3.465   0.447  11.909
 4622SOL    HW114450   3.391   0.493  11.859
 4622SOL    HW214451   3.516   0.515  11.962
 4623SOL     OW14452   2.989   1.341  12.862
 4623SOL    HW114453   3.036   1.341  12.950
 4623SOL    HW214454   2.941   1.254  12.851
 4624SOL     OW14455   2.092   1.434  11.710
 4624SOL    HW114456   2.066   1.530  11.710
 4624SOL    HW214457   2.021   1.380  11.755
 4625SOL     OW14458   2.102   1.091  12.058
 4625SOL    HW114459   2.116   1.007  12.110
 4625SOL    HW214460   2.047   1.155  12.113
 4626SOL     OW14461   2.482   1.786  12.611
 4626SOL    HW114462   2.390   1.769  12.646
 4626SOL    HW214463   2.510   1.878  12.637
 4627SOL     OW14464   2.468   0.964  11.295
 4627SOL    HW114465   2.475   1.048  11.241
 4627SOL    HW214466   2.514   0.977  11.383
 4628SOL     OW14467   3.456   0.114  12.652
 4628SOL    HW114468   3.438   0.181  12.580
 4628SOL    HW214469   3.453   0.160  12.741
 4629SOL     OW14470   1.984   0.643  11.735
 4629SOL    HW114471   1.939   0.555  11.752
 4629SOL    HW214472   1.983   0.697  11.819
 4630SOL     OW14473   3.704   1.767  11.531
 4630SOL    HW114474   3.758   1.738  11.611
 4630SOL    HW214475   3.734   1.857  11.502
 4631SOL     OW14476   1.889   1.596  11.289
 4631SOL    HW114477   1.870   1.500  11.310
 4631SOL    HW214478   1.856   1.654  11.364
 4632SOL     OW14479   3.551   0.922  11.784
 4632SOL    HW114480   3.646   0.893  11.792
 4632SOL    HW214481   3.543   0.987  11.709
 4633SOL     OW14482   3.503   1.108  11.604
 4633SOL    HW114483   3.589   1.110  11.552
 4633SOL    HW214484   3.517   1.155  11.692
 4634SOL     OW14485   1.975   0.737  12.769
 4634SOL    HW114486   2.063   0.724  12.814
 4634SOL    HW214487   1.962   0.834  12.747
 4635SOL     OW14488   2.475   1.365  11.898
 4635SOL    HW114489   2.426   1.278  11.907
 4635SOL    HW214490   2.452   1.408  11.811
 4636SOL     OW14491   3.155   1.228  12.595
 4636SOL    HW114492   3.192   1.155  12.537
 4636SOL    HW214493   3.207   1.233  12.680
 4637SOL     OW14494   2.671   0.004  11.674
 4637SOL    HW114495   2.711   0.095  11.665
 4637SOL    HW214496   2.571   0.012  11.680
 4638SOL     OW14497   2.059   0.976  12.436
 4638SOL    HW114498   2.148   0.931  12.422
 4638SOL    HW214499   1.986   0.911  12.417
 4639SOL     OW14500   3.387   0.999  11.362
 4639SOL    HW114501   3.324   0.923  11.375
 4639SOL    HW214502   3.435   1.017  11.448
 4640SOL     OW14503   3.049   1.792  12.788
 4640SOL    HW114504   3.073   1.852  12.712
 4640SOL    HW214505   3.056   1.697  12.758
 4641SOL     OW14506   2.179   0.251  12.973
 4641SOL    HW114507   2.250   0.322  12.979
 4641SOL    HW214508   2.091   0.290  13.001
 4642SOL     OW14509   3.328   1.417  12.125
 4642SOL    HW114510   3.269   1.423  12.205
 4642SOL    HW214511   3.313   1.329  12.079
 4643SOL     OW14512   3.529   1.714  11.744
 4643SOL    HW114513   3.488   1.691  11.656
 4643SOL    HW214514   3.511   1.640  11.809
 4644SOL     OW14515   2.460   0.729  11.442
 4644SOL    HW114516   2.484   0.798  11.374
 4644SOL    HW214517   2.382   0.762  11.496
 4645SOL     OW14518   3.143   0.345  12.116
 4645SOL    HW114519   3.057   0.295  12.103
 4645SOL    HW214520   3.205   0.291  12.172
 4646SOL     OW14521   3.438   1.662  11.479
 4646SOL    HW114522   3.527   1.708  11.482
 4646SOL    HW214523   3.417   1.638  11.384
 4647SOL     OW14524   2.669   0.605  12.637
 4647SOL    HW114525   2.622   0.602  12.726
 4647SOL    HW214526   2.618   0.550  12.571
 4648SOL     OW14527   3.256   0.469  12.846
 4648SOL    HW114528   3.236   0.512  12.934
 4648SOL    HW214529   3.334   0.407  12.855
 4649SOL     OW14530   2.835   0.890  12.744
 4649SOL    HW114531   2.881   0.806  12.715
 4649SOL    HW214532   2.779   0.924  12.669
 4650SOL     OW14533   2.853   0.410  12.414
 4650SOL    HW114534   2.776   0.444  12.468
 4650SOL    HW214535   2.819   0.359  12.335
 4651SOL     OW14536   2.903   0.701  11.601
 4651SOL    HW114537   2.929   0.697  11.697
 4651SOL    HW214538   2.818   0.650  11.587
 4652SOL     OW14539   1.938   0.811  11.961
 4652SOL    HW114540   2.037   0.799  11.970
 4652SOL    HW214541   1.914   0.906  11.982
 4653SOL     OW14542   2.727   0.348  11.367
 4653SOL    HW114543   2.786   0.411  11.318
 4653SOL    HW214544   2.746   0.254  11.338
 4654SOL     OW14545   3.581   0.585  13.003
 4654SOL    HW114546   3.555   0.674  12.967
 4654SOL    HW214547   3.579   0.517  12.930
 4655SOL     OW14548   3.224   1.144  11.717
 4655SOL    HW114549   3.307   1.115  11.669
 4655SOL    HW214550   3.175   1.211  11.661
 4656SOL     OW14551   2.412   0.196  12.057
 4656SOL    HW114552   2.407   0.191  12.157
 4656SOL    HW214553   2.414   0.292  12.028
 4657SOL     OW14554   2.870   1.456  11.649
 4657SOL    HW114555   2.824   1.528  11.597
 4657SOL    HW214556   2.866   1.476  11.747
 4658SOL     OW14557   3.657   1.066  12.045
 4658SOL    HW114558   3.595   1.051  11.969
 4658SOL    HW214559   3.605   1.077  12.130
 4659SOL     OW14560   3.089   1.550  12.678
 4659SOL    HW114561   3.095   1.473  12.742
 4659SOL    HW214562   3.037   1.524  12.598
 4660SOL     OW14563   2.183   0.943  11.414
 4660SOL    HW114564   2.265   0.982  11.372
 4660SOL    HW214565   2.156   0.861  11.365
 4661SOL     OW14566   3.320   0.735  11.900
 4661SOL    HW114567   3.315   0.670  11.975
 4661SOL    HW214568   3.400   0.794  11.913
 4662SOL     OW14569   2.323   1.266  12.899
 4662SOL    HW114570   2.273   1.267  12.813
 4662SOL    HW214571   2.260   1.248  12.975
 4663SOL     OW14572   2.973   1.776  11.409
 4663SOL    HW114573   2.913   1.714  11.459
 4663SOL    HW214574   3.004   1.732  11.324
 4664SOL     OW14575   2.064   0.285  12.670
 4664SOL    HW114576   1.984   0.345  12.657
 4664SOL    HW214577   2.054   0.236  12.756
 4665SOL     OW14578   3.494   1.377  11.253
 4665SOL    HW114579   3.462   1.471  11.243
 4665SOL    HW214580   3.418   1.314  11.241
 4666SOL     OW14581   2.326   1.743  11.495
 4666SOL    HW114582   2.359   1.782  11.581
 4666SOL    HW214583   2.402   1.736  11.430
 4667SOL     OW14584   3.262   0.107  11.598
 4667SOL    HW114585   3.238   0.070  11.508
 4667SOL    HW214586   3.361   0.123  11.602
 4668SOL     OW14587   2.802   1.698  12.076
 4668SOL    HW114588   2.882   1.641  12.097
 4668SOL    HW214589   2.753   1.658  11.999
 4669SOL     OW14590   2.244   0.700  11.652
 4669SOL    HW114591   2.289   0.610  11.649
 4669SOL    HW214592   2.150   0.689  11.685
 4670SOL     OW14593   3.409   0.222  12.901
 4670SOL    HW114594   3.404   0.259  12.993
 4670SOL    HW214595   3.337   0.153  12.889
 4671SOL     OW14596   2.476   0.122  11.289
 4671SOL    HW114597   2.574   0.100  11.296
 4671SOL    HW214598   2.445   0.105  11.196
 4672SOL     OW14599   2.643   0.264  12.921
 4672SOL    HW114600   2.710   0.203  12.964
 4672SOL    HW214601   2.570   0.283  12.986
 4673SOL     OW14602   2.750   1.514  12.367
 4673SOL    HW114603   2.727   1.489  12.273
 4673SOL    HW214604   2.811   1.445  12.406
 4674SOL     OW14605   3.213   0.590  12.605
 4674SOL    HW114606   3.241   0.547  12.690
 4674SOL    HW214607   3.238   0.686  12.606
 4675SOL     OW14608   2.665   1.402  12.096
 4675SOL    HW114609   2.755   1.416  12.054
 4675SOL    HW214610   2.594   1.404  12.025
 4676SOL     OW14611   2.784   0.503  12.071
 4676SOL    HW114612   2.759   0.494  11.975
 4676SOL    HW214613   2.832   0.421  12.102
 4677SOL     OW14614   2.401   0.064  11.684
 4677SOL    HW114615   2.320   0.065  11.742
 4677SOL    HW214616   2.404   0.147  11.629
 4678SOL     OW14617   3.296   1.188  11.213
 4678SOL    HW114618   3.328   1.112  11.270
 4678SOL    HW214619   3.204   1.215  11.243
 4679SOL     OW14620   2.159   0.035  11.343
 4679SOL    HW114621   2.208   0.119  11.322
 4679SOL    HW214622   2.221  -0.030  11.388
 4680SOL     OW14623   2.797   0.236  11.652
 4680SOL    HW114624   2.749   0.277  11.574
 4680SOL    HW214625   2.896   0.234  11.633
 4681SOL     OW14626   2.938   0.683  12.636
 4681SOL    HW114627   2.858   0.622  12.639
 4681SOL    HW214628   3.019   0.630  12.612
 4682SOL     OW14629   3.089   1.570  11.965
 4682SOL    HW114630   3.110   1.644  11.900
 4682SOL    HW214631   3.157   1.570  12.038
 4683SOL     OW14632   2.321   1.152  11.913
 4683SOL    HW114633   2.250   1.125  11.978
 4683SOL    HW214634   2.295   1.124  11.820
 4684SOL     OW14635   3.133   1.797  11.763
 4684SOL    HW114636   3.177   1.861  11.699
 4684SOL    HW214637   3.083   1.849  11.833
 4685SOL     OW14638   2.894   0.549  11.188
 4685SOL    HW114639   2.853   0.631  11.149
 4685SOL    HW214640   2.958   0.575  11.261
 4686SOL     OW14641   1.940   0.556  12.558
 4686SOL    HW114642   2.032   0.555  12.517
 4686SOL    HW214643   1.934   0.630  12.625
 4687SOL     OW14644   2.423   0.222  12.319
 4687SOL    HW114645   2.461   0.138  12.356
 4687SOL    HW214646   2.335   0.241  12.363
 4688SOL     OW14647   2.728   0.454  11.814
 4688SOL    HW114648   2.696   0.526  11.752
 4688SOL    HW214649   2.752   0.373  11.761
 4689SOL     OW14650   2.879   0.039  11.925
 4689SOL    HW114651   2.807   0.044  11.856
 4689SOL    HW214652   2.855  -0.030  11.994
 4690SOL     OW14653   3.291   1.173  12.039
 4690SOL    HW114654   3.236   1.089  12.032
 4690SOL    HW214655   3.317   1.202  11.947
 4691SOL     OW14656   3.328   0.590  12.164
 4691SOL    HW114657   3.298   0.495  12.171
 4691SOL    HW214658   3.401   0.606  12.230
 4692SOL     OW14659   3.719   0.833  11.549
 4692SOL    HW114660   3.761   0.769  11.613
 4692SOL    HW214661   3.681   0.782  11.471
 4693SOL     OW14662   2.350   1.385  11.346
 4693SOL    HW114663   2.263   1.370  11.393
 4693SOL    HW214664   2.333   1.411  11.251
 4694SOL     OW14665   3.526   1.280  11.829
 4694SOL    HW114666   3.625   1.288  11.843
 4694SOL    HW214667   3.481   1.364  11.860
 4695SOL     OW14668   3.252   0.575  11.250
 4695SOL    HW114669   3.198   0.554  11.331
 4695SOL    HW214670   3.343   0.534  11.259
 4696SOL     OW14671   2.389   0.256  11.500
 4696SOL    HW114672   2.416   0.197  11.425
 4696SOL    HW214673   2.389   0.351  11.469
 4697SOL     OW14674   3.616   1.223  12.760
 4697SOL    HW114675   3.707   1.184  12.747
 4697SOL    HW214676   3.624   1.319  12.784
 4698SOL     OW14677   2.926   1.347  12.512
 4698SOL    HW114678   2.846   1.324  12.567
 4698SOL    HW214679   3.009   1.321  12.561
 4699SOL     OW14680   3.454   1.629  12.797
 4699SOL    HW114681   3.481   1.663  12.707
 4699SOL    HW214682   3.533   1.591  12.843
 4700SOL     OW14683   2.973   1.195  12.272
 4700SOL    HW114684   2.933   1.239  12.353
 4700SOL    HW214685   2.932   1.232  12.189
 4701SOL     OW14686   3.500   1.099  12.251
 4701SOL    HW114687   3.505   1.180  12.310
 4701SOL    HW214688   3.414   1.101  12.200
 4702SOL     OW14689   2.777   0.089  12.574
 4702SOL    HW114690   2.802   0.069  12.479
 4702SOL    HW214691   2.849   0.145  12.616
 4703SOL     OW14692   2.842   1.116  12.891
 4703SOL    HW114693   2.743   1.122  12.901
 4703SOL    HW214694   2.865   1.036  12.835
 4704SOL     OW14695   2.567   1.050  11.540
 4704SOL    HW114696   2.553   1.057  11.639
 4704SOL    HW214697   2.651   0.999  11.522
 4705SOL     OW14698   2.272   0.813  12.423
 4705SOL    HW114699   2.358   0.825  12.473
 4705SOL    HW214700   2.230   0.726  12.450
 4706SOL     OW14701   3.136   0.386  12.434
 4706SOL    HW114702   3.157   0.460  12.498
 4706SOL    HW214703   3.047   0.403  12.391
 4707SOL     OW14704   1.926   1.564  12.503
 4707SOL    HW114705   1.880   1.646  12.469
 4707SOL    HW214706   2.024   1.583  12.512
 4708SOL     OW14707   2.229   1.100  11.673
 4708SOL    HW114708   2.222   1.183  11.617
 4708SOL    HW214709   2.233   1.020  11.613
 4709SOL     OW14710   2.428   0.537  12.037
 4709SOL    HW114711   2.440   0.603  11.963
 4709SOL    HW214712   2.474   0.571  12.120
 4710SOL     OW14713   3.114   1.348  11.560
 4710SOL    HW114714   3.164   1.425  11.600
 4710SOL    HW214715   3.019   1.350  11.592
 4711SOL     OW14716   3.134   1.445  12.314
 4711SOL    HW114717   3.181   1.458  12.401
 4711SOL    HW214718   3.068   1.371  12.323
 4712SOL     OW14719   3.444   0.639  11.644
 4712SOL    HW114720   3.413   0.700  11.717
 4712SOL    HW214721   3.494   0.691  11.575
 4713SOL     OW14722   2.216   1.510  12.501
 4713SOL    HW114723   2.195   1.466  12.414
 4713SOL    HW214724   2.313   1.536  12.504
 4714SOL     OW14725   2.264   0.751  12.770
 4714SOL    HW114726   2.332   0.806  12.723
 4714SOL    HW214727   2.304   0.663  12.797
 4715SOL     OW14728   3.449   0.779  12.842
 4715SOL    HW114729   3.357   0.817  12.837
 4715SOL    HW214730   3.509   0.826  12.777
 4716SOL     OW14731   2.875   0.105  12.942
 4716SOL    HW114732   2.881   0.190  12.890
 4716SOL    HW214733   2.907   0.029  12.885
 4717SOL     OW14734   2.366   0.050  12.912
 4717SOL    HW114735   2.324  -0.007  12.842
 4717SOL    HW214736   2.300   0.119  12.944
 4718SOL     OW14737   2.435   0.870  12.201
 4718SOL    HW114738   2.479   0.959  12.192
 4718SOL    HW214739   2.372   0.870  12.278
 4719SOL     OW14740   3.222   0.862  12.217
 4719SOL    HW114741   3.147   0.862  12.151
 4719SOL    HW214742   3.259   0.770  12.226
 4720SOL     OW14743   3.071   0.525  11.447
 4720SOL    HW114744   3.084   0.441  11.501
 4720SOL    HW214745   3.042   0.599  11.507
 4721SOL     OW14746   2.169   0.213  12.403
 4721SOL    HW114747   2.146   0.250  12.493
 4721SOL    HW214748   2.139   0.118  12.397
 4722SOL     OW14749   1.899   1.310  12.454
 4722SOL    HW114750   1.952   1.261  12.522
 4722SOL    HW214751   1.921   1.408  12.459
 4723SOL     OW14752   2.594   0.634  12.236
 4723SOL    HW114753   2.653   0.608  12.160
 4723SOL    HW214754   2.566   0.730  12.225
 4724SOL     OW14755   3.590   0.935  13.026
 4724SOL    HW114756   3.544   0.928  12.937
 4724SOL    HW214757   3.528   0.979  13.092
 4725SOL     OW14758   2.169   0.063  11.790
 4725SOL    HW114759   2.158   0.157  11.823
 4725SOL    HW214760   2.164   0.000  11.867
 4726SOL     OW14761   3.484   0.367  11.546
 4726SOL    HW114762   3.486   0.291  11.610
 4726SOL    HW214763   3.436   0.444  11.586
 4727SOL     OW14764   2.885   0.766  12.138
 4727SOL    HW114765   2.900   0.787  12.234
 4727SOL    HW214766   2.855   0.671  12.129
 4728SOL     OW14767   2.842   1.573  12.872
 4728SOL    HW114768   2.822   1.617  12.784
 4728SOL    HW214769   2.881   1.482  12.856
 4729SOL     OW14770   3.721   1.518  12.777
 4729SOL    HW114771   3.735   1.545  12.682
 4729SOL    HW214772   3.804   1.540  12.830
 4730SOL     OW14773   2.212   0.898  12.976
 4730SOL    HW114774   2.288   0.942  13.024
 4730SOL    HW214775   2.247   0.851  12.894
 4731SOL     OW14776   3.402   0.274  11.297
 4731SOL    HW114777   3.341   0.199  11.320
 4731SOL    HW214778   3.424   0.326  11.380
 4732SOL     OW14779   3.165   0.838  11.214
 4732SOL    HW114780   3.199   0.745  11.229
 4732SOL    HW214781   3.183   0.865  11.119
 4733SOL     OW14782   2.930   1.333  12.021
 4733SOL    HW114783   2.937   1.249  11.966
 4733SOL    HW214784   2.992   1.402  11.985
 4734SOL     OW14785   2.181   0.810  12.121
 4734SOL    HW114786   2.274   0.846  12.126
 4734SOL    HW214787   2.175   0.725  12.173
 4735SOL     OW14788   2.201   0.509  12.178
 4735SOL    HW114789   2.149   0.426  12.161
 4735SOL    HW214790   2.278   0.514  12.114
 4736SOL     OW14791   3.000   0.380  12.850
 4736SOL    HW114792   2.955   0.443  12.914
 4736SOL    HW214793   3.093   0.411  12.833
 4737SOL     OW14794   3.022   0.207  12.649
 4737SOL    HW114795   3.022   0.271  12.726
 4737SOL    HW214796   3.050   0.255  12.566
 4738SOL     OW14797   1.870   1.326  11.372
 4738SOL    HW114798   1.777   1.347  11.341
 4738SOL    HW214799   1.880   1.227  11.385
 4739SOL     OW14800   2.366   1.568  12.082
 4739SOL    HW114801   2.432   1.642  12.091
 4739SOL    HW214802   2.410   1.489  12.040
 4740SOL     OW14803   2.864   0.796  12.410
 4740SOL    HW114804   2.905   0.764  12.496
 4740SOL    HW214805   2.768   0.769  12.407
 4741SOL     OW14806   1.902   0.544  12.286
 4741SOL    HW114807   1.987   0.511  12.245
 4741SOL    HW214808   1.915   0.559  12.384
 4742SOL     OW14809   2.051   0.520  12.894
 4742SOL    HW114810   2.110   0.480  12.824
 4742SOL    HW214811   1.993   0.591  12.853
 4743SOL     OW14812   3.231   0.950  12.832
 4743SOL    HW114813   3.270   1.039  12.852
 4743SOL    HW214814   3.241   0.930  12.735
 4744SOL     OW14815   2.677   0.572  11.497
 4744SOL    HW114816   2.684   0.483  11.451
 4744SOL    HW214817   2.583   0.606  11.489
 4745SOL     OW14818   3.519   0.604  12.378
 4745SOL    HW114819   3.481   0.535  12.440
 4745SOL    HW214820   3.601   0.568  12.334
 4746SOL     OW14821   2.114   1.564  12.916
 4746SOL    HW114822   2.084   1.621  12.992
 4746SOL    HW214823   2.107   1.467  12.942
 4747SOL     OW14824   2.533   0.464  12.441
 4747SOL    HW114825   2.499   0.375  12.411
 4747SOL    HW214826   2.559   0.518  12.361
 4748SOL     OW14827   2.792   1.678  12.637
 4748SOL    HW114828   2.768   1.660  12.542
 4748SOL    HW214829   2.822   1.772  12.647
 4749SOL     OW14830   2.335   0.500  11.363
 4749SOL    HW114831   2.396   0.580  11.367
 4749SOL    HW214832   2.240   0.531  11.370
 4750SOL     OW14833   2.021   1.137  12.638
 4750SOL    HW114834   2.043   1.076  12.714
 4750SOL    HW214835   2.031   1.088  12.552
 4751SOL     OW14836   3.209   1.059  12.406
 4751SOL    HW114837   3.233   0.996  12.332
 4751SOL    HW214838   3.119   1.099  12.388
 4752SOL     OW14839   3.164   0.855  11.481
 4752SOL    HW114840   3.078   0.824  11.523
 4752SOL    HW214841   3.160   0.841  11.382
 4753SOL     OW14842   3.621   1.747  12.326
 4753SOL    HW114843   3.682   1.777  12.253
 4753SOL    HW214844   3.583   1.658  12.304
 4754SOL     OW14845   3.114   1.731  12.300
 4754SOL    HW114846   3.198   1.736  12.246
 4754SOL    HW214847   3.091   1.635  12.318
 4755SOL     OW14848   1.945   1.258  12.194
 4755SOL    HW114849   1.940   1.257  12.294
 4755SOL    HW214850   1.862   1.217  12.156
 4756SOL     OW14851   2.550   1.662  12.888
 4756SOL    HW114852   2.494   1.743  12.897
 4756SOL    HW214853   2.602   1.666  12.802
 4757SOL     OW14854   3.588   0.135  11.695
 4757SOL    HW114855   3.661   0.118  11.628
 4757SOL    HW214856   3.557   0.048  11.733
 4758SOL     OW14857   3.250   1.573  11.649
 4758SOL    HW114858   3.317   1.585  11.575
 4758SOL    HW214859   3.210   1.662  11.672
 4759SOL     OW14860   3.142   0.927  11.844
 4759SOL    HW114861   3.202   0.846  11.846
 4759SOL    HW214862   3.182   0.996  11.784
 4760SOL     OW14863   2.692   1.273  12.594
 4760SOL    HW114864   2.687   1.306  12.689
 4760SOL    HW214865   2.606   1.292  12.548
 4761SOL     OW14866   2.534   1.616  11.326
 4761SOL    HW114867   2.543   1.626  11.227
 4761SOL    HW214868   2.494   1.527  11.347
 4762SOL     OW14869   3.512   1.720  12.566
 4762SOL    HW114870   3.565   1.730  12.482
 4762SOL    HW214871   3.485   1.810  12.600
 4763SOL     OW14872   3.703   0.175  12.135
 4763SOL    HW114873   3.742   0.090  12.099
 4763SOL    HW214874   3.605   0.177  12.116
 4764SOL     OW14875   2.125   0.326  11.892
 4764SOL    HW114876   2.046   0.377  11.858
 4764SOL    HW214877   2.116   0.311  11.990
 4765SOL     OW14878   3.056   1.612  11.203
 4765SOL    HW114879   3.062   1.519  11.240
 4765SOL    HW214880   2.997   1.612  11.123
 4766SOL     OW14881   2.684   1.002  12.544
 4766SOL    HW114882   2.724   1.001  12.452
 4766SOL    HW214883   2.694   1.094  12.584
 4767SOL     OW14884   2.778   0.910  11.463
 4767SOL    HW114885   2.841   0.948  11.395
 4767SOL    HW214886   2.818   0.827  11.502
 4768SOL     OW14887   3.366   1.607  11.216
 4768SOL    HW114888   3.274   1.644  11.223
 4768SOL    HW214889   3.404   1.627  11.126
 4769SOL     OW14890   2.234   1.288  12.662
 4769SOL    HW114891   2.221   1.381  12.628
 4769SOL    HW214892   2.150   1.236  12.649
 4770SOL     OW14893   3.476   1.292  12.461
 4770SOL    HW114894   3.536   1.295  12.541
 4770SOL    HW214895   3.401   1.356  12.474
 4771SOL     OW14896   2.901   1.098  11.868
 4771SOL    HW114897   2.831   1.051  11.922
 4771SOL    HW214898   2.960   1.030  11.825
 4772SOL     OW14899   2.876   0.236  12.143
 4772SOL    HW114900   2.868   0.200  12.050
 4772SOL    HW214901   2.874   0.160  12.208
 4773SOL     OW14902   2.452   1.487  11.663
 4773SOL    HW114903   2.494   1.429  11.593
 4773SOL    HW214904   2.408   1.566  11.619
 4774SOL     OW14905   3.571   0.385  12.553
 4774SOL    HW114906   3.644   0.454  12.557
 4774SOL    HW214907   3.599   0.310  12.494
 4775SOL     OW14908   2.117   1.348  11.462
 4775SOL    HW114909   2.021   1.349  11.435
 4775SOL    HW214910   2.129   1.401  11.546
 4776SOL     OW14911   1.967   1.013  12.898
 4776SOL    HW114912   1.890   0.980  12.952
 4776SOL    HW214913   2.052   0.983  12.940
 4777SOL     OW14914   2.534   0.203  12.661
 4777SOL    HW114915   2.624   0.187  12.621
 4777SOL    HW214916   2.542   0.208  12.760
 4778SOL     OW14917   1.937   0.345  11.205
 4778SOL    HW114918   1.845   0.317  11.176
 4778SOL    HW214919   1.968   0.422  11.149
 4779SOL     OW14920   3.302   0.856  12.570
 4779SOL    HW114921   3.245   0.908  12.507
 4779SOL    HW214922   3.398   0.868  12.546
 4780SOL     OW14923   1.934   0.166  11.490
 4780SOL    HW114924   1.917   0.249  11.436
 4780SOL    HW214925   2.024   0.129  11.468
 4781SOL     OW14926   3.045   1.335  11.291
 4781SOL    HW114927   2.946   1.324  11.293
 4781SOL    HW214928   3.079   1.350  11.384
 4782SOL     OW14929   2.475   0.842  12.603
 4782SOL    HW114930   2.531   0.923  12.586
 4782SOL    HW214931   2.534   0.762  12.606
 4783SOL     OW14932   3.355   1.767  12.131
 4783SOL    HW114933   3.388   1.831  12.062
 4783SOL    HW214934   3.421   1.761  12.206
 4784SOL     OW14935   2.578   0.565  12.880
 4784SOL    HW114936   2.597   0.630  12.954
 4784SOL    HW214937   2.638   0.485  12.889
 4785SOL     OW14938   3.312   1.220  12.805
 4785SOL    HW114939   3.303   1.210  12.904
 4785SOL    HW214940   3.408   1.213  12.779
 4786SOL     OW14941   3.536   0.883  12.426
 4786SOL    HW114942   3.509   0.794  12.389
 4786SOL    HW214943   3.537   0.951  12.353
 4787SOL     OW14944   3.087   0.325  11.621
 4787SOL    HW114945   3.152   0.251  11.610
 4787SOL    HW214946   3.107   0.375  11.705
 4788SOL     OW14947   2.456   0.745  11.824
 4788SOL    HW114948   2.506   0.830  11.805
 4788SOL    HW214949   2.368   0.747  11.776
 4789SOL     OW14950   3.639   0.342  12.814
 4789SOL    HW114951   3.622   0.373  12.720
 4789SOL    HW214952   3.555   0.305  12.852
 4790SOL     OW14953   3.592   0.934  12.689
 4790SOL    HW114954   3.630   1.025  12.704
 4790SOL    HW214955   3.584   0.917  12.590
 4791SOL     OW14956   2.721   1.374  11.188
 4791SOL    HW114957   2.675   1.389  11.276
 4791SOL    HW214958   2.765   1.459  11.158
 4792SOL     OW14959   2.523   1.790  12.125
 4792SOL    HW114960   2.477   1.878  12.112
 4792SOL    HW214961   2.622   1.802  12.118
 4793SOL     OW14962   2.721   0.956  12.033
 4793SOL    HW114963   2.775   0.887  12.081
 4793SOL    HW214964   2.689   1.025  12.099
 4794SOL     OW14965   2.945   0.984  11.259
 4794SOL    HW114966   2.922   1.037  11.177
 4794SOL    HW214967   3.026   0.928  11.240
 4795SOL     OW14968   3.723   1.569  12.023
 4795SOL    HW114969   3.652   1.557  11.953
 4795SOL    HW214970   3.724   1.490  12.083
 4796SOL     OW14971   2.083   1.314  13.016
 4796SOL    HW114972   2.018   1.241  12.995
 4796SOL    HW214973   2.087   1.328  13.114
 4797SOL     OW14974   1.941   1.240  11.825
 4797SOL    HW114975   1.940   1.193  11.913
 4797SOL    HW214976   2.023   1.212  11.774
 4798SOL     OW14977   2.534   1.391  12.796
 4798SOL    HW114978   2.456   1.341  12.834
 4798SOL    HW214979   2.531   1.486  12.827
 4799SOL     OW14980   3.686   0.192  12.399
 4799SOL    HW114981   3.682   0.102  12.443
 4799SOL    HW214982   3.689   0.181  12.300
 4800SOL     OW14983   2.290   0.424  11.692
 4800SOL    HW114984   2.320   0.352  11.630
 4800SOL    HW214985   2.251   0.384  11.775
 4801SOL     OW14986   3.567   1.487  12.276
 4801SOL    HW114987   3.474   1.462  12.249
 4801SOL    HW214988   3.593   1.437  12.358
 4802SOL     OW14989   2.179   0.547  12.452
 4802SOL    HW114990   2.217   0.488  12.524
 4802SOL    HW214991   2.219   0.521  12.364
 4803SOL     OW14992   2.674   1.586  11.859
 4803SOL    HW114993   2.706   1.596  11.765
 4803SOL    HW214994   2.595   1.524  11.861
 4804SOL     OW14995   3.286   0.214  12.284
 4804SOL    HW114996   3.338   0.149  12.339
 4804SOL    HW214997   3.237   0.277  12.345
 4805SOL     OW14998   2.863   0.034  12.326
 4805SOL    HW114999   2.800  -0.038  12.295
 4805SOL    HW215000   2.956  -0.002  12.326
 4806SOL     OW15001   2.632   1.330  11.473
 4806SOL    HW115002   2.586   1.243  11.490
 4806SOL    HW215003   2.723   1.327  11.514
 4807SOL     OW15004   2.480   1.567  12.456
 4807SOL    HW115005   2.475   1.649  12.513
 4807SOL    HW215006   2.569   1.564  12.411
 4808SOL     OW15007   3.214   0.052  11.340
 4808SOL    HW115008   3.249   0.011  11.256
 4808SOL    HW215009   3.124   0.014  11.360
 4809SOL     OW15010   3.162   0.453  11.863
 4809SOL    HW115011   3.103   0.533  11.867
 4809SOL    HW215012   3.177   0.418  11.956
 4810SOL     OW15013   3.455   0.221  12.054
 4810SOL    HW115014   3.371   0.220  12.108
 4810SOL    HW215015   3.457   0.304  11.998
 4811SOL     OW15016   1.901   1.077  11.472
 4811SOL    HW115017   2.000   1.066  11.463
 4811SOL    HW215018   1.861   0.991  11.504
 4812SOL     OW15019   2.737   1.646  11.509
 4812SOL    HW115020   2.660   1.611  11.455
 4812SOL    HW215021   2.705   1.717  11.571
 4813SOL     OW15022   2.092   0.628  13.147
 4813SOL    HW115023   1.999   0.626  13.184
 4813SOL    HW215024   2.093   0.589  13.055
 4814SOL     OW15025   2.087   0.275  14.030
 4814SOL    HW115026   2.122   0.258  14.122
 4814SOL    HW215027   1.999   0.230  14.018
 4815SOL     OW15028   1.881   0.368  13.681
 4815SOL    HW115029   1.799   0.411  13.720
 4815SOL    HW215030   1.853   0.295  13.618
 4816SOL     OW15031   3.417   1.511  13.737
 4816SOL    HW115032   3.360   1.495  13.818
 4816SOL    HW215033   3.358   1.521  13.657
 4817SOL     OW15034   2.997   0.703  13.751
 4817SOL    HW115035   3.054   0.781  13.726
 4817SOL    HW215036   2.937   0.729  13.827
 4818SOL     OW15037   3.617   0.607  13.265
 4818SOL    HW115038   3.605   0.594  13.166
 4818SOL    HW215039   3.587   0.526  13.314
 4819SOL     OW15040   2.547   1.012  13.699
 4819SOL    HW115041   2.616   0.996  13.769
 4819SOL    HW215042   2.474   1.069  13.737
 4820SOL     OW15043   3.465   0.447  13.771
 4820SOL    HW115044   3.391   0.493  13.721
 4820SOL    HW215045   3.516   0.515  13.824
 4821SOL     OW15046   2.092   1.434  13.572
 4821SOL    HW115047   2.066   1.530  13.572
 4821SOL    HW215048   2.021   1.380  13.617
 4822SOL     OW15049   2.102   1.091  13.920
 4822SOL    HW115050   2.116   1.007  13.972
 4822SOL    HW215051   2.047   1.155  13.975
 4823SOL     OW15052   2.468   0.964  13.157
 4823SOL    HW115053   2.475   1.048  13.103
 4823SOL    HW215054   2.514   0.977  13.245
 4824SOL     OW15055   1.984   0.643  13.597
 4824SOL    HW115056   1.939   0.555  13.614
 4824SOL    HW215057   1.983   0.697  13.681
 4825SOL     OW15058   3.704   1.767  13.393
 4825SOL    HW115059   3.758   1.738  13.473
 4825SOL    HW215060   3.734   1.857  13.364
 4826SOL     OW15061   1.889   1.596  13.151
 4826SOL    HW115062   1.870   1.500  13.172
 4826SOL    HW215063   1.856   1.654  13.226
 4827SOL     OW15064   3.551   0.922  13.646
 4827SOL    HW115065   3.646   0.893  13.654
 4827SOL    HW215066   3.543   0.987  13.571
 4828SOL     OW15067   3.503   1.108  13.466
 4828SOL    HW115068   3.589   1.110  13.414
 4828SOL    HW215069   3.517   1.155  13.554
 4829SOL     OW15070   2.475   1.365  13.760
 4829SOL    HW115071   2.426   1.278  13.769
 4829SOL    HW215072   2.452   1.408  13.673
 4830SOL     OW15073   2.671   0.004  13.536
 4830SOL    HW115074   2.711   0.095  13.527
 4830SOL    HW215075   2.571   0.012  13.542
 4831SOL     OW15076   3.387   0.999  13.224
 4831SOL    HW115077   3.324   0.923  13.237
 4831SOL    HW215078   3.435   1.017  13.310
 4832SOL     OW15079   3.529   1.714  13.606
 4832SOL    HW115080   3.488   1.691  13.518
 4832SOL    HW215081   3.511   1.640  13.671
 4833SOL     OW15082   2.460   0.729  13.304
 4833SOL    HW115083   2.484   0.798  13.236
 4833SOL    HW215084   2.382   0.762  13.358
 4834SOL     OW15085   3.143   0.345  13.978
 4834SOL    HW115086   3.057   0.295  13.965
 4834SOL    HW215087   3.205   0.291  14.034
 4835SOL     OW15088   3.438   1.662  13.341
 4835SOL    HW115089   3.527   1.708  13.344
 4835SOL    HW215090   3.417   1.638  13.246
 4836SOL     OW15091   2.903   0.701  13.463
 4836SOL    HW115092   2.929   0.697  13.559
 4836SOL    HW215093   2.818   0.650  13.449
 4837SOL     OW15094   1.938   0.811  13.823
 4837SOL    HW115095   2.037   0.799  13.832
 4837SOL    HW215096   1.914   0.906  13.844
 4838SOL     OW15097   2.727   0.348  13.229
 4838SOL    HW115098   2.786   0.411  13.180
 4838SOL    HW215099   2.746   0.254  13.200
 4839SOL     OW15100   3.224   1.144  13.579
 4839SOL    HW115101   3.307   1.115  13.531
 4839SOL    HW215102   3.175   1.211  13.523
 4840SOL     OW15103   2.870   1.456  13.511
 4840SOL    HW115104   2.824   1.528  13.459
 4840SOL    HW215105   2.866   1.476  13.609
 4841SOL     OW15106   2.213   1.801  13.887
 4841SOL    HW115107   2.263   1.715  13.893
 4841SOL    HW215108   2.278   1.878  13.884
 4842SOL     OW15109   3.657   1.066  13.907
 4842SOL    HW115110   3.595   1.051  13.831
 4842SOL    HW215111   3.605   1.077  13.992
 4843SOL     OW15112   2.183   0.943  13.276
 4843SOL    HW115113   2.265   0.982  13.234
 4843SOL    HW215114   2.156   0.861  13.227
 4844SOL     OW15115   3.320   0.735  13.762
 4844SOL    HW115116   3.315   0.670  13.837
 4844SOL    HW215117   3.400   0.794  13.775
 4845SOL     OW15118   2.973   1.776  13.271
 4845SOL    HW115119   2.913   1.714  13.321
 4845SOL    HW215120   3.004   1.732  13.186
 4846SOL     OW15121   3.494   1.377  13.115
 4846SOL    HW115122   3.462   1.471  13.105
 4846SOL    HW215123   3.418   1.314  13.103
 4847SOL     OW15124   2.326   1.743  13.357
 4847SOL    HW115125   2.359   1.782  13.443
 4847SOL    HW215126   2.402   1.736  13.292
 4848SOL     OW15127   3.262   0.107  13.460
 4848SOL    HW115128   3.238   0.070  13.370
 4848SOL    HW215129   3.361   0.123  13.464
 4849SOL     OW15130   2.802   1.698  13.938
 4849SOL    HW115131   2.882   1.641  13.959
 4849SOL    HW215132   2.753   1.658  13.861
 4850SOL     OW15133   2.244   0.700  13.514
 4850SOL    HW115134   2.289   0.610  13.511
 4850SOL    HW215135   2.150   0.689  13.547
 4851SOL     OW15136   2.476   0.122  13.151
 4851SOL    HW115137   2.574   0.100  13.158
 4851SOL    HW215138   2.445   0.105  13.058
 4852SOL     OW15139   2.401   0.064  13.546
 4852SOL    HW115140   2.320   0.065  13.604
 4852SOL    HW215141   2.404   0.147  13.491
 4853SOL     OW15142   3.296   1.188  13.075
 4853SOL    HW115143   3.328   1.112  13.132
 4853SOL    HW215144   3.204   1.215  13.105
 4854SOL     OW15145   2.159   0.035  13.205
 4854SOL    HW115146   2.208   0.119  13.184
 4854SOL    HW215147   2.221  -0.030  13.250
 4855SOL     OW15148   2.797   0.236  13.514
 4855SOL    HW115149   2.749   0.277  13.436
 4855SOL    HW215150   2.896   0.234  13.495
 4856SOL     OW15151   2.321   1.152  13.775
 4856SOL    HW115152   2.250   1.125  13.840
 4856SOL    HW215153   2.295   1.124  13.682
 4857SOL     OW15154   3.133   1.797  13.625
 4857SOL    HW115155   3.177   1.861  13.561
 4857SOL    HW215156   3.083   1.849  13.695
 4858SOL     OW15157   2.894   0.549  13.050
 4858SOL    HW115158   2.853   0.631  13.011
 4858SOL    HW215159   2.958   0.575  13.123
 4859SOL     OW15160   2.728   0.454  13.676
 4859SOL    HW115161   2.696   0.526  13.614
 4859SOL    HW215162   2.752   0.373  13.623
 4860SOL     OW15163   2.879   0.039  13.787
 4860SOL    HW115164   2.807   0.044  13.718
 4860SOL    HW215165   2.855  -0.030  13.856
 4861SOL     OW15166   3.719   0.833  13.411
 4861SOL    HW115167   3.761   0.769  13.475
 4861SOL    HW215168   3.681   0.782  13.333
 4862SOL     OW15169   2.350   1.385  13.208
 4862SOL    HW115170   2.263   1.370  13.255
 4862SOL    HW215171   2.333   1.411  13.113
 4863SOL     OW15172   3.526   1.280  13.691
 4863SOL    HW115173   3.625   1.288  13.705
 4863SOL    HW215174   3.481   1.364  13.722
 4864SOL     OW15175   3.252   0.575  13.112
 4864SOL    HW115176   3.198   0.554  13.193
 4864SOL    HW215177   3.343   0.534  13.121
 4865SOL     OW15178   2.389   0.256  13.362
 4865SOL    HW115179   2.416   0.197  13.287
 4865SOL    HW215180   2.389   0.351  13.331
 4866SOL     OW15181   2.567   1.050  13.402
 4866SOL    HW115182   2.553   1.057  13.501
 4866SOL    HW215183   2.651   0.999  13.384
 4867SOL     OW15184   2.229   1.100  13.535
 4867SOL    HW115185   2.222   1.183  13.479
 4867SOL    HW215186   2.233   1.020  13.475
 4868SOL     OW15187   2.428   0.537  13.899
 4868SOL    HW115188   2.440   0.603  13.825
 4868SOL    HW215189   2.474   0.571  13.982
 4869SOL     OW15190   3.114   1.348  13.422
 4869SOL    HW115191   3.164   1.425  13.462
 4869SOL    HW215192   3.019   1.350  13.454
 4870SOL     OW15193   3.444   0.639  13.506
 4870SOL    HW115194   3.413   0.700  13.579
 4870SOL    HW215195   3.494   0.691  13.437
 4871SOL     OW15196   3.071   0.525  13.309
 4871SOL    HW115197   3.084   0.441  13.363
 4871SOL    HW215198   3.042   0.599  13.369
 4872SOL     OW15199   2.169   0.063  13.652
 4872SOL    HW115200   2.158   0.157  13.685
 4872SOL    HW215201   2.164   0.000  13.729
 4873SOL     OW15202   3.484   0.367  13.408
 4873SOL    HW115203   3.486   0.291  13.472
 4873SOL    HW215204   3.436   0.444  13.448
 4874SOL     OW15205   3.402   0.274  13.159
 4874SOL    HW115206   3.341   0.199  13.182
 4874SOL    HW215207   3.424   0.326  13.242
 4875SOL     OW15208   3.165   0.838  13.076
 4875SOL    HW115209   3.199   0.745  13.091
 4875SOL    HW215210   3.183   0.865  12.981
 4876SOL     OW15211   1.870   1.326  13.234
 4876SOL    HW115212   1.777   1.347  13.203
 4876SOL    HW215213   1.880   1.227  13.247
 4877SOL     OW15214   2.677   0.572  13.359
 4877SOL    HW115215   2.684   0.483  13.313
 4877SOL    HW215216   2.583   0.606  13.351
 4878SOL     OW15217   2.335   0.500  13.225
 4878SOL    HW115218   2.396   0.580  13.229
 4878SOL    HW215219   2.240   0.531  13.232
 4879SOL     OW15220   3.164   0.855  13.343
 4879SOL    HW115221   3.078   0.824  13.385
 4879SOL    HW215222   3.160   0.841  13.244
 4880SOL     OW15223   3.588   0.135  13.557
 4880SOL    HW115224   3.661   0.118  13.490
 4880SOL    HW215225   3.557   0.048  13.595
 4881SOL     OW15226   3.250   1.573  13.511
 4881SOL    HW115227   3.317   1.585  13.437
 4881SOL    HW215228   3.210   1.662  13.534
 4882SOL     OW15229   3.142   0.927  13.706
 4882SOL    HW115230   3.202   0.846  13.708
 4882SOL    HW215231   3.182   0.996  13.646
 4883SOL     OW15232   2.534   1.616  13.188
 4883SOL    HW115233   2.543   1.626  13.089
 4883SOL    HW215234   2.494   1.527  13.209
 4884SOL     OW15235   3.703   0.175  13.997
 4884SOL    HW115236   3.742   0.090  13.961
 4884SOL    HW215237   3.605   0.177  13.978
 4885SOL     OW15238   2.125   0.326  13.754
 4885SOL    HW115239   2.046   0.377  13.720
 4885SOL    HW215240   2.116   0.311  13.852
 4886SOL     OW15241   3.056   1.612  13.065
 4886SOL    HW115242   3.062   1.519  13.102
 4886SOL    HW215243   2.997   1.612  12.985
 4887SOL     OW15244   2.778   0.910  13.325
 4887SOL    HW115245   2.841   0.948  13.257
 4887SOL    HW215246   2.818   0.827  13.364
 4888SOL     OW15247   3.366   1.607  13.078
 4888SOL    HW115248   3.274   1.644  13.085
 4888SOL    HW215249   3.404   1.627  12.988
 4889SOL     OW15250   2.901   1.098  13.730
 4889SOL    HW115251   2.831   1.051  13.784
 4889SOL    HW215252   2.960   1.030  13.687
 4890SOL     OW15253   2.452   1.487  13.525
 4890SOL    HW115254   2.494   1.429  13.455
 4890SOL    HW215255   2.408   1.566  13.481
 4891SOL     OW15256   2.117   1.348  13.324
 4891SOL    HW115257   2.021   1.349  13.297
 4891SOL    HW215258   2.129   1.401  13.408
 4892SOL     OW15259   1.937   0.345  13.067
 4892SOL    HW115260   1.845   0.317  13.038
 4892SOL    HW215261   1.968   0.422  13.011
 4893SOL     OW15262   1.934   0.166  13.352
 4893SOL    HW115263   1.917   0.249  13.298
 4893SOL    HW215264   2.024   0.129  13.330
 4894SOL     OW15265   3.045   1.335  13.153
 4894SOL    HW115266   2.946   1.324  13.155
 4894SOL    HW215267   3.079   1.350  13.246
 4895SOL     OW15268   3.087   0.325  13.483
 4895SOL    HW115269   3.152   0.251  13.472
 4895SOL    HW215270   3.107   0.375  13.567
 4896SOL     OW15271   2.456   0.745  13.686
 4896SOL    HW115272   2.506   0.830  13.667
 4896SOL    HW215273   2.368   0.747  13.638
 4897SOL     OW15274   2.721   1.374  13.050
 4897SOL    HW115275   2.675   1.389  13.138
 4897SOL    HW215276   2.765   1.459  13.020
 4898SOL     OW15277   2.523   1.790  13.987
 4898SOL    HW115278   2.477   1.878  13.974
 4898SOL    HW215279   2.622   1.802  13.980
 4899SOL     OW15280   2.721   0.956  13.895
 4899SOL    HW115281   2.775   0.887  13.943
 4899SOL    HW215282   2.689   1.025  13.961
 4900SOL     OW15283   2.945   0.984  13.121
 4900SOL    HW115284   2.922   1.037  13.039
 4900SOL    HW215285   3.026   0.928  13.102
 4901SOL     OW15286   1.941   1.240  13.687
 4901SOL    HW115287   1.940   1.193  13.775
 4901SOL    HW215288   2.023   1.212  13.636
 4902SOL     OW15289   2.290   0.424  13.554
 4902SOL    HW115290   2.320   0.352  13.492
 4902SOL    HW215291   2.251   0.384  13.637
 4903SOL     OW15292   3.567   1.487  14.138
 4903SOL    HW115293   3.474   1.462  14.111
 4903SOL    HW215294   3.593   1.437  14.220
 4904SOL     OW15295   2.674   1.586  13.721
 4904SOL    HW115296   2.706   1.596  13.627
 4904SOL    HW215297   2.595   1.524  13.723
 4905SOL     OW15298   2.632   1.330  13.335
 4905SOL    HW115299   2.586   1.243  13.352
 4905SOL    HW215300   2.723   1.327  13.376
 4906SOL     OW15301   3.214   0.052  13.202
 4906SOL    HW115302   3.249   0.011  13.118
 4906SOL    HW215303   3.124   0.014  13.222
 4907SOL     OW15304   3.162   0.453  13.725
 4907SOL    HW115305   3.103   0.533  13.729
 4907SOL    HW215306   3.177   0.418  13.818
 4908SOL     OW15307   1.901   1.077  13.334
 4908SOL    HW115308   2.000   1.066  13.325
 4908SOL    HW215309   1.861   0.991  13.366
 4909SOL     OW15310   2.737   1.646  13.371
 4909SOL    HW115311   2.660   1.611  13.317
 4909SOL    HW215312   2.705   1.717  13.433
 4910SOL     OW15313   2.092   2.490   0.113
 4910SOL    HW115314   1.999   2.488   0.150
 4910SOL    HW215315   2.093   2.451   0.021
 4911SOL     OW15316   2.431   3.137   1.165
 4911SOL    HW115317   2.338   3.130   1.128
 4911SOL    HW215318   2.442   3.226   1.209
 4912SOL     OW15319   3.417   3.373   0.703
 4912SOL    HW115320   3.360   3.357   0.784
 4912SOL    HW215321   3.358   3.383   0.623
 4913SOL     OW15322   2.997   2.565   0.717
 4913SOL    HW115323   3.054   2.643   0.692
 4913SOL    HW215324   2.937   2.591   0.793
 4914SOL     OW15325   3.617   2.469   0.231
 4914SOL    HW115326   3.605   2.456   0.132
 4914SOL    HW215327   3.587   2.388   0.280
 4915SOL     OW15328   2.630   3.006   1.023
 4915SOL    HW115329   2.552   3.023   1.083
 4915SOL    HW215330   2.664   3.093   0.987
 4916SOL     OW15331   2.712   2.660   1.823
 4916SOL    HW115332   2.708   2.736   1.888
 4916SOL    HW215333   2.734   2.696   1.732
 4917SOL     OW15334   2.547   2.874   0.665
 4917SOL    HW115335   2.616   2.858   0.735
 4917SOL    HW215336   2.474   2.931   0.703
 4918SOL     OW15337   2.548   3.023   1.803
 4918SOL    HW115338   2.608   3.102   1.817
 4918SOL    HW215339   2.462   3.054   1.762
 4919SOL     OW15340   2.197   3.297   1.061
 4919SOL    HW115341   2.119   3.266   1.008
 4919SOL    HW215342   2.255   3.355   1.004
 4920SOL     OW15343   3.322   3.367   1.339
 4920SOL    HW115344   3.346   3.461   1.365
 4920SOL    HW215345   3.306   3.313   1.421
 4921SOL     OW15346   2.300   2.254   1.499
 4921SOL    HW115347   2.382   2.198   1.508
 4921SOL    HW215348   2.219   2.196   1.503
 4922SOL     OW15349   3.465   2.309   0.737
 4922SOL    HW115350   3.391   2.355   0.687
 4922SOL    HW215351   3.516   2.377   0.790
 4923SOL     OW15352   2.093   3.575   0.483
 4923SOL    HW115353   2.127   3.652   0.537
 4923SOL    HW215354   2.137   3.575   0.393
 4924SOL     OW15355   2.989   3.203   1.690
 4924SOL    HW115356   3.036   3.203   1.778
 4924SOL    HW215357   2.941   3.116   1.679
 4925SOL     OW15358   2.092   3.296   0.538
 4925SOL    HW115359   2.066   3.392   0.538
 4925SOL    HW215360   2.021   3.242   0.583
 4926SOL     OW15361   2.102   2.953   0.886
 4926SOL    HW115362   2.116   2.869   0.938
 4926SOL    HW215363   2.047   3.017   0.941
 4927SOL     OW15364   2.482   3.648   1.439
 4927SOL    HW115365   2.390   3.631   1.474
 4927SOL    HW215366   2.510   3.740   1.465
 4928SOL     OW15367   2.468   2.826   0.123
 4928SOL    HW115368   2.475   2.910   0.069
 4928SOL    HW215369   2.514   2.839   0.211
 4929SOL     OW15370   3.456   1.976   1.480
 4929SOL    HW115371   3.438   2.043   1.408
 4929SOL    HW215372   3.453   2.022   1.569
 4930SOL     OW15373   1.984   2.505   0.563
 4930SOL    HW115374   1.939   2.417   0.580
 4930SOL    HW215375   1.983   2.559   0.647
 4931SOL     OW15376   3.704   3.629   0.359
 4931SOL    HW115377   3.758   3.600   0.439
 4931SOL    HW215378   3.734   3.719   0.330
 4932SOL     OW15379   1.889   3.458   0.117
 4932SOL    HW115380   1.870   3.362   0.138
 4932SOL    HW215381   1.856   3.516   0.192
 4933SOL     OW15382   3.551   2.784   0.612
 4933SOL    HW115383   3.646   2.755   0.620
 4933SOL    HW215384   3.543   2.849   0.537
 4934SOL     OW15385   3.503   2.970   0.432
 4934SOL    HW115386   3.589   2.972   0.380
 4934SOL    HW215387   3.517   3.017   0.520
 4935SOL     OW15388   1.975   2.599   1.597
 4935SOL    HW115389   2.063   2.586   1.642
 4935SOL    HW215390   1.962   2.696   1.575
 4936SOL     OW15391   2.475   3.227   0.726
 4936SOL    HW115392   2.426   3.140   0.735
 4936SOL    HW215393   2.452   3.270   0.639
 4937SOL     OW15394   3.155   3.090   1.423
 4937SOL    HW115395   3.192   3.017   1.365
 4937SOL    HW215396   3.207   3.095   1.508
 4938SOL     OW15397   2.671   1.866   0.502
 4938SOL    HW115398   2.711   1.957   0.493
 4938SOL    HW215399   2.571   1.874   0.508
 4939SOL     OW15400   2.059   2.838   1.264
 4939SOL    HW115401   2.148   2.793   1.250
 4939SOL    HW215402   1.986   2.773   1.245
 4940SOL     OW15403   3.387   2.861   0.190
 4940SOL    HW115404   3.324   2.785   0.203
 4940SOL    HW215405   3.435   2.879   0.276
 4941SOL     OW15406   3.049   3.654   1.616
 4941SOL    HW115407   3.073   3.714   1.540
 4941SOL    HW215408   3.056   3.559   1.586
 4942SOL     OW15409   3.328   3.279   0.953
 4942SOL    HW115410   3.269   3.285   1.033
 4942SOL    HW215411   3.313   3.191   0.907
 4943SOL     OW15412   3.529   3.576   0.572
 4943SOL    HW115413   3.488   3.553   0.484
 4943SOL    HW215414   3.511   3.502   0.637
 4944SOL     OW15415   2.460   2.591   0.270
 4944SOL    HW115416   2.484   2.660   0.202
 4944SOL    HW215417   2.382   2.624   0.324
 4945SOL     OW15418   3.143   2.207   0.944
 4945SOL    HW115419   3.057   2.157   0.931
 4945SOL    HW215420   3.205   2.153   1.000
 4946SOL     OW15421   3.438   3.524   0.307
 4946SOL    HW115422   3.527   3.570   0.310
 4946SOL    HW215423   3.417   3.500   0.212
 4947SOL     OW15424   2.669   2.467   1.465
 4947SOL    HW115425   2.622   2.464   1.554
 4947SOL    HW215426   2.618   2.412   1.399
 4948SOL     OW15427   3.256   2.331   1.674
 4948SOL    HW115428   3.236   2.374   1.762
 4948SOL    HW215429   3.334   2.269   1.683
 4949SOL     OW15430   2.835   2.752   1.572
 4949SOL    HW115431   2.881   2.668   1.543
 4949SOL    HW215432   2.779   2.786   1.497
 4950SOL     OW15433   2.853   2.272   1.242
 4950SOL    HW115434   2.776   2.306   1.296
 4950SOL    HW215435   2.819   2.221   1.163
 4951SOL     OW15436   2.903   2.563   0.429
 4951SOL    HW115437   2.929   2.559   0.525
 4951SOL    HW215438   2.818   2.512   0.415
 4952SOL     OW15439   1.938   2.673   0.789
 4952SOL    HW115440   2.037   2.661   0.798
 4952SOL    HW215441   1.914   2.768   0.810
 4953SOL     OW15442   1.992   3.683   1.571
 4953SOL    HW115443   1.982   3.668   1.670
 4953SOL    HW215444   1.906   3.719   1.535
 4954SOL     OW15445   2.727   2.210   0.195
 4954SOL    HW115446   2.786   2.273   0.146
 4954SOL    HW215447   2.746   2.116   0.166
 4955SOL     OW15448   3.581   2.447   1.831
 4955SOL    HW115449   3.555   2.536   1.795
 4955SOL    HW215450   3.579   2.379   1.758
 4956SOL     OW15451   3.224   3.006   0.545
 4956SOL    HW115452   3.307   2.977   0.497
 4956SOL    HW215453   3.175   3.073   0.489
 4957SOL     OW15454   2.412   2.058   0.885
 4957SOL    HW115455   2.407   2.053   0.985
 4957SOL    HW215456   2.414   2.154   0.856
 4958SOL     OW15457   2.870   3.318   0.477
 4958SOL    HW115458   2.824   3.390   0.425
 4958SOL    HW215459   2.866   3.338   0.575
 4959SOL     OW15460   2.213   3.663   0.853
 4959SOL    HW115461   2.263   3.577   0.859
 4959SOL    HW215462   2.278   3.740   0.850
 4960SOL     OW15463   3.657   2.928   0.873
 4960SOL    HW115464   3.595   2.913   0.797
 4960SOL    HW215465   3.605   2.939   0.958
 4961SOL     OW15466   3.089   3.412   1.506
 4961SOL    HW115467   3.095   3.335   1.570
 4961SOL    HW215468   3.037   3.386   1.426
 4962SOL     OW15469   2.183   2.805   0.242
 4962SOL    HW115470   2.265   2.844   0.200
 4962SOL    HW215471   2.156   2.723   0.193
 4963SOL     OW15472   3.320   2.597   0.728
 4963SOL    HW115473   3.315   2.532   0.803
 4963SOL    HW215474   3.400   2.656   0.741
 4964SOL     OW15475   2.323   3.128   1.727
 4964SOL    HW115476   2.273   3.129   1.641
 4964SOL    HW215477   2.260   3.110   1.803
 4965SOL     OW15478   2.973   3.638   0.237
 4965SOL    HW115479   2.913   3.576   0.287
 4965SOL    HW215480   3.004   3.594   0.152
 4966SOL     OW15481   3.494   3.239   0.081
 4966SOL    HW115482   3.462   3.333   0.071
 4966SOL    HW215483   3.418   3.176   0.069
 4967SOL     OW15484   2.326   3.605   0.323
 4967SOL    HW115485   2.359   3.644   0.409
 4967SOL    HW215486   2.402   3.598   0.258
 4968SOL     OW15487   3.262   1.969   0.426
 4968SOL    HW115488   3.238   1.932   0.336
 4968SOL    HW215489   3.361   1.985   0.430
 4969SOL     OW15490   2.111   3.647   1.241
 4969SOL    HW115491   2.168   3.582   1.291
 4969SOL    HW215492   2.095   3.614   1.148
 4970SOL     OW15493   2.802   3.560   0.904
 4970SOL    HW115494   2.882   3.503   0.925
 4970SOL    HW215495   2.753   3.520   0.827
 4971SOL     OW15496   2.244   2.562   0.480
 4971SOL    HW115497   2.289   2.472   0.477
 4971SOL    HW215498   2.150   2.551   0.513
 4972SOL     OW15499   3.409   2.084   1.729
 4972SOL    HW115500   3.404   2.121   1.821
 4972SOL    HW215501   3.337   2.015   1.717
 4973SOL     OW15502   2.643   2.126   1.749
 4973SOL    HW115503   2.710   2.065   1.792
 4973SOL    HW215504   2.570   2.145   1.814
 4974SOL     OW15505   2.750   3.376   1.195
 4974SOL    HW115506   2.727   3.351   1.101
 4974SOL    HW215507   2.811   3.307   1.234
 4975SOL     OW15508   3.213   2.452   1.433
 4975SOL    HW115509   3.241   2.409   1.518
 4975SOL    HW215510   3.238   2.548   1.434
 4976SOL     OW15511   2.665   3.264   0.924
 4976SOL    HW115512   2.755   3.278   0.882
 4976SOL    HW215513   2.594   3.266   0.853
 4977SOL     OW15514   2.784   2.365   0.899
 4977SOL    HW115515   2.759   2.356   0.803
 4977SOL    HW215516   2.832   2.283   0.930
 4978SOL     OW15517   2.401   1.926   0.512
 4978SOL    HW115518   2.320   1.927   0.570
 4978SOL    HW215519   2.404   2.009   0.457
 4979SOL     OW15520   3.296   3.050   0.041
 4979SOL    HW115521   3.328   2.974   0.098
 4979SOL    HW215522   3.204   3.077   0.071
 4980SOL     OW15523   2.797   2.098   0.480
 4980SOL    HW115524   2.749   2.139   0.402
 4980SOL    HW215525   2.896   2.096   0.461
 4981SOL     OW15526   2.938   2.545   1.464
 4981SOL    HW115527   2.858   2.484   1.467
 4981SOL    HW215528   3.019   2.492   1.440
 4982SOL     OW15529   3.089   3.432   0.793
 4982SOL    HW115530   3.110   3.506   0.728
 4982SOL    HW215531   3.157   3.432   0.866
 4983SOL     OW15532   2.321   3.014   0.741
 4983SOL    HW115533   2.250   2.987   0.806
 4983SOL    HW215534   2.295   2.986   0.648
 4984SOL     OW15535   3.133   3.659   0.591
 4984SOL    HW115536   3.177   3.723   0.527
 4984SOL    HW215537   3.083   3.711   0.661
 4985SOL     OW15538   2.894   2.411   0.016
 4985SOL    HW115539   2.853   2.493  -0.023
 4985SOL    HW215540   2.958   2.437   0.089
 4986SOL     OW15541   1.940   2.418   1.386
 4986SOL    HW115542   2.032   2.417   1.345
 4986SOL    HW215543   1.934   2.492   1.453
 4987SOL     OW15544   2.423   2.084   1.147
 4987SOL    HW115545   2.461   2.000   1.184
 4987SOL    HW215546   2.335   2.103   1.191
 4988SOL     OW15547   2.728   2.316   0.642
 4988SOL    HW115548   2.696   2.388   0.580
 4988SOL    HW215549   2.752   2.235   0.589
 4989SOL     OW15550   2.879   1.901   0.753
 4989SOL    HW115551   2.807   1.906   0.684
 4989SOL    HW215552   2.855   1.832   0.822
 4990SOL     OW15553   3.291   3.035   0.867
 4990SOL    HW115554   3.236   2.951   0.860
 4990SOL    HW215555   3.317   3.064   0.775
 4991SOL     OW15556   3.328   2.452   0.992
 4991SOL    HW115557   3.298   2.357   0.999
 4991SOL    HW215558   3.401   2.468   1.058
 4992SOL     OW15559   3.719   2.695   0.377
 4992SOL    HW115560   3.761   2.631   0.441
 4992SOL    HW215561   3.681   2.644   0.299
 4993SOL     OW15562   2.350   3.247   0.174
 4993SOL    HW115563   2.263   3.232   0.221
 4993SOL    HW215564   2.333   3.273   0.079
 4994SOL     OW15565   3.526   3.142   0.657
 4994SOL    HW115566   3.625   3.150   0.671
 4994SOL    HW215567   3.481   3.226   0.688
 4995SOL     OW15568   3.252   2.437   0.078
 4995SOL    HW115569   3.198   2.416   0.159
 4995SOL    HW215570   3.343   2.396   0.087
 4996SOL     OW15571   2.389   2.118   0.328
 4996SOL    HW115572   2.416   2.059   0.253
 4996SOL    HW215573   2.389   2.213   0.297
 4997SOL     OW15574   3.616   3.085   1.588
 4997SOL    HW115575   3.707   3.046   1.575
 4997SOL    HW215576   3.624   3.181   1.612
 4998SOL     OW15577   2.926   3.209   1.340
 4998SOL    HW115578   2.846   3.186   1.395
 4998SOL    HW215579   3.009   3.183   1.389
 4999SOL     OW15580   3.454   3.491   1.625
 4999SOL    HW115581   3.481   3.525   1.535
 4999SOL    HW215582   3.533   3.453   1.671
 5000SOL     OW15583   2.973   3.057   1.100
 5000SOL    HW115584   2.933   3.101   1.181
 5000SOL    HW215585   2.932   3.094   1.017
 5001SOL     OW15586   3.500   2.961   1.079
 5001SOL    HW115587   3.505   3.042   1.138
 5001SOL    HW215588   3.414   2.963   1.028
 5002SOL     OW15589   2.777   1.951   1.402
 5002SOL    HW115590   2.802   1.931   1.307
 5002SOL    HW215591   2.849   2.007   1.444
 5003SOL     OW15592   2.842   2.978   1.719
 5003SOL    HW115593   2.743   2.984   1.729
 5003SOL    HW215594   2.865   2.898   1.663
 5004SOL     OW15595   2.567   2.912   0.368
 5004SOL    HW115596   2.553   2.919   0.467
 5004SOL    HW215597   2.651   2.861   0.350
 5005SOL     OW15598   2.272   2.675   1.251
 5005SOL    HW115599   2.358   2.687   1.301
 5005SOL    HW215600   2.230   2.588   1.278
 5006SOL     OW15601   3.136   2.248   1.262
 5006SOL    HW115602   3.157   2.322   1.326
 5006SOL    HW215603   3.047   2.265   1.219
 5007SOL     OW15604   1.926   3.426   1.331
 5007SOL    HW115605   1.880   3.508   1.297
 5007SOL    HW215606   2.024   3.445   1.340
 5008SOL     OW15607   2.229   2.962   0.501
 5008SOL    HW115608   2.222   3.045   0.445
 5008SOL    HW215609   2.233   2.882   0.441
 5009SOL     OW15610   2.428   2.399   0.865
 5009SOL    HW115611   2.440   2.465   0.791
 5009SOL    HW215612   2.474   2.433   0.948
 5010SOL     OW15613   3.114   3.210   0.388
 5010SOL    HW115614   3.164   3.287   0.428
 5010SOL    HW215615   3.019   3.212   0.420
 5011SOL     OW15616   3.134   3.307   1.142
 5011SOL    HW115617   3.181   3.320   1.229
 5011SOL    HW215618   3.068   3.233   1.151
 5012SOL     OW15619   3.444   2.501   0.472
 5012SOL    HW115620   3.413   2.562   0.545
 5012SOL    HW215621   3.494   2.553   0.403
 5013SOL     OW15622   2.216   3.372   1.329
 5013SOL    HW115623   2.195   3.328   1.242
 5013SOL    HW215624   2.313   3.398   1.332
 5014SOL     OW15625   2.264   2.613   1.598
 5014SOL    HW115626   2.332   2.668   1.551
 5014SOL    HW215627   2.304   2.525   1.625
 5015SOL     OW15628   3.449   2.641   1.670
 5015SOL    HW115629   3.357   2.679   1.665
 5015SOL    HW215630   3.509   2.688   1.605
 5016SOL     OW15631   2.875   1.967   1.770
 5016SOL    HW115632   2.881   2.052   1.718
 5016SOL    HW215633   2.907   1.891   1.713
 5017SOL     OW15634   2.366   1.912   1.740
 5017SOL    HW115635   2.324   1.855   1.670
 5017SOL    HW215636   2.300   1.981   1.772
 5018SOL     OW15637   2.435   2.732   1.029
 5018SOL    HW115638   2.479   2.821   1.020
 5018SOL    HW215639   2.372   2.732   1.106
 5019SOL     OW15640   3.222   2.724   1.045
 5019SOL    HW115641   3.147   2.724   0.979
 5019SOL    HW215642   3.259   2.632   1.054
 5020SOL     OW15643   3.071   2.387   0.275
 5020SOL    HW115644   3.084   2.303   0.329
 5020SOL    HW215645   3.042   2.461   0.335
 5021SOL     OW15646   1.899   3.172   1.282
 5021SOL    HW115647   1.952   3.123   1.350
 5021SOL    HW215648   1.921   3.270   1.287
 5022SOL     OW15649   2.594   2.496   1.064
 5022SOL    HW115650   2.653   2.470   0.988
 5022SOL    HW215651   2.566   2.592   1.053
 5023SOL     OW15652   3.590   2.797   1.854
 5023SOL    HW115653   3.544   2.790   1.765
 5023SOL    HW215654   3.528   2.841   1.920
 5024SOL     OW15655   3.484   2.229   0.374
 5024SOL    HW115656   3.486   2.153   0.438
 5024SOL    HW215657   3.436   2.306   0.414
 5025SOL     OW15658   2.885   2.628   0.966
 5025SOL    HW115659   2.900   2.649   1.062
 5025SOL    HW215660   2.855   2.533   0.957
 5026SOL     OW15661   2.842   3.435   1.700
 5026SOL    HW115662   2.822   3.479   1.612
 5026SOL    HW215663   2.881   3.344   1.684
 5027SOL     OW15664   3.721   3.380   1.605
 5027SOL    HW115665   3.735   3.407   1.510
 5027SOL    HW215666   3.804   3.402   1.658
 5028SOL     OW15667   2.212   2.760   1.804
 5028SOL    HW115668   2.288   2.804   1.852
 5028SOL    HW215669   2.247   2.713   1.722
 5029SOL     OW15670   3.402   2.136   0.125
 5029SOL    HW115671   3.341   2.061   0.148
 5029SOL    HW215672   3.424   2.188   0.208
 5030SOL     OW15673   3.165   2.700   0.042
 5030SOL    HW115674   3.199   2.607   0.057
 5030SOL    HW215675   3.183   2.727  -0.053
 5031SOL     OW15676   2.930   3.195   0.849
 5031SOL    HW115677   2.937   3.111   0.794
 5031SOL    HW215678   2.992   3.264   0.813
 5032SOL     OW15679   2.181   2.672   0.949
 5032SOL    HW115680   2.274   2.708   0.954
 5032SOL    HW215681   2.175   2.587   1.001
 5033SOL     OW15682   2.201   2.371   1.006
 5033SOL    HW115683   2.149   2.288   0.989
 5033SOL    HW215684   2.278   2.376   0.942
 5034SOL     OW15685   3.000   2.242   1.678
 5034SOL    HW115686   2.955   2.305   1.742
 5034SOL    HW215687   3.093   2.273   1.661
 5035SOL     OW15688   3.022   2.069   1.477
 5035SOL    HW115689   3.022   2.133   1.554
 5035SOL    HW215690   3.050   2.117   1.394
 5036SOL     OW15691   1.870   3.188   0.200
 5036SOL    HW115692   1.777   3.209   0.169
 5036SOL    HW215693   1.880   3.089   0.213
 5037SOL     OW15694   1.950   3.663   0.927
 5037SOL    HW115695   1.908   3.577   0.900
 5037SOL    HW215696   2.044   3.666   0.893
 5038SOL     OW15697   2.366   3.430   0.910
 5038SOL    HW115698   2.432   3.504   0.919
 5038SOL    HW215699   2.410   3.351   0.868
 5039SOL     OW15700   2.864   2.658   1.238
 5039SOL    HW115701   2.905   2.626   1.324
 5039SOL    HW215702   2.768   2.631   1.235
 5040SOL     OW15703   3.231   2.812   1.660
 5040SOL    HW115704   3.270   2.901   1.680
 5040SOL    HW215705   3.241   2.792   1.563
 5041SOL     OW15706   2.677   2.434   0.325
 5041SOL    HW115707   2.684   2.345   0.279
 5041SOL    HW215708   2.583   2.468   0.317
 5042SOL     OW15709   3.519   2.466   1.206
 5042SOL    HW115710   3.481   2.397   1.268
 5042SOL    HW215711   3.601   2.430   1.162
 5043SOL     OW15712   2.114   3.426   1.744
 5043SOL    HW115713   2.084   3.483   1.820
 5043SOL    HW215714   2.107   3.329   1.770
 5044SOL     OW15715   2.533   2.326   1.269
 5044SOL    HW115716   2.499   2.237   1.239
 5044SOL    HW215717   2.559   2.380   1.189
 5045SOL     OW15718   2.792   3.540   1.465
 5045SOL    HW115719   2.768   3.522   1.370
 5045SOL    HW215720   2.822   3.634   1.475
 5046SOL     OW15721   2.335   2.362   0.191
 5046SOL    HW115722   2.396   2.442   0.195
 5046SOL    HW215723   2.240   2.393   0.198
 5047SOL     OW15724   2.021   2.999   1.466
 5047SOL    HW115725   2.043   2.938   1.542
 5047SOL    HW215726   2.031   2.950   1.380
 5048SOL     OW15727   3.209   2.921   1.234
 5048SOL    HW115728   3.233   2.858   1.160
 5048SOL    HW215729   3.119   2.961   1.216
 5049SOL     OW15730   3.164   2.717   0.309
 5049SOL    HW115731   3.078   2.686   0.351
 5049SOL    HW215732   3.160   2.703   0.210
 5050SOL     OW15733   3.621   3.609   1.154
 5050SOL    HW115734   3.682   3.639   1.081
 5050SOL    HW215735   3.583   3.520   1.132
 5051SOL     OW15736   3.114   3.593   1.128
 5051SOL    HW115737   3.198   3.598   1.074
 5051SOL    HW215738   3.091   3.497   1.146
 5052SOL     OW15739   1.945   3.120   1.022
 5052SOL    HW115740   1.940   3.119   1.122
 5052SOL    HW215741   1.862   3.079   0.984
 5053SOL     OW15742   2.550   3.524   1.716
 5053SOL    HW115743   2.494   3.605   1.725
 5053SOL    HW215744   2.602   3.528   1.630
 5054SOL     OW15745   2.765   1.948   0.133
 5054SOL    HW115746   2.816   1.949   0.047
 5054SOL    HW215747   2.821   1.906   0.204
 5055SOL     OW15748   3.588   1.997   0.523
 5055SOL    HW115749   3.661   1.980   0.456
 5055SOL    HW215750   3.557   1.910   0.561
 5056SOL     OW15751   3.250   3.435   0.477
 5056SOL    HW115752   3.317   3.447   0.403
 5056SOL    HW215753   3.210   3.524   0.500
 5057SOL     OW15754   1.992   3.656   1.851
 5057SOL    HW115755   1.951   3.582   1.904
 5057SOL    HW215756   2.056   3.707   1.909
 5058SOL     OW15757   3.142   2.789   0.672
 5058SOL    HW115758   3.202   2.708   0.674
 5058SOL    HW215759   3.182   2.858   0.612
 5059SOL     OW15760   2.692   3.135   1.422
 5059SOL    HW115761   2.687   3.168   1.517
 5059SOL    HW215762   2.606   3.154   1.376
 5060SOL     OW15763   2.534   3.478   0.154
 5060SOL    HW115764   2.543   3.488   0.055
 5060SOL    HW215765   2.494   3.389   0.175
 5061SOL     OW15766   3.512   3.582   1.394
 5061SOL    HW115767   3.565   3.592   1.310
 5061SOL    HW215768   3.485   3.672   1.428
 5062SOL     OW15769   3.703   2.037   0.963
 5062SOL    HW115770   3.742   1.952   0.927
 5062SOL    HW215771   3.605   2.039   0.944
 5063SOL     OW15772   3.056   3.474   0.031
 5063SOL    HW115773   3.062   3.381   0.068
 5063SOL    HW215774   2.997   3.474  -0.049
 5064SOL     OW15775   2.684   2.864   1.372
 5064SOL    HW115776   2.724   2.863   1.280
 5064SOL    HW215777   2.694   2.956   1.412
 5065SOL     OW15778   2.778   2.772   0.291
 5065SOL    HW115779   2.841   2.810   0.223
 5065SOL    HW215780   2.818   2.689   0.330
 5066SOL     OW15781   3.366   3.469   0.044
 5066SOL    HW115782   3.274   3.506   0.051
 5066SOL    HW215783   3.404   3.489  -0.046
 5067SOL     OW15784   2.234   3.150   1.490
 5067SOL    HW115785   2.221   3.243   1.456
 5067SOL    HW215786   2.150   3.098   1.477
 5068SOL     OW15787   3.476   3.154   1.289
 5068SOL    HW115788   3.536   3.157   1.369
 5068SOL    HW215789   3.401   3.218   1.302
 5069SOL     OW15790   2.901   2.960   0.696
 5069SOL    HW115791   2.831   2.913   0.750
 5069SOL    HW215792   2.960   2.892   0.653
 5070SOL     OW15793   2.876   2.098   0.971
 5070SOL    HW115794   2.868   2.062   0.878
 5070SOL    HW215795   2.874   2.022   1.036
 5071SOL     OW15796   2.452   3.349   0.491
 5071SOL    HW115797   2.494   3.291   0.421
 5071SOL    HW215798   2.408   3.428   0.447
 5072SOL     OW15799   3.571   2.247   1.381
 5072SOL    HW115800   3.644   2.316   1.385
 5072SOL    HW215801   3.599   2.172   1.322
 5073SOL     OW15802   2.117   3.210   0.290
 5073SOL    HW115803   2.021   3.211   0.263
 5073SOL    HW215804   2.129   3.263   0.374
 5074SOL     OW15805   1.967   2.875   1.726
 5074SOL    HW115806   1.890   2.842   1.780
 5074SOL    HW215807   2.052   2.845   1.768
 5075SOL     OW15808   2.534   2.065   1.489
 5075SOL    HW115809   2.624   2.049   1.449
 5075SOL    HW215810   2.542   2.070   1.588
 5076SOL     OW15811   3.302   2.718   1.398
 5076SOL    HW115812   3.245   2.770   1.335
 5076SOL    HW215813   3.398   2.730   1.374
 5077SOL     OW15814   3.045   3.197   0.119
 5077SOL    HW115815   2.946   3.186   0.121
 5077SOL    HW215816   3.079   3.212   0.212
 5078SOL     OW15817   2.475   2.704   1.431
 5078SOL    HW115818   2.531   2.785   1.414
 5078SOL    HW215819   2.534   2.624   1.434
 5079SOL     OW15820   3.355   3.629   0.959
 5079SOL    HW115821   3.388   3.693   0.890
 5079SOL    HW215822   3.421   3.623   1.034
 5080SOL     OW15823   2.578   2.427   1.708
 5080SOL    HW115824   2.597   2.492   1.782
 5080SOL    HW215825   2.638   2.347   1.717
 5081SOL     OW15826   3.312   3.082   1.633
 5081SOL    HW115827   3.303   3.072   1.732
 5081SOL    HW215828   3.408   3.075   1.607
 5082SOL     OW15829   2.252   3.603   1.560
 5082SOL    HW115830   2.161   3.644   1.558
 5082SOL    HW215831   2.245   3.509   1.592
 5083SOL     OW15832   3.536   2.745   1.254
 5083SOL    HW115833   3.509   2.656   1.217
 5083SOL    HW215834   3.537   2.813   1.181
 5084SOL     OW15835   3.087   2.187   0.449
 5084SOL    HW115836   3.152   2.113   0.438
 5084SOL    HW215837   3.107   2.237   0.533
 5085SOL     OW15838   2.456   2.607   0.652
 5085SOL    HW115839   2.506   2.692   0.633
 5085SOL    HW215840   2.368   2.609   0.604
 5086SOL     OW15841   3.639   2.204   1.642
 5086SOL    HW115842   3.622   2.235   1.548
 5086SOL    HW215843   3.555   2.167   1.680
 5087SOL     OW15844   3.592   2.796   1.517
 5087SOL    HW115845   3.630   2.887   1.532
 5087SOL    HW215846   3.584   2.779   1.418
 5088SOL     OW15847   2.721   3.236   0.016
 5088SOL    HW115848   2.675   3.251   0.104
 5088SOL    HW215849   2.765   3.321  -0.014
 5089SOL     OW15850   2.523   3.652   0.953
 5089SOL    HW115851   2.477   3.740   0.940
 5089SOL    HW215852   2.622   3.664   0.946
 5090SOL     OW15853   2.721   2.818   0.861
 5090SOL    HW115854   2.775   2.749   0.909
 5090SOL    HW215855   2.689   2.887   0.927
 5091SOL     OW15856   2.945   2.846   0.087
 5091SOL    HW115857   2.922   2.899   0.005
 5091SOL    HW215858   3.026   2.790   0.068
 5092SOL     OW15859   3.723   3.431   0.851
 5092SOL    HW115860   3.652   3.419   0.781
 5092SOL    HW215861   3.724   3.352   0.911
 5093SOL     OW15862   2.083   3.176   1.844
 5093SOL    HW115863   2.018   3.103   1.823
 5093SOL    HW215864   2.087   3.190   1.942
 5094SOL     OW15865   1.941   3.102   0.653
 5094SOL    HW115866   1.940   3.055   0.741
 5094SOL    HW215867   2.023   3.074   0.602
 5095SOL     OW15868   2.534   3.253   1.624
 5095SOL    HW115869   2.456   3.203   1.662
 5095SOL    HW215870   2.531   3.348   1.655
 5096SOL     OW15871   3.686   2.054   1.227
 5096SOL    HW115872   3.682   1.964   1.271
 5096SOL    HW215873   3.689   2.043   1.128
 5097SOL     OW15874   2.290   2.286   0.520
 5097SOL    HW115875   2.320   2.214   0.458
 5097SOL    HW215876   2.251   2.246   0.603
 5098SOL     OW15877   3.567   3.349   1.104
 5098SOL    HW115878   3.474   3.324   1.077
 5098SOL    HW215879   3.593   3.299   1.186
 5099SOL     OW15880   2.179   2.409   1.280
 5099SOL    HW115881   2.217   2.350   1.352
 5099SOL    HW215882   2.219   2.383   1.192
 5100SOL     OW15883   2.674   3.448   0.687
 5100SOL    HW115884   2.706   3.458   0.593
 5100SOL    HW215885   2.595   3.386   0.689
 5101SOL     OW15886   3.286   2.076   1.112
 5101SOL    HW115887   3.338   2.011   1.167
 5101SOL    HW215888   3.237   2.139   1.173
 5102SOL     OW15889   2.863   1.896   1.154
 5102SOL    HW115890   2.800   1.824   1.123
 5102SOL    HW215891   2.956   1.860   1.154
 5103SOL     OW15892   2.632   3.192   0.301
 5103SOL    HW115893   2.586   3.105   0.318
 5103SOL    HW215894   2.723   3.189   0.342
 5104SOL     OW15895   2.480   3.429   1.284
 5104SOL    HW115896   2.475   3.511   1.341
 5104SOL    HW215897   2.569   3.426   1.239
 5105SOL     OW15898   3.214   1.914   0.168
 5105SOL    HW115899   3.249   1.873   0.084
 5105SOL    HW215900   3.124   1.876   0.188
 5106SOL     OW15901   3.162   2.315   0.691
 5106SOL    HW115902   3.103   2.395   0.695
 5106SOL    HW215903   3.177   2.280   0.784
 5107SOL     OW15904   3.455   2.083   0.882
 5107SOL    HW115905   3.371   2.082   0.936
 5107SOL    HW215906   3.457   2.166   0.826
 5108SOL     OW15907   1.901   2.939   0.300
 5108SOL    HW115908   2.000   2.928   0.291
 5108SOL    HW215909   1.861   2.853   0.332
 5109SOL     OW15910   2.737   3.508   0.337
 5109SOL    HW115911   2.660   3.473   0.283
 5109SOL    HW215912   2.705   3.579   0.399
 5110SOL     OW15913   2.092   2.490   1.975
 5110SOL    HW115914   1.999   2.488   2.012
 5110SOL    HW215915   2.093   2.451   1.883
 5111SOL     OW15916   2.431   3.137   3.027
 5111SOL    HW115917   2.338   3.130   2.990
 5111SOL    HW215918   2.442   3.226   3.071
 5112SOL     OW15919   3.417   3.373   2.565
 5112SOL    HW115920   3.360   3.357   2.646
 5112SOL    HW215921   3.358   3.383   2.485
 5113SOL     OW15922   2.997   2.565   2.579
 5113SOL    HW115923   3.054   2.643   2.554
 5113SOL    HW215924   2.937   2.591   2.655
 5114SOL     OW15925   3.617   2.469   2.093
 5114SOL    HW115926   3.605   2.456   1.994
 5114SOL    HW215927   3.587   2.388   2.142
 5115SOL     OW15928   2.630   3.006   2.885
 5115SOL    HW115929   2.552   3.023   2.945
 5115SOL    HW215930   2.664   3.093   2.849
 5116SOL     OW15931   2.712   2.660   3.685
 5116SOL    HW115932   2.708   2.736   3.750
 5116SOL    HW215933   2.734   2.696   3.594
 5117SOL     OW15934   2.547   2.874   2.527
 5117SOL    HW115935   2.616   2.858   2.597
 5117SOL    HW215936   2.474   2.931   2.565
 5118SOL     OW15937   2.548   3.023   3.665
 5118SOL    HW115938   2.608   3.102   3.679
 5118SOL    HW215939   2.462   3.054   3.624
 5119SOL     OW15940   2.197   3.297   2.923
 5119SOL    HW115941   2.119   3.266   2.870
 5119SOL    HW215942   2.255   3.355   2.866
 5120SOL     OW15943   3.322   3.367   3.201
 5120SOL    HW115944   3.346   3.461   3.227
 5120SOL    HW215945   3.306   3.313   3.283
 5121SOL     OW15946   2.300   2.254   3.361
 5121SOL    HW115947   2.382   2.198   3.370
 5121SOL    HW215948   2.219   2.196   3.365
 5122SOL     OW15949   3.465   2.309   2.599
 5122SOL    HW115950   3.391   2.355   2.549
 5122SOL    HW215951   3.516   2.377   2.652
 5123SOL     OW15952   2.093   3.575   2.345
 5123SOL    HW115953   2.127   3.652   2.399
 5123SOL    HW215954   2.137   3.575   2.255
 5124SOL     OW15955   2.989   3.203   3.552
 5124SOL    HW115956   3.036   3.203   3.640
 5124SOL    HW215957   2.941   3.116   3.541
 5125SOL     OW15958   2.092   3.296   2.400
 5125SOL    HW115959   2.066   3.392   2.400
 5125SOL    HW215960   2.021   3.242   2.445
 5126SOL     OW15961   2.102   2.953   2.748
 5126SOL    HW115962   2.116   2.869   2.800
 5126SOL    HW215963   2.047   3.017   2.803
 5127SOL     OW15964   2.482   3.648   3.301
 5127SOL    HW115965   2.390   3.631   3.336
 5127SOL    HW215966   2.510   3.740   3.327
 5128SOL     OW15967   2.468   2.826   1.985
 5128SOL    HW115968   2.475   2.910   1.931
 5128SOL    HW215969   2.514   2.839   2.073
 5129SOL     OW15970   3.456   1.976   3.342
 5129SOL    HW115971   3.438   2.043   3.270
 5129SOL    HW215972   3.453   2.022   3.431
 5130SOL     OW15973   1.984   2.505   2.425
 5130SOL    HW115974   1.939   2.417   2.442
 5130SOL    HW215975   1.983   2.559   2.509
 5131SOL     OW15976   3.704   3.629   2.221
 5131SOL    HW115977   3.758   3.600   2.301
 5131SOL    HW215978   3.734   3.719   2.192
 5132SOL     OW15979   1.889   3.458   1.979
 5132SOL    HW115980   1.870   3.362   2.000
 5132SOL    HW215981   1.856   3.516   2.054
 5133SOL     OW15982   3.551   2.784   2.474
 5133SOL    HW115983   3.646   2.755   2.482
 5133SOL    HW215984   3.543   2.849   2.399
 5134SOL     OW15985   3.503   2.970   2.294
 5134SOL    HW115986   3.589   2.972   2.242
 5134SOL    HW215987   3.517   3.017   2.382
 5135SOL     OW15988   1.975   2.599   3.459
 5135SOL    HW115989   2.063   2.586   3.504
 5135SOL    HW215990   1.962   2.696   3.437
 5136SOL     OW15991   2.475   3.227   2.588
 5136SOL    HW115992   2.426   3.140   2.597
 5136SOL    HW215993   2.452   3.270   2.501
 5137SOL     OW15994   3.155   3.090   3.285
 5137SOL    HW115995   3.192   3.017   3.227
 5137SOL    HW215996   3.207   3.095   3.370
 5138SOL     OW15997   2.671   1.866   2.364
 5138SOL    HW115998   2.711   1.957   2.355
 5138SOL    HW215999   2.571   1.874   2.370
 5139SOL     OW16000   2.059   2.838   3.126
 5139SOL    HW116001   2.148   2.793   3.112
 5139SOL    HW216002   1.986   2.773   3.107
 5140SOL     OW16003   3.387   2.861   2.052
 5140SOL    HW116004   3.324   2.785   2.065
 5140SOL    HW216005   3.435   2.879   2.138
 5141SOL     OW16006   3.049   3.654   3.478
 5141SOL    HW116007   3.073   3.714   3.402
 5141SOL    HW216008   3.056   3.559   3.448
 5142SOL     OW16009   3.328   3.279   2.815
 5142SOL    HW116010   3.269   3.285   2.895
 5142SOL    HW216011   3.313   3.191   2.769
 5143SOL     OW16012   3.529   3.576   2.434
 5143SOL    HW116013   3.488   3.553   2.346
 5143SOL    HW216014   3.511   3.502   2.499
 5144SOL     OW16015   2.460   2.591   2.132
 5144SOL    HW116016   2.484   2.660   2.064
 5144SOL    HW216017   2.382   2.624   2.186
 5145SOL     OW16018   3.143   2.207   2.806
 5145SOL    HW116019   3.057   2.157   2.793
 5145SOL    HW216020   3.205   2.153   2.862
 5146SOL     OW16021   3.438   3.524   2.169
 5146SOL    HW116022   3.527   3.570   2.172
 5146SOL    HW216023   3.417   3.500   2.074
 5147SOL     OW16024   2.669   2.467   3.327
 5147SOL    HW116025   2.622   2.464   3.416
 5147SOL    HW216026   2.618   2.412   3.261
 5148SOL     OW16027   3.256   2.331   3.536
 5148SOL    HW116028   3.236   2.374   3.624
 5148SOL    HW216029   3.334   2.269   3.545
 5149SOL     OW16030   2.835   2.752   3.434
 5149SOL    HW116031   2.881   2.668   3.405
 5149SOL    HW216032   2.779   2.786   3.359
 5150SOL     OW16033   2.853   2.272   3.104
 5150SOL    HW116034   2.776   2.306   3.158
 5150SOL    HW216035   2.819   2.221   3.025
 5151SOL     OW16036   2.903   2.563   2.291
 5151SOL    HW116037   2.929   2.559   2.387
 5151SOL    HW216038   2.818   2.512   2.277
 5152SOL     OW16039   1.938   2.673   2.651
 5152SOL    HW116040   2.037   2.661   2.660
 5152SOL    HW216041   1.914   2.768   2.672
 5153SOL     OW16042   1.992   3.683   3.433
 5153SOL    HW116043   1.982   3.668   3.532
 5153SOL    HW216044   1.906   3.719   3.397
 5154SOL     OW16045   2.727   2.210   2.057
 5154SOL    HW116046   2.786   2.273   2.008
 5154SOL    HW216047   2.746   2.116   2.028
 5155SOL     OW16048   3.581   2.447   3.693
 5155SOL    HW116049   3.555   2.536   3.657
 5155SOL    HW216050   3.579   2.379   3.620
 5156SOL     OW16051   3.224   3.006   2.407
 5156SOL    HW116052   3.307   2.977   2.359
 5156SOL    HW216053   3.175   3.073   2.351
 5157SOL     OW16054   2.412   2.058   2.747
 5157SOL    HW116055   2.407   2.053   2.847
 5157SOL    HW216056   2.414   2.154   2.718
 5158SOL     OW16057   2.870   3.318   2.339
 5158SOL    HW116058   2.824   3.390   2.287
 5158SOL    HW216059   2.866   3.338   2.437
 5159SOL     OW16060   2.213   3.663   2.715
 5159SOL    HW116061   2.263   3.577   2.721
 5159SOL    HW216062   2.278   3.740   2.712
 5160SOL     OW16063   3.657   2.928   2.735
 5160SOL    HW116064   3.595   2.913   2.659
 5160SOL    HW216065   3.605   2.939   2.820
 5161SOL     OW16066   3.089   3.412   3.368
 5161SOL    HW116067   3.095   3.335   3.432
 5161SOL    HW216068   3.037   3.386   3.288
 5162SOL     OW16069   2.183   2.805   2.104
 5162SOL    HW116070   2.265   2.844   2.062
 5162SOL    HW216071   2.156   2.723   2.055
 5163SOL     OW16072   3.320   2.597   2.590
 5163SOL    HW116073   3.315   2.532   2.665
 5163SOL    HW216074   3.400   2.656   2.603
 5164SOL     OW16075   2.323   3.128   3.589
 5164SOL    HW116076   2.273   3.129   3.503
 5164SOL    HW216077   2.260   3.110   3.665
 5165SOL     OW16078   2.973   3.638   2.099
 5165SOL    HW116079   2.913   3.576   2.149
 5165SOL    HW216080   3.004   3.594   2.014
 5166SOL     OW16081   3.494   3.239   1.943
 5166SOL    HW116082   3.462   3.333   1.933
 5166SOL    HW216083   3.418   3.176   1.931
 5167SOL     OW16084   2.326   3.605   2.185
 5167SOL    HW116085   2.359   3.644   2.271
 5167SOL    HW216086   2.402   3.598   2.120
 5168SOL     OW16087   3.262   1.969   2.288
 5168SOL    HW116088   3.238   1.932   2.198
 5168SOL    HW216089   3.361   1.985   2.292
 5169SOL     OW16090   2.111   3.647   3.103
 5169SOL    HW116091   2.168   3.582   3.153
 5169SOL    HW216092   2.095   3.614   3.010
 5170SOL     OW16093   2.802   3.560   2.766
 5170SOL    HW116094   2.882   3.503   2.787
 5170SOL    HW216095   2.753   3.520   2.689
 5171SOL     OW16096   2.244   2.562   2.342
 5171SOL    HW116097   2.289   2.472   2.339
 5171SOL    HW216098   2.150   2.551   2.375
 5172SOL     OW16099   3.409   2.084   3.591
 5172SOL    HW116100   3.404   2.121   3.683
 5172SOL    HW216101   3.337   2.015   3.579
 5173SOL     OW16102   2.476   1.984   1.979
 5173SOL    HW116103   2.574   1.962   1.986
 5173SOL    HW216104   2.445   1.967   1.886
 5174SOL     OW16105   2.643   2.126   3.611
 5174SOL    HW116106   2.710   2.065   3.654
 5174SOL    HW216107   2.570   2.145   3.676
 5175SOL     OW16108   2.750   3.376   3.057
 5175SOL    HW116109   2.727   3.351   2.963
 5175SOL    HW216110   2.811   3.307   3.096
 5176SOL     OW16111   3.213   2.452   3.295
 5176SOL    HW116112   3.241   2.409   3.380
 5176SOL    HW216113   3.238   2.548   3.296
 5177SOL     OW16114   2.665   3.264   2.786
 5177SOL    HW116115   2.755   3.278   2.744
 5177SOL    HW216116   2.594   3.266   2.715
 5178SOL     OW16117   2.784   2.365   2.761
 5178SOL    HW116118   2.759   2.356   2.665
 5178SOL    HW216119   2.832   2.283   2.792
 5179SOL     OW16120   2.401   1.926   2.374
 5179SOL    HW116121   2.320   1.927   2.432
 5179SOL    HW216122   2.404   2.009   2.319
 5180SOL     OW16123   3.296   3.050   1.903
 5180SOL    HW116124   3.328   2.974   1.960
 5180SOL    HW216125   3.204   3.077   1.933
 5181SOL     OW16126   2.797   2.098   2.342
 5181SOL    HW116127   2.749   2.139   2.264
 5181SOL    HW216128   2.896   2.096   2.323
 5182SOL     OW16129   2.938   2.545   3.326
 5182SOL    HW116130   2.858   2.484   3.329
 5182SOL    HW216131   3.019   2.492   3.302
 5183SOL     OW16132   3.089   3.432   2.655
 5183SOL    HW116133   3.110   3.506   2.590
 5183SOL    HW216134   3.157   3.432   2.728
 5184SOL     OW16135   2.321   3.014   2.603
 5184SOL    HW116136   2.250   2.987   2.668
 5184SOL    HW216137   2.295   2.986   2.510
 5185SOL     OW16138   3.133   3.659   2.453
 5185SOL    HW116139   3.177   3.723   2.389
 5185SOL    HW216140   3.083   3.711   2.523
 5186SOL     OW16141   2.894   2.411   1.878
 5186SOL    HW116142   2.853   2.493   1.839
 5186SOL    HW216143   2.958   2.437   1.951
 5187SOL     OW16144   1.940   2.418   3.248
 5187SOL    HW116145   2.032   2.417   3.207
 5187SOL    HW216146   1.934   2.492   3.315
 5188SOL     OW16147   2.423   2.084   3.009
 5188SOL    HW116148   2.461   2.000   3.046
 5188SOL    HW216149   2.335   2.103   3.053
 5189SOL     OW16150   2.728   2.316   2.504
 5189SOL    HW116151   2.696   2.388   2.442
 5189SOL    HW216152   2.752   2.235   2.451
 5190SOL     OW16153   2.879   1.901   2.615
 5190SOL    HW116154   2.807   1.906   2.546
 5190SOL    HW216155   2.855   1.832   2.684
 5191SOL     OW16156   3.291   3.035   2.729
 5191SOL    HW116157   3.236   2.951   2.722
 5191SOL    HW216158   3.317   3.064   2.637
 5192SOL     OW16159   3.328   2.452   2.854
 5192SOL    HW116160   3.298   2.357   2.861
 5192SOL    HW216161   3.401   2.468   2.920
 5193SOL     OW16162   3.719   2.695   2.239
 5193SOL    HW116163   3.761   2.631   2.303
 5193SOL    HW216164   3.681   2.644   2.161
 5194SOL     OW16165   2.350   3.247   2.036
 5194SOL    HW116166   2.263   3.232   2.083
 5194SOL    HW216167   2.333   3.273   1.941
 5195SOL     OW16168   3.526   3.142   2.519
 5195SOL    HW116169   3.625   3.150   2.533
 5195SOL    HW216170   3.481   3.226   2.550
 5196SOL     OW16171   3.252   2.437   1.940
 5196SOL    HW116172   3.198   2.416   2.021
 5196SOL    HW216173   3.343   2.396   1.949
 5197SOL     OW16174   2.389   2.118   2.190
 5197SOL    HW116175   2.416   2.059   2.115
 5197SOL    HW216176   2.389   2.213   2.159
 5198SOL     OW16177   3.616   3.085   3.450
 5198SOL    HW116178   3.707   3.046   3.437
 5198SOL    HW216179   3.624   3.181   3.474
 5199SOL     OW16180   2.926   3.209   3.202
 5199SOL    HW116181   2.846   3.186   3.257
 5199SOL    HW216182   3.009   3.183   3.251
 5200SOL     OW16183   3.454   3.491   3.487
 5200SOL    HW116184   3.481   3.525   3.397
 5200SOL    HW216185   3.533   3.453   3.533
 5201SOL     OW16186   2.973   3.057   2.962
 5201SOL    HW116187   2.933   3.101   3.043
 5201SOL    HW216188   2.932   3.094   2.879
 5202SOL     OW16189   3.500   2.961   2.941
 5202SOL    HW116190   3.505   3.042   3.000
 5202SOL    HW216191   3.414   2.963   2.890
 5203SOL     OW16192   2.777   1.951   3.264
 5203SOL    HW116193   2.802   1.931   3.169
 5203SOL    HW216194   2.849   2.007   3.306
 5204SOL     OW16195   2.842   2.978   3.581
 5204SOL    HW116196   2.743   2.984   3.591
 5204SOL    HW216197   2.865   2.898   3.525
 5205SOL     OW16198   2.567   2.912   2.230
 5205SOL    HW116199   2.553   2.919   2.329
 5205SOL    HW216200   2.651   2.861   2.212
 5206SOL     OW16201   2.272   2.675   3.113
 5206SOL    HW116202   2.358   2.687   3.163
 5206SOL    HW216203   2.230   2.588   3.140
 5207SOL     OW16204   3.136   2.248   3.124
 5207SOL    HW116205   3.157   2.322   3.188
 5207SOL    HW216206   3.047   2.265   3.081
 5208SOL     OW16207   1.926   3.426   3.193
 5208SOL    HW116208   1.880   3.508   3.159
 5208SOL    HW216209   2.024   3.445   3.202
 5209SOL     OW16210   2.229   2.962   2.363
 5209SOL    HW116211   2.222   3.045   2.307
 5209SOL    HW216212   2.233   2.882   2.303
 5210SOL     OW16213   2.428   2.399   2.727
 5210SOL    HW116214   2.440   2.465   2.653
 5210SOL    HW216215   2.474   2.433   2.810
 5211SOL     OW16216   3.114   3.210   2.250
 5211SOL    HW116217   3.164   3.287   2.290
 5211SOL    HW216218   3.019   3.212   2.282
 5212SOL     OW16219   3.134   3.307   3.004
 5212SOL    HW116220   3.181   3.320   3.091
 5212SOL    HW216221   3.068   3.233   3.013
 5213SOL     OW16222   3.444   2.501   2.334
 5213SOL    HW116223   3.413   2.562   2.407
 5213SOL    HW216224   3.494   2.553   2.265
 5214SOL     OW16225   2.216   3.372   3.191
 5214SOL    HW116226   2.195   3.328   3.104
 5214SOL    HW216227   2.313   3.398   3.194
 5215SOL     OW16228   2.264   2.613   3.460
 5215SOL    HW116229   2.332   2.668   3.413
 5215SOL    HW216230   2.304   2.525   3.487
 5216SOL     OW16231   3.449   2.641   3.532
 5216SOL    HW116232   3.357   2.679   3.527
 5216SOL    HW216233   3.509   2.688   3.467
 5217SOL     OW16234   2.875   1.967   3.632
 5217SOL    HW116235   2.881   2.052   3.580
 5217SOL    HW216236   2.907   1.891   3.575
 5218SOL     OW16237   2.366   1.912   3.602
 5218SOL    HW116238   2.324   1.855   3.532
 5218SOL    HW216239   2.300   1.981   3.634
 5219SOL     OW16240   2.435   2.732   2.891
 5219SOL    HW116241   2.479   2.821   2.882
 5219SOL    HW216242   2.372   2.732   2.968
 5220SOL     OW16243   3.222   2.724   2.907
 5220SOL    HW116244   3.147   2.724   2.841
 5220SOL    HW216245   3.259   2.632   2.916
 5221SOL     OW16246   3.071   2.387   2.137
 5221SOL    HW116247   3.084   2.303   2.191
 5221SOL    HW216248   3.042   2.461   2.197
 5222SOL     OW16249   1.899   3.172   3.144
 5222SOL    HW116250   1.952   3.123   3.212
 5222SOL    HW216251   1.921   3.270   3.149
 5223SOL     OW16252   2.594   2.496   2.926
 5223SOL    HW116253   2.653   2.470   2.850
 5223SOL    HW216254   2.566   2.592   2.915
 5224SOL     OW16255   3.590   2.797   3.716
 5224SOL    HW116256   3.544   2.790   3.627
 5224SOL    HW216257   3.528   2.841   3.782
 5225SOL     OW16258   3.484   2.229   2.236
 5225SOL    HW116259   3.486   2.153   2.300
 5225SOL    HW216260   3.436   2.306   2.276
 5226SOL     OW16261   2.885   2.628   2.828
 5226SOL    HW116262   2.900   2.649   2.924
 5226SOL    HW216263   2.855   2.533   2.819
 5227SOL     OW16264   2.842   3.435   3.562
 5227SOL    HW116265   2.822   3.479   3.474
 5227SOL    HW216266   2.881   3.344   3.546
 5228SOL     OW16267   3.721   3.380   3.467
 5228SOL    HW116268   3.735   3.407   3.372
 5228SOL    HW216269   3.804   3.402   3.520
 5229SOL     OW16270   2.212   2.760   3.666
 5229SOL    HW116271   2.288   2.804   3.714
 5229SOL    HW216272   2.247   2.713   3.584
 5230SOL     OW16273   3.402   2.136   1.987
 5230SOL    HW116274   3.341   2.061   2.010
 5230SOL    HW216275   3.424   2.188   2.070
 5231SOL     OW16276   3.165   2.700   1.904
 5231SOL    HW116277   3.199   2.607   1.919
 5231SOL    HW216278   3.183   2.727   1.809
 5232SOL     OW16279   2.930   3.195   2.711
 5232SOL    HW116280   2.937   3.111   2.656
 5232SOL    HW216281   2.992   3.264   2.675
 5233SOL     OW16282   2.181   2.672   2.811
 5233SOL    HW116283   2.274   2.708   2.816
 5233SOL    HW216284   2.175   2.587   2.863
 5234SOL     OW16285   2.201   2.371   2.868
 5234SOL    HW116286   2.149   2.288   2.851
 5234SOL    HW216287   2.278   2.376   2.804
 5235SOL     OW16288   3.000   2.242   3.540
 5235SOL    HW116289   2.955   2.305   3.604
 5235SOL    HW216290   3.093   2.273   3.523
 5236SOL     OW16291   3.022   2.069   3.339
 5236SOL    HW116292   3.022   2.133   3.416
 5236SOL    HW216293   3.050   2.117   3.256
 5237SOL     OW16294   1.870   3.188   2.062
 5237SOL    HW116295   1.777   3.209   2.031
 5237SOL    HW216296   1.880   3.089   2.075
 5238SOL     OW16297   1.950   3.663   2.789
 5238SOL    HW116298   1.908   3.577   2.762
 5238SOL    HW216299   2.044   3.666   2.755
 5239SOL     OW16300   2.366   3.430   2.772
 5239SOL    HW116301   2.432   3.504   2.781
 5239SOL    HW216302   2.410   3.351   2.730
 5240SOL     OW16303   2.864   2.658   3.100
 5240SOL    HW116304   2.905   2.626   3.186
 5240SOL    HW216305   2.768   2.631   3.097
 5241SOL     OW16306   3.231   2.812   3.522
 5241SOL    HW116307   3.270   2.901   3.542
 5241SOL    HW216308   3.241   2.792   3.425
 5242SOL     OW16309   2.677   2.434   2.187
 5242SOL    HW116310   2.684   2.345   2.141
 5242SOL    HW216311   2.583   2.468   2.179
 5243SOL     OW16312   3.519   2.466   3.068
 5243SOL    HW116313   3.481   2.397   3.130
 5243SOL    HW216314   3.601   2.430   3.024
 5244SOL     OW16315   2.114   3.426   3.606
 5244SOL    HW116316   2.084   3.483   3.682
 5244SOL    HW216317   2.107   3.329   3.632
 5245SOL     OW16318   2.533   2.326   3.131
 5245SOL    HW116319   2.499   2.237   3.101
 5245SOL    HW216320   2.559   2.380   3.051
 5246SOL     OW16321   2.792   3.540   3.327
 5246SOL    HW116322   2.768   3.522   3.232
 5246SOL    HW216323   2.822   3.634   3.337
 5247SOL     OW16324   2.335   2.362   2.053
 5247SOL    HW116325   2.396   2.442   2.057
 5247SOL    HW216326   2.240   2.393   2.060
 5248SOL     OW16327   2.021   2.999   3.328
 5248SOL    HW116328   2.043   2.938   3.404
 5248SOL    HW216329   2.031   2.950   3.242
 5249SOL     OW16330   3.209   2.921   3.096
 5249SOL    HW116331   3.233   2.858   3.022
 5249SOL    HW216332   3.119   2.961   3.078
 5250SOL     OW16333   3.164   2.717   2.171
 5250SOL    HW116334   3.078   2.686   2.213
 5250SOL    HW216335   3.160   2.703   2.072
 5251SOL     OW16336   3.621   3.609   3.016
 5251SOL    HW116337   3.682   3.639   2.943
 5251SOL    HW216338   3.583   3.520   2.994
 5252SOL     OW16339   3.114   3.593   2.990
 5252SOL    HW116340   3.198   3.598   2.936
 5252SOL    HW216341   3.091   3.497   3.008
 5253SOL     OW16342   1.945   3.120   2.884
 5253SOL    HW116343   1.940   3.119   2.984
 5253SOL    HW216344   1.862   3.079   2.846
 5254SOL     OW16345   2.550   3.524   3.578
 5254SOL    HW116346   2.494   3.605   3.587
 5254SOL    HW216347   2.602   3.528   3.492
 5255SOL     OW16348   3.588   1.997   2.385
 5255SOL    HW116349   3.661   1.980   2.318
 5255SOL    HW216350   3.557   1.910   2.423
 5256SOL     OW16351   3.250   3.435   2.339
 5256SOL    HW116352   3.317   3.447   2.265
 5256SOL    HW216353   3.210   3.524   2.362
 5257SOL     OW16354   1.992   3.656   3.713
 5257SOL    HW116355   1.951   3.582   3.766
 5257SOL    HW216356   2.056   3.707   3.771
 5258SOL     OW16357   3.142   2.789   2.534
 5258SOL    HW116358   3.202   2.708   2.536
 5258SOL    HW216359   3.182   2.858   2.474
 5259SOL     OW16360   2.692   3.135   3.284
 5259SOL    HW116361   2.687   3.168   3.379
 5259SOL    HW216362   2.606   3.154   3.238
 5260SOL     OW16363   2.534   3.478   2.016
 5260SOL    HW116364   2.543   3.488   1.917
 5260SOL    HW216365   2.494   3.389   2.037
 5261SOL     OW16366   3.512   3.582   3.256
 5261SOL    HW116367   3.565   3.592   3.172
 5261SOL    HW216368   3.485   3.672   3.290
 5262SOL     OW16369   3.703   2.037   2.825
 5262SOL    HW116370   3.742   1.952   2.789
 5262SOL    HW216371   3.605   2.039   2.806
 5263SOL     OW16372   3.056   3.474   1.893
 5263SOL    HW116373   3.062   3.381   1.930
 5263SOL    HW216374   2.997   3.474   1.813
 5264SOL     OW16375   2.684   2.864   3.234
 5264SOL    HW116376   2.724   2.863   3.142
 5264SOL    HW216377   2.694   2.956   3.274
 5265SOL     OW16378   2.778   2.772   2.153
 5265SOL    HW116379   2.841   2.810   2.085
 5265SOL    HW216380   2.818   2.689   2.192
 5266SOL     OW16381   3.366   3.469   1.906
 5266SOL    HW116382   3.274   3.506   1.913
 5266SOL    HW216383   3.404   3.489   1.816
 5267SOL     OW16384   2.234   3.150   3.352
 5267SOL    HW116385   2.221   3.243   3.318
 5267SOL    HW216386   2.150   3.098   3.339
 5268SOL     OW16387   3.476   3.154   3.151
 5268SOL    HW116388   3.536   3.157   3.231
 5268SOL    HW216389   3.401   3.218   3.164
 5269SOL     OW16390   2.901   2.960   2.558
 5269SOL    HW116391   2.831   2.913   2.612
 5269SOL    HW216392   2.960   2.892   2.515
 5270SOL     OW16393   2.876   2.098   2.833
 5270SOL    HW116394   2.868   2.062   2.740
 5270SOL    HW216395   2.874   2.022   2.898
 5271SOL     OW16396   2.452   3.349   2.353
 5271SOL    HW116397   2.494   3.291   2.283
 5271SOL    HW216398   2.408   3.428   2.309
 5272SOL     OW16399   3.571   2.247   3.243
 5272SOL    HW116400   3.644   2.316   3.247
 5272SOL    HW216401   3.599   2.172   3.184
 5273SOL     OW16402   2.117   3.210   2.152
 5273SOL    HW116403   2.021   3.211   2.125
 5273SOL    HW216404   2.129   3.263   2.236
 5274SOL     OW16405   1.967   2.875   3.588
 5274SOL    HW116406   1.890   2.842   3.642
 5274SOL    HW216407   2.052   2.845   3.630
 5275SOL     OW16408   2.534   2.065   3.351
 5275SOL    HW116409   2.624   2.049   3.311
 5275SOL    HW216410   2.542   2.070   3.450
 5276SOL     OW16411   3.302   2.718   3.260
 5276SOL    HW116412   3.245   2.770   3.197
 5276SOL    HW216413   3.398   2.730   3.236
 5277SOL     OW16414   3.045   3.197   1.981
 5277SOL    HW116415   2.946   3.186   1.983
 5277SOL    HW216416   3.079   3.212   2.074
 5278SOL     OW16417   2.475   2.704   3.293
 5278SOL    HW116418   2.531   2.785   3.276
 5278SOL    HW216419   2.534   2.624   3.296
 5279SOL     OW16420   3.355   3.629   2.821
 5279SOL    HW116421   3.388   3.693   2.752
 5279SOL    HW216422   3.421   3.623   2.896
 5280SOL     OW16423   2.578   2.427   3.570
 5280SOL    HW116424   2.597   2.492   3.644
 5280SOL    HW216425   2.638   2.347   3.579
 5281SOL     OW16426   3.312   3.082   3.495
 5281SOL    HW116427   3.303   3.072   3.594
 5281SOL    HW216428   3.408   3.075   3.469
 5282SOL     OW16429   2.252   3.603   3.422
 5282SOL    HW116430   2.161   3.644   3.420
 5282SOL    HW216431   2.245   3.509   3.454
 5283SOL     OW16432   3.536   2.745   3.116
 5283SOL    HW116433   3.509   2.656   3.079
 5283SOL    HW216434   3.537   2.813   3.043
 5284SOL     OW16435   3.087   2.187   2.311
 5284SOL    HW116436   3.152   2.113   2.300
 5284SOL    HW216437   3.107   2.237   2.395
 5285SOL     OW16438   2.456   2.607   2.514
 5285SOL    HW116439   2.506   2.692   2.495
 5285SOL    HW216440   2.368   2.609   2.466
 5286SOL     OW16441   3.639   2.204   3.504
 5286SOL    HW116442   3.622   2.235   3.410
 5286SOL    HW216443   3.555   2.167   3.542
 5287SOL     OW16444   3.592   2.796   3.379
 5287SOL    HW116445   3.630   2.887   3.394
 5287SOL    HW216446   3.584   2.779   3.280
 5288SOL     OW16447   2.721   3.236   1.878
 5288SOL    HW116448   2.675   3.251   1.966
 5288SOL    HW216449   2.765   3.321   1.848
 5289SOL     OW16450   2.523   3.652   2.815
 5289SOL    HW116451   2.477   3.740   2.802
 5289SOL    HW216452   2.622   3.664   2.808
 5290SOL     OW16453   2.721   2.818   2.723
 5290SOL    HW116454   2.775   2.749   2.771
 5290SOL    HW216455   2.689   2.887   2.789
 5291SOL     OW16456   2.945   2.846   1.949
 5291SOL    HW116457   2.922   2.899   1.867
 5291SOL    HW216458   3.026   2.790   1.930
 5292SOL     OW16459   3.723   3.431   2.713
 5292SOL    HW116460   3.652   3.419   2.643
 5292SOL    HW216461   3.724   3.352   2.773
 5293SOL     OW16462   2.083   3.176   3.706
 5293SOL    HW116463   2.018   3.103   3.685
 5293SOL    HW216464   2.087   3.190   3.804
 5294SOL     OW16465   1.941   3.102   2.515
 5294SOL    HW116466   1.940   3.055   2.603
 5294SOL    HW216467   2.023   3.074   2.464
 5295SOL     OW16468   2.534   3.253   3.486
 5295SOL    HW116469   2.456   3.203   3.524
 5295SOL    HW216470   2.531   3.348   3.517
 5296SOL     OW16471   3.686   2.054   3.089
 5296SOL    HW116472   3.682   1.964   3.133
 5296SOL    HW216473   3.689   2.043   2.990
 5297SOL     OW16474   2.290   2.286   2.382
 5297SOL    HW116475   2.320   2.214   2.320
 5297SOL    HW216476   2.251   2.246   2.465
 5298SOL     OW16477   3.567   3.349   2.966
 5298SOL    HW116478   3.474   3.324   2.939
 5298SOL    HW216479   3.593   3.299   3.048
 5299SOL     OW16480   2.179   2.409   3.142
 5299SOL    HW116481   2.217   2.350   3.214
 5299SOL    HW216482   2.219   2.383   3.054
 5300SOL     OW16483   2.674   3.448   2.549
 5300SOL    HW116484   2.706   3.458   2.455
 5300SOL    HW216485   2.595   3.386   2.551
 5301SOL     OW16486   3.286   2.076   2.974
 5301SOL    HW116487   3.338   2.011   3.029
 5301SOL    HW216488   3.237   2.139   3.035
 5302SOL     OW16489   2.863   1.896   3.016
 5302SOL    HW116490   2.800   1.824   2.985
 5302SOL    HW216491   2.956   1.860   3.016
 5303SOL     OW16492   2.632   3.192   2.163
 5303SOL    HW116493   2.586   3.105   2.180
 5303SOL    HW216494   2.723   3.189   2.204
 5304SOL     OW16495   2.480   3.429   3.146
 5304SOL    HW116496   2.475   3.511   3.203
 5304SOL    HW216497   2.569   3.426   3.101
 5305SOL     OW16498   3.214   1.914   2.030
 5305SOL    HW116499   3.249   1.873   1.946
 5305SOL    HW216500   3.124   1.876   2.050
 5306SOL     OW16501   3.162   2.315   2.553
 5306SOL    HW116502   3.103   2.395   2.557
 5306SOL    HW216503   3.177   2.280   2.646
 5307SOL     OW16504   3.455   2.083   2.744
 5307SOL    HW116505   3.371   2.082   2.798
 5307SOL    HW216506   3.457   2.166   2.688
 5308SOL     OW16507   1.901   2.939   2.162
 5308SOL    HW116508   2.000   2.928   2.153
 5308SOL    HW216509   1.861   2.853   2.194
 5309SOL     OW16510   2.737   3.508   2.199
 5309SOL    HW116511   2.660   3.473   2.145
 5309SOL    HW216512   2.705   3.579   2.261
 5310SOL     OW16513   2.092   2.490   3.837
 5310SOL    HW116514   1.999   2.488   3.874
 5310SOL    HW216515   2.093   2.451   3.745
 5311SOL     OW16516   2.431   3.137   4.889
 5311SOL    HW116517   2.338   3.130   4.852
 5311SOL    HW216518   2.442   3.226   4.933
 5312SOL     OW16519   3.417   3.373   4.427
 5312SOL    HW116520   3.360   3.357   4.508
 5312SOL    HW216521   3.358   3.383   4.347
 5313SOL     OW16522   2.997   2.565   4.441
 5313SOL    HW116523   3.054   2.643   4.416
 5313SOL    HW216524   2.937   2.591   4.517
 5314SOL     OW16525   3.617   2.469   3.955
 5314SOL    HW116526   3.605   2.456   3.856
 5314SOL    HW216527   3.587   2.388   4.004
 5315SOL     OW16528   2.630   3.006   4.747
 5315SOL    HW116529   2.552   3.023   4.807
 5315SOL    HW216530   2.664   3.093   4.711
 5316SOL     OW16531   2.712   2.660   5.547
 5316SOL    HW116532   2.708   2.736   5.612
 5316SOL    HW216533   2.734   2.696   5.456
 5317SOL     OW16534   2.547   2.874   4.389
 5317SOL    HW116535   2.616   2.858   4.459
 5317SOL    HW216536   2.474   2.931   4.427
 5318SOL     OW16537   2.548   3.023   5.527
 5318SOL    HW116538   2.608   3.102   5.541
 5318SOL    HW216539   2.462   3.054   5.486
 5319SOL     OW16540   2.197   3.297   4.785
 5319SOL    HW116541   2.119   3.266   4.732
 5319SOL    HW216542   2.255   3.355   4.728
 5320SOL     OW16543   3.322   3.367   5.063
 5320SOL    HW116544   3.346   3.461   5.089
 5320SOL    HW216545   3.306   3.313   5.145
 5321SOL     OW16546   2.300   2.254   5.223
 5321SOL    HW116547   2.382   2.198   5.232
 5321SOL    HW216548   2.219   2.196   5.227
 5322SOL     OW16549   3.465   2.309   4.461
 5322SOL    HW116550   3.391   2.355   4.411
 5322SOL    HW216551   3.516   2.377   4.514
 5323SOL     OW16552   2.093   3.575   4.207
 5323SOL    HW116553   2.127   3.652   4.261
 5323SOL    HW216554   2.137   3.575   4.117
 5324SOL     OW16555   2.989   3.203   5.414
 5324SOL    HW116556   3.036   3.203   5.502
 5324SOL    HW216557   2.941   3.116   5.403
 5325SOL     OW16558   2.092   3.296   4.262
 5325SOL    HW116559   2.066   3.392   4.262
 5325SOL    HW216560   2.021   3.242   4.307
 5326SOL     OW16561   2.102   2.953   4.610
 5326SOL    HW116562   2.116   2.869   4.662
 5326SOL    HW216563   2.047   3.017   4.665
 5327SOL     OW16564   2.482   3.648   5.163
 5327SOL    HW116565   2.390   3.631   5.198
 5327SOL    HW216566   2.510   3.740   5.189
 5328SOL     OW16567   2.468   2.826   3.847
 5328SOL    HW116568   2.475   2.910   3.793
 5328SOL    HW216569   2.514   2.839   3.935
 5329SOL     OW16570   3.456   1.976   5.204
 5329SOL    HW116571   3.438   2.043   5.132
 5329SOL    HW216572   3.453   2.022   5.293
 5330SOL     OW16573   1.984   2.505   4.287
 5330SOL    HW116574   1.939   2.417   4.304
 5330SOL    HW216575   1.983   2.559   4.371
 5331SOL     OW16576   3.704   3.629   4.083
 5331SOL    HW116577   3.758   3.600   4.163
 5331SOL    HW216578   3.734   3.719   4.054
 5332SOL     OW16579   1.889   3.458   3.841
 5332SOL    HW116580   1.870   3.362   3.862
 5332SOL    HW216581   1.856   3.516   3.916
 5333SOL     OW16582   3.551   2.784   4.336
 5333SOL    HW116583   3.646   2.755   4.344
 5333SOL    HW216584   3.543   2.849   4.261
 5334SOL     OW16585   3.503   2.970   4.156
 5334SOL    HW116586   3.589   2.972   4.104
 5334SOL    HW216587   3.517   3.017   4.244
 5335SOL     OW16588   1.975   2.599   5.321
 5335SOL    HW116589   2.063   2.586   5.366
 5335SOL    HW216590   1.962   2.696   5.299
 5336SOL     OW16591   2.475   3.227   4.450
 5336SOL    HW116592   2.426   3.140   4.459
 5336SOL    HW216593   2.452   3.270   4.363
 5337SOL     OW16594   3.155   3.090   5.147
 5337SOL    HW116595   3.192   3.017   5.089
 5337SOL    HW216596   3.207   3.095   5.232
 5338SOL     OW16597   2.671   1.866   4.226
 5338SOL    HW116598   2.711   1.957   4.217
 5338SOL    HW216599   2.571   1.874   4.232
 5339SOL     OW16600   2.059   2.838   4.988
 5339SOL    HW116601   2.148   2.793   4.974
 5339SOL    HW216602   1.986   2.773   4.969
 5340SOL     OW16603   3.387   2.861   3.914
 5340SOL    HW116604   3.324   2.785   3.927
 5340SOL    HW216605   3.435   2.879   4.000
 5341SOL     OW16606   3.049   3.654   5.340
 5341SOL    HW116607   3.073   3.714   5.264
 5341SOL    HW216608   3.056   3.559   5.310
 5342SOL     OW16609   3.328   3.279   4.677
 5342SOL    HW116610   3.269   3.285   4.757
 5342SOL    HW216611   3.313   3.191   4.631
 5343SOL     OW16612   3.529   3.576   4.296
 5343SOL    HW116613   3.488   3.553   4.208
 5343SOL    HW216614   3.511   3.502   4.361
 5344SOL     OW16615   2.460   2.591   3.994
 5344SOL    HW116616   2.484   2.660   3.926
 5344SOL    HW216617   2.382   2.624   4.048
 5345SOL     OW16618   3.143   2.207   4.668
 5345SOL    HW116619   3.057   2.157   4.655
 5345SOL    HW216620   3.205   2.153   4.724
 5346SOL     OW16621   3.438   3.524   4.031
 5346SOL    HW116622   3.527   3.570   4.034
 5346SOL    HW216623   3.417   3.500   3.936
 5347SOL     OW16624   2.669   2.467   5.189
 5347SOL    HW116625   2.622   2.464   5.278
 5347SOL    HW216626   2.618   2.412   5.123
 5348SOL     OW16627   3.256   2.331   5.398
 5348SOL    HW116628   3.236   2.374   5.486
 5348SOL    HW216629   3.334   2.269   5.407
 5349SOL     OW16630   2.835   2.752   5.296
 5349SOL    HW116631   2.881   2.668   5.267
 5349SOL    HW216632   2.779   2.786   5.221
 5350SOL     OW16633   2.853   2.272   4.966
 5350SOL    HW116634   2.776   2.306   5.020
 5350SOL    HW216635   2.819   2.221   4.887
 5351SOL     OW16636   2.903   2.563   4.153
 5351SOL    HW116637   2.929   2.559   4.249
 5351SOL    HW216638   2.818   2.512   4.139
 5352SOL     OW16639   1.938   2.673   4.513
 5352SOL    HW116640   2.037   2.661   4.522
 5352SOL    HW216641   1.914   2.768   4.534
 5353SOL     OW16642   1.992   3.683   5.295
 5353SOL    HW116643   1.982   3.668   5.394
 5353SOL    HW216644   1.906   3.719   5.259
 5354SOL     OW16645   2.727   2.210   3.919
 5354SOL    HW116646   2.786   2.273   3.870
 5354SOL    HW216647   2.746   2.116   3.890
 5355SOL     OW16648   3.581   2.447   5.555
 5355SOL    HW116649   3.555   2.536   5.519
 5355SOL    HW216650   3.579   2.379   5.482
 5356SOL     OW16651   3.224   3.006   4.269
 5356SOL    HW116652   3.307   2.977   4.221
 5356SOL    HW216653   3.175   3.073   4.213
 5357SOL     OW16654   2.412   2.058   4.609
 5357SOL    HW116655   2.407   2.053   4.709
 5357SOL    HW216656   2.414   2.154   4.580
 5358SOL     OW16657   2.870   3.318   4.201
 5358SOL    HW116658   2.824   3.390   4.149
 5358SOL    HW216659   2.866   3.338   4.299
 5359SOL     OW16660   2.213   3.663   4.577
 5359SOL    HW116661   2.263   3.577   4.583
 5359SOL    HW216662   2.278   3.740   4.574
 5360SOL     OW16663   3.657   2.928   4.597
 5360SOL    HW116664   3.595   2.913   4.521
 5360SOL    HW216665   3.605   2.939   4.682
 5361SOL     OW16666   3.089   3.412   5.230
 5361SOL    HW116667   3.095   3.335   5.294
 5361SOL    HW216668   3.037   3.386   5.150
 5362SOL     OW16669   2.183   2.805   3.966
 5362SOL    HW116670   2.265   2.844   3.924
 5362SOL    HW216671   2.156   2.723   3.917
 5363SOL     OW16672   3.320   2.597   4.452
 5363SOL    HW116673   3.315   2.532   4.527
 5363SOL    HW216674   3.400   2.656   4.465
 5364SOL     OW16675   2.323   3.128   5.451
 5364SOL    HW116676   2.273   3.129   5.365
 5364SOL    HW216677   2.260   3.110   5.527
 5365SOL     OW16678   2.973   3.638   3.961
 5365SOL    HW116679   2.913   3.576   4.011
 5365SOL    HW216680   3.004   3.594   3.876
 5366SOL     OW16681   3.494   3.239   3.805
 5366SOL    HW116682   3.462   3.333   3.795
 5366SOL    HW216683   3.418   3.176   3.793
 5367SOL     OW16684   2.326   3.605   4.047
 5367SOL    HW116685   2.359   3.644   4.133
 5367SOL    HW216686   2.402   3.598   3.982
 5368SOL     OW16687   3.262   1.969   4.150
 5368SOL    HW116688   3.238   1.932   4.060
 5368SOL    HW216689   3.361   1.985   4.154
 5369SOL     OW16690   2.111   3.647   4.965
 5369SOL    HW116691   2.168   3.582   5.015
 5369SOL    HW216692   2.095   3.614   4.872
 5370SOL     OW16693   2.802   3.560   4.628
 5370SOL    HW116694   2.882   3.503   4.649
 5370SOL    HW216695   2.753   3.520   4.551
 5371SOL     OW16696   2.244   2.562   4.204
 5371SOL    HW116697   2.289   2.472   4.201
 5371SOL    HW216698   2.150   2.551   4.237
 5372SOL     OW16699   3.409   2.084   5.453
 5372SOL    HW116700   3.404   2.121   5.545
 5372SOL    HW216701   3.337   2.015   5.441
 5373SOL     OW16702   2.476   1.984   3.841
 5373SOL    HW116703   2.574   1.962   3.848
 5373SOL    HW216704   2.445   1.967   3.748
 5374SOL     OW16705   2.643   2.126   5.473
 5374SOL    HW116706   2.710   2.065   5.516
 5374SOL    HW216707   2.570   2.145   5.538
 5375SOL     OW16708   2.750   3.376   4.919
 5375SOL    HW116709   2.727   3.351   4.825
 5375SOL    HW216710   2.811   3.307   4.958
 5376SOL     OW16711   3.213   2.452   5.157
 5376SOL    HW116712   3.241   2.409   5.242
 5376SOL    HW216713   3.238   2.548   5.158
 5377SOL     OW16714   2.665   3.264   4.648
 5377SOL    HW116715   2.755   3.278   4.606
 5377SOL    HW216716   2.594   3.266   4.577
 5378SOL     OW16717   2.784   2.365   4.623
 5378SOL    HW116718   2.759   2.356   4.527
 5378SOL    HW216719   2.832   2.283   4.654
 5379SOL     OW16720   2.401   1.926   4.236
 5379SOL    HW116721   2.320   1.927   4.294
 5379SOL    HW216722   2.404   2.009   4.181
 5380SOL     OW16723   3.296   3.050   3.765
 5380SOL    HW116724   3.328   2.974   3.822
 5380SOL    HW216725   3.204   3.077   3.795
 5381SOL     OW16726   2.797   2.098   4.204
 5381SOL    HW116727   2.749   2.139   4.126
 5381SOL    HW216728   2.896   2.096   4.185
 5382SOL     OW16729   2.938   2.545   5.188
 5382SOL    HW116730   2.858   2.484   5.191
 5382SOL    HW216731   3.019   2.492   5.164
 5383SOL     OW16732   3.089   3.432   4.517
 5383SOL    HW116733   3.110   3.506   4.452
 5383SOL    HW216734   3.157   3.432   4.590
 5384SOL     OW16735   2.321   3.014   4.465
 5384SOL    HW116736   2.250   2.987   4.530
 5384SOL    HW216737   2.295   2.986   4.372
 5385SOL     OW16738   3.133   3.659   4.315
 5385SOL    HW116739   3.177   3.723   4.251
 5385SOL    HW216740   3.083   3.711   4.385
 5386SOL     OW16741   2.894   2.411   3.740
 5386SOL    HW116742   2.853   2.493   3.701
 5386SOL    HW216743   2.958   2.437   3.813
 5387SOL     OW16744   1.940   2.418   5.110
 5387SOL    HW116745   2.032   2.417   5.069
 5387SOL    HW216746   1.934   2.492   5.177
 5388SOL     OW16747   2.423   2.084   4.871
 5388SOL    HW116748   2.461   2.000   4.908
 5388SOL    HW216749   2.335   2.103   4.915
 5389SOL     OW16750   2.728   2.316   4.366
 5389SOL    HW116751   2.696   2.388   4.304
 5389SOL    HW216752   2.752   2.235   4.313
 5390SOL     OW16753   2.879   1.901   4.477
 5390SOL    HW116754   2.807   1.906   4.408
 5390SOL    HW216755   2.855   1.832   4.546
 5391SOL     OW16756   3.291   3.035   4.591
 5391SOL    HW116757   3.236   2.951   4.584
 5391SOL    HW216758   3.317   3.064   4.499
 5392SOL     OW16759   3.328   2.452   4.716
 5392SOL    HW116760   3.298   2.357   4.723
 5392SOL    HW216761   3.401   2.468   4.782
 5393SOL     OW16762   3.719   2.695   4.101
 5393SOL    HW116763   3.761   2.631   4.165
 5393SOL    HW216764   3.681   2.644   4.023
 5394SOL     OW16765   2.350   3.247   3.898
 5394SOL    HW116766   2.263   3.232   3.945
 5394SOL    HW216767   2.333   3.273   3.803
 5395SOL     OW16768   3.526   3.142   4.381
 5395SOL    HW116769   3.625   3.150   4.395
 5395SOL    HW216770   3.481   3.226   4.412
 5396SOL     OW16771   3.252   2.437   3.802
 5396SOL    HW116772   3.198   2.416   3.883
 5396SOL    HW216773   3.343   2.396   3.811
 5397SOL     OW16774   2.389   2.118   4.052
 5397SOL    HW116775   2.416   2.059   3.977
 5397SOL    HW216776   2.389   2.213   4.021
 5398SOL     OW16777   3.616   3.085   5.312
 5398SOL    HW116778   3.707   3.046   5.299
 5398SOL    HW216779   3.624   3.181   5.336
 5399SOL     OW16780   2.926   3.209   5.064
 5399SOL    HW116781   2.846   3.186   5.119
 5399SOL    HW216782   3.009   3.183   5.113
 5400SOL     OW16783   3.454   3.491   5.349
 5400SOL    HW116784   3.481   3.525   5.259
 5400SOL    HW216785   3.533   3.453   5.395
 5401SOL     OW16786   2.973   3.057   4.824
 5401SOL    HW116787   2.933   3.101   4.905
 5401SOL    HW216788   2.932   3.094   4.741
 5402SOL     OW16789   3.500   2.961   4.803
 5402SOL    HW116790   3.505   3.042   4.862
 5402SOL    HW216791   3.414   2.963   4.752
 5403SOL     OW16792   2.777   1.951   5.126
 5403SOL    HW116793   2.802   1.931   5.031
 5403SOL    HW216794   2.849   2.007   5.168
 5404SOL     OW16795   2.842   2.978   5.443
 5404SOL    HW116796   2.743   2.984   5.453
 5404SOL    HW216797   2.865   2.898   5.387
 5405SOL     OW16798   2.567   2.912   4.092
 5405SOL    HW116799   2.553   2.919   4.191
 5405SOL    HW216800   2.651   2.861   4.074
 5406SOL     OW16801   2.272   2.675   4.975
 5406SOL    HW116802   2.358   2.687   5.025
 5406SOL    HW216803   2.230   2.588   5.002
 5407SOL     OW16804   3.136   2.248   4.986
 5407SOL    HW116805   3.157   2.322   5.050
 5407SOL    HW216806   3.047   2.265   4.943
 5408SOL     OW16807   1.926   3.426   5.055
 5408SOL    HW116808   1.880   3.508   5.021
 5408SOL    HW216809   2.024   3.445   5.064
 5409SOL     OW16810   2.229   2.962   4.225
 5409SOL    HW116811   2.222   3.045   4.169
 5409SOL    HW216812   2.233   2.882   4.165
 5410SOL     OW16813   2.428   2.399   4.589
 5410SOL    HW116814   2.440   2.465   4.515
 5410SOL    HW216815   2.474   2.433   4.672
 5411SOL     OW16816   3.114   3.210   4.112
 5411SOL    HW116817   3.164   3.287   4.152
 5411SOL    HW216818   3.019   3.212   4.144
 5412SOL     OW16819   3.134   3.307   4.866
 5412SOL    HW116820   3.181   3.320   4.953
 5412SOL    HW216821   3.068   3.233   4.875
 5413SOL     OW16822   3.444   2.501   4.196
 5413SOL    HW116823   3.413   2.562   4.269
 5413SOL    HW216824   3.494   2.553   4.127
 5414SOL     OW16825   2.216   3.372   5.053
 5414SOL    HW116826   2.195   3.328   4.966
 5414SOL    HW216827   2.313   3.398   5.056
 5415SOL     OW16828   2.264   2.613   5.322
 5415SOL    HW116829   2.332   2.668   5.275
 5415SOL    HW216830   2.304   2.525   5.349
 5416SOL     OW16831   3.449   2.641   5.394
 5416SOL    HW116832   3.357   2.679   5.389
 5416SOL    HW216833   3.509   2.688   5.329
 5417SOL     OW16834   2.875   1.967   5.494
 5417SOL    HW116835   2.881   2.052   5.442
 5417SOL    HW216836   2.907   1.891   5.437
 5418SOL     OW16837   2.366   1.912   5.464
 5418SOL    HW116838   2.324   1.855   5.394
 5418SOL    HW216839   2.300   1.981   5.496
 5419SOL     OW16840   2.435   2.732   4.753
 5419SOL    HW116841   2.479   2.821   4.744
 5419SOL    HW216842   2.372   2.732   4.830
 5420SOL     OW16843   3.222   2.724   4.769
 5420SOL    HW116844   3.147   2.724   4.703
 5420SOL    HW216845   3.259   2.632   4.778
 5421SOL     OW16846   3.071   2.387   3.999
 5421SOL    HW116847   3.084   2.303   4.053
 5421SOL    HW216848   3.042   2.461   4.059
 5422SOL     OW16849   1.899   3.172   5.006
 5422SOL    HW116850   1.952   3.123   5.074
 5422SOL    HW216851   1.921   3.270   5.011
 5423SOL     OW16852   2.594   2.496   4.788
 5423SOL    HW116853   2.653   2.470   4.712
 5423SOL    HW216854   2.566   2.592   4.777
 5424SOL     OW16855   3.590   2.797   5.578
 5424SOL    HW116856   3.544   2.790   5.489
 5424SOL    HW216857   3.528   2.841   5.644
 5425SOL     OW16858   3.484   2.229   4.098
 5425SOL    HW116859   3.486   2.153   4.162
 5425SOL    HW216860   3.436   2.306   4.138
 5426SOL     OW16861   2.885   2.628   4.690
 5426SOL    HW116862   2.900   2.649   4.786
 5426SOL    HW216863   2.855   2.533   4.681
 5427SOL     OW16864   2.842   3.435   5.424
 5427SOL    HW116865   2.822   3.479   5.336
 5427SOL    HW216866   2.881   3.344   5.408
 5428SOL     OW16867   3.721   3.380   5.329
 5428SOL    HW116868   3.735   3.407   5.234
 5428SOL    HW216869   3.804   3.402   5.382
 5429SOL     OW16870   2.212   2.760   5.528
 5429SOL    HW116871   2.288   2.804   5.576
 5429SOL    HW216872   2.247   2.713   5.446
 5430SOL     OW16873   3.402   2.136   3.849
 5430SOL    HW116874   3.341   2.061   3.872
 5430SOL    HW216875   3.424   2.188   3.932
 5431SOL     OW16876   3.165   2.700   3.766
 5431SOL    HW116877   3.199   2.607   3.781
 5431SOL    HW216878   3.183   2.727   3.671
 5432SOL     OW16879   2.930   3.195   4.573
 5432SOL    HW116880   2.937   3.111   4.518
 5432SOL    HW216881   2.992   3.264   4.537
 5433SOL     OW16882   2.181   2.672   4.673
 5433SOL    HW116883   2.274   2.708   4.678
 5433SOL    HW216884   2.175   2.587   4.725
 5434SOL     OW16885   2.201   2.371   4.730
 5434SOL    HW116886   2.149   2.288   4.713
 5434SOL    HW216887   2.278   2.376   4.666
 5435SOL     OW16888   3.000   2.242   5.402
 5435SOL    HW116889   2.955   2.305   5.466
 5435SOL    HW216890   3.093   2.273   5.385
 5436SOL     OW16891   3.022   2.069   5.201
 5436SOL    HW116892   3.022   2.133   5.278
 5436SOL    HW216893   3.050   2.117   5.118
 5437SOL     OW16894   1.870   3.188   3.924
 5437SOL    HW116895   1.777   3.209   3.893
 5437SOL    HW216896   1.880   3.089   3.937
 5438SOL     OW16897   1.950   3.663   4.651
 5438SOL    HW116898   1.908   3.577   4.624
 5438SOL    HW216899   2.044   3.666   4.617
 5439SOL     OW16900   2.366   3.430   4.634
 5439SOL    HW116901   2.432   3.504   4.643
 5439SOL    HW216902   2.410   3.351   4.592
 5440SOL     OW16903   2.864   2.658   4.962
 5440SOL    HW116904   2.905   2.626   5.048
 5440SOL    HW216905   2.768   2.631   4.959
 5441SOL     OW16906   3.231   2.812   5.384
 5441SOL    HW116907   3.270   2.901   5.404
 5441SOL    HW216908   3.241   2.792   5.287
 5442SOL     OW16909   2.677   2.434   4.049
 5442SOL    HW116910   2.684   2.345   4.003
 5442SOL    HW216911   2.583   2.468   4.041
 5443SOL     OW16912   3.519   2.466   4.930
 5443SOL    HW116913   3.481   2.397   4.992
 5443SOL    HW216914   3.601   2.430   4.886
 5444SOL     OW16915   2.114   3.426   5.468
 5444SOL    HW116916   2.084   3.483   5.544
 5444SOL    HW216917   2.107   3.329   5.494
 5445SOL     OW16918   2.533   2.326   4.993
 5445SOL    HW116919   2.499   2.237   4.963
 5445SOL    HW216920   2.559   2.380   4.913
 5446SOL     OW16921   2.792   3.540   5.189
 5446SOL    HW116922   2.768   3.522   5.094
 5446SOL    HW216923   2.822   3.634   5.199
 5447SOL     OW16924   2.335   2.362   3.915
 5447SOL    HW116925   2.396   2.442   3.919
 5447SOL    HW216926   2.240   2.393   3.922
 5448SOL     OW16927   2.021   2.999   5.190
 5448SOL    HW116928   2.043   2.938   5.266
 5448SOL    HW216929   2.031   2.950   5.104
 5449SOL     OW16930   3.209   2.921   4.958
 5449SOL    HW116931   3.233   2.858   4.884
 5449SOL    HW216932   3.119   2.961   4.940
 5450SOL     OW16933   3.164   2.717   4.033
 5450SOL    HW116934   3.078   2.686   4.075
 5450SOL    HW216935   3.160   2.703   3.934
 5451SOL     OW16936   3.621   3.609   4.878
 5451SOL    HW116937   3.682   3.639   4.805
 5451SOL    HW216938   3.583   3.520   4.856
 5452SOL     OW16939   3.114   3.593   4.852
 5452SOL    HW116940   3.198   3.598   4.798
 5452SOL    HW216941   3.091   3.497   4.870
 5453SOL     OW16942   1.945   3.120   4.746
 5453SOL    HW116943   1.940   3.119   4.846
 5453SOL    HW216944   1.862   3.079   4.708
 5454SOL     OW16945   2.550   3.524   5.440
 5454SOL    HW116946   2.494   3.605   5.449
 5454SOL    HW216947   2.602   3.528   5.354
 5455SOL     OW16948   3.588   1.997   4.247
 5455SOL    HW116949   3.661   1.980   4.180
 5455SOL    HW216950   3.557   1.910   4.285
 5456SOL     OW16951   3.250   3.435   4.201
 5456SOL    HW116952   3.317   3.447   4.127
 5456SOL    HW216953   3.210   3.524   4.224
 5457SOL     OW16954   1.992   3.656   5.575
 5457SOL    HW116955   1.951   3.582   5.628
 5457SOL    HW216956   2.056   3.707   5.633
 5458SOL     OW16957   3.142   2.789   4.396
 5458SOL    HW116958   3.202   2.708   4.398
 5458SOL    HW216959   3.182   2.858   4.336
 5459SOL     OW16960   2.692   3.135   5.146
 5459SOL    HW116961   2.687   3.168   5.241
 5459SOL    HW216962   2.606   3.154   5.100
 5460SOL     OW16963   2.534   3.478   3.878
 5460SOL    HW116964   2.543   3.488   3.779
 5460SOL    HW216965   2.494   3.389   3.899
 5461SOL     OW16966   3.512   3.582   5.118
 5461SOL    HW116967   3.565   3.592   5.034
 5461SOL    HW216968   3.485   3.672   5.152
 5462SOL     OW16969   3.703   2.037   4.687
 5462SOL    HW116970   3.742   1.952   4.651
 5462SOL    HW216971   3.605   2.039   4.668
 5463SOL     OW16972   3.056   3.474   3.755
 5463SOL    HW116973   3.062   3.381   3.792
 5463SOL    HW216974   2.997   3.474   3.675
 5464SOL     OW16975   2.684   2.864   5.096
 5464SOL    HW116976   2.724   2.863   5.004
 5464SOL    HW216977   2.694   2.956   5.136
 5465SOL     OW16978   2.778   2.772   4.015
 5465SOL    HW116979   2.841   2.810   3.947
 5465SOL    HW216980   2.818   2.689   4.054
 5466SOL     OW16981   3.366   3.469   3.768
 5466SOL    HW116982   3.274   3.506   3.775
 5466SOL    HW216983   3.404   3.489   3.678
 5467SOL     OW16984   2.234   3.150   5.214
 5467SOL    HW116985   2.221   3.243   5.180
 5467SOL    HW216986   2.150   3.098   5.201
 5468SOL     OW16987   3.476   3.154   5.013
 5468SOL    HW116988   3.536   3.157   5.093
 5468SOL    HW216989   3.401   3.218   5.026
 5469SOL     OW16990   2.901   2.960   4.420
 5469SOL    HW116991   2.831   2.913   4.474
 5469SOL    HW216992   2.960   2.892   4.377
 5470SOL     OW16993   2.876   2.098   4.695
 5470SOL    HW116994   2.868   2.062   4.602
 5470SOL    HW216995   2.874   2.022   4.760
 5471SOL     OW16996   2.452   3.349   4.215
 5471SOL    HW116997   2.494   3.291   4.145
 5471SOL    HW216998   2.408   3.428   4.171
 5472SOL     OW16999   3.571   2.247   5.105
 5472SOL    HW117000   3.644   2.316   5.109
 5472SOL    HW217001   3.599   2.172   5.046
 5473SOL     OW17002   2.117   3.210   4.014
 5473SOL    HW117003   2.021   3.211   3.987
 5473SOL    HW217004   2.129   3.263   4.098
 5474SOL     OW17005   1.967   2.875   5.450
 5474SOL    HW117006   1.890   2.842   5.504
 5474SOL    HW217007   2.052   2.845   5.492
 5475SOL     OW17008   2.534   2.065   5.213
 5475SOL    HW117009   2.624   2.049   5.173
 5475SOL    HW217010   2.542   2.070   5.312
 5476SOL     OW17011   3.302   2.718   5.122
 5476SOL    HW117012   3.245   2.770   5.059
 5476SOL    HW217013   3.398   2.730   5.098
 5477SOL     OW17014   3.045   3.197   3.843
 5477SOL    HW117015   2.946   3.186   3.845
 5477SOL    HW217016   3.079   3.212   3.936
 5478SOL     OW17017   2.475   2.704   5.155
 5478SOL    HW117018   2.531   2.785   5.138
 5478SOL    HW217019   2.534   2.624   5.158
 5479SOL     OW17020   3.355   3.629   4.683
 5479SOL    HW117021   3.388   3.693   4.614
 5479SOL    HW217022   3.421   3.623   4.758
 5480SOL     OW17023   2.578   2.427   5.432
 5480SOL    HW117024   2.597   2.492   5.506
 5480SOL    HW217025   2.638   2.347   5.441
 5481SOL     OW17026   3.312   3.082   5.357
 5481SOL    HW117027   3.303   3.072   5.456
 5481SOL    HW217028   3.408   3.075   5.331
 5482SOL     OW17029   2.252   3.603   5.284
 5482SOL    HW117030   2.161   3.644   5.282
 5482SOL    HW217031   2.245   3.509   5.316
 5483SOL     OW17032   3.536   2.745   4.978
 5483SOL    HW117033   3.509   2.656   4.941
 5483SOL    HW217034   3.537   2.813   4.905
 5484SOL     OW17035   3.087   2.187   4.173
 5484SOL    HW117036   3.152   2.113   4.162
 5484SOL    HW217037   3.107   2.237   4.257
 5485SOL     OW17038   2.456   2.607   4.376
 5485SOL    HW117039   2.506   2.692   4.357
 5485SOL    HW217040   2.368   2.609   4.328
 5486SOL     OW17041   3.639   2.204   5.366
 5486SOL    HW117042   3.622   2.235   5.272
 5486SOL    HW217043   3.555   2.167   5.404
 5487SOL     OW17044   3.592   2.796   5.241
 5487SOL    HW117045   3.630   2.887   5.256
 5487SOL    HW217046   3.584   2.779   5.142
 5488SOL     OW17047   2.721   3.236   3.740
 5488SOL    HW117048   2.675   3.251   3.828
 5488SOL    HW217049   2.765   3.321   3.710
 5489SOL     OW17050   2.523   3.652   4.677
 5489SOL    HW117051   2.477   3.740   4.664
 5489SOL    HW217052   2.622   3.664   4.670
 5490SOL     OW17053   2.721   2.818   4.585
 5490SOL    HW117054   2.775   2.749   4.633
 5490SOL    HW217055   2.689   2.887   4.651
 5491SOL     OW17056   2.945   2.846   3.811
 5491SOL    HW117057   2.922   2.899   3.729
 5491SOL    HW217058   3.026   2.790   3.792
 5492SOL     OW17059   3.723   3.431   4.575
 5492SOL    HW117060   3.652   3.419   4.505
 5492SOL    HW217061   3.724   3.352   4.635
 5493SOL     OW17062   2.083   3.176   5.568
 5493SOL    HW117063   2.018   3.103   5.547
 5493SOL    HW217064   2.087   3.190   5.666
 5494SOL     OW17065   1.941   3.102   4.377
 5494SOL    HW117066   1.940   3.055   4.465
 5494SOL    HW217067   2.023   3.074   4.326
 5495SOL     OW17068   2.534   3.253   5.348
 5495SOL    HW117069   2.456   3.203   5.386
 5495SOL    HW217070   2.531   3.348   5.379
 5496SOL     OW17071   3.686   2.054   4.951
 5496SOL    HW117072   3.682   1.964   4.995
 5496SOL    HW217073   3.689   2.043   4.852
 5497SOL     OW17074   2.290   2.286   4.244
 5497SOL    HW117075   2.320   2.214   4.182
 5497SOL    HW217076   2.251   2.246   4.327
 5498SOL     OW17077   3.567   3.349   4.828
 5498SOL    HW117078   3.474   3.324   4.801
 5498SOL    HW217079   3.593   3.299   4.910
 5499SOL     OW17080   2.179   2.409   5.004
 5499SOL    HW117081   2.217   2.350   5.076
 5499SOL    HW217082   2.219   2.383   4.916
 5500SOL     OW17083   2.674   3.448   4.411
 5500SOL    HW117084   2.706   3.458   4.317
 5500SOL    HW217085   2.595   3.386   4.413
 5501SOL     OW17086   3.286   2.076   4.836
 5501SOL    HW117087   3.338   2.011   4.891
 5501SOL    HW217088   3.237   2.139   4.897
 5502SOL     OW17089   2.863   1.896   4.878
 5502SOL    HW117090   2.800   1.824   4.847
 5502SOL    HW217091   2.956   1.860   4.878
 5503SOL     OW17092   2.632   3.192   4.025
 5503SOL    HW117093   2.586   3.105   4.042
 5503SOL    HW217094   2.723   3.189   4.066
 5504SOL     OW17095   2.480   3.429   5.008
 5504SOL    HW117096   2.475   3.511   5.065
 5504SOL    HW217097   2.569   3.426   4.963
 5505SOL     OW17098   3.214   1.914   3.892
 5505SOL    HW117099   3.249   1.873   3.808
 5505SOL    HW217100   3.124   1.876   3.912
 5506SOL     OW17101   3.162   2.315   4.415
 5506SOL    HW117102   3.103   2.395   4.419
 5506SOL    HW217103   3.177   2.280   4.508
 5507SOL     OW17104   3.455   2.083   4.606
 5507SOL    HW117105   3.371   2.082   4.660
 5507SOL    HW217106   3.457   2.166   4.550
 5508SOL     OW17107   1.901   2.939   4.024
 5508SOL    HW117108   2.000   2.928   4.015
 5508SOL    HW217109   1.861   2.853   4.056
 5509SOL     OW17110   2.737   3.508   4.061
 5509SOL    HW117111   2.660   3.473   4.007
 5509SOL    HW217112   2.705   3.579   4.123
 5510SOL     OW17113   2.092   2.490   5.699
 5510SOL    HW117114   1.999   2.488   5.736
 5510SOL    HW217115   2.093   2.451   5.607
 5511SOL     OW17116   2.431   3.137   6.751
 5511SOL    HW117117   2.338   3.130   6.714
 5511SOL    HW217118   2.442   3.226   6.795
 5512SOL     OW17119   3.417   3.373   6.289
 5512SOL    HW117120   3.360   3.357   6.370
 5512SOL    HW217121   3.358   3.383   6.209
 5513SOL     OW17122   2.997   2.565   6.303
 5513SOL    HW117123   3.054   2.643   6.278
 5513SOL    HW217124   2.937   2.591   6.379
 5514SOL     OW17125   3.617   2.469   5.817
 5514SOL    HW117126   3.605   2.456   5.718
 5514SOL    HW217127   3.587   2.388   5.866
 5515SOL     OW17128   2.630   3.006   6.609
 5515SOL    HW117129   2.552   3.023   6.669
 5515SOL    HW217130   2.664   3.093   6.573
 5516SOL     OW17131   2.712   2.660   7.409
 5516SOL    HW117132   2.708   2.736   7.474
 5516SOL    HW217133   2.734   2.696   7.318
 5517SOL     OW17134   2.547   2.874   6.251
 5517SOL    HW117135   2.616   2.858   6.321
 5517SOL    HW217136   2.474   2.931   6.289
 5518SOL     OW17137   2.548   3.023   7.389
 5518SOL    HW117138   2.608   3.102   7.403
 5518SOL    HW217139   2.462   3.054   7.348
 5519SOL     OW17140   2.197   3.297   6.647
 5519SOL    HW117141   2.119   3.266   6.594
 5519SOL    HW217142   2.255   3.355   6.590
 5520SOL     OW17143   3.322   3.367   6.925
 5520SOL    HW117144   3.346   3.461   6.951
 5520SOL    HW217145   3.306   3.313   7.007
 5521SOL     OW17146   3.465   2.309   6.323
 5521SOL    HW117147   3.391   2.355   6.273
 5521SOL    HW217148   3.516   2.377   6.376
 5522SOL     OW17149   2.093   3.575   6.069
 5522SOL    HW117150   2.127   3.652   6.123
 5522SOL    HW217151   2.137   3.575   5.979
 5523SOL     OW17152   2.989   3.203   7.276
 5523SOL    HW117153   3.036   3.203   7.364
 5523SOL    HW217154   2.941   3.116   7.265
 5524SOL     OW17155   2.092   3.296   6.124
 5524SOL    HW117156   2.066   3.392   6.124
 5524SOL    HW217157   2.021   3.242   6.169
 5525SOL     OW17158   2.102   2.953   6.472
 5525SOL    HW117159   2.116   2.869   6.524
 5525SOL    HW217160   2.047   3.017   6.527
 5526SOL     OW17161   2.482   3.648   7.025
 5526SOL    HW117162   2.390   3.631   7.060
 5526SOL    HW217163   2.510   3.740   7.051
 5527SOL     OW17164   2.468   2.826   5.709
 5527SOL    HW117165   2.475   2.910   5.655
 5527SOL    HW217166   2.514   2.839   5.797
 5528SOL     OW17167   3.456   1.976   7.066
 5528SOL    HW117168   3.438   2.043   6.994
 5528SOL    HW217169   3.453   2.022   7.155
 5529SOL     OW17170   1.984   2.505   6.149
 5529SOL    HW117171   1.939   2.417   6.166
 5529SOL    HW217172   1.983   2.559   6.233
 5530SOL     OW17173   3.704   3.629   5.945
 5530SOL    HW117174   3.758   3.600   6.025
 5530SOL    HW217175   3.734   3.719   5.916
 5531SOL     OW17176   1.889   3.458   5.703
 5531SOL    HW117177   1.870   3.362   5.724
 5531SOL    HW217178   1.856   3.516   5.778
 5532SOL     OW17179   3.551   2.784   6.198
 5532SOL    HW117180   3.646   2.755   6.206
 5532SOL    HW217181   3.543   2.849   6.123
 5533SOL     OW17182   3.503   2.970   6.018
 5533SOL    HW117183   3.589   2.972   5.966
 5533SOL    HW217184   3.517   3.017   6.106
 5534SOL     OW17185   2.475   3.227   6.312
 5534SOL    HW117186   2.426   3.140   6.321
 5534SOL    HW217187   2.452   3.270   6.225
 5535SOL     OW17188   3.155   3.090   7.009
 5535SOL    HW117189   3.192   3.017   6.951
 5535SOL    HW217190   3.207   3.095   7.094
 5536SOL     OW17191   2.671   1.866   6.088
 5536SOL    HW117192   2.711   1.957   6.079
 5536SOL    HW217193   2.571   1.874   6.094
 5537SOL     OW17194   3.387   2.861   5.776
 5537SOL    HW117195   3.324   2.785   5.789
 5537SOL    HW217196   3.435   2.879   5.862
 5538SOL     OW17197   3.049   3.654   7.202
 5538SOL    HW117198   3.073   3.714   7.126
 5538SOL    HW217199   3.056   3.559   7.172
 5539SOL     OW17200   3.328   3.279   6.539
 5539SOL    HW117201   3.269   3.285   6.619
 5539SOL    HW217202   3.313   3.191   6.493
 5540SOL     OW17203   3.529   3.576   6.158
 5540SOL    HW117204   3.488   3.553   6.070
 5540SOL    HW217205   3.511   3.502   6.223
 5541SOL     OW17206   2.460   2.591   5.856
 5541SOL    HW117207   2.484   2.660   5.788
 5541SOL    HW217208   2.382   2.624   5.910
 5542SOL     OW17209   3.143   2.207   6.530
 5542SOL    HW117210   3.057   2.157   6.517
 5542SOL    HW217211   3.205   2.153   6.586
 5543SOL     OW17212   3.438   3.524   5.893
 5543SOL    HW117213   3.527   3.570   5.896
 5543SOL    HW217214   3.417   3.500   5.798
 5544SOL     OW17215   3.256   2.331   7.260
 5544SOL    HW117216   3.236   2.374   7.348
 5544SOL    HW217217   3.334   2.269   7.269
 5545SOL     OW17218   2.835   2.752   7.158
 5545SOL    HW117219   2.881   2.668   7.129
 5545SOL    HW217220   2.779   2.786   7.083
 5546SOL     OW17221   2.903   2.563   6.015
 5546SOL    HW117222   2.929   2.559   6.111
 5546SOL    HW217223   2.818   2.512   6.001
 5547SOL     OW17224   1.938   2.673   6.375
 5547SOL    HW117225   2.037   2.661   6.384
 5547SOL    HW217226   1.914   2.768   6.396
 5548SOL     OW17227   1.992   3.683   7.157
 5548SOL    HW117228   1.982   3.668   7.256
 5548SOL    HW217229   1.906   3.719   7.121
 5549SOL     OW17230   2.727   2.210   5.781
 5549SOL    HW117231   2.786   2.273   5.732
 5549SOL    HW217232   2.746   2.116   5.752
 5550SOL     OW17233   3.581   2.447   7.417
 5550SOL    HW117234   3.555   2.536   7.381
 5550SOL    HW217235   3.579   2.379   7.344
 5551SOL     OW17236   3.224   3.006   6.131
 5551SOL    HW117237   3.307   2.977   6.083
 5551SOL    HW217238   3.175   3.073   6.075
 5552SOL     OW17239   2.412   2.058   6.471
 5552SOL    HW117240   2.407   2.053   6.571
 5552SOL    HW217241   2.414   2.154   6.442
 5553SOL     OW17242   2.870   3.318   6.063
 5553SOL    HW117243   2.824   3.390   6.011
 5553SOL    HW217244   2.866   3.338   6.161
 5554SOL     OW17245   2.213   3.663   6.439
 5554SOL    HW117246   2.263   3.577   6.445
 5554SOL    HW217247   2.278   3.740   6.436
 5555SOL     OW17248   3.657   2.928   6.459
 5555SOL    HW117249   3.595   2.913   6.383
 5555SOL    HW217250   3.605   2.939   6.544
 5556SOL     OW17251   3.089   3.412   7.092
 5556SOL    HW117252   3.095   3.335   7.156
 5556SOL    HW217253   3.037   3.386   7.012
 5557SOL     OW17254   2.183   2.805   5.828
 5557SOL    HW117255   2.265   2.844   5.786
 5557SOL    HW217256   2.156   2.723   5.779
 5558SOL     OW17257   3.320   2.597   6.314
 5558SOL    HW117258   3.315   2.532   6.389
 5558SOL    HW217259   3.400   2.656   6.327
 5559SOL     OW17260   2.323   3.128   7.313
 5559SOL    HW117261   2.273   3.129   7.227
 5559SOL    HW217262   2.260   3.110   7.389
 5560SOL     OW17263   2.973   3.638   5.823
 5560SOL    HW117264   2.913   3.576   5.873
 5560SOL    HW217265   3.004   3.594   5.738
 5561SOL     OW17266   3.494   3.239   5.667
 5561SOL    HW117267   3.462   3.333   5.657
 5561SOL    HW217268   3.418   3.176   5.655
 5562SOL     OW17269   2.326   3.605   5.909
 5562SOL    HW117270   2.359   3.644   5.995
 5562SOL    HW217271   2.402   3.598   5.844
 5563SOL     OW17272   3.262   1.969   6.012
 5563SOL    HW117273   3.238   1.932   5.922
 5563SOL    HW217274   3.361   1.985   6.016
 5564SOL     OW17275   2.111   3.647   6.827
 5564SOL    HW117276   2.168   3.582   6.877
 5564SOL    HW217277   2.095   3.614   6.734
 5565SOL     OW17278   2.802   3.560   6.490
 5565SOL    HW117279   2.882   3.503   6.511
 5565SOL    HW217280   2.753   3.520   6.413
 5566SOL     OW17281   2.244   2.562   6.066
 5566SOL    HW117282   2.289   2.472   6.063
 5566SOL    HW217283   2.150   2.551   6.099
 5567SOL     OW17284   3.409   2.084   7.315
 5567SOL    HW117285   3.404   2.121   7.407
 5567SOL    HW217286   3.337   2.015   7.303
 5568SOL     OW17287   2.476   1.984   5.703
 5568SOL    HW117288   2.574   1.962   5.710
 5568SOL    HW217289   2.445   1.967   5.610
 5569SOL     OW17290   2.750   3.376   6.781
 5569SOL    HW117291   2.727   3.351   6.687
 5569SOL    HW217292   2.811   3.307   6.820
 5570SOL     OW17293   3.213   2.452   7.019
 5570SOL    HW117294   3.241   2.409   7.104
 5570SOL    HW217295   3.238   2.548   7.020
 5571SOL     OW17296   2.665   3.264   6.510
 5571SOL    HW117297   2.755   3.278   6.468
 5571SOL    HW217298   2.594   3.266   6.439
 5572SOL     OW17299   2.784   2.365   6.485
 5572SOL    HW117300   2.759   2.356   6.389
 5572SOL    HW217301   2.832   2.283   6.516
 5573SOL     OW17302   2.401   1.926   6.098
 5573SOL    HW117303   2.320   1.927   6.156
 5573SOL    HW217304   2.404   2.009   6.043
 5574SOL     OW17305   3.296   3.050   5.627
 5574SOL    HW117306   3.328   2.974   5.684
 5574SOL    HW217307   3.204   3.077   5.657
 5575SOL     OW17308   2.797   2.098   6.066
 5575SOL    HW117309   2.749   2.139   5.988
 5575SOL    HW217310   2.896   2.096   6.047
 5576SOL     OW17311   2.938   2.545   7.050
 5576SOL    HW117312   2.858   2.484   7.053
 5576SOL    HW217313   3.019   2.492   7.026
 5577SOL     OW17314   3.089   3.432   6.379
 5577SOL    HW117315   3.110   3.506   6.314
 5577SOL    HW217316   3.157   3.432   6.452
 5578SOL     OW17317   2.321   3.014   6.327
 5578SOL    HW117318   2.250   2.987   6.392
 5578SOL    HW217319   2.295   2.986   6.234
 5579SOL     OW17320   3.133   3.659   6.177
 5579SOL    HW117321   3.177   3.723   6.113
 5579SOL    HW217322   3.083   3.711   6.247
 5580SOL     OW17323   2.894   2.411   5.602
 5580SOL    HW117324   2.853   2.493   5.563
 5580SOL    HW217325   2.958   2.437   5.675
 5581SOL     OW17326   2.728   2.316   6.228
 5581SOL    HW117327   2.696   2.388   6.166
 5581SOL    HW217328   2.752   2.235   6.175
 5582SOL     OW17329   2.879   1.901   6.339
 5582SOL    HW117330   2.807   1.906   6.270
 5582SOL    HW217331   2.855   1.832   6.408
 5583SOL     OW17332   3.291   3.035   6.453
 5583SOL    HW117333   3.236   2.951   6.446
 5583SOL    HW217334   3.317   3.064   6.361
 5584SOL     OW17335   3.328   2.452   6.578
 5584SOL    HW117336   3.298   2.357   6.585
 5584SOL    HW217337   3.401   2.468   6.644
 5585SOL     OW17338   3.719   2.695   5.963
 5585SOL    HW117339   3.761   2.631   6.027
 5585SOL    HW217340   3.681   2.644   5.885
 5586SOL     OW17341   2.350   3.247   5.760
 5586SOL    HW117342   2.263   3.232   5.807
 5586SOL    HW217343   2.333   3.273   5.665
 5587SOL     OW17344   3.526   3.142   6.243
 5587SOL    HW117345   3.625   3.150   6.257
 5587SOL    HW217346   3.481   3.226   6.274
 5588SOL     OW17347   3.252   2.437   5.664
 5588SOL    HW117348   3.198   2.416   5.745
 5588SOL    HW217349   3.343   2.396   5.673
 5589SOL     OW17350   2.389   2.118   5.914
 5589SOL    HW117351   2.416   2.059   5.839
 5589SOL    HW217352   2.389   2.213   5.883
 5590SOL     OW17353   3.616   3.085   7.174
 5590SOL    HW117354   3.707   3.046   7.161
 5590SOL    HW217355   3.624   3.181   7.198
 5591SOL     OW17356   2.926   3.209   6.926
 5591SOL    HW117357   2.846   3.186   6.981
 5591SOL    HW217358   3.009   3.183   6.975
 5592SOL     OW17359   3.454   3.491   7.211
 5592SOL    HW117360   3.481   3.525   7.121
 5592SOL    HW217361   3.533   3.453   7.257
 5593SOL     OW17362   2.973   3.057   6.686
 5593SOL    HW117363   2.933   3.101   6.767
 5593SOL    HW217364   2.932   3.094   6.603
 5594SOL     OW17365   3.500   2.961   6.665
 5594SOL    HW117366   3.505   3.042   6.724
 5594SOL    HW217367   3.414   2.963   6.614
 5595SOL     OW17368   2.842   2.978   7.305
 5595SOL    HW117369   2.743   2.984   7.315
 5595SOL    HW217370   2.865   2.898   7.249
 5596SOL     OW17371   2.567   2.912   5.954
 5596SOL    HW117372   2.553   2.919   6.053
 5596SOL    HW217373   2.651   2.861   5.936
 5597SOL     OW17374   3.136   2.248   6.848
 5597SOL    HW117375   3.157   2.322   6.912
 5597SOL    HW217376   3.047   2.265   6.805
 5598SOL     OW17377   1.926   3.426   6.917
 5598SOL    HW117378   1.880   3.508   6.883
 5598SOL    HW217379   2.024   3.445   6.926
 5599SOL     OW17380   2.229   2.962   6.087
 5599SOL    HW117381   2.222   3.045   6.031
 5599SOL    HW217382   2.233   2.882   6.027
 5600SOL     OW17383   2.428   2.399   6.451
 5600SOL    HW117384   2.440   2.465   6.377
 5600SOL    HW217385   2.474   2.433   6.534
 5601SOL     OW17386   3.114   3.210   5.974
 5601SOL    HW117387   3.164   3.287   6.014
 5601SOL    HW217388   3.019   3.212   6.006
 5602SOL     OW17389   3.134   3.307   6.728
 5602SOL    HW117390   3.181   3.320   6.815
 5602SOL    HW217391   3.068   3.233   6.737
 5603SOL     OW17392   3.444   2.501   6.058
 5603SOL    HW117393   3.413   2.562   6.131
 5603SOL    HW217394   3.494   2.553   5.989
 5604SOL     OW17395   2.216   3.372   6.915
 5604SOL    HW117396   2.195   3.328   6.828
 5604SOL    HW217397   2.313   3.398   6.918
 5605SOL     OW17398   3.449   2.641   7.256
 5605SOL    HW117399   3.357   2.679   7.251
 5605SOL    HW217400   3.509   2.688   7.191
 5606SOL     OW17401   2.875   1.967   7.356
 5606SOL    HW117402   2.881   2.052   7.304
 5606SOL    HW217403   2.907   1.891   7.299
 5607SOL     OW17404   2.366   1.912   7.326
 5607SOL    HW117405   2.324   1.855   7.256
 5607SOL    HW217406   2.300   1.981   7.358
 5608SOL     OW17407   3.222   2.724   6.631
 5608SOL    HW117408   3.147   2.724   6.565
 5608SOL    HW217409   3.259   2.632   6.640
 5609SOL     OW17410   3.071   2.387   5.861
 5609SOL    HW117411   3.084   2.303   5.915
 5609SOL    HW217412   3.042   2.461   5.921
 5610SOL     OW17413   2.169   2.075   6.817
 5610SOL    HW117414   2.146   2.112   6.907
 5610SOL    HW217415   2.139   1.980   6.811
 5611SOL     OW17416   1.899   3.172   6.868
 5611SOL    HW117417   1.952   3.123   6.936
 5611SOL    HW217418   1.921   3.270   6.873
 5612SOL     OW17419   3.590   2.797   7.440
 5612SOL    HW117420   3.544   2.790   7.351
 5612SOL    HW217421   3.528   2.841   7.506
 5613SOL     OW17422   3.484   2.229   5.960
 5613SOL    HW117423   3.486   2.153   6.024
 5613SOL    HW217424   3.436   2.306   6.000
 5614SOL     OW17425   2.885   2.628   6.552
 5614SOL    HW117426   2.900   2.649   6.648
 5614SOL    HW217427   2.855   2.533   6.543
 5615SOL     OW17428   2.842   3.435   7.286
 5615SOL    HW117429   2.822   3.479   7.198
 5615SOL    HW217430   2.881   3.344   7.270
 5616SOL     OW17431   3.721   3.380   7.191
 5616SOL    HW117432   3.735   3.407   7.096
 5616SOL    HW217433   3.804   3.402   7.244
 5617SOL     OW17434   2.212   2.760   7.390
 5617SOL    HW117435   2.288   2.804   7.438
 5617SOL    HW217436   2.247   2.713   7.308
 5618SOL     OW17437   3.402   2.136   5.711
 5618SOL    HW117438   3.341   2.061   5.734
 5618SOL    HW217439   3.424   2.188   5.794
 5619SOL     OW17440   3.165   2.700   5.628
 5619SOL    HW117441   3.199   2.607   5.643
 5619SOL    HW217442   3.183   2.727   5.533
 5620SOL     OW17443   2.930   3.195   6.435
 5620SOL    HW117444   2.937   3.111   6.380
 5620SOL    HW217445   2.992   3.264   6.399
 5621SOL     OW17446   2.181   2.672   6.535
 5621SOL    HW117447   2.274   2.708   6.540
 5621SOL    HW217448   2.175   2.587   6.587
 5622SOL     OW17449   2.201   2.371   6.592
 5622SOL    HW117450   2.149   2.288   6.575
 5622SOL    HW217451   2.278   2.376   6.528
 5623SOL     OW17452   3.000   2.242   7.264
 5623SOL    HW117453   2.955   2.305   7.328
 5623SOL    HW217454   3.093   2.273   7.247
 5624SOL     OW17455   3.022   2.069   7.063
 5624SOL    HW117456   3.022   2.133   7.140
 5624SOL    HW217457   3.050   2.117   6.980
 5625SOL     OW17458   1.870   3.188   5.786
 5625SOL    HW117459   1.777   3.209   5.755
 5625SOL    HW217460   1.880   3.089   5.799
 5626SOL     OW17461   1.950   3.663   6.513
 5626SOL    HW117462   1.908   3.577   6.486
 5626SOL    HW217463   2.044   3.666   6.479
 5627SOL     OW17464   2.366   3.430   6.496
 5627SOL    HW117465   2.432   3.504   6.505
 5627SOL    HW217466   2.410   3.351   6.454
 5628SOL     OW17467   2.864   2.658   6.824
 5628SOL    HW117468   2.905   2.626   6.910
 5628SOL    HW217469   2.768   2.631   6.821
 5629SOL     OW17470   3.231   2.812   7.246
 5629SOL    HW117471   3.270   2.901   7.266
 5629SOL    HW217472   3.241   2.792   7.149
 5630SOL     OW17473   2.677   2.434   5.911
 5630SOL    HW117474   2.684   2.345   5.865
 5630SOL    HW217475   2.583   2.468   5.903
 5631SOL     OW17476   3.519   2.466   6.792
 5631SOL    HW117477   3.481   2.397   6.854
 5631SOL    HW217478   3.601   2.430   6.748
 5632SOL     OW17479   2.114   3.426   7.330
 5632SOL    HW117480   2.084   3.483   7.406
 5632SOL    HW217481   2.107   3.329   7.356
 5633SOL     OW17482   2.792   3.540   7.051
 5633SOL    HW117483   2.768   3.522   6.956
 5633SOL    HW217484   2.822   3.634   7.061
 5634SOL     OW17485   2.335   2.362   5.777
 5634SOL    HW117486   2.396   2.442   5.781
 5634SOL    HW217487   2.240   2.393   5.784
 5635SOL     OW17488   2.021   2.999   7.052
 5635SOL    HW117489   2.043   2.938   7.128
 5635SOL    HW217490   2.031   2.950   6.966
 5636SOL     OW17491   3.209   2.921   6.820
 5636SOL    HW117492   3.233   2.858   6.746
 5636SOL    HW217493   3.119   2.961   6.802
 5637SOL     OW17494   3.164   2.717   5.895
 5637SOL    HW117495   3.078   2.686   5.937
 5637SOL    HW217496   3.160   2.703   5.796
 5638SOL     OW17497   3.621   3.609   6.740
 5638SOL    HW117498   3.682   3.639   6.667
 5638SOL    HW217499   3.583   3.520   6.718
 5639SOL     OW17500   3.114   3.593   6.714
 5639SOL    HW117501   3.198   3.598   6.660
 5639SOL    HW217502   3.091   3.497   6.732
 5640SOL     OW17503   1.945   3.120   6.608
 5640SOL    HW117504   1.940   3.119   6.708
 5640SOL    HW217505   1.862   3.079   6.570
 5641SOL     OW17506   2.550   3.524   7.302
 5641SOL    HW117507   2.494   3.605   7.311
 5641SOL    HW217508   2.602   3.528   7.216
 5642SOL     OW17509   3.588   1.997   6.109
 5642SOL    HW117510   3.661   1.980   6.042
 5642SOL    HW217511   3.557   1.910   6.147
 5643SOL     OW17512   3.250   3.435   6.063
 5643SOL    HW117513   3.317   3.447   5.989
 5643SOL    HW217514   3.210   3.524   6.086
 5644SOL     OW17515   1.992   3.656   7.437
 5644SOL    HW117516   1.951   3.582   7.490
 5644SOL    HW217517   2.056   3.707   7.495
 5645SOL     OW17518   3.142   2.789   6.258
 5645SOL    HW117519   3.202   2.708   6.260
 5645SOL    HW217520   3.182   2.858   6.198
 5646SOL     OW17521   2.692   3.135   7.008
 5646SOL    HW117522   2.687   3.168   7.103
 5646SOL    HW217523   2.606   3.154   6.962
 5647SOL     OW17524   2.534   3.478   5.740
 5647SOL    HW117525   2.543   3.488   5.641
 5647SOL    HW217526   2.494   3.389   5.761
 5648SOL     OW17527   3.512   3.582   6.980
 5648SOL    HW117528   3.565   3.592   6.896
 5648SOL    HW217529   3.485   3.672   7.014
 5649SOL     OW17530   3.703   2.037   6.549
 5649SOL    HW117531   3.742   1.952   6.513
 5649SOL    HW217532   3.605   2.039   6.530
 5650SOL     OW17533   3.056   3.474   5.617
 5650SOL    HW117534   3.062   3.381   5.654
 5650SOL    HW217535   2.997   3.474   5.537
 5651SOL     OW17536   2.684   2.864   6.958
 5651SOL    HW117537   2.724   2.863   6.866
 5651SOL    HW217538   2.694   2.956   6.998
 5652SOL     OW17539   2.778   2.772   5.877
 5652SOL    HW117540   2.841   2.810   5.809
 5652SOL    HW217541   2.818   2.689   5.916
 5653SOL     OW17542   3.366   3.469   5.630
 5653SOL    HW117543   3.274   3.506   5.637
 5653SOL    HW217544   3.404   3.489   5.540
 5654SOL     OW17545   2.234   3.150   7.076
 5654SOL    HW117546   2.221   3.243   7.042
 5654SOL    HW217547   2.150   3.098   7.063
 5655SOL     OW17548   3.476   3.154   6.875
 5655SOL    HW117549   3.536   3.157   6.955
 5655SOL    HW217550   3.401   3.218   6.888
 5656SOL     OW17551   2.901   2.960   6.282
 5656SOL    HW117552   2.831   2.913   6.336
 5656SOL    HW217553   2.960   2.892   6.239
 5657SOL     OW17554   2.876   2.098   6.557
 5657SOL    HW117555   2.868   2.062   6.464
 5657SOL    HW217556   2.874   2.022   6.622
 5658SOL     OW17557   2.452   3.349   6.077
 5658SOL    HW117558   2.494   3.291   6.007
 5658SOL    HW217559   2.408   3.428   6.033
 5659SOL     OW17560   3.571   2.247   6.967
 5659SOL    HW117561   3.644   2.316   6.971
 5659SOL    HW217562   3.599   2.172   6.908
 5660SOL     OW17563   2.117   3.210   5.876
 5660SOL    HW117564   2.021   3.211   5.849
 5660SOL    HW217565   2.129   3.263   5.960
 5661SOL     OW17566   1.967   2.875   7.312
 5661SOL    HW117567   1.890   2.842   7.366
 5661SOL    HW217568   2.052   2.845   7.354
 5662SOL     OW17569   3.302   2.718   6.984
 5662SOL    HW117570   3.245   2.770   6.921
 5662SOL    HW217571   3.398   2.730   6.960
 5663SOL     OW17572   3.045   3.197   5.705
 5663SOL    HW117573   2.946   3.186   5.707
 5663SOL    HW217574   3.079   3.212   5.798
 5664SOL     OW17575   3.355   3.629   6.545
 5664SOL    HW117576   3.388   3.693   6.476
 5664SOL    HW217577   3.421   3.623   6.620
 5665SOL     OW17578   3.312   3.082   7.219
 5665SOL    HW117579   3.303   3.072   7.318
 5665SOL    HW217580   3.408   3.075   7.193
 5666SOL     OW17581   2.252   3.603   7.146
 5666SOL    HW117582   2.161   3.644   7.144
 5666SOL    HW217583   2.245   3.509   7.178
 5667SOL     OW17584   3.536   2.745   6.840
 5667SOL    HW117585   3.509   2.656   6.803
 5667SOL    HW217586   3.537   2.813   6.767
 5668SOL     OW17587   3.087   2.187   6.035
 5668SOL    HW117588   3.152   2.113   6.024
 5668SOL    HW217589   3.107   2.237   6.119
 5669SOL     OW17590   2.456   2.607   6.238
 5669SOL    HW117591   2.506   2.692   6.219
 5669SOL    HW217592   2.368   2.609   6.190
 5670SOL     OW17593   3.639   2.204   7.228
 5670SOL    HW117594   3.622   2.235   7.134
 5670SOL    HW217595   3.555   2.167   7.266
 5671SOL     OW17596   3.592   2.796   7.103
 5671SOL    HW117597   3.630   2.887   7.118
 5671SOL    HW217598   3.584   2.779   7.004
 5672SOL     OW17599   2.721   3.236   5.602
 5672SOL    HW117600   2.675   3.251   5.690
 5672SOL    HW217601   2.765   3.321   5.572
 5673SOL     OW17602   2.523   3.652   6.539
 5673SOL    HW117603   2.477   3.740   6.526
 5673SOL    HW217604   2.622   3.664   6.532
 5674SOL     OW17605   2.721   2.818   6.447
 5674SOL    HW117606   2.775   2.749   6.495
 5674SOL    HW217607   2.689   2.887   6.513
 5675SOL     OW17608   2.945   2.846   5.673
 5675SOL    HW117609   2.922   2.899   5.591
 5675SOL    HW217610   3.026   2.790   5.654
 5676SOL     OW17611   3.723   3.431   6.437
 5676SOL    HW117612   3.652   3.419   6.367
 5676SOL    HW217613   3.724   3.352   6.497
 5677SOL     OW17614   2.083   3.176   7.430
 5677SOL    HW117615   2.018   3.103   7.409
 5677SOL    HW217616   2.087   3.190   7.528
 5678SOL     OW17617   1.941   3.102   6.239
 5678SOL    HW117618   1.940   3.055   6.327
 5678SOL    HW217619   2.023   3.074   6.188
 5679SOL     OW17620   2.534   3.253   7.210
 5679SOL    HW117621   2.456   3.203   7.248
 5679SOL    HW217622   2.531   3.348   7.241
 5680SOL     OW17623   3.686   2.054   6.813
 5680SOL    HW117624   3.682   1.964   6.857
 5680SOL    HW217625   3.689   2.043   6.714
 5681SOL     OW17626   2.290   2.286   6.106
 5681SOL    HW117627   2.320   2.214   6.044
 5681SOL    HW217628   2.251   2.246   6.189
 5682SOL     OW17629   3.567   3.349   6.690
 5682SOL    HW117630   3.474   3.324   6.663
 5682SOL    HW217631   3.593   3.299   6.772
 5683SOL     OW17632   2.674   3.448   6.273
 5683SOL    HW117633   2.706   3.458   6.179
 5683SOL    HW217634   2.595   3.386   6.275
 5684SOL     OW17635   3.286   2.076   6.698
 5684SOL    HW117636   3.338   2.011   6.753
 5684SOL    HW217637   3.237   2.139   6.759
 5685SOL     OW17638   2.632   3.192   5.887
 5685SOL    HW117639   2.586   3.105   5.904
 5685SOL    HW217640   2.723   3.189   5.928
 5686SOL     OW17641   2.480   3.429   6.870
 5686SOL    HW117642   2.475   3.511   6.927
 5686SOL    HW217643   2.569   3.426   6.825
 5687SOL     OW17644   3.214   1.914   5.754
 5687SOL    HW117645   3.249   1.873   5.670
 5687SOL    HW217646   3.124   1.876   5.774
 5688SOL     OW17647   3.162   2.315   6.277
 5688SOL    HW117648   3.103   2.395   6.281
 5688SOL    HW217649   3.177   2.280   6.370
 5689SOL     OW17650   3.455   2.083   6.468
 5689SOL    HW117651   3.371   2.082   6.522
 5689SOL    HW217652   3.457   2.166   6.412
 5690SOL     OW17653   1.901   2.939   5.886
 5690SOL    HW117654   2.000   2.928   5.877
 5690SOL    HW217655   1.861   2.853   5.918
 5691SOL     OW17656   2.737   3.508   5.923
 5691SOL    HW117657   2.660   3.473   5.869
 5691SOL    HW217658   2.705   3.579   5.985
 5692SOL     OW17659   2.092   2.490   7.561
 5692SOL    HW117660   1.999   2.488   7.598
 5692SOL    HW217661   2.093   2.451   7.469
 5693SOL     OW17662   2.431   3.137   8.613
 5693SOL    HW117663   2.338   3.130   8.576
 5693SOL    HW217664   2.442   3.226   8.657
 5694SOL     OW17665   3.417   3.373   8.151
 5694SOL    HW117666   3.360   3.357   8.232
 5694SOL    HW217667   3.358   3.383   8.071
 5695SOL     OW17668   2.997   2.565   8.165
 5695SOL    HW117669   3.054   2.643   8.140
 5695SOL    HW217670   2.937   2.591   8.241
 5696SOL     OW17671   3.617   2.469   7.679
 5696SOL    HW117672   3.605   2.456   7.580
 5696SOL    HW217673   3.587   2.388   7.728
 5697SOL     OW17674   2.630   3.006   8.471
 5697SOL    HW117675   2.552   3.023   8.531
 5697SOL    HW217676   2.664   3.093   8.435
 5698SOL     OW17677   2.712   2.660   9.271
 5698SOL    HW117678   2.708   2.736   9.336
 5698SOL    HW217679   2.734   2.696   9.180
 5699SOL     OW17680   2.547   2.874   8.113
 5699SOL    HW117681   2.616   2.858   8.183
 5699SOL    HW217682   2.474   2.931   8.151
 5700SOL     OW17683   2.548   3.023   9.251
 5700SOL    HW117684   2.608   3.102   9.265
 5700SOL    HW217685   2.462   3.054   9.210
 5701SOL     OW17686   2.197   3.297   8.509
 5701SOL    HW117687   2.119   3.266   8.456
 5701SOL    HW217688   2.255   3.355   8.452
 5702SOL     OW17689   3.322   3.367   8.787
 5702SOL    HW117690   3.346   3.461   8.813
 5702SOL    HW217691   3.306   3.313   8.869
 5703SOL     OW17692   2.300   2.254   8.947
 5703SOL    HW117693   2.382   2.198   8.956
 5703SOL    HW217694   2.219   2.196   8.951
 5704SOL     OW17695   3.465   2.309   8.185
 5704SOL    HW117696   3.391   2.355   8.135
 5704SOL    HW217697   3.516   2.377   8.238
 5705SOL     OW17698   2.093   3.575   7.931
 5705SOL    HW117699   2.127   3.652   7.985
 5705SOL    HW217700   2.137   3.575   7.841
 5706SOL     OW17701   2.989   3.203   9.138
 5706SOL    HW117702   3.036   3.203   9.226
 5706SOL    HW217703   2.941   3.116   9.127
 5707SOL     OW17704   2.092   3.296   7.986
 5707SOL    HW117705   2.066   3.392   7.986
 5707SOL    HW217706   2.021   3.242   8.031
 5708SOL     OW17707   2.102   2.953   8.334
 5708SOL    HW117708   2.116   2.869   8.386
 5708SOL    HW217709   2.047   3.017   8.389
 5709SOL     OW17710   2.482   3.648   8.887
 5709SOL    HW117711   2.390   3.631   8.922
 5709SOL    HW217712   2.510   3.740   8.913
 5710SOL     OW17713   2.468   2.826   7.571
 5710SOL    HW117714   2.475   2.910   7.517
 5710SOL    HW217715   2.514   2.839   7.659
 5711SOL     OW17716   3.456   1.976   8.928
 5711SOL    HW117717   3.438   2.043   8.856
 5711SOL    HW217718   3.453   2.022   9.017
 5712SOL     OW17719   1.984   2.505   8.011
 5712SOL    HW117720   1.939   2.417   8.028
 5712SOL    HW217721   1.983   2.559   8.095
 5713SOL     OW17722   3.704   3.629   7.807
 5713SOL    HW117723   3.758   3.600   7.887
 5713SOL    HW217724   3.734   3.719   7.778
 5714SOL     OW17725   1.889   3.458   7.565
 5714SOL    HW117726   1.870   3.362   7.586
 5714SOL    HW217727   1.856   3.516   7.640
 5715SOL     OW17728   3.551   2.784   8.060
 5715SOL    HW117729   3.646   2.755   8.068
 5715SOL    HW217730   3.543   2.849   7.985
 5716SOL     OW17731   3.503   2.970   7.880
 5716SOL    HW117732   3.589   2.972   7.828
 5716SOL    HW217733   3.517   3.017   7.968
 5717SOL     OW17734   1.975   2.599   9.045
 5717SOL    HW117735   2.063   2.586   9.090
 5717SOL    HW217736   1.962   2.696   9.023
 5718SOL     OW17737   2.475   3.227   8.174
 5718SOL    HW117738   2.426   3.140   8.183
 5718SOL    HW217739   2.452   3.270   8.087
 5719SOL     OW17740   3.155   3.090   8.871
 5719SOL    HW117741   3.192   3.017   8.813
 5719SOL    HW217742   3.207   3.095   8.956
 5720SOL     OW17743   2.671   1.866   7.950
 5720SOL    HW117744   2.711   1.957   7.941
 5720SOL    HW217745   2.571   1.874   7.956
 5721SOL     OW17746   2.059   2.838   8.712
 5721SOL    HW117747   2.148   2.793   8.698
 5721SOL    HW217748   1.986   2.773   8.693
 5722SOL     OW17749   3.387   2.861   7.638
 5722SOL    HW117750   3.324   2.785   7.651
 5722SOL    HW217751   3.435   2.879   7.724
 5723SOL     OW17752   3.049   3.654   9.064
 5723SOL    HW117753   3.073   3.714   8.988
 5723SOL    HW217754   3.056   3.559   9.034
 5724SOL     OW17755   3.328   3.279   8.401
 5724SOL    HW117756   3.269   3.285   8.481
 5724SOL    HW217757   3.313   3.191   8.355
 5725SOL     OW17758   3.529   3.576   8.020
 5725SOL    HW117759   3.488   3.553   7.932
 5725SOL    HW217760   3.511   3.502   8.085
 5726SOL     OW17761   2.460   2.591   7.718
 5726SOL    HW117762   2.484   2.660   7.650
 5726SOL    HW217763   2.382   2.624   7.772
 5727SOL     OW17764   3.143   2.207   8.392
 5727SOL    HW117765   3.057   2.157   8.379
 5727SOL    HW217766   3.205   2.153   8.448
 5728SOL     OW17767   3.438   3.524   7.755
 5728SOL    HW117768   3.527   3.570   7.758
 5728SOL    HW217769   3.417   3.500   7.660
 5729SOL     OW17770   2.669   2.467   8.913
 5729SOL    HW117771   2.622   2.464   9.002
 5729SOL    HW217772   2.618   2.412   8.847
 5730SOL     OW17773   3.256   2.331   9.122
 5730SOL    HW117774   3.236   2.374   9.210
 5730SOL    HW217775   3.334   2.269   9.131
 5731SOL     OW17776   2.835   2.752   9.020
 5731SOL    HW117777   2.881   2.668   8.991
 5731SOL    HW217778   2.779   2.786   8.945
 5732SOL     OW17779   2.853   2.272   8.690
 5732SOL    HW117780   2.776   2.306   8.744
 5732SOL    HW217781   2.819   2.221   8.611
 5733SOL     OW17782   2.903   2.563   7.877
 5733SOL    HW117783   2.929   2.559   7.973
 5733SOL    HW217784   2.818   2.512   7.863
 5734SOL     OW17785   1.938   2.673   8.237
 5734SOL    HW117786   2.037   2.661   8.246
 5734SOL    HW217787   1.914   2.768   8.258
 5735SOL     OW17788   1.992   3.683   9.019
 5735SOL    HW117789   1.982   3.668   9.118
 5735SOL    HW217790   1.906   3.719   8.983
 5736SOL     OW17791   2.727   2.210   7.643
 5736SOL    HW117792   2.786   2.273   7.594
 5736SOL    HW217793   2.746   2.116   7.614
 5737SOL     OW17794   3.581   2.447   9.279
 5737SOL    HW117795   3.555   2.536   9.243
 5737SOL    HW217796   3.579   2.379   9.206
 5738SOL     OW17797   3.224   3.006   7.993
 5738SOL    HW117798   3.307   2.977   7.945
 5738SOL    HW217799   3.175   3.073   7.937
 5739SOL     OW17800   2.412   2.058   8.333
 5739SOL    HW117801   2.407   2.053   8.433
 5739SOL    HW217802   2.414   2.154   8.304
 5740SOL     OW17803   2.870   3.318   7.925
 5740SOL    HW117804   2.824   3.390   7.873
 5740SOL    HW217805   2.866   3.338   8.023
 5741SOL     OW17806   2.213   3.663   8.301
 5741SOL    HW117807   2.263   3.577   8.307
 5741SOL    HW217808   2.278   3.740   8.298
 5742SOL     OW17809   3.657   2.928   8.321
 5742SOL    HW117810   3.595   2.913   8.245
 5742SOL    HW217811   3.605   2.939   8.406
 5743SOL     OW17812   3.089   3.412   8.954
 5743SOL    HW117813   3.095   3.335   9.018
 5743SOL    HW217814   3.037   3.386   8.874
 5744SOL     OW17815   2.183   2.805   7.690
 5744SOL    HW117816   2.265   2.844   7.648
 5744SOL    HW217817   2.156   2.723   7.641
 5745SOL     OW17818   3.320   2.597   8.176
 5745SOL    HW117819   3.315   2.532   8.251
 5745SOL    HW217820   3.400   2.656   8.189
 5746SOL     OW17821   2.323   3.128   9.175
 5746SOL    HW117822   2.273   3.129   9.089
 5746SOL    HW217823   2.260   3.110   9.251
 5747SOL     OW17824   2.973   3.638   7.685
 5747SOL    HW117825   2.913   3.576   7.735
 5747SOL    HW217826   3.004   3.594   7.600
 5748SOL     OW17827   3.494   3.239   7.529
 5748SOL    HW117828   3.462   3.333   7.519
 5748SOL    HW217829   3.418   3.176   7.517
 5749SOL     OW17830   2.326   3.605   7.771
 5749SOL    HW117831   2.359   3.644   7.857
 5749SOL    HW217832   2.402   3.598   7.706
 5750SOL     OW17833   3.262   1.969   7.874
 5750SOL    HW117834   3.238   1.932   7.784
 5750SOL    HW217835   3.361   1.985   7.878
 5751SOL     OW17836   2.111   3.647   8.689
 5751SOL    HW117837   2.168   3.582   8.739
 5751SOL    HW217838   2.095   3.614   8.596
 5752SOL     OW17839   2.802   3.560   8.352
 5752SOL    HW117840   2.882   3.503   8.373
 5752SOL    HW217841   2.753   3.520   8.275
 5753SOL     OW17842   2.244   2.562   7.928
 5753SOL    HW117843   2.289   2.472   7.925
 5753SOL    HW217844   2.150   2.551   7.961
 5754SOL     OW17845   3.409   2.084   9.177
 5754SOL    HW117846   3.404   2.121   9.269
 5754SOL    HW217847   3.337   2.015   9.165
 5755SOL     OW17848   2.476   1.984   7.565
 5755SOL    HW117849   2.574   1.962   7.572
 5755SOL    HW217850   2.445   1.967   7.472
 5756SOL     OW17851   2.643   2.126   9.197
 5756SOL    HW117852   2.710   2.065   9.240
 5756SOL    HW217853   2.570   2.145   9.262
 5757SOL     OW17854   2.750   3.376   8.643
 5757SOL    HW117855   2.727   3.351   8.549
 5757SOL    HW217856   2.811   3.307   8.682
 5758SOL     OW17857   3.213   2.452   8.881
 5758SOL    HW117858   3.241   2.409   8.966
 5758SOL    HW217859   3.238   2.548   8.882
 5759SOL     OW17860   2.665   3.264   8.372
 5759SOL    HW117861   2.755   3.278   8.330
 5759SOL    HW217862   2.594   3.266   8.301
 5760SOL     OW17863   2.784   2.365   8.347
 5760SOL    HW117864   2.759   2.356   8.251
 5760SOL    HW217865   2.832   2.283   8.378
 5761SOL     OW17866   2.401   1.926   7.960
 5761SOL    HW117867   2.320   1.927   8.018
 5761SOL    HW217868   2.404   2.009   7.905
 5762SOL     OW17869   3.296   3.050   7.489
 5762SOL    HW117870   3.328   2.974   7.546
 5762SOL    HW217871   3.204   3.077   7.519
 5763SOL     OW17872   2.797   2.098   7.928
 5763SOL    HW117873   2.749   2.139   7.850
 5763SOL    HW217874   2.896   2.096   7.909
 5764SOL     OW17875   2.938   2.545   8.912
 5764SOL    HW117876   2.858   2.484   8.915
 5764SOL    HW217877   3.019   2.492   8.888
 5765SOL     OW17878   3.089   3.432   8.241
 5765SOL    HW117879   3.110   3.506   8.176
 5765SOL    HW217880   3.157   3.432   8.314
 5766SOL     OW17881   2.321   3.014   8.189
 5766SOL    HW117882   2.250   2.987   8.254
 5766SOL    HW217883   2.295   2.986   8.096
 5767SOL     OW17884   3.133   3.659   8.039
 5767SOL    HW117885   3.177   3.723   7.975
 5767SOL    HW217886   3.083   3.711   8.109
 5768SOL     OW17887   2.894   2.411   7.464
 5768SOL    HW117888   2.853   2.493   7.425
 5768SOL    HW217889   2.958   2.437   7.537
 5769SOL     OW17890   1.940   2.418   8.834
 5769SOL    HW117891   2.032   2.417   8.793
 5769SOL    HW217892   1.934   2.492   8.901
 5770SOL     OW17893   2.423   2.084   8.595
 5770SOL    HW117894   2.461   2.000   8.632
 5770SOL    HW217895   2.335   2.103   8.639
 5771SOL     OW17896   2.728   2.316   8.090
 5771SOL    HW117897   2.696   2.388   8.028
 5771SOL    HW217898   2.752   2.235   8.037
 5772SOL     OW17899   2.879   1.901   8.201
 5772SOL    HW117900   2.807   1.906   8.132
 5772SOL    HW217901   2.855   1.832   8.270
 5773SOL     OW17902   3.291   3.035   8.315
 5773SOL    HW117903   3.236   2.951   8.308
 5773SOL    HW217904   3.317   3.064   8.223
 5774SOL     OW17905   3.328   2.452   8.440
 5774SOL    HW117906   3.298   2.357   8.447
 5774SOL    HW217907   3.401   2.468   8.506
 5775SOL     OW17908   3.719   2.695   7.825
 5775SOL    HW117909   3.761   2.631   7.889
 5775SOL    HW217910   3.681   2.644   7.747
 5776SOL     OW17911   2.350   3.247   7.622
 5776SOL    HW117912   2.263   3.232   7.669
 5776SOL    HW217913   2.333   3.273   7.527
 5777SOL     OW17914   3.526   3.142   8.105
 5777SOL    HW117915   3.625   3.150   8.119
 5777SOL    HW217916   3.481   3.226   8.136
 5778SOL     OW17917   3.252   2.437   7.526
 5778SOL    HW117918   3.198   2.416   7.607
 5778SOL    HW217919   3.343   2.396   7.535
 5779SOL     OW17920   2.389   2.118   7.776
 5779SOL    HW117921   2.416   2.059   7.701
 5779SOL    HW217922   2.389   2.213   7.745
 5780SOL     OW17923   3.616   3.085   9.036
 5780SOL    HW117924   3.707   3.046   9.023
 5780SOL    HW217925   3.624   3.181   9.060
 5781SOL     OW17926   2.926   3.209   8.788
 5781SOL    HW117927   2.846   3.186   8.843
 5781SOL    HW217928   3.009   3.183   8.837
 5782SOL     OW17929   3.454   3.491   9.073
 5782SOL    HW117930   3.481   3.525   8.983
 5782SOL    HW217931   3.533   3.453   9.119
 5783SOL     OW17932   2.973   3.057   8.548
 5783SOL    HW117933   2.933   3.101   8.629
 5783SOL    HW217934   2.932   3.094   8.465
 5784SOL     OW17935   3.500   2.961   8.527
 5784SOL    HW117936   3.505   3.042   8.586
 5784SOL    HW217937   3.414   2.963   8.476
 5785SOL     OW17938   2.777   1.951   8.850
 5785SOL    HW117939   2.802   1.931   8.755
 5785SOL    HW217940   2.849   2.007   8.892
 5786SOL     OW17941   2.842   2.978   9.167
 5786SOL    HW117942   2.743   2.984   9.177
 5786SOL    HW217943   2.865   2.898   9.111
 5787SOL     OW17944   2.567   2.912   7.816
 5787SOL    HW117945   2.553   2.919   7.915
 5787SOL    HW217946   2.651   2.861   7.798
 5788SOL     OW17947   2.272   2.675   8.699
 5788SOL    HW117948   2.358   2.687   8.749
 5788SOL    HW217949   2.230   2.588   8.726
 5789SOL     OW17950   3.136   2.248   8.710
 5789SOL    HW117951   3.157   2.322   8.774
 5789SOL    HW217952   3.047   2.265   8.667
 5790SOL     OW17953   1.926   3.426   8.779
 5790SOL    HW117954   1.880   3.508   8.745
 5790SOL    HW217955   2.024   3.445   8.788
 5791SOL     OW17956   2.229   2.962   7.949
 5791SOL    HW117957   2.222   3.045   7.893
 5791SOL    HW217958   2.233   2.882   7.889
 5792SOL     OW17959   2.428   2.399   8.313
 5792SOL    HW117960   2.440   2.465   8.239
 5792SOL    HW217961   2.474   2.433   8.396
 5793SOL     OW17962   3.114   3.210   7.836
 5793SOL    HW117963   3.164   3.287   7.876
 5793SOL    HW217964   3.019   3.212   7.868
 5794SOL     OW17965   3.134   3.307   8.590
 5794SOL    HW117966   3.181   3.320   8.677
 5794SOL    HW217967   3.068   3.233   8.599
 5795SOL     OW17968   3.444   2.501   7.920
 5795SOL    HW117969   3.413   2.562   7.993
 5795SOL    HW217970   3.494   2.553   7.851
 5796SOL     OW17971   2.216   3.372   8.777
 5796SOL    HW117972   2.195   3.328   8.690
 5796SOL    HW217973   2.313   3.398   8.780
 5797SOL     OW17974   2.264   2.613   9.046
 5797SOL    HW117975   2.332   2.668   8.999
 5797SOL    HW217976   2.304   2.525   9.073
 5798SOL     OW17977   3.449   2.641   9.118
 5798SOL    HW117978   3.357   2.679   9.113
 5798SOL    HW217979   3.509   2.688   9.053
 5799SOL     OW17980   2.875   1.967   9.218
 5799SOL    HW117981   2.881   2.052   9.166
 5799SOL    HW217982   2.907   1.891   9.161
 5800SOL     OW17983   2.366   1.912   9.188
 5800SOL    HW117984   2.324   1.855   9.118
 5800SOL    HW217985   2.300   1.981   9.220
 5801SOL     OW17986   2.435   2.732   8.477
 5801SOL    HW117987   2.479   2.821   8.468
 5801SOL    HW217988   2.372   2.732   8.554
 5802SOL     OW17989   3.222   2.724   8.493
 5802SOL    HW117990   3.147   2.724   8.427
 5802SOL    HW217991   3.259   2.632   8.502
 5803SOL     OW17992   3.071   2.387   7.723
 5803SOL    HW117993   3.084   2.303   7.777
 5803SOL    HW217994   3.042   2.461   7.783
 5804SOL     OW17995   1.899   3.172   8.730
 5804SOL    HW117996   1.952   3.123   8.798
 5804SOL    HW217997   1.921   3.270   8.735
 5805SOL     OW17998   2.594   2.496   8.512
 5805SOL    HW117999   2.653   2.470   8.436
 5805SOL    HW218000   2.566   2.592   8.501
 5806SOL     OW18001   3.590   2.797   9.302
 5806SOL    HW118002   3.544   2.790   9.213
 5806SOL    HW218003   3.528   2.841   9.368
 5807SOL     OW18004   3.484   2.229   7.822
 5807SOL    HW118005   3.486   2.153   7.886
 5807SOL    HW218006   3.436   2.306   7.862
 5808SOL     OW18007   2.885   2.628   8.414
 5808SOL    HW118008   2.900   2.649   8.510
 5808SOL    HW218009   2.855   2.533   8.405
 5809SOL     OW18010   2.842   3.435   9.148
 5809SOL    HW118011   2.822   3.479   9.060
 5809SOL    HW218012   2.881   3.344   9.132
 5810SOL     OW18013   3.721   3.380   9.053
 5810SOL    HW118014   3.735   3.407   8.958
 5810SOL    HW218015   3.804   3.402   9.106
 5811SOL     OW18016   2.212   2.760   9.252
 5811SOL    HW118017   2.288   2.804   9.300
 5811SOL    HW218018   2.247   2.713   9.170
 5812SOL     OW18019   3.402   2.136   7.573
 5812SOL    HW118020   3.341   2.061   7.596
 5812SOL    HW218021   3.424   2.188   7.656
 5813SOL     OW18022   3.165   2.700   7.490
 5813SOL    HW118023   3.199   2.607   7.505
 5813SOL    HW218024   3.183   2.727   7.395
 5814SOL     OW18025   2.930   3.195   8.297
 5814SOL    HW118026   2.937   3.111   8.242
 5814SOL    HW218027   2.992   3.264   8.261
 5815SOL     OW18028   2.181   2.672   8.397
 5815SOL    HW118029   2.274   2.708   8.402
 5815SOL    HW218030   2.175   2.587   8.449
 5816SOL     OW18031   2.201   2.371   8.454
 5816SOL    HW118032   2.149   2.288   8.437
 5816SOL    HW218033   2.278   2.376   8.390
 5817SOL     OW18034   3.000   2.242   9.126
 5817SOL    HW118035   2.955   2.305   9.190
 5817SOL    HW218036   3.093   2.273   9.109
 5818SOL     OW18037   3.022   2.069   8.925
 5818SOL    HW118038   3.022   2.133   9.002
 5818SOL    HW218039   3.050   2.117   8.842
 5819SOL     OW18040   1.870   3.188   7.648
 5819SOL    HW118041   1.777   3.209   7.617
 5819SOL    HW218042   1.880   3.089   7.661
 5820SOL     OW18043   1.950   3.663   8.375
 5820SOL    HW118044   1.908   3.577   8.348
 5820SOL    HW218045   2.044   3.666   8.341
 5821SOL     OW18046   2.366   3.430   8.358
 5821SOL    HW118047   2.432   3.504   8.367
 5821SOL    HW218048   2.410   3.351   8.316
 5822SOL     OW18049   2.864   2.658   8.686
 5822SOL    HW118050   2.905   2.626   8.772
 5822SOL    HW218051   2.768   2.631   8.683
 5823SOL     OW18052   3.231   2.812   9.108
 5823SOL    HW118053   3.270   2.901   9.128
 5823SOL    HW218054   3.241   2.792   9.011
 5824SOL     OW18055   2.677   2.434   7.773
 5824SOL    HW118056   2.684   2.345   7.727
 5824SOL    HW218057   2.583   2.468   7.765
 5825SOL     OW18058   3.519   2.466   8.654
 5825SOL    HW118059   3.481   2.397   8.716
 5825SOL    HW218060   3.601   2.430   8.610
 5826SOL     OW18061   2.114   3.426   9.192
 5826SOL    HW118062   2.084   3.483   9.268
 5826SOL    HW218063   2.107   3.329   9.218
 5827SOL     OW18064   2.533   2.326   8.717
 5827SOL    HW118065   2.499   2.237   8.687
 5827SOL    HW218066   2.559   2.380   8.637
 5828SOL     OW18067   2.792   3.540   8.913
 5828SOL    HW118068   2.768   3.522   8.818
 5828SOL    HW218069   2.822   3.634   8.923
 5829SOL     OW18070   2.335   2.362   7.639
 5829SOL    HW118071   2.396   2.442   7.643
 5829SOL    HW218072   2.240   2.393   7.646
 5830SOL     OW18073   2.021   2.999   8.914
 5830SOL    HW118074   2.043   2.938   8.990
 5830SOL    HW218075   2.031   2.950   8.828
 5831SOL     OW18076   3.209   2.921   8.682
 5831SOL    HW118077   3.233   2.858   8.608
 5831SOL    HW218078   3.119   2.961   8.664
 5832SOL     OW18079   3.164   2.717   7.757
 5832SOL    HW118080   3.078   2.686   7.799
 5832SOL    HW218081   3.160   2.703   7.658
 5833SOL     OW18082   3.621   3.609   8.602
 5833SOL    HW118083   3.682   3.639   8.529
 5833SOL    HW218084   3.583   3.520   8.580
 5834SOL     OW18085   3.114   3.593   8.576
 5834SOL    HW118086   3.198   3.598   8.522
 5834SOL    HW218087   3.091   3.497   8.594
 5835SOL     OW18088   1.945   3.120   8.470
 5835SOL    HW118089   1.940   3.119   8.570
 5835SOL    HW218090   1.862   3.079   8.432
 5836SOL     OW18091   2.550   3.524   9.164
 5836SOL    HW118092   2.494   3.605   9.173
 5836SOL    HW218093   2.602   3.528   9.078
 5837SOL     OW18094   3.588   1.997   7.971
 5837SOL    HW118095   3.661   1.980   7.904
 5837SOL    HW218096   3.557   1.910   8.009
 5838SOL     OW18097   3.250   3.435   7.925
 5838SOL    HW118098   3.317   3.447   7.851
 5838SOL    HW218099   3.210   3.524   7.948
 5839SOL     OW18100   1.992   3.656   9.299
 5839SOL    HW118101   1.951   3.582   9.352
 5839SOL    HW218102   2.056   3.707   9.357
 5840SOL     OW18103   3.142   2.789   8.120
 5840SOL    HW118104   3.202   2.708   8.122
 5840SOL    HW218105   3.182   2.858   8.060
 5841SOL     OW18106   2.692   3.135   8.870
 5841SOL    HW118107   2.687   3.168   8.965
 5841SOL    HW218108   2.606   3.154   8.824
 5842SOL     OW18109   2.534   3.478   7.602
 5842SOL    HW118110   2.543   3.488   7.503
 5842SOL    HW218111   2.494   3.389   7.623
 5843SOL     OW18112   3.512   3.582   8.842
 5843SOL    HW118113   3.565   3.592   8.758
 5843SOL    HW218114   3.485   3.672   8.876
 5844SOL     OW18115   3.703   2.037   8.411
 5844SOL    HW118116   3.742   1.952   8.375
 5844SOL    HW218117   3.605   2.039   8.392
 5845SOL     OW18118   3.056   3.474   7.479
 5845SOL    HW118119   3.062   3.381   7.516
 5845SOL    HW218120   2.997   3.474   7.399
 5846SOL     OW18121   2.684   2.864   8.820
 5846SOL    HW118122   2.724   2.863   8.728
 5846SOL    HW218123   2.694   2.956   8.860
 5847SOL     OW18124   2.778   2.772   7.739
 5847SOL    HW118125   2.841   2.810   7.671
 5847SOL    HW218126   2.818   2.689   7.778
 5848SOL     OW18127   3.366   3.469   7.492
 5848SOL    HW118128   3.274   3.506   7.499
 5848SOL    HW218129   3.404   3.489   7.402
 5849SOL     OW18130   2.234   3.150   8.938
 5849SOL    HW118131   2.221   3.243   8.904
 5849SOL    HW218132   2.150   3.098   8.925
 5850SOL     OW18133   3.476   3.154   8.737
 5850SOL    HW118134   3.536   3.157   8.817
 5850SOL    HW218135   3.401   3.218   8.750
 5851SOL     OW18136   2.901   2.960   8.144
 5851SOL    HW118137   2.831   2.913   8.198
 5851SOL    HW218138   2.960   2.892   8.101
 5852SOL     OW18139   2.876   2.098   8.419
 5852SOL    HW118140   2.868   2.062   8.326
 5852SOL    HW218141   2.874   2.022   8.484
 5853SOL     OW18142   2.452   3.349   7.939
 5853SOL    HW118143   2.494   3.291   7.869
 5853SOL    HW218144   2.408   3.428   7.895
 5854SOL     OW18145   3.571   2.247   8.829
 5854SOL    HW118146   3.644   2.316   8.833
 5854SOL    HW218147   3.599   2.172   8.770
 5855SOL     OW18148   2.117   3.210   7.738
 5855SOL    HW118149   2.021   3.211   7.711
 5855SOL    HW218150   2.129   3.263   7.822
 5856SOL     OW18151   1.967   2.875   9.174
 5856SOL    HW118152   1.890   2.842   9.228
 5856SOL    HW218153   2.052   2.845   9.216
 5857SOL     OW18154   2.534   2.065   8.937
 5857SOL    HW118155   2.624   2.049   8.897
 5857SOL    HW218156   2.542   2.070   9.036
 5858SOL     OW18157   3.302   2.718   8.846
 5858SOL    HW118158   3.245   2.770   8.783
 5858SOL    HW218159   3.398   2.730   8.822
 5859SOL     OW18160   3.045   3.197   7.567
 5859SOL    HW118161   2.946   3.186   7.569
 5859SOL    HW218162   3.079   3.212   7.660
 5860SOL     OW18163   2.475   2.704   8.879
 5860SOL    HW118164   2.531   2.785   8.862
 5860SOL    HW218165   2.534   2.624   8.882
 5861SOL     OW18166   3.355   3.629   8.407
 5861SOL    HW118167   3.388   3.693   8.338
 5861SOL    HW218168   3.421   3.623   8.482
 5862SOL     OW18169   2.578   2.427   9.156
 5862SOL    HW118170   2.597   2.492   9.230
 5862SOL    HW218171   2.638   2.347   9.165
 5863SOL     OW18172   3.312   3.082   9.081
 5863SOL    HW118173   3.303   3.072   9.180
 5863SOL    HW218174   3.408   3.075   9.055
 5864SOL     OW18175   2.252   3.603   9.008
 5864SOL    HW118176   2.161   3.644   9.006
 5864SOL    HW218177   2.245   3.509   9.040
 5865SOL     OW18178   3.536   2.745   8.702
 5865SOL    HW118179   3.509   2.656   8.665
 5865SOL    HW218180   3.537   2.813   8.629
 5866SOL     OW18181   3.087   2.187   7.897
 5866SOL    HW118182   3.152   2.113   7.886
 5866SOL    HW218183   3.107   2.237   7.981
 5867SOL     OW18184   2.456   2.607   8.100
 5867SOL    HW118185   2.506   2.692   8.081
 5867SOL    HW218186   2.368   2.609   8.052
 5868SOL     OW18187   3.639   2.204   9.090
 5868SOL    HW118188   3.622   2.235   8.996
 5868SOL    HW218189   3.555   2.167   9.128
 5869SOL     OW18190   3.592   2.796   8.965
 5869SOL    HW118191   3.630   2.887   8.980
 5869SOL    HW218192   3.584   2.779   8.866
 5870SOL     OW18193   2.721   3.236   7.464
 5870SOL    HW118194   2.675   3.251   7.552
 5870SOL    HW218195   2.765   3.321   7.434
 5871SOL     OW18196   2.523   3.652   8.401
 5871SOL    HW118197   2.477   3.740   8.388
 5871SOL    HW218198   2.622   3.664   8.394
 5872SOL     OW18199   2.721   2.818   8.309
 5872SOL    HW118200   2.775   2.749   8.357
 5872SOL    HW218201   2.689   2.887   8.375
 5873SOL     OW18202   2.945   2.846   7.535
 5873SOL    HW118203   2.922   2.899   7.453
 5873SOL    HW218204   3.026   2.790   7.516
 5874SOL     OW18205   3.723   3.431   8.299
 5874SOL    HW118206   3.652   3.419   8.229
 5874SOL    HW218207   3.724   3.352   8.359
 5875SOL     OW18208   2.083   3.176   9.292
 5875SOL    HW118209   2.018   3.103   9.271
 5875SOL    HW218210   2.087   3.190   9.390
 5876SOL     OW18211   1.941   3.102   8.101
 5876SOL    HW118212   1.940   3.055   8.189
 5876SOL    HW218213   2.023   3.074   8.050
 5877SOL     OW18214   2.534   3.253   9.072
 5877SOL    HW118215   2.456   3.203   9.110
 5877SOL    HW218216   2.531   3.348   9.103
 5878SOL     OW18217   3.686   2.054   8.675
 5878SOL    HW118218   3.682   1.964   8.719
 5878SOL    HW218219   3.689   2.043   8.576
 5879SOL     OW18220   2.290   2.286   7.968
 5879SOL    HW118221   2.320   2.214   7.906
 5879SOL    HW218222   2.251   2.246   8.051
 5880SOL     OW18223   3.567   3.349   8.552
 5880SOL    HW118224   3.474   3.324   8.525
 5880SOL    HW218225   3.593   3.299   8.634
 5881SOL     OW18226   2.179   2.409   8.728
 5881SOL    HW118227   2.217   2.350   8.800
 5881SOL    HW218228   2.219   2.383   8.640
 5882SOL     OW18229   2.674   3.448   8.135
 5882SOL    HW118230   2.706   3.458   8.041
 5882SOL    HW218231   2.595   3.386   8.137
 5883SOL     OW18232   3.286   2.076   8.560
 5883SOL    HW118233   3.338   2.011   8.615
 5883SOL    HW218234   3.237   2.139   8.621
 5884SOL     OW18235   2.863   1.896   8.602
 5884SOL    HW118236   2.800   1.824   8.571
 5884SOL    HW218237   2.956   1.860   8.602
 5885SOL     OW18238   2.632   3.192   7.749
 5885SOL    HW118239   2.586   3.105   7.766
 5885SOL    HW218240   2.723   3.189   7.790
 5886SOL     OW18241   2.480   3.429   8.732
 5886SOL    HW118242   2.475   3.511   8.789
 5886SOL    HW218243   2.569   3.426   8.687
 5887SOL     OW18244   3.214   1.914   7.616
 5887SOL    HW118245   3.249   1.873   7.532
 5887SOL    HW218246   3.124   1.876   7.636
 5888SOL     OW18247   3.162   2.315   8.139
 5888SOL    HW118248   3.103   2.395   8.143
 5888SOL    HW218249   3.177   2.280   8.232
 5889SOL     OW18250   3.455   2.083   8.330
 5889SOL    HW118251   3.371   2.082   8.384
 5889SOL    HW218252   3.457   2.166   8.274
 5890SOL     OW18253   1.901   2.939   7.748
 5890SOL    HW118254   2.000   2.928   7.739
 5890SOL    HW218255   1.861   2.853   7.780
 5891SOL     OW18256   2.737   3.508   7.785
 5891SOL    HW118257   2.660   3.473   7.731
 5891SOL    HW218258   2.705   3.579   7.847
 5892SOL     OW18259   2.092   2.490   9.423
 5892SOL    HW118260   1.999   2.488   9.460
 5892SOL    HW218261   2.093   2.451   9.331
 5893SOL     OW18262   2.431   3.137  10.475
 5893SOL    HW118263   2.338   3.130  10.438
 5893SOL    HW218264   2.442   3.226  10.519
 5894SOL     OW18265   3.417   3.373  10.013
 5894SOL    HW118266   3.360   3.357  10.094
 5894SOL    HW218267   3.358   3.383   9.933
 5895SOL     OW18268   2.997   2.565  10.027
 5895SOL    HW118269   3.054   2.643  10.002
 5895SOL    HW218270   2.937   2.591  10.103
 5896SOL     OW18271   3.617   2.469   9.541
 5896SOL    HW118272   3.605   2.456   9.442
 5896SOL    HW218273   3.587   2.388   9.590
 5897SOL     OW18274   2.630   3.006  10.333
 5897SOL    HW118275   2.552   3.023  10.393
 5897SOL    HW218276   2.664   3.093  10.297
 5898SOL     OW18277   2.712   2.660  11.133
 5898SOL    HW118278   2.708   2.736  11.198
 5898SOL    HW218279   2.734   2.696  11.042
 5899SOL     OW18280   2.547   2.874   9.975
 5899SOL    HW118281   2.616   2.858  10.045
 5899SOL    HW218282   2.474   2.931  10.013
 5900SOL     OW18283   2.548   3.023  11.113
 5900SOL    HW118284   2.608   3.102  11.127
 5900SOL    HW218285   2.462   3.054  11.072
 5901SOL     OW18286   2.197   3.297  10.371
 5901SOL    HW118287   2.119   3.266  10.318
 5901SOL    HW218288   2.255   3.355  10.314
 5902SOL     OW18289   3.322   3.367  10.649
 5902SOL    HW118290   3.346   3.461  10.675
 5902SOL    HW218291   3.306   3.313  10.731
 5903SOL     OW18292   2.300   2.254  10.809
 5903SOL    HW118293   2.382   2.198  10.818
 5903SOL    HW218294   2.219   2.196  10.813
 5904SOL     OW18295   3.465   2.309  10.047
 5904SOL    HW118296   3.391   2.355   9.997
 5904SOL    HW218297   3.516   2.377  10.100
 5905SOL     OW18298   2.093   3.575   9.793
 5905SOL    HW118299   2.127   3.652   9.847
 5905SOL    HW218300   2.137   3.575   9.703
 5906SOL     OW18301   2.989   3.203  11.000
 5906SOL    HW118302   3.036   3.203  11.088
 5906SOL    HW218303   2.941   3.116  10.989
 5907SOL     OW18304   2.092   3.296   9.848
 5907SOL    HW118305   2.066   3.392   9.848
 5907SOL    HW218306   2.021   3.242   9.893
 5908SOL     OW18307   2.102   2.953  10.196
 5908SOL    HW118308   2.116   2.869  10.248
 5908SOL    HW218309   2.047   3.017  10.251
 5909SOL     OW18310   2.482   3.648  10.749
 5909SOL    HW118311   2.390   3.631  10.784
 5909SOL    HW218312   2.510   3.740  10.775
 5910SOL     OW18313   2.468   2.826   9.433
 5910SOL    HW118314   2.475   2.910   9.379
 5910SOL    HW218315   2.514   2.839   9.521
 5911SOL     OW18316   3.456   1.976  10.790
 5911SOL    HW118317   3.438   2.043  10.718
 5911SOL    HW218318   3.453   2.022  10.879
 5912SOL     OW18319   1.984   2.505   9.873
 5912SOL    HW118320   1.939   2.417   9.890
 5912SOL    HW218321   1.983   2.559   9.957
 5913SOL     OW18322   3.704   3.629   9.669
 5913SOL    HW118323   3.758   3.600   9.749
 5913SOL    HW218324   3.734   3.719   9.640
 5914SOL     OW18325   1.889   3.458   9.427
 5914SOL    HW118326   1.870   3.362   9.448
 5914SOL    HW218327   1.856   3.516   9.502
 5915SOL     OW18328   3.551   2.784   9.922
 5915SOL    HW118329   3.646   2.755   9.930
 5915SOL    HW218330   3.543   2.849   9.847
 5916SOL     OW18331   3.503   2.970   9.742
 5916SOL    HW118332   3.589   2.972   9.690
 5916SOL    HW218333   3.517   3.017   9.830
 5917SOL     OW18334   1.975   2.599  10.907
 5917SOL    HW118335   2.063   2.586  10.952
 5917SOL    HW218336   1.962   2.696  10.885
 5918SOL     OW18337   2.475   3.227  10.036
 5918SOL    HW118338   2.426   3.140  10.045
 5918SOL    HW218339   2.452   3.270   9.949
 5919SOL     OW18340   3.155   3.090  10.733
 5919SOL    HW118341   3.192   3.017  10.675
 5919SOL    HW218342   3.207   3.095  10.818
 5920SOL     OW18343   2.671   1.866   9.812
 5920SOL    HW118344   2.711   1.957   9.803
 5920SOL    HW218345   2.571   1.874   9.818
 5921SOL     OW18346   2.059   2.838  10.574
 5921SOL    HW118347   2.148   2.793  10.560
 5921SOL    HW218348   1.986   2.773  10.555
 5922SOL     OW18349   3.387   2.861   9.500
 5922SOL    HW118350   3.324   2.785   9.513
 5922SOL    HW218351   3.435   2.879   9.586
 5923SOL     OW18352   3.049   3.654  10.926
 5923SOL    HW118353   3.073   3.714  10.850
 5923SOL    HW218354   3.056   3.559  10.896
 5924SOL     OW18355   3.328   3.279  10.263
 5924SOL    HW118356   3.269   3.285  10.343
 5924SOL    HW218357   3.313   3.191  10.217
 5925SOL     OW18358   3.529   3.576   9.882
 5925SOL    HW118359   3.488   3.553   9.794
 5925SOL    HW218360   3.511   3.502   9.947
 5926SOL     OW18361   2.460   2.591   9.580
 5926SOL    HW118362   2.484   2.660   9.512
 5926SOL    HW218363   2.382   2.624   9.634
 5927SOL     OW18364   3.143   2.207  10.254
 5927SOL    HW118365   3.057   2.157  10.241
 5927SOL    HW218366   3.205   2.153  10.310
 5928SOL     OW18367   3.438   3.524   9.617
 5928SOL    HW118368   3.527   3.570   9.620
 5928SOL    HW218369   3.417   3.500   9.522
 5929SOL     OW18370   2.669   2.467  10.775
 5929SOL    HW118371   2.622   2.464  10.864
 5929SOL    HW218372   2.618   2.412  10.709
 5930SOL     OW18373   3.256   2.331  10.984
 5930SOL    HW118374   3.236   2.374  11.072
 5930SOL    HW218375   3.334   2.269  10.993
 5931SOL     OW18376   2.835   2.752  10.882
 5931SOL    HW118377   2.881   2.668  10.853
 5931SOL    HW218378   2.779   2.786  10.807
 5932SOL     OW18379   2.853   2.272  10.552
 5932SOL    HW118380   2.776   2.306  10.606
 5932SOL    HW218381   2.819   2.221  10.473
 5933SOL     OW18382   2.903   2.563   9.739
 5933SOL    HW118383   2.929   2.559   9.835
 5933SOL    HW218384   2.818   2.512   9.725
 5934SOL     OW18385   1.938   2.673  10.099
 5934SOL    HW118386   2.037   2.661  10.108
 5934SOL    HW218387   1.914   2.768  10.120
 5935SOL     OW18388   1.992   3.683  10.881
 5935SOL    HW118389   1.982   3.668  10.980
 5935SOL    HW218390   1.906   3.719  10.845
 5936SOL     OW18391   2.727   2.210   9.505
 5936SOL    HW118392   2.786   2.273   9.456
 5936SOL    HW218393   2.746   2.116   9.476
 5937SOL     OW18394   3.581   2.447  11.141
 5937SOL    HW118395   3.555   2.536  11.105
 5937SOL    HW218396   3.579   2.379  11.068
 5938SOL     OW18397   3.224   3.006   9.855
 5938SOL    HW118398   3.307   2.977   9.807
 5938SOL    HW218399   3.175   3.073   9.799
 5939SOL     OW18400   2.412   2.058  10.195
 5939SOL    HW118401   2.407   2.053  10.295
 5939SOL    HW218402   2.414   2.154  10.166
 5940SOL     OW18403   2.870   3.318   9.787
 5940SOL    HW118404   2.824   3.390   9.735
 5940SOL    HW218405   2.866   3.338   9.885
 5941SOL     OW18406   2.213   3.663  10.163
 5941SOL    HW118407   2.263   3.577  10.169
 5941SOL    HW218408   2.278   3.740  10.160
 5942SOL     OW18409   3.657   2.928  10.183
 5942SOL    HW118410   3.595   2.913  10.107
 5942SOL    HW218411   3.605   2.939  10.268
 5943SOL     OW18412   3.089   3.412  10.816
 5943SOL    HW118413   3.095   3.335  10.880
 5943SOL    HW218414   3.037   3.386  10.736
 5944SOL     OW18415   2.183   2.805   9.552
 5944SOL    HW118416   2.265   2.844   9.510
 5944SOL    HW218417   2.156   2.723   9.503
 5945SOL     OW18418   3.320   2.597  10.038
 5945SOL    HW118419   3.315   2.532  10.113
 5945SOL    HW218420   3.400   2.656  10.051
 5946SOL     OW18421   2.323   3.128  11.037
 5946SOL    HW118422   2.273   3.129  10.951
 5946SOL    HW218423   2.260   3.110  11.113
 5947SOL     OW18424   2.973   3.638   9.547
 5947SOL    HW118425   2.913   3.576   9.597
 5947SOL    HW218426   3.004   3.594   9.462
 5948SOL     OW18427   3.494   3.239   9.391
 5948SOL    HW118428   3.462   3.333   9.381
 5948SOL    HW218429   3.418   3.176   9.379
 5949SOL     OW18430   2.326   3.605   9.633
 5949SOL    HW118431   2.359   3.644   9.719
 5949SOL    HW218432   2.402   3.598   9.568
 5950SOL     OW18433   3.262   1.969   9.736
 5950SOL    HW118434   3.238   1.932   9.646
 5950SOL    HW218435   3.361   1.985   9.740
 5951SOL     OW18436   2.111   3.647  10.551
 5951SOL    HW118437   2.168   3.582  10.601
 5951SOL    HW218438   2.095   3.614  10.458
 5952SOL     OW18439   2.802   3.560  10.214
 5952SOL    HW118440   2.882   3.503  10.235
 5952SOL    HW218441   2.753   3.520  10.137
 5953SOL     OW18442   2.244   2.562   9.790
 5953SOL    HW118443   2.289   2.472   9.787
 5953SOL    HW218444   2.150   2.551   9.823
 5954SOL     OW18445   3.409   2.084  11.039
 5954SOL    HW118446   3.404   2.121  11.131
 5954SOL    HW218447   3.337   2.015  11.027
 5955SOL     OW18448   2.476   1.984   9.427
 5955SOL    HW118449   2.574   1.962   9.434
 5955SOL    HW218450   2.445   1.967   9.334
 5956SOL     OW18451   2.643   2.126  11.059
 5956SOL    HW118452   2.710   2.065  11.102
 5956SOL    HW218453   2.570   2.145  11.124
 5957SOL     OW18454   2.750   3.376  10.505
 5957SOL    HW118455   2.727   3.351  10.411
 5957SOL    HW218456   2.811   3.307  10.544
 5958SOL     OW18457   3.213   2.452  10.743
 5958SOL    HW118458   3.241   2.409  10.828
 5958SOL    HW218459   3.238   2.548  10.744
 5959SOL     OW18460   2.665   3.264  10.234
 5959SOL    HW118461   2.755   3.278  10.192
 5959SOL    HW218462   2.594   3.266  10.163
 5960SOL     OW18463   2.784   2.365  10.209
 5960SOL    HW118464   2.759   2.356  10.113
 5960SOL    HW218465   2.832   2.283  10.240
 5961SOL     OW18466   2.401   1.926   9.822
 5961SOL    HW118467   2.320   1.927   9.880
 5961SOL    HW218468   2.404   2.009   9.767
 5962SOL     OW18469   3.296   3.050   9.351
 5962SOL    HW118470   3.328   2.974   9.408
 5962SOL    HW218471   3.204   3.077   9.381
 5963SOL     OW18472   2.797   2.098   9.790
 5963SOL    HW118473   2.749   2.139   9.712
 5963SOL    HW218474   2.896   2.096   9.771
 5964SOL     OW18475   2.938   2.545  10.774
 5964SOL    HW118476   2.858   2.484  10.777
 5964SOL    HW218477   3.019   2.492  10.750
 5965SOL     OW18478   3.089   3.432  10.103
 5965SOL    HW118479   3.110   3.506  10.038
 5965SOL    HW218480   3.157   3.432  10.176
 5966SOL     OW18481   2.321   3.014  10.051
 5966SOL    HW118482   2.250   2.987  10.116
 5966SOL    HW218483   2.295   2.986   9.958
 5967SOL     OW18484   3.133   3.659   9.901
 5967SOL    HW118485   3.177   3.723   9.837
 5967SOL    HW218486   3.083   3.711   9.971
 5968SOL     OW18487   2.894   2.411   9.326
 5968SOL    HW118488   2.853   2.493   9.287
 5968SOL    HW218489   2.958   2.437   9.399
 5969SOL     OW18490   1.940   2.418  10.696
 5969SOL    HW118491   2.032   2.417  10.655
 5969SOL    HW218492   1.934   2.492  10.763
 5970SOL     OW18493   2.423   2.084  10.457
 5970SOL    HW118494   2.461   2.000  10.494
 5970SOL    HW218495   2.335   2.103  10.501
 5971SOL     OW18496   2.728   2.316   9.952
 5971SOL    HW118497   2.696   2.388   9.890
 5971SOL    HW218498   2.752   2.235   9.899
 5972SOL     OW18499   2.879   1.901  10.063
 5972SOL    HW118500   2.807   1.906   9.994
 5972SOL    HW218501   2.855   1.832  10.132
 5973SOL     OW18502   3.291   3.035  10.177
 5973SOL    HW118503   3.236   2.951  10.170
 5973SOL    HW218504   3.317   3.064  10.085
 5974SOL     OW18505   3.328   2.452  10.302
 5974SOL    HW118506   3.298   2.357  10.309
 5974SOL    HW218507   3.401   2.468  10.368
 5975SOL     OW18508   3.719   2.695   9.687
 5975SOL    HW118509   3.761   2.631   9.751
 5975SOL    HW218510   3.681   2.644   9.609
 5976SOL     OW18511   2.350   3.247   9.484
 5976SOL    HW118512   2.263   3.232   9.531
 5976SOL    HW218513   2.333   3.273   9.389
 5977SOL     OW18514   3.526   3.142   9.967
 5977SOL    HW118515   3.625   3.150   9.981
 5977SOL    HW218516   3.481   3.226   9.998
 5978SOL     OW18517   3.252   2.437   9.388
 5978SOL    HW118518   3.198   2.416   9.469
 5978SOL    HW218519   3.343   2.396   9.397
 5979SOL     OW18520   2.389   2.118   9.638
 5979SOL    HW118521   2.416   2.059   9.563
 5979SOL    HW218522   2.389   2.213   9.607
 5980SOL     OW18523   3.616   3.085  10.898
 5980SOL    HW118524   3.707   3.046  10.885
 5980SOL    HW218525   3.624   3.181  10.922
 5981SOL     OW18526   2.926   3.209  10.650
 5981SOL    HW118527   2.846   3.186  10.705
 5981SOL    HW218528   3.009   3.183  10.699
 5982SOL     OW18529   3.454   3.491  10.935
 5982SOL    HW118530   3.481   3.525  10.845
 5982SOL    HW218531   3.533   3.453  10.981
 5983SOL     OW18532   2.973   3.057  10.410
 5983SOL    HW118533   2.933   3.101  10.491
 5983SOL    HW218534   2.932   3.094  10.327
 5984SOL     OW18535   3.500   2.961  10.389
 5984SOL    HW118536   3.505   3.042  10.448
 5984SOL    HW218537   3.414   2.963  10.338
 5985SOL     OW18538   2.777   1.951  10.712
 5985SOL    HW118539   2.802   1.931  10.617
 5985SOL    HW218540   2.849   2.007  10.754
 5986SOL     OW18541   2.842   2.978  11.029
 5986SOL    HW118542   2.743   2.984  11.039
 5986SOL    HW218543   2.865   2.898  10.973
 5987SOL     OW18544   2.567   2.912   9.678
 5987SOL    HW118545   2.553   2.919   9.777
 5987SOL    HW218546   2.651   2.861   9.660
 5988SOL     OW18547   2.272   2.675  10.561
 5988SOL    HW118548   2.358   2.687  10.611
 5988SOL    HW218549   2.230   2.588  10.588
 5989SOL     OW18550   3.136   2.248  10.572
 5989SOL    HW118551   3.157   2.322  10.636
 5989SOL    HW218552   3.047   2.265  10.529
 5990SOL     OW18553   1.926   3.426  10.641
 5990SOL    HW118554   1.880   3.508  10.607
 5990SOL    HW218555   2.024   3.445  10.650
 5991SOL     OW18556   2.229   2.962   9.811
 5991SOL    HW118557   2.222   3.045   9.755
 5991SOL    HW218558   2.233   2.882   9.751
 5992SOL     OW18559   2.428   2.399  10.175
 5992SOL    HW118560   2.440   2.465  10.101
 5992SOL    HW218561   2.474   2.433  10.258
 5993SOL     OW18562   3.114   3.210   9.698
 5993SOL    HW118563   3.164   3.287   9.738
 5993SOL    HW218564   3.019   3.212   9.730
 5994SOL     OW18565   3.134   3.307  10.452
 5994SOL    HW118566   3.181   3.320  10.539
 5994SOL    HW218567   3.068   3.233  10.461
 5995SOL     OW18568   3.444   2.501   9.782
 5995SOL    HW118569   3.413   2.562   9.855
 5995SOL    HW218570   3.494   2.553   9.713
 5996SOL     OW18571   2.216   3.372  10.639
 5996SOL    HW118572   2.195   3.328  10.552
 5996SOL    HW218573   2.313   3.398  10.642
 5997SOL     OW18574   2.264   2.613  10.908
 5997SOL    HW118575   2.332   2.668  10.861
 5997SOL    HW218576   2.304   2.525  10.935
 5998SOL     OW18577   3.449   2.641  10.980
 5998SOL    HW118578   3.357   2.679  10.975
 5998SOL    HW218579   3.509   2.688  10.915
 5999SOL     OW18580   2.875   1.967  11.080
 5999SOL    HW118581   2.881   2.052  11.028
 5999SOL    HW218582   2.907   1.891  11.023
 6000SOL     OW18583   2.366   1.912  11.050
 6000SOL    HW118584   2.324   1.855  10.980
 6000SOL    HW218585   2.300   1.981  11.082
 6001SOL     OW18586   2.435   2.732  10.339
 6001SOL    HW118587   2.479   2.821  10.330
 6001SOL    HW218588   2.372   2.732  10.416
 6002SOL     OW18589   3.222   2.724  10.355
 6002SOL    HW118590   3.147   2.724  10.289
 6002SOL    HW218591   3.259   2.632  10.364
 6003SOL     OW18592   3.071   2.387   9.585
 6003SOL    HW118593   3.084   2.303   9.639
 6003SOL    HW218594   3.042   2.461   9.645
 6004SOL     OW18595   1.899   3.172  10.592
 6004SOL    HW118596   1.952   3.123  10.660
 6004SOL    HW218597   1.921   3.270  10.597
 6005SOL     OW18598   2.594   2.496  10.374
 6005SOL    HW118599   2.653   2.470  10.298
 6005SOL    HW218600   2.566   2.592  10.363
 6006SOL     OW18601   3.590   2.797  11.164
 6006SOL    HW118602   3.544   2.790  11.075
 6006SOL    HW218603   3.528   2.841  11.230
 6007SOL     OW18604   3.484   2.229   9.684
 6007SOL    HW118605   3.486   2.153   9.748
 6007SOL    HW218606   3.436   2.306   9.724
 6008SOL     OW18607   2.885   2.628  10.276
 6008SOL    HW118608   2.900   2.649  10.372
 6008SOL    HW218609   2.855   2.533  10.267
 6009SOL     OW18610   2.842   3.435  11.010
 6009SOL    HW118611   2.822   3.479  10.922
 6009SOL    HW218612   2.881   3.344  10.994
 6010SOL     OW18613   3.721   3.380  10.915
 6010SOL    HW118614   3.735   3.407  10.820
 6010SOL    HW218615   3.804   3.402  10.968
 6011SOL     OW18616   2.212   2.760  11.114
 6011SOL    HW118617   2.288   2.804  11.162
 6011SOL    HW218618   2.247   2.713  11.032
 6012SOL     OW18619   3.402   2.136   9.435
 6012SOL    HW118620   3.341   2.061   9.458
 6012SOL    HW218621   3.424   2.188   9.518
 6013SOL     OW18622   3.165   2.700   9.352
 6013SOL    HW118623   3.199   2.607   9.367
 6013SOL    HW218624   3.183   2.727   9.257
 6014SOL     OW18625   2.930   3.195  10.159
 6014SOL    HW118626   2.937   3.111  10.104
 6014SOL    HW218627   2.992   3.264  10.123
 6015SOL     OW18628   2.181   2.672  10.259
 6015SOL    HW118629   2.274   2.708  10.264
 6015SOL    HW218630   2.175   2.587  10.311
 6016SOL     OW18631   3.000   2.242  10.988
 6016SOL    HW118632   2.955   2.305  11.052
 6016SOL    HW218633   3.093   2.273  10.971
 6017SOL     OW18634   3.022   2.069  10.787
 6017SOL    HW118635   3.022   2.133  10.864
 6017SOL    HW218636   3.050   2.117  10.704
 6018SOL     OW18637   1.870   3.188   9.510
 6018SOL    HW118638   1.777   3.209   9.479
 6018SOL    HW218639   1.880   3.089   9.523
 6019SOL     OW18640   1.950   3.663  10.237
 6019SOL    HW118641   1.908   3.577  10.210
 6019SOL    HW218642   2.044   3.666  10.203
 6020SOL     OW18643   2.366   3.430  10.220
 6020SOL    HW118644   2.432   3.504  10.229
 6020SOL    HW218645   2.410   3.351  10.178
 6021SOL     OW18646   2.864   2.658  10.548
 6021SOL    HW118647   2.905   2.626  10.634
 6021SOL    HW218648   2.768   2.631  10.545
 6022SOL     OW18649   3.231   2.812  10.970
 6022SOL    HW118650   3.270   2.901  10.990
 6022SOL    HW218651   3.241   2.792  10.873
 6023SOL     OW18652   2.677   2.434   9.635
 6023SOL    HW118653   2.684   2.345   9.589
 6023SOL    HW218654   2.583   2.468   9.627
 6024SOL     OW18655   3.519   2.466  10.516
 6024SOL    HW118656   3.481   2.397  10.578
 6024SOL    HW218657   3.601   2.430  10.472
 6025SOL     OW18658   2.114   3.426  11.054
 6025SOL    HW118659   2.084   3.483  11.130
 6025SOL    HW218660   2.107   3.329  11.080
 6026SOL     OW18661   2.533   2.326  10.579
 6026SOL    HW118662   2.499   2.237  10.549
 6026SOL    HW218663   2.559   2.380  10.499
 6027SOL     OW18664   2.792   3.540  10.775
 6027SOL    HW118665   2.768   3.522  10.680
 6027SOL    HW218666   2.822   3.634  10.785
 6028SOL     OW18667   2.335   2.362   9.501
 6028SOL    HW118668   2.396   2.442   9.505
 6028SOL    HW218669   2.240   2.393   9.508
 6029SOL     OW18670   2.021   2.999  10.776
 6029SOL    HW118671   2.043   2.938  10.852
 6029SOL    HW218672   2.031   2.950  10.690
 6030SOL     OW18673   3.209   2.921  10.544
 6030SOL    HW118674   3.233   2.858  10.470
 6030SOL    HW218675   3.119   2.961  10.526
 6031SOL     OW18676   3.164   2.717   9.619
 6031SOL    HW118677   3.078   2.686   9.661
 6031SOL    HW218678   3.160   2.703   9.520
 6032SOL     OW18679   3.621   3.609  10.464
 6032SOL    HW118680   3.682   3.639  10.391
 6032SOL    HW218681   3.583   3.520  10.442
 6033SOL     OW18682   3.114   3.593  10.438
 6033SOL    HW118683   3.198   3.598  10.384
 6033SOL    HW218684   3.091   3.497  10.456
 6034SOL     OW18685   1.945   3.120  10.332
 6034SOL    HW118686   1.940   3.119  10.432
 6034SOL    HW218687   1.862   3.079  10.294
 6035SOL     OW18688   2.550   3.524  11.026
 6035SOL    HW118689   2.494   3.605  11.035
 6035SOL    HW218690   2.602   3.528  10.940
 6036SOL     OW18691   3.588   1.997   9.833
 6036SOL    HW118692   3.661   1.980   9.766
 6036SOL    HW218693   3.557   1.910   9.871
 6037SOL     OW18694   3.250   3.435   9.787
 6037SOL    HW118695   3.317   3.447   9.713
 6037SOL    HW218696   3.210   3.524   9.810
 6038SOL     OW18697   1.992   3.656  11.161
 6038SOL    HW118698   1.951   3.582  11.214
 6038SOL    HW218699   2.056   3.707  11.219
 6039SOL     OW18700   3.142   2.789   9.982
 6039SOL    HW118701   3.202   2.708   9.984
 6039SOL    HW218702   3.182   2.858   9.922
 6040SOL     OW18703   2.692   3.135  10.732
 6040SOL    HW118704   2.687   3.168  10.827
 6040SOL    HW218705   2.606   3.154  10.686
 6041SOL     OW18706   2.534   3.478   9.464
 6041SOL    HW118707   2.543   3.488   9.365
 6041SOL    HW218708   2.494   3.389   9.485
 6042SOL     OW18709   3.512   3.582  10.704
 6042SOL    HW118710   3.565   3.592  10.620
 6042SOL    HW218711   3.485   3.672  10.738
 6043SOL     OW18712   3.703   2.037  10.273
 6043SOL    HW118713   3.742   1.952  10.237
 6043SOL    HW218714   3.605   2.039  10.254
 6044SOL     OW18715   3.056   3.474   9.341
 6044SOL    HW118716   3.062   3.381   9.378
 6044SOL    HW218717   2.997   3.474   9.261
 6045SOL     OW18718   2.684   2.864  10.682
 6045SOL    HW118719   2.724   2.863  10.590
 6045SOL    HW218720   2.694   2.956  10.722
 6046SOL     OW18721   2.778   2.772   9.601
 6046SOL    HW118722   2.841   2.810   9.533
 6046SOL    HW218723   2.818   2.689   9.640
 6047SOL     OW18724   3.366   3.469   9.354
 6047SOL    HW118725   3.274   3.506   9.361
 6047SOL    HW218726   3.404   3.489   9.264
 6048SOL     OW18727   2.234   3.150  10.800
 6048SOL    HW118728   2.221   3.243  10.766
 6048SOL    HW218729   2.150   3.098  10.787
 6049SOL     OW18730   3.476   3.154  10.599
 6049SOL    HW118731   3.536   3.157  10.679
 6049SOL    HW218732   3.401   3.218  10.612
 6050SOL     OW18733   2.901   2.960  10.006
 6050SOL    HW118734   2.831   2.913  10.060
 6050SOL    HW218735   2.960   2.892   9.963
 6051SOL     OW18736   2.876   2.098  10.281
 6051SOL    HW118737   2.868   2.062  10.188
 6051SOL    HW218738   2.874   2.022  10.346
 6052SOL     OW18739   2.452   3.349   9.801
 6052SOL    HW118740   2.494   3.291   9.731
 6052SOL    HW218741   2.408   3.428   9.757
 6053SOL     OW18742   3.571   2.247  10.691
 6053SOL    HW118743   3.644   2.316  10.695
 6053SOL    HW218744   3.599   2.172  10.632
 6054SOL     OW18745   2.117   3.210   9.600
 6054SOL    HW118746   2.021   3.211   9.573
 6054SOL    HW218747   2.129   3.263   9.684
 6055SOL     OW18748   1.967   2.875  11.036
 6055SOL    HW118749   1.890   2.842  11.090
 6055SOL    HW218750   2.052   2.845  11.078
 6056SOL     OW18751   2.534   2.065  10.799
 6056SOL    HW118752   2.624   2.049  10.759
 6056SOL    HW218753   2.542   2.070  10.898
 6057SOL     OW18754   3.302   2.718  10.708
 6057SOL    HW118755   3.245   2.770  10.645
 6057SOL    HW218756   3.398   2.730  10.684
 6058SOL     OW18757   3.045   3.197   9.429
 6058SOL    HW118758   2.946   3.186   9.431
 6058SOL    HW218759   3.079   3.212   9.522
 6059SOL     OW18760   2.475   2.704  10.741
 6059SOL    HW118761   2.531   2.785  10.724
 6059SOL    HW218762   2.534   2.624  10.744
 6060SOL     OW18763   3.355   3.629  10.269
 6060SOL    HW118764   3.388   3.693  10.200
 6060SOL    HW218765   3.421   3.623  10.344
 6061SOL     OW18766   2.578   2.427  11.018
 6061SOL    HW118767   2.597   2.492  11.092
 6061SOL    HW218768   2.638   2.347  11.027
 6062SOL     OW18769   3.312   3.082  10.943
 6062SOL    HW118770   3.303   3.072  11.042
 6062SOL    HW218771   3.408   3.075  10.917
 6063SOL     OW18772   2.252   3.603  10.870
 6063SOL    HW118773   2.161   3.644  10.868
 6063SOL    HW218774   2.245   3.509  10.902
 6064SOL     OW18775   3.536   2.745  10.564
 6064SOL    HW118776   3.509   2.656  10.527
 6064SOL    HW218777   3.537   2.813  10.491
 6065SOL     OW18778   3.087   2.187   9.759
 6065SOL    HW118779   3.152   2.113   9.748
 6065SOL    HW218780   3.107   2.237   9.843
 6066SOL     OW18781   2.456   2.607   9.962
 6066SOL    HW118782   2.506   2.692   9.943
 6066SOL    HW218783   2.368   2.609   9.914
 6067SOL     OW18784   3.639   2.204  10.952
 6067SOL    HW118785   3.622   2.235  10.858
 6067SOL    HW218786   3.555   2.167  10.990
 6068SOL     OW18787   3.592   2.796  10.827
 6068SOL    HW118788   3.630   2.887  10.842
 6068SOL    HW218789   3.584   2.779  10.728
 6069SOL     OW18790   2.721   3.236   9.326
 6069SOL    HW118791   2.675   3.251   9.414
 6069SOL    HW218792   2.765   3.321   9.296
 6070SOL     OW18793   2.523   3.652  10.263
 6070SOL    HW118794   2.477   3.740  10.250
 6070SOL    HW218795   2.622   3.664  10.256
 6071SOL     OW18796   2.721   2.818  10.171
 6071SOL    HW118797   2.775   2.749  10.219
 6071SOL    HW218798   2.689   2.887  10.237
 6072SOL     OW18799   2.945   2.846   9.397
 6072SOL    HW118800   2.922   2.899   9.315
 6072SOL    HW218801   3.026   2.790   9.378
 6073SOL     OW18802   3.723   3.431  10.161
 6073SOL    HW118803   3.652   3.419  10.091
 6073SOL    HW218804   3.724   3.352  10.221
 6074SOL     OW18805   2.083   3.176  11.154
 6074SOL    HW118806   2.018   3.103  11.133
 6074SOL    HW218807   2.087   3.190  11.252
 6075SOL     OW18808   1.941   3.102   9.963
 6075SOL    HW118809   1.940   3.055  10.051
 6075SOL    HW218810   2.023   3.074   9.912
 6076SOL     OW18811   2.534   3.253  10.934
 6076SOL    HW118812   2.456   3.203  10.972
 6076SOL    HW218813   2.531   3.348  10.965
 6077SOL     OW18814   3.686   2.054  10.537
 6077SOL    HW118815   3.682   1.964  10.581
 6077SOL    HW218816   3.689   2.043  10.438
 6078SOL     OW18817   2.290   2.286   9.830
 6078SOL    HW118818   2.320   2.214   9.768
 6078SOL    HW218819   2.251   2.246   9.913
 6079SOL     OW18820   3.567   3.349  10.414
 6079SOL    HW118821   3.474   3.324  10.387
 6079SOL    HW218822   3.593   3.299  10.496
 6080SOL     OW18823   2.179   2.409  10.590
 6080SOL    HW118824   2.217   2.350  10.662
 6080SOL    HW218825   2.219   2.383  10.502
 6081SOL     OW18826   2.674   3.448   9.997
 6081SOL    HW118827   2.706   3.458   9.903
 6081SOL    HW218828   2.595   3.386   9.999
 6082SOL     OW18829   3.286   2.076  10.422
 6082SOL    HW118830   3.338   2.011  10.477
 6082SOL    HW218831   3.237   2.139  10.483
 6083SOL     OW18832   2.863   1.896  10.464
 6083SOL    HW118833   2.800   1.824  10.433
 6083SOL    HW218834   2.956   1.860  10.464
 6084SOL     OW18835   2.632   3.192   9.611
 6084SOL    HW118836   2.586   3.105   9.628
 6084SOL    HW218837   2.723   3.189   9.652
 6085SOL     OW18838   2.480   3.429  10.594
 6085SOL    HW118839   2.475   3.511  10.651
 6085SOL    HW218840   2.569   3.426  10.549
 6086SOL     OW18841   3.214   1.914   9.478
 6086SOL    HW118842   3.249   1.873   9.394
 6086SOL    HW218843   3.124   1.876   9.498
 6087SOL     OW18844   3.162   2.315  10.001
 6087SOL    HW118845   3.103   2.395  10.005
 6087SOL    HW218846   3.177   2.280  10.094
 6088SOL     OW18847   3.455   2.083  10.192
 6088SOL    HW118848   3.371   2.082  10.246
 6088SOL    HW218849   3.457   2.166  10.136
 6089SOL     OW18850   1.901   2.939   9.610
 6089SOL    HW118851   2.000   2.928   9.601
 6089SOL    HW218852   1.861   2.853   9.642
 6090SOL     OW18853   2.737   3.508   9.647
 6090SOL    HW118854   2.660   3.473   9.593
 6090SOL    HW218855   2.705   3.579   9.709
 6091SOL     OW18856   2.092   2.490  11.285
 6091SOL    HW118857   1.999   2.488  11.322
 6091SOL    HW218858   2.093   2.451  11.193
 6092SOL     OW18859   2.431   3.137  12.337
 6092SOL    HW118860   2.338   3.130  12.300
 6092SOL    HW218861   2.442   3.226  12.381
 6093SOL     OW18862   3.417   3.373  11.875
 6093SOL    HW118863   3.360   3.357  11.956
 6093SOL    HW218864   3.358   3.383  11.795
 6094SOL     OW18865   2.997   2.565  11.889
 6094SOL    HW118866   3.054   2.643  11.864
 6094SOL    HW218867   2.937   2.591  11.965
 6095SOL     OW18868   3.617   2.469  11.403
 6095SOL    HW118869   3.605   2.456  11.304
 6095SOL    HW218870   3.587   2.388  11.452
 6096SOL     OW18871   2.630   3.006  12.195
 6096SOL    HW118872   2.552   3.023  12.255
 6096SOL    HW218873   2.664   3.093  12.159
 6097SOL     OW18874   2.712   2.660  12.995
 6097SOL    HW118875   2.708   2.736  13.060
 6097SOL    HW218876   2.734   2.696  12.904
 6098SOL     OW18877   2.547   2.874  11.837
 6098SOL    HW118878   2.616   2.858  11.907
 6098SOL    HW218879   2.474   2.931  11.875
 6099SOL     OW18880   2.548   3.023  12.975
 6099SOL    HW118881   2.608   3.102  12.989
 6099SOL    HW218882   2.462   3.054  12.934
 6100SOL     OW18883   2.197   3.297  12.233
 6100SOL    HW118884   2.119   3.266  12.180
 6100SOL    HW218885   2.255   3.355  12.176
 6101SOL     OW18886   3.322   3.367  12.511
 6101SOL    HW118887   3.346   3.461  12.537
 6101SOL    HW218888   3.306   3.313  12.593
 6102SOL     OW18889   2.300   2.254  12.671
 6102SOL    HW118890   2.382   2.198  12.680
 6102SOL    HW218891   2.219   2.196  12.675
 6103SOL     OW18892   3.465   2.309  11.909
 6103SOL    HW118893   3.391   2.355  11.859
 6103SOL    HW218894   3.516   2.377  11.962
 6104SOL     OW18895   2.093   3.575  11.655
 6104SOL    HW118896   2.127   3.652  11.709
 6104SOL    HW218897   2.137   3.575  11.565
 6105SOL     OW18898   2.989   3.203  12.862
 6105SOL    HW118899   3.036   3.203  12.950
 6105SOL    HW218900   2.941   3.116  12.851
 6106SOL     OW18901   2.092   3.296  11.710
 6106SOL    HW118902   2.066   3.392  11.710
 6106SOL    HW218903   2.021   3.242  11.755
 6107SOL     OW18904   2.102   2.953  12.058
 6107SOL    HW118905   2.116   2.869  12.110
 6107SOL    HW218906   2.047   3.017  12.113
 6108SOL     OW18907   2.482   3.648  12.611
 6108SOL    HW118908   2.390   3.631  12.646
 6108SOL    HW218909   2.510   3.740  12.637
 6109SOL     OW18910   2.468   2.826  11.295
 6109SOL    HW118911   2.475   2.910  11.241
 6109SOL    HW218912   2.514   2.839  11.383
 6110SOL     OW18913   3.456   1.976  12.652
 6110SOL    HW118914   3.438   2.043  12.580
 6110SOL    HW218915   3.453   2.022  12.741
 6111SOL     OW18916   1.984   2.505  11.735
 6111SOL    HW118917   1.939   2.417  11.752
 6111SOL    HW218918   1.983   2.559  11.819
 6112SOL     OW18919   3.704   3.629  11.531
 6112SOL    HW118920   3.758   3.600  11.611
 6112SOL    HW218921   3.734   3.719  11.502
 6113SOL     OW18922   1.889   3.458  11.289
 6113SOL    HW118923   1.870   3.362  11.310
 6113SOL    HW218924   1.856   3.516  11.364
 6114SOL     OW18925   3.551   2.784  11.784
 6114SOL    HW118926   3.646   2.755  11.792
 6114SOL    HW218927   3.543   2.849  11.709
 6115SOL     OW18928   3.503   2.970  11.604
 6115SOL    HW118929   3.589   2.972  11.552
 6115SOL    HW218930   3.517   3.017  11.692
 6116SOL     OW18931   1.975   2.599  12.769
 6116SOL    HW118932   2.063   2.586  12.814
 6116SOL    HW218933   1.962   2.696  12.747
 6117SOL     OW18934   2.475   3.227  11.898
 6117SOL    HW118935   2.426   3.140  11.907
 6117SOL    HW218936   2.452   3.270  11.811
 6118SOL     OW18937   3.155   3.090  12.595
 6118SOL    HW118938   3.192   3.017  12.537
 6118SOL    HW218939   3.207   3.095  12.680
 6119SOL     OW18940   2.671   1.866  11.674
 6119SOL    HW118941   2.711   1.957  11.665
 6119SOL    HW218942   2.571   1.874  11.680
 6120SOL     OW18943   2.059   2.838  12.436
 6120SOL    HW118944   2.148   2.793  12.422
 6120SOL    HW218945   1.986   2.773  12.417
 6121SOL     OW18946   3.387   2.861  11.362
 6121SOL    HW118947   3.324   2.785  11.375
 6121SOL    HW218948   3.435   2.879  11.448
 6122SOL     OW18949   3.049   3.654  12.788
 6122SOL    HW118950   3.073   3.714  12.712
 6122SOL    HW218951   3.056   3.559  12.758
 6123SOL     OW18952   3.328   3.279  12.125
 6123SOL    HW118953   3.269   3.285  12.205
 6123SOL    HW218954   3.313   3.191  12.079
 6124SOL     OW18955   3.529   3.576  11.744
 6124SOL    HW118956   3.488   3.553  11.656
 6124SOL    HW218957   3.511   3.502  11.809
 6125SOL     OW18958   2.460   2.591  11.442
 6125SOL    HW118959   2.484   2.660  11.374
 6125SOL    HW218960   2.382   2.624  11.496
 6126SOL     OW18961   3.143   2.207  12.116
 6126SOL    HW118962   3.057   2.157  12.103
 6126SOL    HW218963   3.205   2.153  12.172
 6127SOL     OW18964   3.438   3.524  11.479
 6127SOL    HW118965   3.527   3.570  11.482
 6127SOL    HW218966   3.417   3.500  11.384
 6128SOL     OW18967   2.669   2.467  12.637
 6128SOL    HW118968   2.622   2.464  12.726
 6128SOL    HW218969   2.618   2.412  12.571
 6129SOL     OW18970   3.256   2.331  12.846
 6129SOL    HW118971   3.236   2.374  12.934
 6129SOL    HW218972   3.334   2.269  12.855
 6130SOL     OW18973   2.835   2.752  12.744
 6130SOL    HW118974   2.881   2.668  12.715
 6130SOL    HW218975   2.779   2.786  12.669
 6131SOL     OW18976   2.853   2.272  12.414
 6131SOL    HW118977   2.776   2.306  12.468
 6131SOL    HW218978   2.819   2.221  12.335
 6132SOL     OW18979   2.903   2.563  11.601
 6132SOL    HW118980   2.929   2.559  11.697
 6132SOL    HW218981   2.818   2.512  11.587
 6133SOL     OW18982   1.938   2.673  11.961
 6133SOL    HW118983   2.037   2.661  11.970
 6133SOL    HW218984   1.914   2.768  11.982
 6134SOL     OW18985   1.992   3.683  12.743
 6134SOL    HW118986   1.982   3.668  12.842
 6134SOL    HW218987   1.906   3.719  12.707
 6135SOL     OW18988   2.727   2.210  11.367
 6135SOL    HW118989   2.786   2.273  11.318
 6135SOL    HW218990   2.746   2.116  11.338
 6136SOL     OW18991   3.581   2.447  13.003
 6136SOL    HW118992   3.555   2.536  12.967
 6136SOL    HW218993   3.579   2.379  12.930
 6137SOL     OW18994   3.224   3.006  11.717
 6137SOL    HW118995   3.307   2.977  11.669
 6137SOL    HW218996   3.175   3.073  11.661
 6138SOL     OW18997   2.412   2.058  12.057
 6138SOL    HW118998   2.407   2.053  12.157
 6138SOL    HW218999   2.414   2.154  12.028
 6139SOL     OW19000   2.870   3.318  11.649
 6139SOL    HW119001   2.824   3.390  11.597
 6139SOL    HW219002   2.866   3.338  11.747
 6140SOL     OW19003   2.213   3.663  12.025
 6140SOL    HW119004   2.263   3.577  12.031
 6140SOL    HW219005   2.278   3.740  12.022
 6141SOL     OW19006   3.657   2.928  12.045
 6141SOL    HW119007   3.595   2.913  11.969
 6141SOL    HW219008   3.605   2.939  12.130
 6142SOL     OW19009   3.089   3.412  12.678
 6142SOL    HW119010   3.095   3.335  12.742
 6142SOL    HW219011   3.037   3.386  12.598
 6143SOL     OW19012   2.183   2.805  11.414
 6143SOL    HW119013   2.265   2.844  11.372
 6143SOL    HW219014   2.156   2.723  11.365
 6144SOL     OW19015   3.320   2.597  11.900
 6144SOL    HW119016   3.315   2.532  11.975
 6144SOL    HW219017   3.400   2.656  11.913
 6145SOL     OW19018   2.323   3.128  12.899
 6145SOL    HW119019   2.273   3.129  12.813
 6145SOL    HW219020   2.260   3.110  12.975
 6146SOL     OW19021   2.973   3.638  11.409
 6146SOL    HW119022   2.913   3.576  11.459
 6146SOL    HW219023   3.004   3.594  11.324
 6147SOL     OW19024   3.494   3.239  11.253
 6147SOL    HW119025   3.462   3.333  11.243
 6147SOL    HW219026   3.418   3.176  11.241
 6148SOL     OW19027   2.326   3.605  11.495
 6148SOL    HW119028   2.359   3.644  11.581
 6148SOL    HW219029   2.402   3.598  11.430
 6149SOL     OW19030   3.262   1.969  11.598
 6149SOL    HW119031   3.238   1.932  11.508
 6149SOL    HW219032   3.361   1.985  11.602
 6150SOL     OW19033   2.111   3.647  12.413
 6150SOL    HW119034   2.168   3.582  12.463
 6150SOL    HW219035   2.095   3.614  12.320
 6151SOL     OW19036   2.802   3.560  12.076
 6151SOL    HW119037   2.882   3.503  12.097
 6151SOL    HW219038   2.753   3.520  11.999
 6152SOL     OW19039   2.244   2.562  11.652
 6152SOL    HW119040   2.289   2.472  11.649
 6152SOL    HW219041   2.150   2.551  11.685
 6153SOL     OW19042   3.409   2.084  12.901
 6153SOL    HW119043   3.404   2.121  12.993
 6153SOL    HW219044   3.337   2.015  12.889
 6154SOL     OW19045   2.476   1.984  11.289
 6154SOL    HW119046   2.574   1.962  11.296
 6154SOL    HW219047   2.445   1.967  11.196
 6155SOL     OW19048   2.643   2.126  12.921
 6155SOL    HW119049   2.710   2.065  12.964
 6155SOL    HW219050   2.570   2.145  12.986
 6156SOL     OW19051   2.750   3.376  12.367
 6156SOL    HW119052   2.727   3.351  12.273
 6156SOL    HW219053   2.811   3.307  12.406
 6157SOL     OW19054   3.213   2.452  12.605
 6157SOL    HW119055   3.241   2.409  12.690
 6157SOL    HW219056   3.238   2.548  12.606
 6158SOL     OW19057   2.665   3.264  12.096
 6158SOL    HW119058   2.755   3.278  12.054
 6158SOL    HW219059   2.594   3.266  12.025
 6159SOL     OW19060   2.784   2.365  12.071
 6159SOL    HW119061   2.759   2.356  11.975
 6159SOL    HW219062   2.832   2.283  12.102
 6160SOL     OW19063   2.401   1.926  11.684
 6160SOL    HW119064   2.320   1.927  11.742
 6160SOL    HW219065   2.404   2.009  11.629
 6161SOL     OW19066   3.296   3.050  11.213
 6161SOL    HW119067   3.328   2.974  11.270
 6161SOL    HW219068   3.204   3.077  11.243
 6162SOL     OW19069   2.797   2.098  11.652
 6162SOL    HW119070   2.749   2.139  11.574
 6162SOL    HW219071   2.896   2.096  11.633
 6163SOL     OW19072   2.938   2.545  12.636
 6163SOL    HW119073   2.858   2.484  12.639
 6163SOL    HW219074   3.019   2.492  12.612
 6164SOL     OW19075   3.089   3.432  11.965
 6164SOL    HW119076   3.110   3.506  11.900
 6164SOL    HW219077   3.157   3.432  12.038
 6165SOL     OW19078   2.321   3.014  11.913
 6165SOL    HW119079   2.250   2.987  11.978
 6165SOL    HW219080   2.295   2.986  11.820
 6166SOL     OW19081   3.133   3.659  11.763
 6166SOL    HW119082   3.177   3.723  11.699
 6166SOL    HW219083   3.083   3.711  11.833
 6167SOL     OW19084   2.894   2.411  11.188
 6167SOL    HW119085   2.853   2.493  11.149
 6167SOL    HW219086   2.958   2.437  11.261
 6168SOL     OW19087   1.940   2.418  12.558
 6168SOL    HW119088   2.032   2.417  12.517
 6168SOL    HW219089   1.934   2.492  12.625
 6169SOL     OW19090   2.423   2.084  12.319
 6169SOL    HW119091   2.461   2.000  12.356
 6169SOL    HW219092   2.335   2.103  12.363
 6170SOL     OW19093   2.728   2.316  11.814
 6170SOL    HW119094   2.696   2.388  11.752
 6170SOL    HW219095   2.752   2.235  11.761
 6171SOL     OW19096   2.879   1.901  11.925
 6171SOL    HW119097   2.807   1.906  11.856
 6171SOL    HW219098   2.855   1.832  11.994
 6172SOL     OW19099   3.291   3.035  12.039
 6172SOL    HW119100   3.236   2.951  12.032
 6172SOL    HW219101   3.317   3.064  11.947
 6173SOL     OW19102   3.328   2.452  12.164
 6173SOL    HW119103   3.298   2.357  12.171
 6173SOL    HW219104   3.401   2.468  12.230
 6174SOL     OW19105   3.719   2.695  11.549
 6174SOL    HW119106   3.761   2.631  11.613
 6174SOL    HW219107   3.681   2.644  11.471
 6175SOL     OW19108   2.350   3.247  11.346
 6175SOL    HW119109   2.263   3.232  11.393
 6175SOL    HW219110   2.333   3.273  11.251
 6176SOL     OW19111   3.526   3.142  11.829
 6176SOL    HW119112   3.625   3.150  11.843
 6176SOL    HW219113   3.481   3.226  11.860
 6177SOL     OW19114   3.252   2.437  11.250
 6177SOL    HW119115   3.198   2.416  11.331
 6177SOL    HW219116   3.343   2.396  11.259
 6178SOL     OW19117   2.389   2.118  11.500
 6178SOL    HW119118   2.416   2.059  11.425
 6178SOL    HW219119   2.389   2.213  11.469
 6179SOL     OW19120   3.616   3.085  12.760
 6179SOL    HW119121   3.707   3.046  12.747
 6179SOL    HW219122   3.624   3.181  12.784
 6180SOL     OW19123   2.926   3.209  12.512
 6180SOL    HW119124   2.846   3.186  12.567
 6180SOL    HW219125   3.009   3.183  12.561
 6181SOL     OW19126   3.454   3.491  12.797
 6181SOL    HW119127   3.481   3.525  12.707
 6181SOL    HW219128   3.533   3.453  12.843
 6182SOL     OW19129   2.973   3.057  12.272
 6182SOL    HW119130   2.933   3.101  12.353
 6182SOL    HW219131   2.932   3.094  12.189
 6183SOL     OW19132   3.500   2.961  12.251
 6183SOL    HW119133   3.505   3.042  12.310
 6183SOL    HW219134   3.414   2.963  12.200
 6184SOL     OW19135   2.777   1.951  12.574
 6184SOL    HW119136   2.802   1.931  12.479
 6184SOL    HW219137   2.849   2.007  12.616
 6185SOL     OW19138   2.842   2.978  12.891
 6185SOL    HW119139   2.743   2.984  12.901
 6185SOL    HW219140   2.865   2.898  12.835
 6186SOL     OW19141   2.567   2.912  11.540
 6186SOL    HW119142   2.553   2.919  11.639
 6186SOL    HW219143   2.651   2.861  11.522
 6187SOL     OW19144   2.272   2.675  12.423
 6187SOL    HW119145   2.358   2.687  12.473
 6187SOL    HW219146   2.230   2.588  12.450
 6188SOL     OW19147   3.136   2.248  12.434
 6188SOL    HW119148   3.157   2.322  12.498
 6188SOL    HW219149   3.047   2.265  12.391
 6189SOL     OW19150   1.926   3.426  12.503
 6189SOL    HW119151   1.880   3.508  12.469
 6189SOL    HW219152   2.024   3.445  12.512
 6190SOL     OW19153   2.229   2.962  11.673
 6190SOL    HW119154   2.222   3.045  11.617
 6190SOL    HW219155   2.233   2.882  11.613
 6191SOL     OW19156   2.428   2.399  12.037
 6191SOL    HW119157   2.440   2.465  11.963
 6191SOL    HW219158   2.474   2.433  12.120
 6192SOL     OW19159   3.114   3.210  11.560
 6192SOL    HW119160   3.164   3.287  11.600
 6192SOL    HW219161   3.019   3.212  11.592
 6193SOL     OW19162   3.134   3.307  12.314
 6193SOL    HW119163   3.181   3.320  12.401
 6193SOL    HW219164   3.068   3.233  12.323
 6194SOL     OW19165   3.444   2.501  11.644
 6194SOL    HW119166   3.413   2.562  11.717
 6194SOL    HW219167   3.494   2.553  11.575
 6195SOL     OW19168   2.216   3.372  12.501
 6195SOL    HW119169   2.195   3.328  12.414
 6195SOL    HW219170   2.313   3.398  12.504
 6196SOL     OW19171   2.264   2.613  12.770
 6196SOL    HW119172   2.332   2.668  12.723
 6196SOL    HW219173   2.304   2.525  12.797
 6197SOL     OW19174   3.449   2.641  12.842
 6197SOL    HW119175   3.357   2.679  12.837
 6197SOL    HW219176   3.509   2.688  12.777
 6198SOL     OW19177   2.875   1.967  12.942
 6198SOL    HW119178   2.881   2.052  12.890
 6198SOL    HW219179   2.907   1.891  12.885
 6199SOL     OW19180   2.366   1.912  12.912
 6199SOL    HW119181   2.324   1.855  12.842
 6199SOL    HW219182   2.300   1.981  12.944
 6200SOL     OW19183   2.435   2.732  12.201
 6200SOL    HW119184   2.479   2.821  12.192
 6200SOL    HW219185   2.372   2.732  12.278
 6201SOL     OW19186   3.222   2.724  12.217
 6201SOL    HW119187   3.147   2.724  12.151
 6201SOL    HW219188   3.259   2.632  12.226
 6202SOL     OW19189   3.071   2.387  11.447
 6202SOL    HW119190   3.084   2.303  11.501
 6202SOL    HW219191   3.042   2.461  11.507
 6203SOL     OW19192   1.899   3.172  12.454
 6203SOL    HW119193   1.952   3.123  12.522
 6203SOL    HW219194   1.921   3.270  12.459
 6204SOL     OW19195   2.594   2.496  12.236
 6204SOL    HW119196   2.653   2.470  12.160
 6204SOL    HW219197   2.566   2.592  12.225
 6205SOL     OW19198   3.590   2.797  13.026
 6205SOL    HW119199   3.544   2.790  12.937
 6205SOL    HW219200   3.528   2.841  13.092
 6206SOL     OW19201   3.484   2.229  11.546
 6206SOL    HW119202   3.486   2.153  11.610
 6206SOL    HW219203   3.436   2.306  11.586
 6207SOL     OW19204   2.885   2.628  12.138
 6207SOL    HW119205   2.900   2.649  12.234
 6207SOL    HW219206   2.855   2.533  12.129
 6208SOL     OW19207   2.842   3.435  12.872
 6208SOL    HW119208   2.822   3.479  12.784
 6208SOL    HW219209   2.881   3.344  12.856
 6209SOL     OW19210   3.721   3.380  12.777
 6209SOL    HW119211   3.735   3.407  12.682
 6209SOL    HW219212   3.804   3.402  12.830
 6210SOL     OW19213   2.212   2.760  12.976
 6210SOL    HW119214   2.288   2.804  13.024
 6210SOL    HW219215   2.247   2.713  12.894
 6211SOL     OW19216   3.402   2.136  11.297
 6211SOL    HW119217   3.341   2.061  11.320
 6211SOL    HW219218   3.424   2.188  11.380
 6212SOL     OW19219   3.165   2.700  11.214
 6212SOL    HW119220   3.199   2.607  11.229
 6212SOL    HW219221   3.183   2.727  11.119
 6213SOL     OW19222   2.930   3.195  12.021
 6213SOL    HW119223   2.937   3.111  11.966
 6213SOL    HW219224   2.992   3.264  11.985
 6214SOL     OW19225   2.181   2.672  12.121
 6214SOL    HW119226   2.274   2.708  12.126
 6214SOL    HW219227   2.175   2.587  12.173
 6215SOL     OW19228   3.000   2.242  12.850
 6215SOL    HW119229   2.955   2.305  12.914
 6215SOL    HW219230   3.093   2.273  12.833
 6216SOL     OW19231   3.022   2.069  12.649
 6216SOL    HW119232   3.022   2.133  12.726
 6216SOL    HW219233   3.050   2.117  12.566
 6217SOL     OW19234   1.870   3.188  11.372
 6217SOL    HW119235   1.777   3.209  11.341
 6217SOL    HW219236   1.880   3.089  11.385
 6218SOL     OW19237   1.950   3.663  12.099
 6218SOL    HW119238   1.908   3.577  12.072
 6218SOL    HW219239   2.044   3.666  12.065
 6219SOL     OW19240   2.366   3.430  12.082
 6219SOL    HW119241   2.432   3.504  12.091
 6219SOL    HW219242   2.410   3.351  12.040
 6220SOL     OW19243   2.864   2.658  12.410
 6220SOL    HW119244   2.905   2.626  12.496
 6220SOL    HW219245   2.768   2.631  12.407
 6221SOL     OW19246   3.231   2.812  12.832
 6221SOL    HW119247   3.270   2.901  12.852
 6221SOL    HW219248   3.241   2.792  12.735
 6222SOL     OW19249   2.677   2.434  11.497
 6222SOL    HW119250   2.684   2.345  11.451
 6222SOL    HW219251   2.583   2.468  11.489
 6223SOL     OW19252   3.519   2.466  12.378
 6223SOL    HW119253   3.481   2.397  12.440
 6223SOL    HW219254   3.601   2.430  12.334
 6224SOL     OW19255   2.114   3.426  12.916
 6224SOL    HW119256   2.084   3.483  12.992
 6224SOL    HW219257   2.107   3.329  12.942
 6225SOL     OW19258   2.533   2.326  12.441
 6225SOL    HW119259   2.499   2.237  12.411
 6225SOL    HW219260   2.559   2.380  12.361
 6226SOL     OW19261   2.792   3.540  12.637
 6226SOL    HW119262   2.768   3.522  12.542
 6226SOL    HW219263   2.822   3.634  12.647
 6227SOL     OW19264   2.335   2.362  11.363
 6227SOL    HW119265   2.396   2.442  11.367
 6227SOL    HW219266   2.240   2.393  11.370
 6228SOL     OW19267   2.021   2.999  12.638
 6228SOL    HW119268   2.043   2.938  12.714
 6228SOL    HW219269   2.031   2.950  12.552
 6229SOL     OW19270   3.209   2.921  12.406
 6229SOL    HW119271   3.233   2.858  12.332
 6229SOL    HW219272   3.119   2.961  12.388
 6230SOL     OW19273   3.164   2.717  11.481
 6230SOL    HW119274   3.078   2.686  11.523
 6230SOL    HW219275   3.160   2.703  11.382
 6231SOL     OW19276   3.621   3.609  12.326
 6231SOL    HW119277   3.682   3.639  12.253
 6231SOL    HW219278   3.583   3.520  12.304
 6232SOL     OW19279   3.114   3.593  12.300
 6232SOL    HW119280   3.198   3.598  12.246
 6232SOL    HW219281   3.091   3.497  12.318
 6233SOL     OW19282   1.945   3.120  12.194
 6233SOL    HW119283   1.940   3.119  12.294
 6233SOL    HW219284   1.862   3.079  12.156
 6234SOL     OW19285   2.550   3.524  12.888
 6234SOL    HW119286   2.494   3.605  12.897
 6234SOL    HW219287   2.602   3.528  12.802
 6235SOL     OW19288   3.588   1.997  11.695
 6235SOL    HW119289   3.661   1.980  11.628
 6235SOL    HW219290   3.557   1.910  11.733
 6236SOL     OW19291   3.250   3.435  11.649
 6236SOL    HW119292   3.317   3.447  11.575
 6236SOL    HW219293   3.210   3.524  11.672
 6237SOL     OW19294   1.992   3.656  13.023
 6237SOL    HW119295   1.951   3.582  13.076
 6237SOL    HW219296   2.056   3.707  13.081
 6238SOL     OW19297   3.142   2.789  11.844
 6238SOL    HW119298   3.202   2.708  11.846
 6238SOL    HW219299   3.182   2.858  11.784
 6239SOL     OW19300   2.692   3.135  12.594
 6239SOL    HW119301   2.687   3.168  12.689
 6239SOL    HW219302   2.606   3.154  12.548
 6240SOL     OW19303   2.534   3.478  11.326
 6240SOL    HW119304   2.543   3.488  11.227
 6240SOL    HW219305   2.494   3.389  11.347
 6241SOL     OW19306   3.512   3.582  12.566
 6241SOL    HW119307   3.565   3.592  12.482
 6241SOL    HW219308   3.485   3.672  12.600
 6242SOL     OW19309   3.703   2.037  12.135
 6242SOL    HW119310   3.742   1.952  12.099
 6242SOL    HW219311   3.605   2.039  12.116
 6243SOL     OW19312   3.056   3.474  11.203
 6243SOL    HW119313   3.062   3.381  11.240
 6243SOL    HW219314   2.997   3.474  11.123
 6244SOL     OW19315   2.684   2.864  12.544
 6244SOL    HW119316   2.724   2.863  12.452
 6244SOL    HW219317   2.694   2.956  12.584
 6245SOL     OW19318   2.778   2.772  11.463
 6245SOL    HW119319   2.841   2.810  11.395
 6245SOL    HW219320   2.818   2.689  11.502
 6246SOL     OW19321   3.366   3.469  11.216
 6246SOL    HW119322   3.274   3.506  11.223
 6246SOL    HW219323   3.404   3.489  11.126
 6247SOL     OW19324   2.234   3.150  12.662
 6247SOL    HW119325   2.221   3.243  12.628
 6247SOL    HW219326   2.150   3.098  12.649
 6248SOL     OW19327   3.476   3.154  12.461
 6248SOL    HW119328   3.536   3.157  12.541
 6248SOL    HW219329   3.401   3.218  12.474
 6249SOL     OW19330   2.901   2.960  11.868
 6249SOL    HW119331   2.831   2.913  11.922
 6249SOL    HW219332   2.960   2.892  11.825
 6250SOL     OW19333   2.876   2.098  12.143
 6250SOL    HW119334   2.868   2.062  12.050
 6250SOL    HW219335   2.874   2.022  12.208
 6251SOL     OW19336   2.452   3.349  11.663
 6251SOL    HW119337   2.494   3.291  11.593
 6251SOL    HW219338   2.408   3.428  11.619
 6252SOL     OW19339   3.571   2.247  12.553
 6252SOL    HW119340   3.644   2.316  12.557
 6252SOL    HW219341   3.599   2.172  12.494
 6253SOL     OW19342   2.117   3.210  11.462
 6253SOL    HW119343   2.021   3.211  11.435
 6253SOL    HW219344   2.129   3.263  11.546
 6254SOL     OW19345   1.967   2.875  12.898
 6254SOL    HW119346   1.890   2.842  12.952
 6254SOL    HW219347   2.052   2.845  12.940
 6255SOL     OW19348   2.534   2.065  12.661
 6255SOL    HW119349   2.624   2.049  12.621
 6255SOL    HW219350   2.542   2.070  12.760
 6256SOL     OW19351   3.302   2.718  12.570
 6256SOL    HW119352   3.245   2.770  12.507
 6256SOL    HW219353   3.398   2.730  12.546
 6257SOL     OW19354   3.045   3.197  11.291
 6257SOL    HW119355   2.946   3.186  11.293
 6257SOL    HW219356   3.079   3.212  11.384
 6258SOL     OW19357   2.475   2.704  12.603
 6258SOL    HW119358   2.531   2.785  12.586
 6258SOL    HW219359   2.534   2.624  12.606
 6259SOL     OW19360   3.355   3.629  12.131
 6259SOL    HW119361   3.388   3.693  12.062
 6259SOL    HW219362   3.421   3.623  12.206
 6260SOL     OW19363   2.578   2.427  12.880
 6260SOL    HW119364   2.597   2.492  12.954
 6260SOL    HW219365   2.638   2.347  12.889
 6261SOL     OW19366   3.312   3.082  12.805
 6261SOL    HW119367   3.303   3.072  12.904
 6261SOL    HW219368   3.408   3.075  12.779
 6262SOL     OW19369   2.252   3.603  12.732
 6262SOL    HW119370   2.161   3.644  12.730
 6262SOL    HW219371   2.245   3.509  12.764
 6263SOL     OW19372   3.536   2.745  12.426
 6263SOL    HW119373   3.509   2.656  12.389
 6263SOL    HW219374   3.537   2.813  12.353
 6264SOL     OW19375   3.087   2.187  11.621
 6264SOL    HW119376   3.152   2.113  11.610
 6264SOL    HW219377   3.107   2.237  11.705
 6265SOL     OW19378   2.456   2.607  11.824
 6265SOL    HW119379   2.506   2.692  11.805
 6265SOL    HW219380   2.368   2.609  11.776
 6266SOL     OW19381   3.639   2.204  12.814
 6266SOL    HW119382   3.622   2.235  12.720
 6266SOL    HW219383   3.555   2.167  12.852
 6267SOL     OW19384   3.592   2.796  12.689
 6267SOL    HW119385   3.630   2.887  12.704
 6267SOL    HW219386   3.584   2.779  12.590
 6268SOL     OW19387   2.721   3.236  11.188
 6268SOL    HW119388   2.675   3.251  11.276
 6268SOL    HW219389   2.765   3.321  11.158
 6269SOL     OW19390   2.523   3.652  12.125
 6269SOL    HW119391   2.477   3.740  12.112
 6269SOL    HW219392   2.622   3.664  12.118
 6270SOL     OW19393   2.721   2.818  12.033
 6270SOL    HW119394   2.775   2.749  12.081
 6270SOL    HW219395   2.689   2.887  12.099
 6271SOL     OW19396   2.945   2.846  11.259
 6271SOL    HW119397   2.922   2.899  11.177
 6271SOL    HW219398   3.026   2.790  11.240
 6272SOL     OW19399   3.723   3.431  12.023
 6272SOL    HW119400   3.652   3.419  11.953
 6272SOL    HW219401   3.724   3.352  12.083
 6273SOL     OW19402   2.083   3.176  13.016
 6273SOL    HW119403   2.018   3.103  12.995
 6273SOL    HW219404   2.087   3.190  13.114
 6274SOL     OW19405   1.941   3.102  11.825
 6274SOL    HW119406   1.940   3.055  11.913
 6274SOL    HW219407   2.023   3.074  11.774
 6275SOL     OW19408   2.534   3.253  12.796
 6275SOL    HW119409   2.456   3.203  12.834
 6275SOL    HW219410   2.531   3.348  12.827
 6276SOL     OW19411   3.686   2.054  12.399
 6276SOL    HW119412   3.682   1.964  12.443
 6276SOL    HW219413   3.689   2.043  12.300
 6277SOL     OW19414   2.290   2.286  11.692
 6277SOL    HW119415   2.320   2.214  11.630
 6277SOL    HW219416   2.251   2.246  11.775
 6278SOL     OW19417   3.567   3.349  12.276
 6278SOL    HW119418   3.474   3.324  12.249
 6278SOL    HW219419   3.593   3.299  12.358
 6279SOL     OW19420   2.179   2.409  12.452
 6279SOL    HW119421   2.217   2.350  12.524
 6279SOL    HW219422   2.219   2.383  12.364
 6280SOL     OW19423   2.674   3.448  11.859
 6280SOL    HW119424   2.706   3.458  11.765
 6280SOL    HW219425   2.595   3.386  11.861
 6281SOL     OW19426   3.286   2.076  12.284
 6281SOL    HW119427   3.338   2.011  12.339
 6281SOL    HW219428   3.237   2.139  12.345
 6282SOL     OW19429   2.863   1.896  12.326
 6282SOL    HW119430   2.800   1.824  12.295
 6282SOL    HW219431   2.956   1.860  12.326
 6283SOL     OW19432   2.632   3.192  11.473
 6283SOL    HW119433   2.586   3.105  11.490
 6283SOL    HW219434   2.723   3.189  11.514
 6284SOL     OW19435   2.480   3.429  12.456
 6284SOL    HW119436   2.475   3.511  12.513
 6284SOL    HW219437   2.569   3.426  12.411
 6285SOL     OW19438   3.214   1.914  11.340
 6285SOL    HW119439   3.249   1.873  11.256
 6285SOL    HW219440   3.124   1.876  11.360
 6286SOL     OW19441   3.162   2.315  11.863
 6286SOL    HW119442   3.103   2.395  11.867
 6286SOL    HW219443   3.177   2.280  11.956
 6287SOL     OW19444   3.455   2.083  12.054
 6287SOL    HW119445   3.371   2.082  12.108
 6287SOL    HW219446   3.457   2.166  11.998
 6288SOL     OW19447   1.901   2.939  11.472
 6288SOL    HW119448   2.000   2.928  11.463
 6288SOL    HW219449   1.861   2.853  11.504
 6289SOL     OW19450   2.737   3.508  11.509
 6289SOL    HW119451   2.660   3.473  11.455
 6289SOL    HW219452   2.705   3.579  11.571
 6290SOL     OW19453   2.092   2.490  13.147
 6290SOL    HW119454   1.999   2.488  13.184
 6290SOL    HW219455   2.093   2.451  13.055
 6291SOL     OW19456   3.417   3.373  13.737
 6291SOL    HW119457   3.360   3.357  13.818
 6291SOL    HW219458   3.358   3.383  13.657
 6292SOL     OW19459   2.997   2.565  13.751
 6292SOL    HW119460   3.054   2.643  13.726
 6292SOL    HW219461   2.937   2.591  13.827
 6293SOL     OW19462   3.617   2.469  13.265
 6293SOL    HW119463   3.605   2.456  13.166
 6293SOL    HW219464   3.587   2.388  13.314
 6294SOL     OW19465   2.547   2.874  13.699
 6294SOL    HW119466   2.616   2.858  13.769
 6294SOL    HW219467   2.474   2.931  13.737
 6295SOL     OW19468   3.465   2.309  13.771
 6295SOL    HW119469   3.391   2.355  13.721
 6295SOL    HW219470   3.516   2.377  13.824
 6296SOL     OW19471   2.093   3.575  13.517
 6296SOL    HW119472   2.127   3.652  13.571
 6296SOL    HW219473   2.137   3.575  13.427
 6297SOL     OW19474   2.092   3.296  13.572
 6297SOL    HW119475   2.066   3.392  13.572
 6297SOL    HW219476   2.021   3.242  13.617
 6298SOL     OW19477   2.102   2.953  13.920
 6298SOL    HW119478   2.116   2.869  13.972
 6298SOL    HW219479   2.047   3.017  13.975
 6299SOL     OW19480   2.468   2.826  13.157
 6299SOL    HW119481   2.475   2.910  13.103
 6299SOL    HW219482   2.514   2.839  13.245
 6300SOL     OW19483   1.984   2.505  13.597
 6300SOL    HW119484   1.939   2.417  13.614
 6300SOL    HW219485   1.983   2.559  13.681
 6301SOL     OW19486   3.704   3.629  13.393
 6301SOL    HW119487   3.758   3.600  13.473
 6301SOL    HW219488   3.734   3.719  13.364
 6302SOL     OW19489   1.889   3.458  13.151
 6302SOL    HW119490   1.870   3.362  13.172
 6302SOL    HW219491   1.856   3.516  13.226
 6303SOL     OW19492   3.551   2.784  13.646
 6303SOL    HW119493   3.646   2.755  13.654
 6303SOL    HW219494   3.543   2.849  13.571
 6304SOL     OW19495   3.503   2.970  13.466
 6304SOL    HW119496   3.589   2.972  13.414
 6304SOL    HW219497   3.517   3.017  13.554
 6305SOL     OW19498   2.475   3.227  13.760
 6305SOL    HW119499   2.426   3.140  13.769
 6305SOL    HW219500   2.452   3.270  13.673
 6306SOL     OW19501   2.671   1.866  13.536
 6306SOL    HW119502   2.711   1.957  13.527
 6306SOL    HW219503   2.571   1.874  13.542
 6307SOL     OW19504   3.387   2.861  13.224
 6307SOL    HW119505   3.324   2.785  13.237
 6307SOL    HW219506   3.435   2.879  13.310
 6308SOL     OW19507   3.529   3.576  13.606
 6308SOL    HW119508   3.488   3.553  13.518
 6308SOL    HW219509   3.511   3.502  13.671
 6309SOL     OW19510   2.460   2.591  13.304
 6309SOL    HW119511   2.484   2.660  13.236
 6309SOL    HW219512   2.382   2.624  13.358
 6310SOL     OW19513   3.143   2.207  13.978
 6310SOL    HW119514   3.057   2.157  13.965
 6310SOL    HW219515   3.205   2.153  14.034
 6311SOL     OW19516   3.438   3.524  13.341
 6311SOL    HW119517   3.527   3.570  13.344
 6311SOL    HW219518   3.417   3.500  13.246
 6312SOL     OW19519   2.903   2.563  13.463
 6312SOL    HW119520   2.929   2.559  13.559
 6312SOL    HW219521   2.818   2.512  13.449
 6313SOL     OW19522   1.938   2.673  13.823
 6313SOL    HW119523   2.037   2.661  13.832
 6313SOL    HW219524   1.914   2.768  13.844
 6314SOL     OW19525   2.727   2.210  13.229
 6314SOL    HW119526   2.786   2.273  13.180
 6314SOL    HW219527   2.746   2.116  13.200
 6315SOL     OW19528   3.224   3.006  13.579
 6315SOL    HW119529   3.307   2.977  13.531
 6315SOL    HW219530   3.175   3.073  13.523
 6316SOL     OW19531   2.870   3.318  13.511
 6316SOL    HW119532   2.824   3.390  13.459
 6316SOL    HW219533   2.866   3.338  13.609
 6317SOL     OW19534   2.213   3.663  13.887
 6317SOL    HW119535   2.263   3.577  13.893
 6317SOL    HW219536   2.278   3.740  13.884
 6318SOL     OW19537   3.657   2.928  13.907
 6318SOL    HW119538   3.595   2.913  13.831
 6318SOL    HW219539   3.605   2.939  13.992
 6319SOL     OW19540   2.183   2.805  13.276
 6319SOL    HW119541   2.265   2.844  13.234
 6319SOL    HW219542   2.156   2.723  13.227
 6320SOL     OW19543   3.320   2.597  13.762
 6320SOL    HW119544   3.315   2.532  13.837
 6320SOL    HW219545   3.400   2.656  13.775
 6321SOL     OW19546   2.973   3.638  13.271
 6321SOL    HW119547   2.913   3.576  13.321
 6321SOL    HW219548   3.004   3.594  13.186
 6322SOL     OW19549   3.494   3.239  13.115
 6322SOL    HW119550   3.462   3.333  13.105
 6322SOL    HW219551   3.418   3.176  13.103
 6323SOL     OW19552   2.326   3.605  13.357
 6323SOL    HW119553   2.359   3.644  13.443
 6323SOL    HW219554   2.402   3.598  13.292
 6324SOL     OW19555   3.262   1.969  13.460
 6324SOL    HW119556   3.238   1.932  13.370
 6324SOL    HW219557   3.361   1.985  13.464
 6325SOL     OW19558   2.802   3.560  13.938
 6325SOL    HW119559   2.882   3.503  13.959
 6325SOL    HW219560   2.753   3.520  13.861
 6326SOL     OW19561   2.244   2.562  13.514
 6326SOL    HW119562   2.289   2.472  13.511
 6326SOL    HW219563   2.150   2.551  13.547
 6327SOL     OW19564   2.476   1.984  13.151
 6327SOL    HW119565   2.574   1.962  13.158
 6327SOL    HW219566   2.445   1.967  13.058
 6328SOL     OW19567   2.401   1.926  13.546
 6328SOL    HW119568   2.320   1.927  13.604
 6328SOL    HW219569   2.404   2.009  13.491
 6329SOL     OW19570   3.296   3.050  13.075
 6329SOL    HW119571   3.328   2.974  13.132
 6329SOL    HW219572   3.204   3.077  13.105
 6330SOL     OW19573   2.797   2.098  13.514
 6330SOL    HW119574   2.749   2.139  13.436
 6330SOL    HW219575   2.896   2.096  13.495
 6331SOL     OW19576   2.321   3.014  13.775
 6331SOL    HW119577   2.250   2.987  13.840
 6331SOL    HW219578   2.295   2.986  13.682
 6332SOL     OW19579   3.133   3.659  13.625
 6332SOL    HW119580   3.177   3.723  13.561
 6332SOL    HW219581   3.083   3.711  13.695
 6333SOL     OW19582   2.894   2.411  13.050
 6333SOL    HW119583   2.853   2.493  13.011
 6333SOL    HW219584   2.958   2.437  13.123
 6334SOL     OW19585   2.728   2.316  13.676
 6334SOL    HW119586   2.696   2.388  13.614
 6334SOL    HW219587   2.752   2.235  13.623
 6335SOL     OW19588   2.879   1.901  13.787
 6335SOL    HW119589   2.807   1.906  13.718
 6335SOL    HW219590   2.855   1.832  13.856
 6336SOL     OW19591   3.719   2.695  13.411
 6336SOL    HW119592   3.761   2.631  13.475
 6336SOL    HW219593   3.681   2.644  13.333
 6337SOL     OW19594   2.350   3.247  13.208
 6337SOL    HW119595   2.263   3.232  13.255
 6337SOL    HW219596   2.333   3.273  13.113
 6338SOL     OW19597   3.526   3.142  13.691
 6338SOL    HW119598   3.625   3.150  13.705
 6338SOL    HW219599   3.481   3.226  13.722
 6339SOL     OW19600   3.252   2.437  13.112
 6339SOL    HW119601   3.198   2.416  13.193
 6339SOL    HW219602   3.343   2.396  13.121
 6340SOL     OW19603   2.389   2.118  13.362
 6340SOL    HW119604   2.416   2.059  13.287
 6340SOL    HW219605   2.389   2.213  13.331
 6341SOL     OW19606   2.567   2.912  13.402
 6341SOL    HW119607   2.553   2.919  13.501
 6341SOL    HW219608   2.651   2.861  13.384
 6342SOL     OW19609   2.229   2.962  13.535
 6342SOL    HW119610   2.222   3.045  13.479
 6342SOL    HW219611   2.233   2.882  13.475
 6343SOL     OW19612   2.428   2.399  13.899
 6343SOL    HW119613   2.440   2.465  13.825
 6343SOL    HW219614   2.474   2.433  13.982
 6344SOL     OW19615   3.114   3.210  13.422
 6344SOL    HW119616   3.164   3.287  13.462
 6344SOL    HW219617   3.019   3.212  13.454
 6345SOL     OW19618   3.444   2.501  13.506
 6345SOL    HW119619   3.413   2.562  13.579
 6345SOL    HW219620   3.494   2.553  13.437
 6346SOL     OW19621   3.071   2.387  13.309
 6346SOL    HW119622   3.084   2.303  13.363
 6346SOL    HW219623   3.042   2.461  13.369
 6347SOL     OW19624   3.484   2.229  13.408
 6347SOL    HW119625   3.486   2.153  13.472
 6347SOL    HW219626   3.436   2.306  13.448
 6348SOL     OW19627   3.402   2.136  13.159
 6348SOL    HW119628   3.341   2.061  13.182
 6348SOL    HW219629   3.424   2.188  13.242
 6349SOL     OW19630   3.165   2.700  13.076
 6349SOL    HW119631   3.199   2.607  13.091
 6349SOL    HW219632   3.183   2.727  12.981
 6350SOL     OW19633   1.870   3.188  13.234
 6350SOL    HW119634   1.777   3.209  13.203
 6350SOL    HW219635   1.880   3.089  13.247
 6351SOL     OW19636   2.677   2.434  13.359
 6351SOL    HW119637   2.684   2.345  13.313
 6351SOL    HW219638   2.583   2.468  13.351
 6352SOL     OW19639   2.335   2.362  13.225
 6352SOL    HW119640   2.396   2.442  13.229
 6352SOL    HW219641   2.240   2.393  13.232
 6353SOL     OW19642   3.164   2.717  13.343
 6353SOL    HW119643   3.078   2.686  13.385
 6353SOL    HW219644   3.160   2.703  13.244
 6354SOL     OW19645   3.588   1.997  13.557
 6354SOL    HW119646   3.661   1.980  13.490
 6354SOL    HW219647   3.557   1.910  13.595
 6355SOL     OW19648   3.250   3.435  13.511
 6355SOL    HW119649   3.317   3.447  13.437
 6355SOL    HW219650   3.210   3.524  13.534
 6356SOL     OW19651   3.142   2.789  13.706
 6356SOL    HW119652   3.202   2.708  13.708
 6356SOL    HW219653   3.182   2.858  13.646
 6357SOL     OW19654   2.534   3.478  13.188
 6357SOL    HW119655   2.543   3.488  13.089
 6357SOL    HW219656   2.494   3.389  13.209
 6358SOL     OW19657   3.703   2.037  13.997
 6358SOL    HW119658   3.742   1.952  13.961
 6358SOL    HW219659   3.605   2.039  13.978
 6359SOL     OW19660   3.056   3.474  13.065
 6359SOL    HW119661   3.062   3.381  13.102
 6359SOL    HW219662   2.997   3.474  12.985
 6360SOL     OW19663   2.778   2.772  13.325
 6360SOL    HW119664   2.841   2.810  13.257
 6360SOL    HW219665   2.818   2.689  13.364
 6361SOL     OW19666   3.366   3.469  13.078
 6361SOL    HW119667   3.274   3.506  13.085
 6361SOL    HW219668   3.404   3.489  12.988
 6362SOL     OW19669   2.901   2.960  13.730
 6362SOL    HW119670   2.831   2.913  13.784
 6362SOL    HW219671   2.960   2.892  13.687
 6363SOL     OW19672   2.452   3.349  13.525
 6363SOL    HW119673   2.494   3.291  13.455
 6363SOL    HW219674   2.408   3.428  13.481
 6364SOL     OW19675   2.117   3.210  13.324
 6364SOL    HW119676   2.021   3.211  13.297
 6364SOL    HW219677   2.129   3.263  13.408
 6365SOL     OW19678   3.045   3.197  13.153
 6365SOL    HW119679   2.946   3.186  13.155
 6365SOL    HW219680   3.079   3.212  13.246
 6366SOL     OW19681   3.087   2.187  13.483
 6366SOL    HW119682   3.152   2.113  13.472
 6366SOL    HW219683   3.107   2.237  13.567
 6367SOL     OW19684   2.456   2.607  13.686
 6367SOL    HW119685   2.506   2.692  13.667
 6367SOL    HW219686   2.368   2.609  13.638
 6368SOL     OW19687   2.721   3.236  13.050
 6368SOL    HW119688   2.675   3.251  13.138
 6368SOL    HW219689   2.765   3.321  13.020
 6369SOL     OW19690   2.523   3.652  13.987
 6369SOL    HW119691   2.477   3.740  13.974
 6369SOL    HW219692   2.622   3.664  13.980
 6370SOL     OW19693   2.721   2.818  13.895
 6370SOL    HW119694   2.775   2.749  13.943
 6370SOL    HW219695   2.689   2.887  13.961
 6371SOL     OW19696   2.945   2.846  13.121
 6371SOL    HW119697   2.922   2.899  13.039
 6371SOL    HW219698   3.026   2.790  13.102
 6372SOL     OW19699   1.941   3.102  13.687
 6372SOL    HW119700   1.940   3.055  13.775
 6372SOL    HW219701   2.023   3.074  13.636
 6373SOL     OW19702   2.290   2.286  13.554
 6373SOL    HW119703   2.320   2.214  13.492
 6373SOL    HW219704   2.251   2.246  13.637
 6374SOL     OW19705   3.567   3.349  14.138
 6374SOL    HW119706   3.474   3.324  14.111
 6374SOL    HW219707   3.593   3.299  14.220
 6375SOL     OW19708   2.674   3.448  13.721
 6375SOL    HW119709   2.706   3.458  13.627
 6375SOL    HW219710   2.595   3.386  13.723
 6376SOL     OW19711   2.632   3.192  13.335
 6376SOL    HW119712   2.586   3.105  13.352
 6376SOL    HW219713   2.723   3.189  13.376
 6377SOL     OW19714   3.214   1.914  13.202
 6377SOL    HW119715   3.249   1.873  13.118
 6377SOL    HW219716   3.124   1.876  13.222
 6378SOL     OW19717   3.162   2.315  13.725
 6378SOL    HW119718   3.103   2.395  13.729
 6378SOL    HW219719   3.177   2.280  13.818
 6379SOL     OW19720   1.901   2.939  13.334
 6379SOL    HW119721   2.000   2.928  13.325
 6379SOL    HW219722   1.861   2.853  13.366
 6380SOL     OW19723   2.737   3.508  13.371
 6380SOL    HW119724   2.660   3.473  13.317
 6380SOL    HW219725   2.705   3.579  13.433
 6381SOL     OW19726   2.087   3.999   0.996
 6381SOL    HW119727   2.122   3.982   1.088
 6381SOL    HW219728   1.999   3.954   0.984
 6382SOL     OW19729   1.881   4.092   0.647
 6382SOL    HW119730   1.799   4.135   0.686
 6382SOL    HW219731   1.853   4.019   0.584
 6383SOL     OW19732   3.617   4.331   0.231
 6383SOL    HW119733   3.605   4.318   0.132
 6383SOL    HW219734   3.587   4.250   0.280
 6384SOL     OW19735   2.300   4.116   1.499
 6384SOL    HW119736   2.382   4.060   1.508
 6384SOL    HW219737   2.219   4.058   1.503
 6385SOL     OW19738   3.456   3.838   1.480
 6385SOL    HW119739   3.438   3.905   1.408
 6385SOL    HW219740   3.453   3.884   1.569
 6386SOL     OW19741   2.671   3.728   0.502
 6386SOL    HW119742   2.711   3.819   0.493
 6386SOL    HW219743   2.571   3.736   0.508
 6387SOL     OW19744   3.143   4.069   0.944
 6387SOL    HW119745   3.057   4.019   0.931
 6387SOL    HW219746   3.205   4.015   1.000
 6388SOL     OW19747   2.412   3.920   0.885
 6388SOL    HW119748   2.407   3.915   0.985
 6388SOL    HW219749   2.414   4.016   0.856
 6389SOL     OW19750   2.064   4.009   1.498
 6389SOL    HW119751   1.984   4.069   1.485
 6389SOL    HW219752   2.054   3.960   1.584
 6390SOL     OW19753   3.262   3.831   0.426
 6390SOL    HW119754   3.238   3.794   0.336
 6390SOL    HW219755   3.361   3.847   0.430
 6391SOL     OW19756   3.409   3.946   1.729
 6391SOL    HW119757   3.404   3.983   1.821
 6391SOL    HW219758   3.337   3.877   1.717
 6392SOL     OW19759   2.643   3.988   1.749
 6392SOL    HW119760   2.710   3.927   1.792
 6392SOL    HW219761   2.570   4.007   1.814
 6393SOL     OW19762   2.401   3.788   0.512
 6393SOL    HW119763   2.320   3.789   0.570
 6393SOL    HW219764   2.404   3.871   0.457
 6394SOL     OW19765   2.159   3.759   0.171
 6394SOL    HW119766   2.208   3.843   0.150
 6394SOL    HW219767   2.221   3.694   0.216
 6395SOL     OW19768   2.423   3.946   1.147
 6395SOL    HW119769   2.461   3.862   1.184
 6395SOL    HW219770   2.335   3.965   1.191
 6396SOL     OW19771   2.879   3.763   0.753
 6396SOL    HW119772   2.807   3.768   0.684
 6396SOL    HW219773   2.855   3.694   0.822
 6397SOL     OW19774   2.777   3.813   1.402
 6397SOL    HW119775   2.802   3.793   1.307
 6397SOL    HW219776   2.849   3.869   1.444
 6398SOL     OW19777   3.136   4.110   1.262
 6398SOL    HW119778   3.157   4.184   1.326
 6398SOL    HW219779   3.047   4.127   1.219
 6399SOL     OW19780   2.366   3.774   1.740
 6399SOL    HW119781   2.324   3.717   1.670
 6399SOL    HW219782   2.300   3.843   1.772
 6400SOL     OW19783   2.169   3.937   1.231
 6400SOL    HW119784   2.146   3.974   1.321
 6400SOL    HW219785   2.139   3.842   1.225
 6401SOL     OW19786   3.402   3.998   0.125
 6401SOL    HW119787   3.341   3.923   0.148
 6401SOL    HW219788   3.424   4.050   0.208
 6402SOL     OW19789   3.022   3.931   1.477
 6402SOL    HW119790   3.022   3.995   1.554
 6402SOL    HW219791   3.050   3.979   1.394
 6403SOL     OW19792   2.765   3.810   0.133
 6403SOL    HW119793   2.816   3.811   0.047
 6403SOL    HW219794   2.821   3.768   0.204
 6404SOL     OW19795   3.588   3.859   0.523
 6404SOL    HW119796   3.661   3.842   0.456
 6404SOL    HW219797   3.557   3.772   0.561
 6405SOL     OW19798   3.703   3.899   0.963
 6405SOL    HW119799   3.742   3.814   0.927
 6405SOL    HW219800   3.605   3.901   0.944
 6406SOL     OW19801   2.534   3.927   1.489
 6406SOL    HW119802   2.624   3.911   1.449
 6406SOL    HW219803   2.542   3.932   1.588
 6407SOL     OW19804   1.934   3.890   0.318
 6407SOL    HW119805   1.917   3.973   0.264
 6407SOL    HW219806   2.024   3.853   0.296
 6408SOL     OW19807   3.087   4.049   0.449
 6408SOL    HW119808   3.152   3.975   0.438
 6408SOL    HW219809   3.107   4.099   0.533
 6409SOL     OW19810   3.639   4.066   1.642
 6409SOL    HW119811   3.622   4.097   1.548
 6409SOL    HW219812   3.555   4.029   1.680
 6410SOL     OW19813   3.686   3.916   1.227
 6410SOL    HW119814   3.682   3.826   1.271
 6410SOL    HW219815   3.689   3.905   1.128
 6411SOL     OW19816   3.286   3.938   1.112
 6411SOL    HW119817   3.338   3.873   1.167
 6411SOL    HW219818   3.237   4.001   1.173
 6412SOL     OW19819   2.863   3.758   1.154
 6412SOL    HW119820   2.800   3.686   1.123
 6412SOL    HW219821   2.956   3.722   1.154
 6413SOL     OW19822   3.214   3.776   0.168
 6413SOL    HW119823   3.249   3.735   0.084
 6413SOL    HW219824   3.124   3.738   0.188
 6414SOL     OW19825   3.162   4.177   0.691
 6414SOL    HW119826   3.103   4.257   0.695
 6414SOL    HW219827   3.177   4.142   0.784
 6415SOL     OW19828   3.455   3.945   0.882
 6415SOL    HW119829   3.371   3.944   0.936
 6415SOL    HW219830   3.457   4.028   0.826
 6416SOL     OW19831   2.087   3.999   2.858
 6416SOL    HW119832   2.122   3.982   2.950
 6416SOL    HW219833   1.999   3.954   2.846
 6417SOL     OW19834   1.881   4.092   2.509
 6417SOL    HW119835   1.799   4.135   2.548
 6417SOL    HW219836   1.853   4.019   2.446
 6418SOL     OW19837   3.617   4.331   2.093
 6418SOL    HW119838   3.605   4.318   1.994
 6418SOL    HW219839   3.587   4.250   2.142
 6419SOL     OW19840   2.300   4.116   3.361
 6419SOL    HW119841   2.382   4.060   3.370
 6419SOL    HW219842   2.219   4.058   3.365
 6420SOL     OW19843   3.456   3.838   3.342
 6420SOL    HW119844   3.438   3.905   3.270
 6420SOL    HW219845   3.453   3.884   3.431
 6421SOL     OW19846   2.671   3.728   2.364
 6421SOL    HW119847   2.711   3.819   2.355
 6421SOL    HW219848   2.571   3.736   2.370
 6422SOL     OW19849   3.143   4.069   2.806
 6422SOL    HW119850   3.057   4.019   2.793
 6422SOL    HW219851   3.205   4.015   2.862
 6423SOL     OW19852   2.412   3.920   2.747
 6423SOL    HW119853   2.407   3.915   2.847
 6423SOL    HW219854   2.414   4.016   2.718
 6424SOL     OW19855   2.064   4.009   3.360
 6424SOL    HW119856   1.984   4.069   3.347
 6424SOL    HW219857   2.054   3.960   3.446
 6425SOL     OW19858   3.262   3.831   2.288
 6425SOL    HW119859   3.238   3.794   2.198
 6425SOL    HW219860   3.361   3.847   2.292
 6426SOL     OW19861   3.409   3.946   3.591
 6426SOL    HW119862   3.404   3.983   3.683
 6426SOL    HW219863   3.337   3.877   3.579
 6427SOL     OW19864   2.476   3.846   1.979
 6427SOL    HW119865   2.574   3.824   1.986
 6427SOL    HW219866   2.445   3.829   1.886
 6428SOL     OW19867   2.643   3.988   3.611
 6428SOL    HW119868   2.710   3.927   3.654
 6428SOL    HW219869   2.570   4.007   3.676
 6429SOL     OW19870   2.401   3.788   2.374
 6429SOL    HW119871   2.320   3.789   2.432
 6429SOL    HW219872   2.404   3.871   2.319
 6430SOL     OW19873   2.159   3.759   2.033
 6430SOL    HW119874   2.208   3.843   2.012
 6430SOL    HW219875   2.221   3.694   2.078
 6431SOL     OW19876   2.423   3.946   3.009
 6431SOL    HW119877   2.461   3.862   3.046
 6431SOL    HW219878   2.335   3.965   3.053
 6432SOL     OW19879   2.879   3.763   2.615
 6432SOL    HW119880   2.807   3.768   2.546
 6432SOL    HW219881   2.855   3.694   2.684
 6433SOL     OW19882   2.777   3.813   3.264
 6433SOL    HW119883   2.802   3.793   3.169
 6433SOL    HW219884   2.849   3.869   3.306
 6434SOL     OW19885   3.136   4.110   3.124
 6434SOL    HW119886   3.157   4.184   3.188
 6434SOL    HW219887   3.047   4.127   3.081
 6435SOL     OW19888   2.366   3.774   3.602
 6435SOL    HW119889   2.324   3.717   3.532
 6435SOL    HW219890   2.300   3.843   3.634
 6436SOL     OW19891   2.169   3.937   3.093
 6436SOL    HW119892   2.146   3.974   3.183
 6436SOL    HW219893   2.139   3.842   3.087
 6437SOL     OW19894   3.402   3.998   1.987
 6437SOL    HW119895   3.341   3.923   2.010
 6437SOL    HW219896   3.424   4.050   2.070
 6438SOL     OW19897   3.022   3.931   3.339
 6438SOL    HW119898   3.022   3.995   3.416
 6438SOL    HW219899   3.050   3.979   3.256
 6439SOL     OW19900   2.765   3.810   1.995
 6439SOL    HW119901   2.816   3.811   1.909
 6439SOL    HW219902   2.821   3.768   2.066
 6440SOL     OW19903   3.588   3.859   2.385
 6440SOL    HW119904   3.661   3.842   2.318
 6440SOL    HW219905   3.557   3.772   2.423
 6441SOL     OW19906   3.703   3.899   2.825
 6441SOL    HW119907   3.742   3.814   2.789
 6441SOL    HW219908   3.605   3.901   2.806
 6442SOL     OW19909   2.534   3.927   3.351
 6442SOL    HW119910   2.624   3.911   3.311
 6442SOL    HW219911   2.542   3.932   3.450
 6443SOL     OW19912   1.937   4.069   1.895
 6443SOL    HW119913   1.845   4.041   1.866
 6443SOL    HW219914   1.968   4.146   1.839
 6444SOL     OW19915   1.934   3.890   2.180
 6444SOL    HW119916   1.917   3.973   2.126
 6444SOL    HW219917   2.024   3.853   2.158
 6445SOL     OW19918   3.087   4.049   2.311
 6445SOL    HW119919   3.152   3.975   2.300
 6445SOL    HW219920   3.107   4.099   2.395
 6446SOL     OW19921   3.639   4.066   3.504
 6446SOL    HW119922   3.622   4.097   3.410
 6446SOL    HW219923   3.555   4.029   3.542
 6447SOL     OW19924   3.686   3.916   3.089
 6447SOL    HW119925   3.682   3.826   3.133
 6447SOL    HW219926   3.689   3.905   2.990
 6448SOL     OW19927   3.286   3.938   2.974
 6448SOL    HW119928   3.338   3.873   3.029
 6448SOL    HW219929   3.237   4.001   3.035
 6449SOL     OW19930   2.863   3.758   3.016
 6449SOL    HW119931   2.800   3.686   2.985
 6449SOL    HW219932   2.956   3.722   3.016
 6450SOL     OW19933   3.214   3.776   2.030
 6450SOL    HW119934   3.249   3.735   1.946
 6450SOL    HW219935   3.124   3.738   2.050
 6451SOL     OW19936   3.162   4.177   2.553
 6451SOL    HW119937   3.103   4.257   2.557
 6451SOL    HW219938   3.177   4.142   2.646
 6452SOL     OW19939   3.455   3.945   2.744
 6452SOL    HW119940   3.371   3.944   2.798
 6452SOL    HW219941   3.457   4.028   2.688
 6453SOL     OW19942   2.087   3.999   4.720
 6453SOL    HW119943   2.122   3.982   4.812
 6453SOL    HW219944   1.999   3.954   4.708
 6454SOL     OW19945   1.881   4.092   4.371
 6454SOL    HW119946   1.799   4.135   4.410
 6454SOL    HW219947   1.853   4.019   4.308
 6455SOL     OW19948   3.617   4.331   3.955
 6455SOL    HW119949   3.605   4.318   3.856
 6455SOL    HW219950   3.587   4.250   4.004
 6456SOL     OW19951   2.300   4.116   5.223
 6456SOL    HW119952   2.382   4.060   5.232
 6456SOL    HW219953   2.219   4.058   5.227
 6457SOL     OW19954   3.456   3.838   5.204
 6457SOL    HW119955   3.438   3.905   5.132
 6457SOL    HW219956   3.453   3.884   5.293
 6458SOL     OW19957   2.671   3.728   4.226
 6458SOL    HW119958   2.711   3.819   4.217
 6458SOL    HW219959   2.571   3.736   4.232
 6459SOL     OW19960   3.143   4.069   4.668
 6459SOL    HW119961   3.057   4.019   4.655
 6459SOL    HW219962   3.205   4.015   4.724
 6460SOL     OW19963   2.412   3.920   4.609
 6460SOL    HW119964   2.407   3.915   4.709
 6460SOL    HW219965   2.414   4.016   4.580
 6461SOL     OW19966   2.064   4.009   5.222
 6461SOL    HW119967   1.984   4.069   5.209
 6461SOL    HW219968   2.054   3.960   5.308
 6462SOL     OW19969   3.262   3.831   4.150
 6462SOL    HW119970   3.238   3.794   4.060
 6462SOL    HW219971   3.361   3.847   4.154
 6463SOL     OW19972   3.409   3.946   5.453
 6463SOL    HW119973   3.404   3.983   5.545
 6463SOL    HW219974   3.337   3.877   5.441
 6464SOL     OW19975   2.476   3.846   3.841
 6464SOL    HW119976   2.574   3.824   3.848
 6464SOL    HW219977   2.445   3.829   3.748
 6465SOL     OW19978   2.643   3.988   5.473
 6465SOL    HW119979   2.710   3.927   5.516
 6465SOL    HW219980   2.570   4.007   5.538
 6466SOL     OW19981   2.401   3.788   4.236
 6466SOL    HW119982   2.320   3.789   4.294
 6466SOL    HW219983   2.404   3.871   4.181
 6467SOL     OW19984   2.159   3.759   3.895
 6467SOL    HW119985   2.208   3.843   3.874
 6467SOL    HW219986   2.221   3.694   3.940
 6468SOL     OW19987   2.423   3.946   4.871
 6468SOL    HW119988   2.461   3.862   4.908
 6468SOL    HW219989   2.335   3.965   4.915
 6469SOL     OW19990   2.879   3.763   4.477
 6469SOL    HW119991   2.807   3.768   4.408
 6469SOL    HW219992   2.855   3.694   4.546
 6470SOL     OW19993   2.777   3.813   5.126
 6470SOL    HW119994   2.802   3.793   5.031
 6470SOL    HW219995   2.849   3.869   5.168
 6471SOL     OW19996   3.136   4.110   4.986
 6471SOL    HW119997   3.157   4.184   5.050
 6471SOL    HW219998   3.047   4.127   4.943
 6472SOL     OW19999   2.366   3.774   5.464
 6472SOL    HW120000   2.324   3.717   5.394
 6472SOL    HW220001   2.300   3.843   5.496
 6473SOL     OW20002   2.169   3.937   4.955
 6473SOL    HW120003   2.146   3.974   5.045
 6473SOL    HW220004   2.139   3.842   4.949
 6474SOL     OW20005   3.402   3.998   3.849
 6474SOL    HW120006   3.341   3.923   3.872
 6474SOL    HW220007   3.424   4.050   3.932
 6475SOL     OW20008   3.022   3.931   5.201
 6475SOL    HW120009   3.022   3.995   5.278
 6475SOL    HW220010   3.050   3.979   5.118
 6476SOL     OW20011   2.765   3.810   3.857
 6476SOL    HW120012   2.816   3.811   3.771
 6476SOL    HW220013   2.821   3.768   3.928
 6477SOL     OW20014   3.588   3.859   4.247
 6477SOL    HW120015   3.661   3.842   4.180
 6477SOL    HW220016   3.557   3.772   4.285
 6478SOL     OW20017   3.703   3.899   4.687
 6478SOL    HW120018   3.742   3.814   4.651
 6478SOL    HW220019   3.605   3.901   4.668
 6479SOL     OW20020   2.534   3.927   5.213
 6479SOL    HW120021   2.624   3.911   5.173
 6479SOL    HW220022   2.542   3.932   5.312
 6480SOL     OW20023   1.937   4.069   3.757
 6480SOL    HW120024   1.845   4.041   3.728
 6480SOL    HW220025   1.968   4.146   3.701
 6481SOL     OW20026   1.934   3.890   4.042
 6481SOL    HW120027   1.917   3.973   3.988
 6481SOL    HW220028   2.024   3.853   4.020
 6482SOL     OW20029   3.087   4.049   4.173
 6482SOL    HW120030   3.152   3.975   4.162
 6482SOL    HW220031   3.107   4.099   4.257
 6483SOL     OW20032   3.639   4.066   5.366
 6483SOL    HW120033   3.622   4.097   5.272
 6483SOL    HW220034   3.555   4.029   5.404
 6484SOL     OW20035   3.686   3.916   4.951
 6484SOL    HW120036   3.682   3.826   4.995
 6484SOL    HW220037   3.689   3.905   4.852
 6485SOL     OW20038   3.286   3.938   4.836
 6485SOL    HW120039   3.338   3.873   4.891
 6485SOL    HW220040   3.237   4.001   4.897
 6486SOL     OW20041   2.863   3.758   4.878
 6486SOL    HW120042   2.800   3.686   4.847
 6486SOL    HW220043   2.956   3.722   4.878
 6487SOL     OW20044   3.214   3.776   3.892
 6487SOL    HW120045   3.249   3.735   3.808
 6487SOL    HW220046   3.124   3.738   3.912
 6488SOL     OW20047   3.162   4.177   4.415
 6488SOL    HW120048   3.103   4.257   4.419
 6488SOL    HW220049   3.177   4.142   4.508
 6489SOL     OW20050   3.455   3.945   4.606
 6489SOL    HW120051   3.371   3.944   4.660
 6489SOL    HW220052   3.457   4.028   4.550
 6490SOL     OW20053   2.087   3.999   6.582
 6490SOL    HW120054   2.122   3.982   6.674
 6490SOL    HW220055   1.999   3.954   6.570
 6491SOL     OW20056   1.881   4.092   6.233
 6491SOL    HW120057   1.799   4.135   6.272
 6491SOL    HW220058   1.853   4.019   6.170
 6492SOL     OW20059   3.617   4.331   5.817
 6492SOL    HW120060   3.605   4.318   5.718
 6492SOL    HW220061   3.587   4.250   5.866
 6493SOL     OW20062   2.300   4.116   7.085
 6493SOL    HW120063   2.382   4.060   7.094
 6493SOL    HW220064   2.219   4.058   7.089
 6494SOL     OW20065   3.456   3.838   7.066
 6494SOL    HW120066   3.438   3.905   6.994
 6494SOL    HW220067   3.453   3.884   7.155
 6495SOL     OW20068   2.671   3.728   6.088
 6495SOL    HW120069   2.711   3.819   6.079
 6495SOL    HW220070   2.571   3.736   6.094
 6496SOL     OW20071   3.143   4.069   6.530
 6496SOL    HW120072   3.057   4.019   6.517
 6496SOL    HW220073   3.205   4.015   6.586
 6497SOL     OW20074   2.412   3.920   6.471
 6497SOL    HW120075   2.407   3.915   6.571
 6497SOL    HW220076   2.414   4.016   6.442
 6498SOL     OW20077   2.064   4.009   7.084
 6498SOL    HW120078   1.984   4.069   7.071
 6498SOL    HW220079   2.054   3.960   7.170
 6499SOL     OW20080   3.262   3.831   6.012
 6499SOL    HW120081   3.238   3.794   5.922
 6499SOL    HW220082   3.361   3.847   6.016
 6500SOL     OW20083   3.409   3.946   7.315
 6500SOL    HW120084   3.404   3.983   7.407
 6500SOL    HW220085   3.337   3.877   7.303
 6501SOL     OW20086   2.476   3.846   5.703
 6501SOL    HW120087   2.574   3.824   5.710
 6501SOL    HW220088   2.445   3.829   5.610
 6502SOL     OW20089   2.643   3.988   7.335
 6502SOL    HW120090   2.710   3.927   7.378
 6502SOL    HW220091   2.570   4.007   7.400
 6503SOL     OW20092   2.401   3.788   6.098
 6503SOL    HW120093   2.320   3.789   6.156
 6503SOL    HW220094   2.404   3.871   6.043
 6504SOL     OW20095   2.159   3.759   5.757
 6504SOL    HW120096   2.208   3.843   5.736
 6504SOL    HW220097   2.221   3.694   5.802
 6505SOL     OW20098   2.423   3.946   6.733
 6505SOL    HW120099   2.461   3.862   6.770
 6505SOL    HW220100   2.335   3.965   6.777
 6506SOL     OW20101   2.879   3.763   6.339
 6506SOL    HW120102   2.807   3.768   6.270
 6506SOL    HW220103   2.855   3.694   6.408
 6507SOL     OW20104   2.777   3.813   6.988
 6507SOL    HW120105   2.802   3.793   6.893
 6507SOL    HW220106   2.849   3.869   7.030
 6508SOL     OW20107   3.136   4.110   6.848
 6508SOL    HW120108   3.157   4.184   6.912
 6508SOL    HW220109   3.047   4.127   6.805
 6509SOL     OW20110   2.366   3.774   7.326
 6509SOL    HW120111   2.324   3.717   7.256
 6509SOL    HW220112   2.300   3.843   7.358
 6510SOL     OW20113   2.169   3.937   6.817
 6510SOL    HW120114   2.146   3.974   6.907
 6510SOL    HW220115   2.139   3.842   6.811
 6511SOL     OW20116   3.402   3.998   5.711
 6511SOL    HW120117   3.341   3.923   5.734
 6511SOL    HW220118   3.424   4.050   5.794
 6512SOL     OW20119   3.022   3.931   7.063
 6512SOL    HW120120   3.022   3.995   7.140
 6512SOL    HW220121   3.050   3.979   6.980
 6513SOL     OW20122   2.765   3.810   5.719
 6513SOL    HW120123   2.816   3.811   5.633
 6513SOL    HW220124   2.821   3.768   5.790
 6514SOL     OW20125   3.588   3.859   6.109
 6514SOL    HW120126   3.661   3.842   6.042
 6514SOL    HW220127   3.557   3.772   6.147
 6515SOL     OW20128   3.703   3.899   6.549
 6515SOL    HW120129   3.742   3.814   6.513
 6515SOL    HW220130   3.605   3.901   6.530
 6516SOL     OW20131   2.534   3.927   7.075
 6516SOL    HW120132   2.624   3.911   7.035
 6516SOL    HW220133   2.542   3.932   7.174
 6517SOL     OW20134   1.937   4.069   5.619
 6517SOL    HW120135   1.845   4.041   5.590
 6517SOL    HW220136   1.968   4.146   5.563
 6518SOL     OW20137   1.934   3.890   5.904
 6518SOL    HW120138   1.917   3.973   5.850
 6518SOL    HW220139   2.024   3.853   5.882
 6519SOL     OW20140   3.087   4.049   6.035
 6519SOL    HW120141   3.152   3.975   6.024
 6519SOL    HW220142   3.107   4.099   6.119
 6520SOL     OW20143   3.639   4.066   7.228
 6520SOL    HW120144   3.622   4.097   7.134
 6520SOL    HW220145   3.555   4.029   7.266
 6521SOL     OW20146   3.686   3.916   6.813
 6521SOL    HW120147   3.682   3.826   6.857
 6521SOL    HW220148   3.689   3.905   6.714
 6522SOL     OW20149   3.286   3.938   6.698
 6522SOL    HW120150   3.338   3.873   6.753
 6522SOL    HW220151   3.237   4.001   6.759
 6523SOL     OW20152   2.863   3.758   6.740
 6523SOL    HW120153   2.800   3.686   6.709
 6523SOL    HW220154   2.956   3.722   6.740
 6524SOL     OW20155   3.214   3.776   5.754
 6524SOL    HW120156   3.249   3.735   5.670
 6524SOL    HW220157   3.124   3.738   5.774
 6525SOL     OW20158   3.162   4.177   6.277
 6525SOL    HW120159   3.103   4.257   6.281
 6525SOL    HW220160   3.177   4.142   6.370
 6526SOL     OW20161   3.455   3.945   6.468
 6526SOL    HW120162   3.371   3.944   6.522
 6526SOL    HW220163   3.457   4.028   6.412
 6527SOL     OW20164   2.087   3.999   8.444
 6527SOL    HW120165   2.122   3.982   8.536
 6527SOL    HW220166   1.999   3.954   8.432
 6528SOL     OW20167   1.881   4.092   8.095
 6528SOL    HW120168   1.799   4.135   8.134
 6528SOL    HW220169   1.853   4.019   8.032
 6529SOL     OW20170   3.617   4.331   7.679
 6529SOL    HW120171   3.605   4.318   7.580
 6529SOL    HW220172   3.587   4.250   7.728
 6530SOL     OW20173   2.300   4.116   8.947
 6530SOL    HW120174   2.382   4.060   8.956
 6530SOL    HW220175   2.219   4.058   8.951
 6531SOL     OW20176   3.456   3.838   8.928
 6531SOL    HW120177   3.438   3.905   8.856
 6531SOL    HW220178   3.453   3.884   9.017
 6532SOL     OW20179   2.671   3.728   7.950
 6532SOL    HW120180   2.711   3.819   7.941
 6532SOL    HW220181   2.571   3.736   7.956
 6533SOL     OW20182   3.143   4.069   8.392
 6533SOL    HW120183   3.057   4.019   8.379
 6533SOL    HW220184   3.205   4.015   8.448
 6534SOL     OW20185   2.412   3.920   8.333
 6534SOL    HW120186   2.407   3.915   8.433
 6534SOL    HW220187   2.414   4.016   8.304
 6535SOL     OW20188   2.064   4.009   8.946
 6535SOL    HW120189   1.984   4.069   8.933
 6535SOL    HW220190   2.054   3.960   9.032
 6536SOL     OW20191   3.262   3.831   7.874
 6536SOL    HW120192   3.238   3.794   7.784
 6536SOL    HW220193   3.361   3.847   7.878
 6537SOL     OW20194   3.409   3.946   9.177
 6537SOL    HW120195   3.404   3.983   9.269
 6537SOL    HW220196   3.337   3.877   9.165
 6538SOL     OW20197   2.476   3.846   7.565
 6538SOL    HW120198   2.574   3.824   7.572
 6538SOL    HW220199   2.445   3.829   7.472
 6539SOL     OW20200   2.643   3.988   9.197
 6539SOL    HW120201   2.710   3.927   9.240
 6539SOL    HW220202   2.570   4.007   9.262
 6540SOL     OW20203   2.401   3.788   7.960
 6540SOL    HW120204   2.320   3.789   8.018
 6540SOL    HW220205   2.404   3.871   7.905
 6541SOL     OW20206   2.159   3.759   7.619
 6541SOL    HW120207   2.208   3.843   7.598
 6541SOL    HW220208   2.221   3.694   7.664
 6542SOL     OW20209   2.423   3.946   8.595
 6542SOL    HW120210   2.461   3.862   8.632
 6542SOL    HW220211   2.335   3.965   8.639
 6543SOL     OW20212   2.879   3.763   8.201
 6543SOL    HW120213   2.807   3.768   8.132
 6543SOL    HW220214   2.855   3.694   8.270
 6544SOL     OW20215   2.777   3.813   8.850
 6544SOL    HW120216   2.802   3.793   8.755
 6544SOL    HW220217   2.849   3.869   8.892
 6545SOL     OW20218   3.136   4.110   8.710
 6545SOL    HW120219   3.157   4.184   8.774
 6545SOL    HW220220   3.047   4.127   8.667
 6546SOL     OW20221   2.366   3.774   9.188
 6546SOL    HW120222   2.324   3.717   9.118
 6546SOL    HW220223   2.300   3.843   9.220
 6547SOL     OW20224   2.169   3.937   8.679
 6547SOL    HW120225   2.146   3.974   8.769
 6547SOL    HW220226   2.139   3.842   8.673
 6548SOL     OW20227   3.402   3.998   7.573
 6548SOL    HW120228   3.341   3.923   7.596
 6548SOL    HW220229   3.424   4.050   7.656
 6549SOL     OW20230   3.022   3.931   8.925
 6549SOL    HW120231   3.022   3.995   9.002
 6549SOL    HW220232   3.050   3.979   8.842
 6550SOL     OW20233   2.765   3.810   7.581
 6550SOL    HW120234   2.816   3.811   7.495
 6550SOL    HW220235   2.821   3.768   7.652
 6551SOL     OW20236   3.588   3.859   7.971
 6551SOL    HW120237   3.661   3.842   7.904
 6551SOL    HW220238   3.557   3.772   8.009
 6552SOL     OW20239   3.703   3.899   8.411
 6552SOL    HW120240   3.742   3.814   8.375
 6552SOL    HW220241   3.605   3.901   8.392
 6553SOL     OW20242   2.534   3.927   8.937
 6553SOL    HW120243   2.624   3.911   8.897
 6553SOL    HW220244   2.542   3.932   9.036
 6554SOL     OW20245   1.937   4.069   7.481
 6554SOL    HW120246   1.845   4.041   7.452
 6554SOL    HW220247   1.968   4.146   7.425
 6555SOL     OW20248   1.934   3.890   7.766
 6555SOL    HW120249   1.917   3.973   7.712
 6555SOL    HW220250   2.024   3.853   7.744
 6556SOL     OW20251   3.087   4.049   7.897
 6556SOL    HW120252   3.152   3.975   7.886
 6556SOL    HW220253   3.107   4.099   7.981
 6557SOL     OW20254   3.639   4.066   9.090
 6557SOL    HW120255   3.622   4.097   8.996
 6557SOL    HW220256   3.555   4.029   9.128
 6558SOL     OW20257   3.686   3.916   8.675
 6558SOL    HW120258   3.682   3.826   8.719
 6558SOL    HW220259   3.689   3.905   8.576
 6559SOL     OW20260   3.286   3.938   8.560
 6559SOL    HW120261   3.338   3.873   8.615
 6559SOL    HW220262   3.237   4.001   8.621
 6560SOL     OW20263   2.863   3.758   8.602
 6560SOL    HW120264   2.800   3.686   8.571
 6560SOL    HW220265   2.956   3.722   8.602
 6561SOL     OW20266   3.214   3.776   7.616
 6561SOL    HW120267   3.249   3.735   7.532
 6561SOL    HW220268   3.124   3.738   7.636
 6562SOL     OW20269   3.162   4.177   8.139
 6562SOL    HW120270   3.103   4.257   8.143
 6562SOL    HW220271   3.177   4.142   8.232
 6563SOL     OW20272   3.455   3.945   8.330
 6563SOL    HW120273   3.371   3.944   8.384
 6563SOL    HW220274   3.457   4.028   8.274
 6564SOL     OW20275   2.087   3.999  10.306
 6564SOL    HW120276   2.122   3.982  10.398
 6564SOL    HW220277   1.999   3.954  10.294
 6565SOL     OW20278   1.881   4.092   9.957
 6565SOL    HW120279   1.799   4.135   9.996
 6565SOL    HW220280   1.853   4.019   9.894
 6566SOL     OW20281   3.617   4.331   9.541
 6566SOL    HW120282   3.605   4.318   9.442
 6566SOL    HW220283   3.587   4.250   9.590
 6567SOL     OW20284   2.300   4.116  10.809
 6567SOL    HW120285   2.382   4.060  10.818
 6567SOL    HW220286   2.219   4.058  10.813
 6568SOL     OW20287   3.456   3.838  10.790
 6568SOL    HW120288   3.438   3.905  10.718
 6568SOL    HW220289   3.453   3.884  10.879
 6569SOL     OW20290   2.671   3.728   9.812
 6569SOL    HW120291   2.711   3.819   9.803
 6569SOL    HW220292   2.571   3.736   9.818
 6570SOL     OW20293   3.143   4.069  10.254
 6570SOL    HW120294   3.057   4.019  10.241
 6570SOL    HW220295   3.205   4.015  10.310
 6571SOL     OW20296   2.412   3.920  10.195
 6571SOL    HW120297   2.407   3.915  10.295
 6571SOL    HW220298   2.414   4.016  10.166
 6572SOL     OW20299   2.064   4.009  10.808
 6572SOL    HW120300   1.984   4.069  10.795
 6572SOL    HW220301   2.054   3.960  10.894
 6573SOL     OW20302   3.262   3.831   9.736
 6573SOL    HW120303   3.238   3.794   9.646
 6573SOL    HW220304   3.361   3.847   9.740
 6574SOL     OW20305   3.409   3.946  11.039
 6574SOL    HW120306   3.404   3.983  11.131
 6574SOL    HW220307   3.337   3.877  11.027
 6575SOL     OW20308   2.476   3.846   9.427
 6575SOL    HW120309   2.574   3.824   9.434
 6575SOL    HW220310   2.445   3.829   9.334
 6576SOL     OW20311   2.643   3.988  11.059
 6576SOL    HW120312   2.710   3.927  11.102
 6576SOL    HW220313   2.570   4.007  11.124
 6577SOL     OW20314   2.401   3.788   9.822
 6577SOL    HW120315   2.320   3.789   9.880
 6577SOL    HW220316   2.404   3.871   9.767
 6578SOL     OW20317   2.159   3.759   9.481
 6578SOL    HW120318   2.208   3.843   9.460
 6578SOL    HW220319   2.221   3.694   9.526
 6579SOL     OW20320   2.423   3.946  10.457
 6579SOL    HW120321   2.461   3.862  10.494
 6579SOL    HW220322   2.335   3.965  10.501
 6580SOL     OW20323   2.879   3.763  10.063
 6580SOL    HW120324   2.807   3.768   9.994
 6580SOL    HW220325   2.855   3.694  10.132
 6581SOL     OW20326   2.777   3.813  10.712
 6581SOL    HW120327   2.802   3.793  10.617
 6581SOL    HW220328   2.849   3.869  10.754
 6582SOL     OW20329   3.136   4.110  10.572
 6582SOL    HW120330   3.157   4.184  10.636
 6582SOL    HW220331   3.047   4.127  10.529
 6583SOL     OW20332   2.366   3.774  11.050
 6583SOL    HW120333   2.324   3.717  10.980
 6583SOL    HW220334   2.300   3.843  11.082
 6584SOL     OW20335   2.169   3.937  10.541
 6584SOL    HW120336   2.146   3.974  10.631
 6584SOL    HW220337   2.139   3.842  10.535
 6585SOL     OW20338   3.402   3.998   9.435
 6585SOL    HW120339   3.341   3.923   9.458
 6585SOL    HW220340   3.424   4.050   9.518
 6586SOL     OW20341   3.022   3.931  10.787
 6586SOL    HW120342   3.022   3.995  10.864
 6586SOL    HW220343   3.050   3.979  10.704
 6587SOL     OW20344   2.765   3.810   9.443
 6587SOL    HW120345   2.816   3.811   9.357
 6587SOL    HW220346   2.821   3.768   9.514
 6588SOL     OW20347   3.588   3.859   9.833
 6588SOL    HW120348   3.661   3.842   9.766
 6588SOL    HW220349   3.557   3.772   9.871
 6589SOL     OW20350   3.703   3.899  10.273
 6589SOL    HW120351   3.742   3.814  10.237
 6589SOL    HW220352   3.605   3.901  10.254
 6590SOL     OW20353   2.534   3.927  10.799
 6590SOL    HW120354   2.624   3.911  10.759
 6590SOL    HW220355   2.542   3.932  10.898
 6591SOL     OW20356   1.937   4.069   9.343
 6591SOL    HW120357   1.845   4.041   9.314
 6591SOL    HW220358   1.968   4.146   9.287
 6592SOL     OW20359   1.934   3.890   9.628
 6592SOL    HW120360   1.917   3.973   9.574
 6592SOL    HW220361   2.024   3.853   9.606
 6593SOL     OW20362   3.087   4.049   9.759
 6593SOL    HW120363   3.152   3.975   9.748
 6593SOL    HW220364   3.107   4.099   9.843
 6594SOL     OW20365   3.639   4.066  10.952
 6594SOL    HW120366   3.622   4.097  10.858
 6594SOL    HW220367   3.555   4.029  10.990
 6595SOL     OW20368   3.686   3.916  10.537
 6595SOL    HW120369   3.682   3.826  10.581
 6595SOL    HW220370   3.689   3.905  10.438
 6596SOL     OW20371   3.286   3.938  10.422
 6596SOL    HW120372   3.338   3.873  10.477
 6596SOL    HW220373   3.237   4.001  10.483
 6597SOL     OW20374   2.863   3.758  10.464
 6597SOL    HW120375   2.800   3.686  10.433
 6597SOL    HW220376   2.956   3.722  10.464
 6598SOL     OW20377   3.214   3.776   9.478
 6598SOL    HW120378   3.249   3.735   9.394
 6598SOL    HW220379   3.124   3.738   9.498
 6599SOL     OW20380   3.162   4.177  10.001
 6599SOL    HW120381   3.103   4.257  10.005
 6599SOL    HW220382   3.177   4.142  10.094
 6600SOL     OW20383   3.455   3.945  10.192
 6600SOL    HW120384   3.371   3.944  10.246
 6600SOL    HW220385   3.457   4.028  10.136
 6601SOL     OW20386   2.087   3.999  12.168
 6601SOL    HW120387   2.122   3.982  12.260
 6601SOL    HW220388   1.999   3.954  12.156
 6602SOL     OW20389   1.881   4.092  11.819
 6602SOL    HW120390   1.799   4.135  11.858
 6602SOL    HW220391   1.853   4.019  11.756
 6603SOL     OW20392   3.617   4.331  11.403
 6603SOL    HW120393   3.605   4.318  11.304
 6603SOL    HW220394   3.587   4.250  11.452
 6604SOL     OW20395   2.300   4.116  12.671
 6604SOL    HW120396   2.382   4.060  12.680
 6604SOL    HW220397   2.219   4.058  12.675
 6605SOL     OW20398   3.456   3.838  12.652
 6605SOL    HW120399   3.438   3.905  12.580
 6605SOL    HW220400   3.453   3.884  12.741
 6606SOL     OW20401   2.671   3.728  11.674
 6606SOL    HW120402   2.711   3.819  11.665
 6606SOL    HW220403   2.571   3.736  11.680
 6607SOL     OW20404   3.143   4.069  12.116
 6607SOL    HW120405   3.057   4.019  12.103
 6607SOL    HW220406   3.205   4.015  12.172
 6608SOL     OW20407   2.412   3.920  12.057
 6608SOL    HW120408   2.407   3.915  12.157
 6608SOL    HW220409   2.414   4.016  12.028
 6609SOL     OW20410   2.064   4.009  12.670
 6609SOL    HW120411   1.984   4.069  12.657
 6609SOL    HW220412   2.054   3.960  12.756
 6610SOL     OW20413   3.262   3.831  11.598
 6610SOL    HW120414   3.238   3.794  11.508
 6610SOL    HW220415   3.361   3.847  11.602
 6611SOL     OW20416   3.409   3.946  12.901
 6611SOL    HW120417   3.404   3.983  12.993
 6611SOL    HW220418   3.337   3.877  12.889
 6612SOL     OW20419   2.476   3.846  11.289
 6612SOL    HW120420   2.574   3.824  11.296
 6612SOL    HW220421   2.445   3.829  11.196
 6613SOL     OW20422   2.643   3.988  12.921
 6613SOL    HW120423   2.710   3.927  12.964
 6613SOL    HW220424   2.570   4.007  12.986
 6614SOL     OW20425   2.401   3.788  11.684
 6614SOL    HW120426   2.320   3.789  11.742
 6614SOL    HW220427   2.404   3.871  11.629
 6615SOL     OW20428   2.159   3.759  11.343
 6615SOL    HW120429   2.208   3.843  11.322
 6615SOL    HW220430   2.221   3.694  11.388
 6616SOL     OW20431   2.423   3.946  12.319
 6616SOL    HW120432   2.461   3.862  12.356
 6616SOL    HW220433   2.335   3.965  12.363
 6617SOL     OW20434   2.879   3.763  11.925
 6617SOL    HW120435   2.807   3.768  11.856
 6617SOL    HW220436   2.855   3.694  11.994
 6618SOL     OW20437   2.777   3.813  12.574
 6618SOL    HW120438   2.802   3.793  12.479
 6618SOL    HW220439   2.849   3.869  12.616
 6619SOL     OW20440   3.136   4.110  12.434
 6619SOL    HW120441   3.157   4.184  12.498
 6619SOL    HW220442   3.047   4.127  12.391
 6620SOL     OW20443   2.366   3.774  12.912
 6620SOL    HW120444   2.324   3.717  12.842
 6620SOL    HW220445   2.300   3.843  12.944
 6621SOL     OW20446   2.169   3.937  12.403
 6621SOL    HW120447   2.146   3.974  12.493
 6621SOL    HW220448   2.139   3.842  12.397
 6622SOL     OW20449   3.402   3.998  11.297
 6622SOL    HW120450   3.341   3.923  11.320
 6622SOL    HW220451   3.424   4.050  11.380
 6623SOL     OW20452   3.022   3.931  12.649
 6623SOL    HW120453   3.022   3.995  12.726
 6623SOL    HW220454   3.050   3.979  12.566
 6624SOL     OW20455   2.765   3.810  11.305
 6624SOL    HW120456   2.816   3.811  11.219
 6624SOL    HW220457   2.821   3.768  11.376
 6625SOL     OW20458   3.588   3.859  11.695
 6625SOL    HW120459   3.661   3.842  11.628
 6625SOL    HW220460   3.557   3.772  11.733
 6626SOL     OW20461   3.703   3.899  12.135
 6626SOL    HW120462   3.742   3.814  12.099
 6626SOL    HW220463   3.605   3.901  12.116
 6627SOL     OW20464   2.534   3.927  12.661
 6627SOL    HW120465   2.624   3.911  12.621
 6627SOL    HW220466   2.542   3.932  12.760
 6628SOL     OW20467   1.937   4.069  11.205
 6628SOL    HW120468   1.845   4.041  11.176
 6628SOL    HW220469   1.968   4.146  11.149
 6629SOL     OW20470   1.934   3.890  11.490
 6629SOL    HW120471   1.917   3.973  11.436
 6629SOL    HW220472   2.024   3.853  11.468
 6630SOL     OW20473   3.087   4.049  11.621
 6630SOL    HW120474   3.152   3.975  11.610
 6630SOL    HW220475   3.107   4.099  11.705
 6631SOL     OW20476   3.639   4.066  12.814
 6631SOL    HW120477   3.622   4.097  12.720
 6631SOL    HW220478   3.555   4.029  12.852
 6632SOL     OW20479   3.686   3.916  12.399
 6632SOL    HW120480   3.682   3.826  12.443
 6632SOL    HW220481   3.689   3.905  12.300
 6633SOL     OW20482   3.286   3.938  12.284
 6633SOL    HW120483   3.338   3.873  12.339
 6633SOL    HW220484   3.237   4.001  12.345
 6634SOL     OW20485   2.863   3.758  12.326
 6634SOL    HW120486   2.800   3.686  12.295
 6634SOL    HW220487   2.956   3.722  12.326
 6635SOL     OW20488   3.214   3.776  11.340
 6635SOL    HW120489   3.249   3.735  11.256
 6635SOL    HW220490   3.124   3.738  11.360
 6636SOL     OW20491   3.162   4.177  11.863
 6636SOL    HW120492   3.103   4.257  11.867
 6636SOL    HW220493   3.177   4.142  11.956
 6637SOL     OW20494   3.455   3.945  12.054
 6637SOL    HW120495   3.371   3.944  12.108
 6637SOL    HW220496   3.457   4.028  11.998
 6638SOL     OW20497   1.881   4.092  13.681
 6638SOL    HW120498   1.799   4.135  13.720
 6638SOL    HW220499   1.853   4.019  13.618
 6639SOL     OW20500   3.617   4.331  13.265
 6639SOL    HW120501   3.605   4.318  13.166
 6639SOL    HW220502   3.587   4.250  13.314
 6640SOL     OW20503   3.465   4.171  13.771
 6640SOL    HW120504   3.391   4.217  13.721
 6640SOL    HW220505   3.516   4.239  13.824
 6641SOL     OW20506   2.671   3.728  13.536
 6641SOL    HW120507   2.711   3.819  13.527
 6641SOL    HW220508   2.571   3.736  13.542
 6642SOL     OW20509   3.262   3.831  13.460
 6642SOL    HW120510   3.238   3.794  13.370
 6642SOL    HW220511   3.361   3.847  13.464
 6643SOL     OW20512   2.476   3.846  13.151
 6643SOL    HW120513   2.574   3.824  13.158
 6643SOL    HW220514   2.445   3.829  13.058
 6644SOL     OW20515   2.401   3.788  13.546
 6644SOL    HW120516   2.320   3.789  13.604
 6644SOL    HW220517   2.404   3.871  13.491
 6645SOL     OW20518   2.159   3.759  13.205
 6645SOL    HW120519   2.208   3.843  13.184
 6645SOL    HW220520   2.221   3.694  13.250
 6646SOL     OW20521   2.879   3.763  13.787
 6646SOL    HW120522   2.807   3.768  13.718
 6646SOL    HW220523   2.855   3.694  13.856
 6647SOL     OW20524   3.402   3.998  13.159
 6647SOL    HW120525   3.341   3.923  13.182
 6647SOL    HW220526   3.424   4.050  13.242
 6648SOL     OW20527   2.765   3.810  13.167
 6648SOL    HW120528   2.816   3.811  13.081
 6648SOL    HW220529   2.821   3.768  13.238
 6649SOL     OW20530   3.588   3.859  13.557
 6649SOL    HW120531   3.661   3.842  13.490
 6649SOL    HW220532   3.557   3.772  13.595
 6650SOL     OW20533   3.703   3.899  13.997
 6650SOL    HW120534   3.742   3.814  13.961
 6650SOL    HW220535   3.605   3.901  13.978
 6651SOL     OW20536   1.937   4.069  13.067
 6651SOL    HW120537   1.845   4.041  13.038
 6651SOL    HW220538   1.968   4.146  13.011
 6652SOL     OW20539   1.934   3.890  13.352
 6652SOL    HW120540   1.917   3.973  13.298
 6652SOL    HW220541   2.024   3.853  13.330
 6653SOL     OW20542   3.087   4.049  13.483
 6653SOL    HW120543   3.152   3.975  13.472
 6653SOL    HW220544   3.107   4.099  13.567
 6654SOL     OW20545   3.214   3.776  13.202
 6654SOL    HW120546   3.249   3.735  13.118
 6654SOL    HW220547   3.124   3.738  13.222
 6655SOL     OW20548   3.162   4.177  13.725
 6655SOL    HW120549   3.103   4.257  13.729
 6655SOL    HW220550   3.177   4.142  13.818
 6656SOL     OW20551   3.954   0.628   0.113
 6656SOL    HW120552   3.861   0.626   0.150
 6656SOL    HW220553   3.955   0.589   0.021
 6657SOL     OW20554   3.949   0.275   0.996
 6657SOL    HW120555   3.984   0.258   1.088
 6657SOL    HW220556   3.861   0.230   0.984
 6658SOL     OW20557   3.743   0.368   0.647
 6658SOL    HW120558   3.661   0.411   0.686
 6658SOL    HW220559   3.715   0.295   0.584
 6659SOL     OW20560   4.059   1.435   1.061
 6659SOL    HW120561   3.981   1.404   1.008
 6659SOL    HW220562   4.117   1.493   1.004
 6660SOL     OW20563   3.955   1.713   0.483
 6660SOL    HW120564   3.989   1.790   0.537
 6660SOL    HW220565   3.999   1.713   0.393
 6661SOL     OW20566   3.954   1.434   0.538
 6661SOL    HW120567   3.928   1.530   0.538
 6661SOL    HW220568   3.883   1.380   0.583
 6662SOL     OW20569   3.846   0.643   0.563
 6662SOL    HW120570   3.801   0.555   0.580
 6662SOL    HW220571   3.845   0.697   0.647
 6663SOL     OW20572   3.751   1.596   0.117
 6663SOL    HW120573   3.732   1.500   0.138
 6663SOL    HW220574   3.718   1.654   0.192
 6664SOL     OW20575   3.837   0.737   1.597
 6664SOL    HW120576   3.925   0.724   1.642
 6664SOL    HW220577   3.824   0.834   1.575
 6665SOL     OW20578   3.800   0.811   0.789
 6665SOL    HW120579   3.899   0.799   0.798
 6665SOL    HW220580   3.776   0.906   0.810
 6666SOL     OW20581   3.854   1.821   1.571
 6666SOL    HW120582   3.844   1.806   1.670
 6666SOL    HW220583   3.768   1.857   1.535
 6667SOL     OW20584   3.926   0.285   1.498
 6667SOL    HW120585   3.846   0.345   1.485
 6667SOL    HW220586   3.916   0.236   1.584
 6668SOL     OW20587   3.802   0.556   1.386
 6668SOL    HW120588   3.894   0.555   1.345
 6668SOL    HW220589   3.796   0.630   1.453
 6669SOL     OW20590   3.788   1.564   1.331
 6669SOL    HW120591   3.742   1.646   1.297
 6669SOL    HW220592   3.886   1.583   1.340
 6670SOL     OW20593   4.091   1.100   0.501
 6670SOL    HW120594   4.084   1.183   0.445
 6670SOL    HW220595   4.095   1.020   0.441
 6671SOL     OW20596   4.031   0.213   1.231
 6671SOL    HW120597   4.008   0.250   1.321
 6671SOL    HW220598   4.001   0.118   1.225
 6672SOL     OW20599   3.761   1.310   1.282
 6672SOL    HW120600   3.814   1.261   1.350
 6672SOL    HW220601   3.783   1.408   1.287
 6673SOL     OW20602   3.732   1.326   0.200
 6673SOL    HW120603   3.639   1.347   0.169
 6673SOL    HW220604   3.742   1.227   0.213
 6674SOL     OW20605   3.812   1.801   0.927
 6674SOL    HW120606   3.770   1.715   0.900
 6674SOL    HW220607   3.906   1.804   0.893
 6675SOL     OW20608   4.228   1.568   0.910
 6675SOL    HW120609   4.294   1.642   0.919
 6675SOL    HW220610   4.272   1.489   0.868
 6676SOL     OW20611   3.764   0.544   1.114
 6676SOL    HW120612   3.849   0.511   1.073
 6676SOL    HW220613   3.777   0.559   1.212
 6677SOL     OW20614   3.913   0.520   1.722
 6677SOL    HW120615   3.972   0.480   1.652
 6677SOL    HW220616   3.855   0.591   1.681
 6678SOL     OW20617   3.976   1.564   1.744
 6678SOL    HW120618   3.946   1.621   1.820
 6678SOL    HW220619   3.969   1.467   1.770
 6679SOL     OW20620   3.883   1.137   1.466
 6679SOL    HW120621   3.905   1.076   1.542
 6679SOL    HW220622   3.893   1.088   1.380
 6680SOL     OW20623   3.807   1.258   1.022
 6680SOL    HW120624   3.802   1.257   1.122
 6680SOL    HW220625   3.724   1.217   0.984
 6681SOL     OW20626   3.854   1.794   1.851
 6681SOL    HW120627   3.813   1.720   1.904
 6681SOL    HW220628   3.918   1.845   1.909
 6682SOL     OW20629   3.799   0.345   0.033
 6682SOL    HW120630   3.707   0.317   0.004
 6682SOL    HW220631   3.830   0.422  -0.023
 6683SOL     OW20632   3.796   0.166   0.318
 6683SOL    HW120633   3.779   0.249   0.264
 6683SOL    HW220634   3.886   0.129   0.296
 6684SOL     OW20635   3.803   1.240   0.653
 6684SOL    HW120636   3.802   1.193   0.741
 6684SOL    HW220637   3.885   1.212   0.602
 6685SOL     OW20638   3.763   1.077   0.300
 6685SOL    HW120639   3.862   1.066   0.291
 6685SOL    HW220640   3.723   0.991   0.332
 6686SOL     OW20641   3.954   0.628   1.975
 6686SOL    HW120642   3.861   0.626   2.012
 6686SOL    HW220643   3.955   0.589   1.883
 6687SOL     OW20644   3.949   0.275   2.858
 6687SOL    HW120645   3.984   0.258   2.950
 6687SOL    HW220646   3.861   0.230   2.846
 6688SOL     OW20647   3.743   0.368   2.509
 6688SOL    HW120648   3.661   0.411   2.548
 6688SOL    HW220649   3.715   0.295   2.446
 6689SOL     OW20650   4.059   1.435   2.923
 6689SOL    HW120651   3.981   1.404   2.870
 6689SOL    HW220652   4.117   1.493   2.866
 6690SOL     OW20653   3.955   1.713   2.345
 6690SOL    HW120654   3.989   1.790   2.399
 6690SOL    HW220655   3.999   1.713   2.255
 6691SOL     OW20656   3.954   1.434   2.400
 6691SOL    HW120657   3.928   1.530   2.400
 6691SOL    HW220658   3.883   1.380   2.445
 6692SOL     OW20659   3.846   0.643   2.425
 6692SOL    HW120660   3.801   0.555   2.442
 6692SOL    HW220661   3.845   0.697   2.509
 6693SOL     OW20662   3.751   1.596   1.979
 6693SOL    HW120663   3.732   1.500   2.000
 6693SOL    HW220664   3.718   1.654   2.054
 6694SOL     OW20665   3.837   0.737   3.459
 6694SOL    HW120666   3.925   0.724   3.504
 6694SOL    HW220667   3.824   0.834   3.437
 6695SOL     OW20668   3.800   0.811   2.651
 6695SOL    HW120669   3.899   0.799   2.660
 6695SOL    HW220670   3.776   0.906   2.672
 6696SOL     OW20671   3.854   1.821   3.433
 6696SOL    HW120672   3.844   1.806   3.532
 6696SOL    HW220673   3.768   1.857   3.397
 6697SOL     OW20674   3.926   0.285   3.360
 6697SOL    HW120675   3.846   0.345   3.347
 6697SOL    HW220676   3.916   0.236   3.446
 6698SOL     OW20677   3.802   0.556   3.248
 6698SOL    HW120678   3.894   0.555   3.207
 6698SOL    HW220679   3.796   0.630   3.315
 6699SOL     OW20680   4.251   0.256   2.190
 6699SOL    HW120681   4.278   0.197   2.115
 6699SOL    HW220682   4.251   0.351   2.159
 6700SOL     OW20683   3.788   1.564   3.193
 6700SOL    HW120684   3.742   1.646   3.159
 6700SOL    HW220685   3.886   1.583   3.202
 6701SOL     OW20686   4.091   1.100   2.363
 6701SOL    HW120687   4.084   1.183   2.307
 6701SOL    HW220688   4.095   1.020   2.303
 6702SOL     OW20689   4.031   0.213   3.093
 6702SOL    HW120690   4.008   0.250   3.183
 6702SOL    HW220691   4.001   0.118   3.087
 6703SOL     OW20692   3.761   1.310   3.144
 6703SOL    HW120693   3.814   1.261   3.212
 6703SOL    HW220694   3.783   1.408   3.149
 6704SOL     OW20695   3.732   1.326   2.062
 6704SOL    HW120696   3.639   1.347   2.031
 6704SOL    HW220697   3.742   1.227   2.075
 6705SOL     OW20698   3.812   1.801   2.789
 6705SOL    HW120699   3.770   1.715   2.762
 6705SOL    HW220700   3.906   1.804   2.755
 6706SOL     OW20701   4.228   1.568   2.772
 6706SOL    HW120702   4.294   1.642   2.781
 6706SOL    HW220703   4.272   1.489   2.730
 6707SOL     OW20704   3.764   0.544   2.976
 6707SOL    HW120705   3.849   0.511   2.935
 6707SOL    HW220706   3.777   0.559   3.074
 6708SOL     OW20707   3.913   0.520   3.584
 6708SOL    HW120708   3.972   0.480   3.514
 6708SOL    HW220709   3.855   0.591   3.543
 6709SOL     OW20710   3.976   1.564   3.606
 6709SOL    HW120711   3.946   1.621   3.682
 6709SOL    HW220712   3.969   1.467   3.632
 6710SOL     OW20713   3.883   1.137   3.328
 6710SOL    HW120714   3.905   1.076   3.404
 6710SOL    HW220715   3.893   1.088   3.242
 6711SOL     OW20716   3.807   1.258   2.884
 6711SOL    HW120717   3.802   1.257   2.984
 6711SOL    HW220718   3.724   1.217   2.846
 6712SOL     OW20719   3.854   1.794   3.713
 6712SOL    HW120720   3.813   1.720   3.766
 6712SOL    HW220721   3.918   1.845   3.771
 6713SOL     OW20722   3.799   0.345   1.895
 6713SOL    HW120723   3.707   0.317   1.866
 6713SOL    HW220724   3.830   0.422   1.839
 6714SOL     OW20725   3.796   0.166   2.180
 6714SOL    HW120726   3.779   0.249   2.126
 6714SOL    HW220727   3.886   0.129   2.158
 6715SOL     OW20728   3.803   1.240   2.515
 6715SOL    HW120729   3.802   1.193   2.603
 6715SOL    HW220730   3.885   1.212   2.464
 6716SOL     OW20731   3.763   1.077   2.162
 6716SOL    HW120732   3.862   1.066   2.153
 6716SOL    HW220733   3.723   0.991   2.194
 6717SOL     OW20734   3.954   0.628   3.837
 6717SOL    HW120735   3.861   0.626   3.874
 6717SOL    HW220736   3.955   0.589   3.745
 6718SOL     OW20737   3.949   0.275   4.720
 6718SOL    HW120738   3.984   0.258   4.812
 6718SOL    HW220739   3.861   0.230   4.708
 6719SOL     OW20740   3.743   0.368   4.371
 6719SOL    HW120741   3.661   0.411   4.410
 6719SOL    HW220742   3.715   0.295   4.308
 6720SOL     OW20743   4.059   1.435   4.785
 6720SOL    HW120744   3.981   1.404   4.732
 6720SOL    HW220745   4.117   1.493   4.728
 6721SOL     OW20746   3.955   1.713   4.207
 6721SOL    HW120747   3.989   1.790   4.261
 6721SOL    HW220748   3.999   1.713   4.117
 6722SOL     OW20749   3.954   1.434   4.262
 6722SOL    HW120750   3.928   1.530   4.262
 6722SOL    HW220751   3.883   1.380   4.307
 6723SOL     OW20752   3.846   0.643   4.287
 6723SOL    HW120753   3.801   0.555   4.304
 6723SOL    HW220754   3.845   0.697   4.371
 6724SOL     OW20755   3.751   1.596   3.841
 6724SOL    HW120756   3.732   1.500   3.862
 6724SOL    HW220757   3.718   1.654   3.916
 6725SOL     OW20758   3.837   0.737   5.321
 6725SOL    HW120759   3.925   0.724   5.366
 6725SOL    HW220760   3.824   0.834   5.299
 6726SOL     OW20761   3.800   0.811   4.513
 6726SOL    HW120762   3.899   0.799   4.522
 6726SOL    HW220763   3.776   0.906   4.534
 6727SOL     OW20764   3.854   1.821   5.295
 6727SOL    HW120765   3.844   1.806   5.394
 6727SOL    HW220766   3.768   1.857   5.259
 6728SOL     OW20767   3.926   0.285   5.222
 6728SOL    HW120768   3.846   0.345   5.209
 6728SOL    HW220769   3.916   0.236   5.308
 6729SOL     OW20770   3.802   0.556   5.110
 6729SOL    HW120771   3.894   0.555   5.069
 6729SOL    HW220772   3.796   0.630   5.177
 6730SOL     OW20773   4.251   0.256   4.052
 6730SOL    HW120774   4.278   0.197   3.977
 6730SOL    HW220775   4.251   0.351   4.021
 6731SOL     OW20776   3.788   1.564   5.055
 6731SOL    HW120777   3.742   1.646   5.021
 6731SOL    HW220778   3.886   1.583   5.064
 6732SOL     OW20779   4.091   1.100   4.225
 6732SOL    HW120780   4.084   1.183   4.169
 6732SOL    HW220781   4.095   1.020   4.165
 6733SOL     OW20782   4.031   0.213   4.955
 6733SOL    HW120783   4.008   0.250   5.045
 6733SOL    HW220784   4.001   0.118   4.949
 6734SOL     OW20785   3.761   1.310   5.006
 6734SOL    HW120786   3.814   1.261   5.074
 6734SOL    HW220787   3.783   1.408   5.011
 6735SOL     OW20788   3.732   1.326   3.924
 6735SOL    HW120789   3.639   1.347   3.893
 6735SOL    HW220790   3.742   1.227   3.937
 6736SOL     OW20791   3.812   1.801   4.651
 6736SOL    HW120792   3.770   1.715   4.624
 6736SOL    HW220793   3.906   1.804   4.617
 6737SOL     OW20794   4.228   1.568   4.634
 6737SOL    HW120795   4.294   1.642   4.643
 6737SOL    HW220796   4.272   1.489   4.592
 6738SOL     OW20797   3.764   0.544   4.838
 6738SOL    HW120798   3.849   0.511   4.797
 6738SOL    HW220799   3.777   0.559   4.936
 6739SOL     OW20800   3.913   0.520   5.446
 6739SOL    HW120801   3.972   0.480   5.376
 6739SOL    HW220802   3.855   0.591   5.405
 6740SOL     OW20803   3.976   1.564   5.468
 6740SOL    HW120804   3.946   1.621   5.544
 6740SOL    HW220805   3.969   1.467   5.494
 6741SOL     OW20806   3.883   1.137   5.190
 6741SOL    HW120807   3.905   1.076   5.266
 6741SOL    HW220808   3.893   1.088   5.104
 6742SOL     OW20809   3.807   1.258   4.746
 6742SOL    HW120810   3.802   1.257   4.846
 6742SOL    HW220811   3.724   1.217   4.708
 6743SOL     OW20812   3.854   1.794   5.575
 6743SOL    HW120813   3.813   1.720   5.628
 6743SOL    HW220814   3.918   1.845   5.633
 6744SOL     OW20815   3.799   0.345   3.757
 6744SOL    HW120816   3.707   0.317   3.728
 6744SOL    HW220817   3.830   0.422   3.701
 6745SOL     OW20818   3.796   0.166   4.042
 6745SOL    HW120819   3.779   0.249   3.988
 6745SOL    HW220820   3.886   0.129   4.020
 6746SOL     OW20821   3.803   1.240   4.377
 6746SOL    HW120822   3.802   1.193   4.465
 6746SOL    HW220823   3.885   1.212   4.326
 6747SOL     OW20824   3.763   1.077   4.024
 6747SOL    HW120825   3.862   1.066   4.015
 6747SOL    HW220826   3.723   0.991   4.056
 6748SOL     OW20827   3.954   0.628   5.699
 6748SOL    HW120828   3.861   0.626   5.736
 6748SOL    HW220829   3.955   0.589   5.607
 6749SOL     OW20830   3.949   0.275   6.582
 6749SOL    HW120831   3.984   0.258   6.674
 6749SOL    HW220832   3.861   0.230   6.570
 6750SOL     OW20833   3.743   0.368   6.233
 6750SOL    HW120834   3.661   0.411   6.272
 6750SOL    HW220835   3.715   0.295   6.170
 6751SOL     OW20836   4.059   1.435   6.647
 6751SOL    HW120837   3.981   1.404   6.594
 6751SOL    HW220838   4.117   1.493   6.590
 6752SOL     OW20839   3.955   1.713   6.069
 6752SOL    HW120840   3.989   1.790   6.123
 6752SOL    HW220841   3.999   1.713   5.979
 6753SOL     OW20842   3.954   1.434   6.124
 6753SOL    HW120843   3.928   1.530   6.124
 6753SOL    HW220844   3.883   1.380   6.169
 6754SOL     OW20845   3.846   0.643   6.149
 6754SOL    HW120846   3.801   0.555   6.166
 6754SOL    HW220847   3.845   0.697   6.233
 6755SOL     OW20848   3.751   1.596   5.703
 6755SOL    HW120849   3.732   1.500   5.724
 6755SOL    HW220850   3.718   1.654   5.778
 6756SOL     OW20851   3.837   0.737   7.183
 6756SOL    HW120852   3.925   0.724   7.228
 6756SOL    HW220853   3.824   0.834   7.161
 6757SOL     OW20854   3.800   0.811   6.375
 6757SOL    HW120855   3.899   0.799   6.384
 6757SOL    HW220856   3.776   0.906   6.396
 6758SOL     OW20857   3.854   1.821   7.157
 6758SOL    HW120858   3.844   1.806   7.256
 6758SOL    HW220859   3.768   1.857   7.121
 6759SOL     OW20860   3.926   0.285   7.084
 6759SOL    HW120861   3.846   0.345   7.071
 6759SOL    HW220862   3.916   0.236   7.170
 6760SOL     OW20863   3.802   0.556   6.972
 6760SOL    HW120864   3.894   0.555   6.931
 6760SOL    HW220865   3.796   0.630   7.039
 6761SOL     OW20866   4.251   0.256   5.914
 6761SOL    HW120867   4.278   0.197   5.839
 6761SOL    HW220868   4.251   0.351   5.883
 6762SOL     OW20869   3.788   1.564   6.917
 6762SOL    HW120870   3.742   1.646   6.883
 6762SOL    HW220871   3.886   1.583   6.926
 6763SOL     OW20872   4.091   1.100   6.087
 6763SOL    HW120873   4.084   1.183   6.031
 6763SOL    HW220874   4.095   1.020   6.027
 6764SOL     OW20875   4.031   0.213   6.817
 6764SOL    HW120876   4.008   0.250   6.907
 6764SOL    HW220877   4.001   0.118   6.811
 6765SOL     OW20878   3.761   1.310   6.868
 6765SOL    HW120879   3.814   1.261   6.936
 6765SOL    HW220880   3.783   1.408   6.873
 6766SOL     OW20881   3.732   1.326   5.786
 6766SOL    HW120882   3.639   1.347   5.755
 6766SOL    HW220883   3.742   1.227   5.799
 6767SOL     OW20884   3.812   1.801   6.513
 6767SOL    HW120885   3.770   1.715   6.486
 6767SOL    HW220886   3.906   1.804   6.479
 6768SOL     OW20887   4.228   1.568   6.496
 6768SOL    HW120888   4.294   1.642   6.505
 6768SOL    HW220889   4.272   1.489   6.454
 6769SOL     OW20890   3.764   0.544   6.700
 6769SOL    HW120891   3.849   0.511   6.659
 6769SOL    HW220892   3.777   0.559   6.798
 6770SOL     OW20893   3.913   0.520   7.308
 6770SOL    HW120894   3.972   0.480   7.238
 6770SOL    HW220895   3.855   0.591   7.267
 6771SOL     OW20896   3.976   1.564   7.330
 6771SOL    HW120897   3.946   1.621   7.406
 6771SOL    HW220898   3.969   1.467   7.356
 6772SOL     OW20899   3.883   1.137   7.052
 6772SOL    HW120900   3.905   1.076   7.128
 6772SOL    HW220901   3.893   1.088   6.966
 6773SOL     OW20902   3.807   1.258   6.608
 6773SOL    HW120903   3.802   1.257   6.708
 6773SOL    HW220904   3.724   1.217   6.570
 6774SOL     OW20905   3.854   1.794   7.437
 6774SOL    HW120906   3.813   1.720   7.490
 6774SOL    HW220907   3.918   1.845   7.495
 6775SOL     OW20908   3.799   0.345   5.619
 6775SOL    HW120909   3.707   0.317   5.590
 6775SOL    HW220910   3.830   0.422   5.563
 6776SOL     OW20911   3.796   0.166   5.904
 6776SOL    HW120912   3.779   0.249   5.850
 6776SOL    HW220913   3.886   0.129   5.882
 6777SOL     OW20914   3.803   1.240   6.239
 6777SOL    HW120915   3.802   1.193   6.327
 6777SOL    HW220916   3.885   1.212   6.188
 6778SOL     OW20917   3.763   1.077   5.886
 6778SOL    HW120918   3.862   1.066   5.877
 6778SOL    HW220919   3.723   0.991   5.918
 6779SOL     OW20920   3.954   0.628   7.561
 6779SOL    HW120921   3.861   0.626   7.598
 6779SOL    HW220922   3.955   0.589   7.469
 6780SOL     OW20923   3.949   0.275   8.444
 6780SOL    HW120924   3.984   0.258   8.536
 6780SOL    HW220925   3.861   0.230   8.432
 6781SOL     OW20926   3.743   0.368   8.095
 6781SOL    HW120927   3.661   0.411   8.134
 6781SOL    HW220928   3.715   0.295   8.032
 6782SOL     OW20929   4.059   1.435   8.509
 6782SOL    HW120930   3.981   1.404   8.456
 6782SOL    HW220931   4.117   1.493   8.452
 6783SOL     OW20932   3.955   1.713   7.931
 6783SOL    HW120933   3.989   1.790   7.985
 6783SOL    HW220934   3.999   1.713   7.841
 6784SOL     OW20935   3.954   1.434   7.986
 6784SOL    HW120936   3.928   1.530   7.986
 6784SOL    HW220937   3.883   1.380   8.031
 6785SOL     OW20938   3.846   0.643   8.011
 6785SOL    HW120939   3.801   0.555   8.028
 6785SOL    HW220940   3.845   0.697   8.095
 6786SOL     OW20941   3.751   1.596   7.565
 6786SOL    HW120942   3.732   1.500   7.586
 6786SOL    HW220943   3.718   1.654   7.640
 6787SOL     OW20944   3.837   0.737   9.045
 6787SOL    HW120945   3.925   0.724   9.090
 6787SOL    HW220946   3.824   0.834   9.023
 6788SOL     OW20947   3.800   0.811   8.237
 6788SOL    HW120948   3.899   0.799   8.246
 6788SOL    HW220949   3.776   0.906   8.258
 6789SOL     OW20950   3.854   1.821   9.019
 6789SOL    HW120951   3.844   1.806   9.118
 6789SOL    HW220952   3.768   1.857   8.983
 6790SOL     OW20953   3.926   0.285   8.946
 6790SOL    HW120954   3.846   0.345   8.933
 6790SOL    HW220955   3.916   0.236   9.032
 6791SOL     OW20956   3.802   0.556   8.834
 6791SOL    HW120957   3.894   0.555   8.793
 6791SOL    HW220958   3.796   0.630   8.901
 6792SOL     OW20959   4.251   0.256   7.776
 6792SOL    HW120960   4.278   0.197   7.701
 6792SOL    HW220961   4.251   0.351   7.745
 6793SOL     OW20962   3.788   1.564   8.779
 6793SOL    HW120963   3.742   1.646   8.745
 6793SOL    HW220964   3.886   1.583   8.788
 6794SOL     OW20965   4.091   1.100   7.949
 6794SOL    HW120966   4.084   1.183   7.893
 6794SOL    HW220967   4.095   1.020   7.889
 6795SOL     OW20968   4.031   0.213   8.679
 6795SOL    HW120969   4.008   0.250   8.769
 6795SOL    HW220970   4.001   0.118   8.673
 6796SOL     OW20971   3.761   1.310   8.730
 6796SOL    HW120972   3.814   1.261   8.798
 6796SOL    HW220973   3.783   1.408   8.735
 6797SOL     OW20974   3.732   1.326   7.648
 6797SOL    HW120975   3.639   1.347   7.617
 6797SOL    HW220976   3.742   1.227   7.661
 6798SOL     OW20977   3.812   1.801   8.375
 6798SOL    HW120978   3.770   1.715   8.348
 6798SOL    HW220979   3.906   1.804   8.341
 6799SOL     OW20980   4.228   1.568   8.358
 6799SOL    HW120981   4.294   1.642   8.367
 6799SOL    HW220982   4.272   1.489   8.316
 6800SOL     OW20983   3.764   0.544   8.562
 6800SOL    HW120984   3.849   0.511   8.521
 6800SOL    HW220985   3.777   0.559   8.660
 6801SOL     OW20986   3.913   0.520   9.170
 6801SOL    HW120987   3.972   0.480   9.100
 6801SOL    HW220988   3.855   0.591   9.129
 6802SOL     OW20989   3.976   1.564   9.192
 6802SOL    HW120990   3.946   1.621   9.268
 6802SOL    HW220991   3.969   1.467   9.218
 6803SOL     OW20992   3.883   1.137   8.914
 6803SOL    HW120993   3.905   1.076   8.990
 6803SOL    HW220994   3.893   1.088   8.828
 6804SOL     OW20995   3.807   1.258   8.470
 6804SOL    HW120996   3.802   1.257   8.570
 6804SOL    HW220997   3.724   1.217   8.432
 6805SOL     OW20998   3.854   1.794   9.299
 6805SOL    HW120999   3.813   1.720   9.352
 6805SOL    HW221000   3.918   1.845   9.357
 6806SOL     OW21001   3.799   0.345   7.481
 6806SOL    HW121002   3.707   0.317   7.452
 6806SOL    HW221003   3.830   0.422   7.425
 6807SOL     OW21004   3.796   0.166   7.766
 6807SOL    HW121005   3.779   0.249   7.712
 6807SOL    HW221006   3.886   0.129   7.744
 6808SOL     OW21007   3.803   1.240   8.101
 6808SOL    HW121008   3.802   1.193   8.189
 6808SOL    HW221009   3.885   1.212   8.050
 6809SOL     OW21010   3.763   1.077   7.748
 6809SOL    HW121011   3.862   1.066   7.739
 6809SOL    HW221012   3.723   0.991   7.780
 6810SOL     OW21013   3.954   0.628   9.423
 6810SOL    HW121014   3.861   0.626   9.460
 6810SOL    HW221015   3.955   0.589   9.331
 6811SOL     OW21016   3.949   0.275  10.306
 6811SOL    HW121017   3.984   0.258  10.398
 6811SOL    HW221018   3.861   0.230  10.294
 6812SOL     OW21019   3.743   0.368   9.957
 6812SOL    HW121020   3.661   0.411   9.996
 6812SOL    HW221021   3.715   0.295   9.894
 6813SOL     OW21022   4.059   1.435  10.371
 6813SOL    HW121023   3.981   1.404  10.318
 6813SOL    HW221024   4.117   1.493  10.314
 6814SOL     OW21025   3.955   1.713   9.793
 6814SOL    HW121026   3.989   1.790   9.847
 6814SOL    HW221027   3.999   1.713   9.703
 6815SOL     OW21028   3.954   1.434   9.848
 6815SOL    HW121029   3.928   1.530   9.848
 6815SOL    HW221030   3.883   1.380   9.893
 6816SOL     OW21031   3.846   0.643   9.873
 6816SOL    HW121032   3.801   0.555   9.890
 6816SOL    HW221033   3.845   0.697   9.957
 6817SOL     OW21034   3.751   1.596   9.427
 6817SOL    HW121035   3.732   1.500   9.448
 6817SOL    HW221036   3.718   1.654   9.502
 6818SOL     OW21037   3.837   0.737  10.907
 6818SOL    HW121038   3.925   0.724  10.952
 6818SOL    HW221039   3.824   0.834  10.885
 6819SOL     OW21040   3.800   0.811  10.099
 6819SOL    HW121041   3.899   0.799  10.108
 6819SOL    HW221042   3.776   0.906  10.120
 6820SOL     OW21043   3.854   1.821  10.881
 6820SOL    HW121044   3.844   1.806  10.980
 6820SOL    HW221045   3.768   1.857  10.845
 6821SOL     OW21046   3.926   0.285  10.808
 6821SOL    HW121047   3.846   0.345  10.795
 6821SOL    HW221048   3.916   0.236  10.894
 6822SOL     OW21049   3.802   0.556  10.696
 6822SOL    HW121050   3.894   0.555  10.655
 6822SOL    HW221051   3.796   0.630  10.763
 6823SOL     OW21052   4.251   0.256   9.638
 6823SOL    HW121053   4.278   0.197   9.563
 6823SOL    HW221054   4.251   0.351   9.607
 6824SOL     OW21055   3.788   1.564  10.641
 6824SOL    HW121056   3.742   1.646  10.607
 6824SOL    HW221057   3.886   1.583  10.650
 6825SOL     OW21058   4.091   1.100   9.811
 6825SOL    HW121059   4.084   1.183   9.755
 6825SOL    HW221060   4.095   1.020   9.751
 6826SOL     OW21061   4.031   0.213  10.541
 6826SOL    HW121062   4.008   0.250  10.631
 6826SOL    HW221063   4.001   0.118  10.535
 6827SOL     OW21064   3.761   1.310  10.592
 6827SOL    HW121065   3.814   1.261  10.660
 6827SOL    HW221066   3.783   1.408  10.597
 6828SOL     OW21067   3.732   1.326   9.510
 6828SOL    HW121068   3.639   1.347   9.479
 6828SOL    HW221069   3.742   1.227   9.523
 6829SOL     OW21070   3.812   1.801  10.237
 6829SOL    HW121071   3.770   1.715  10.210
 6829SOL    HW221072   3.906   1.804  10.203
 6830SOL     OW21073   4.228   1.568  10.220
 6830SOL    HW121074   4.294   1.642  10.229
 6830SOL    HW221075   4.272   1.489  10.178
 6831SOL     OW21076   3.764   0.544  10.424
 6831SOL    HW121077   3.849   0.511  10.383
 6831SOL    HW221078   3.777   0.559  10.522
 6832SOL     OW21079   3.913   0.520  11.032
 6832SOL    HW121080   3.972   0.480  10.962
 6832SOL    HW221081   3.855   0.591  10.991
 6833SOL     OW21082   3.976   1.564  11.054
 6833SOL    HW121083   3.946   1.621  11.130
 6833SOL    HW221084   3.969   1.467  11.080
 6834SOL     OW21085   3.883   1.137  10.776
 6834SOL    HW121086   3.905   1.076  10.852
 6834SOL    HW221087   3.893   1.088  10.690
 6835SOL     OW21088   3.807   1.258  10.332
 6835SOL    HW121089   3.802   1.257  10.432
 6835SOL    HW221090   3.724   1.217  10.294
 6836SOL     OW21091   3.854   1.794  11.161
 6836SOL    HW121092   3.813   1.720  11.214
 6836SOL    HW221093   3.918   1.845  11.219
 6837SOL     OW21094   3.799   0.345   9.343
 6837SOL    HW121095   3.707   0.317   9.314
 6837SOL    HW221096   3.830   0.422   9.287
 6838SOL     OW21097   3.796   0.166   9.628
 6838SOL    HW121098   3.779   0.249   9.574
 6838SOL    HW221099   3.886   0.129   9.606
 6839SOL     OW21100   3.803   1.240   9.963
 6839SOL    HW121101   3.802   1.193  10.051
 6839SOL    HW221102   3.885   1.212   9.912
 6840SOL     OW21103   3.763   1.077   9.610
 6840SOL    HW121104   3.862   1.066   9.601
 6840SOL    HW221105   3.723   0.991   9.642
 6841SOL     OW21106   3.954   0.628  11.285
 6841SOL    HW121107   3.861   0.626  11.322
 6841SOL    HW221108   3.955   0.589  11.193
 6842SOL     OW21109   3.949   0.275  12.168
 6842SOL    HW121110   3.984   0.258  12.260
 6842SOL    HW221111   3.861   0.230  12.156
 6843SOL     OW21112   3.743   0.368  11.819
 6843SOL    HW121113   3.661   0.411  11.858
 6843SOL    HW221114   3.715   0.295  11.756
 6844SOL     OW21115   4.059   1.435  12.233
 6844SOL    HW121116   3.981   1.404  12.180
 6844SOL    HW221117   4.117   1.493  12.176
 6845SOL     OW21118   3.955   1.713  11.655
 6845SOL    HW121119   3.989   1.790  11.709
 6845SOL    HW221120   3.999   1.713  11.565
 6846SOL     OW21121   3.954   1.434  11.710
 6846SOL    HW121122   3.928   1.530  11.710
 6846SOL    HW221123   3.883   1.380  11.755
 6847SOL     OW21124   3.846   0.643  11.735
 6847SOL    HW121125   3.801   0.555  11.752
 6847SOL    HW221126   3.845   0.697  11.819
 6848SOL     OW21127   3.751   1.596  11.289
 6848SOL    HW121128   3.732   1.500  11.310
 6848SOL    HW221129   3.718   1.654  11.364
 6849SOL     OW21130   3.837   0.737  12.769
 6849SOL    HW121131   3.925   0.724  12.814
 6849SOL    HW221132   3.824   0.834  12.747
 6850SOL     OW21133   3.800   0.811  11.961
 6850SOL    HW121134   3.899   0.799  11.970
 6850SOL    HW221135   3.776   0.906  11.982
 6851SOL     OW21136   3.854   1.821  12.743
 6851SOL    HW121137   3.844   1.806  12.842
 6851SOL    HW221138   3.768   1.857  12.707
 6852SOL     OW21139   3.926   0.285  12.670
 6852SOL    HW121140   3.846   0.345  12.657
 6852SOL    HW221141   3.916   0.236  12.756
 6853SOL     OW21142   3.802   0.556  12.558
 6853SOL    HW121143   3.894   0.555  12.517
 6853SOL    HW221144   3.796   0.630  12.625
 6854SOL     OW21145   4.251   0.256  11.500
 6854SOL    HW121146   4.278   0.197  11.425
 6854SOL    HW221147   4.251   0.351  11.469
 6855SOL     OW21148   3.788   1.564  12.503
 6855SOL    HW121149   3.742   1.646  12.469
 6855SOL    HW221150   3.886   1.583  12.512
 6856SOL     OW21151   4.091   1.100  11.673
 6856SOL    HW121152   4.084   1.183  11.617
 6856SOL    HW221153   4.095   1.020  11.613
 6857SOL     OW21154   4.031   0.213  12.403
 6857SOL    HW121155   4.008   0.250  12.493
 6857SOL    HW221156   4.001   0.118  12.397
 6858SOL     OW21157   3.761   1.310  12.454
 6858SOL    HW121158   3.814   1.261  12.522
 6858SOL    HW221159   3.783   1.408  12.459
 6859SOL     OW21160   3.732   1.326  11.372
 6859SOL    HW121161   3.639   1.347  11.341
 6859SOL    HW221162   3.742   1.227  11.385
 6860SOL     OW21163   3.812   1.801  12.099
 6860SOL    HW121164   3.770   1.715  12.072
 6860SOL    HW221165   3.906   1.804  12.065
 6861SOL     OW21166   4.228   1.568  12.082
 6861SOL    HW121167   4.294   1.642  12.091
 6861SOL    HW221168   4.272   1.489  12.040
 6862SOL     OW21169   3.764   0.544  12.286
 6862SOL    HW121170   3.849   0.511  12.245
 6862SOL    HW221171   3.777   0.559  12.384
 6863SOL     OW21172   3.913   0.520  12.894
 6863SOL    HW121173   3.972   0.480  12.824
 6863SOL    HW221174   3.855   0.591  12.853
 6864SOL     OW21175   3.976   1.564  12.916
 6864SOL    HW121176   3.946   1.621  12.992
 6864SOL    HW221177   3.969   1.467  12.942
 6865SOL     OW21178   3.883   1.137  12.638
 6865SOL    HW121179   3.905   1.076  12.714
 6865SOL    HW221180   3.893   1.088  12.552
 6866SOL     OW21181   3.807   1.258  12.194
 6866SOL    HW121182   3.802   1.257  12.294
 6866SOL    HW221183   3.724   1.217  12.156
 6867SOL     OW21184   3.854   1.794  13.023
 6867SOL    HW121185   3.813   1.720  13.076
 6867SOL    HW221186   3.918   1.845  13.081
 6868SOL     OW21187   3.799   0.345  11.205
 6868SOL    HW121188   3.707   0.317  11.176
 6868SOL    HW221189   3.830   0.422  11.149
 6869SOL     OW21190   3.796   0.166  11.490
 6869SOL    HW121191   3.779   0.249  11.436
 6869SOL    HW221192   3.886   0.129  11.468
 6870SOL     OW21193   3.803   1.240  11.825
 6870SOL    HW121194   3.802   1.193  11.913
 6870SOL    HW221195   3.885   1.212  11.774
 6871SOL     OW21196   3.763   1.077  11.472
 6871SOL    HW121197   3.862   1.066  11.463
 6871SOL    HW221198   3.723   0.991  11.504
 6872SOL     OW21199   3.954   0.628  13.147
 6872SOL    HW121200   3.861   0.626  13.184
 6872SOL    HW221201   3.955   0.589  13.055
 6873SOL     OW21202   3.743   0.368  13.681
 6873SOL    HW121203   3.661   0.411  13.720
 6873SOL    HW221204   3.715   0.295  13.618
 6874SOL     OW21205   3.955   1.713  13.517
 6874SOL    HW121206   3.989   1.790  13.571
 6874SOL    HW221207   3.999   1.713  13.427
 6875SOL     OW21208   3.954   1.434  13.572
 6875SOL    HW121209   3.928   1.530  13.572
 6875SOL    HW221210   3.883   1.380  13.617
 6876SOL     OW21211   3.964   1.091  13.920
 6876SOL    HW121212   3.978   1.007  13.972
 6876SOL    HW221213   3.909   1.155  13.975
 6877SOL     OW21214   3.846   0.643  13.597
 6877SOL    HW121215   3.801   0.555  13.614
 6877SOL    HW221216   3.845   0.697  13.681
 6878SOL     OW21217   3.751   1.596  13.151
 6878SOL    HW121218   3.732   1.500  13.172
 6878SOL    HW221219   3.718   1.654  13.226
 6879SOL     OW21220   3.800   0.811  13.823
 6879SOL    HW121221   3.899   0.799  13.832
 6879SOL    HW221222   3.776   0.906  13.844
 6880SOL     OW21223   4.075   1.801  13.887
 6880SOL    HW121224   4.125   1.715  13.893
 6880SOL    HW221225   4.140   1.878  13.884
 6881SOL     OW21226   4.251   0.256  13.362
 6881SOL    HW121227   4.278   0.197  13.287
 6881SOL    HW221228   4.251   0.351  13.331
 6882SOL     OW21229   4.091   1.100  13.535
 6882SOL    HW121230   4.084   1.183  13.479
 6882SOL    HW221231   4.095   1.020  13.475
 6883SOL     OW21232   3.732   1.326  13.234
 6883SOL    HW121233   3.639   1.347  13.203
 6883SOL    HW221234   3.742   1.227  13.247
 6884SOL     OW21235   4.228   1.568  13.944
 6884SOL    HW121236   4.294   1.642  13.953
 6884SOL    HW221237   4.272   1.489  13.902
 6885SOL     OW21238   3.799   0.345  13.067
 6885SOL    HW121239   3.707   0.317  13.038
 6885SOL    HW221240   3.830   0.422  13.011
 6886SOL     OW21241   3.796   0.166  13.352
 6886SOL    HW121242   3.779   0.249  13.298
 6886SOL    HW221243   3.886   0.129  13.330
 6887SOL     OW21244   3.803   1.240  13.687
 6887SOL    HW121245   3.802   1.193  13.775
 6887SOL    HW221246   3.885   1.212  13.636
 6888SOL     OW21247   3.763   1.077  13.334
 6888SOL    HW121248   3.862   1.066  13.325
 6888SOL    HW221249   3.723   0.991  13.366
 6889SOL     OW21250   3.954   2.490   0.113
 6889SOL    HW121251   3.861   2.488   0.150
 6889SOL    HW221252   3.955   2.451   0.021
 6890SOL     OW21253   3.949   2.137   0.996
 6890SOL    HW121254   3.984   2.120   1.088
 6890SOL    HW221255   3.861   2.092   0.984
 6891SOL     OW21256   3.743   2.230   0.647
 6891SOL    HW121257   3.661   2.273   0.686
 6891SOL    HW221258   3.715   2.157   0.584
 6892SOL     OW21259   4.059   3.297   1.061
 6892SOL    HW121260   3.981   3.266   1.008
 6892SOL    HW221261   4.117   3.355   1.004
 6893SOL     OW21262   3.955   3.575   0.483
 6893SOL    HW121263   3.989   3.652   0.537
 6893SOL    HW221264   3.999   3.575   0.393
 6894SOL     OW21265   3.954   3.296   0.538
 6894SOL    HW121266   3.928   3.392   0.538
 6894SOL    HW221267   3.883   3.242   0.583
 6895SOL     OW21268   3.846   2.505   0.563
 6895SOL    HW121269   3.801   2.417   0.580
 6895SOL    HW221270   3.845   2.559   0.647
 6896SOL     OW21271   3.751   3.458   0.117
 6896SOL    HW121272   3.732   3.362   0.138
 6896SOL    HW221273   3.718   3.516   0.192
 6897SOL     OW21274   3.837   2.599   1.597
 6897SOL    HW121275   3.925   2.586   1.642
 6897SOL    HW221276   3.824   2.696   1.575
 6898SOL     OW21277   3.800   2.673   0.789
 6898SOL    HW121278   3.899   2.661   0.798
 6898SOL    HW221279   3.776   2.768   0.810
 6899SOL     OW21280   3.854   3.683   1.571
 6899SOL    HW121281   3.844   3.668   1.670
 6899SOL    HW221282   3.768   3.719   1.535
 6900SOL     OW21283   3.926   2.147   1.498
 6900SOL    HW121284   3.846   2.207   1.485
 6900SOL    HW221285   3.916   2.098   1.584
 6901SOL     OW21286   3.802   2.418   1.386
 6901SOL    HW121287   3.894   2.417   1.345
 6901SOL    HW221288   3.796   2.492   1.453
 6902SOL     OW21289   3.788   3.426   1.331
 6902SOL    HW121290   3.742   3.508   1.297
 6902SOL    HW221291   3.886   3.445   1.340
 6903SOL     OW21292   4.091   2.962   0.501
 6903SOL    HW121293   4.084   3.045   0.445
 6903SOL    HW221294   4.095   2.882   0.441
 6904SOL     OW21295   4.031   2.075   1.231
 6904SOL    HW121296   4.008   2.112   1.321
 6904SOL    HW221297   4.001   1.980   1.225
 6905SOL     OW21298   3.761   3.172   1.282
 6905SOL    HW121299   3.814   3.123   1.350
 6905SOL    HW221300   3.783   3.270   1.287
 6906SOL     OW21301   4.031   1.925   0.618
 6906SOL    HW121302   4.020   2.019   0.651
 6906SOL    HW221303   4.026   1.862   0.695
 6907SOL     OW21304   3.732   3.188   0.200
 6907SOL    HW121305   3.639   3.209   0.169
 6907SOL    HW221306   3.742   3.089   0.213
 6908SOL     OW21307   3.812   3.663   0.927
 6908SOL    HW121308   3.770   3.577   0.900
 6908SOL    HW221309   3.906   3.666   0.893
 6909SOL     OW21310   4.228   3.430   0.910
 6909SOL    HW121311   4.294   3.504   0.919
 6909SOL    HW221312   4.272   3.351   0.868
 6910SOL     OW21313   3.764   2.406   1.114
 6910SOL    HW121314   3.849   2.373   1.073
 6910SOL    HW221315   3.777   2.421   1.212
 6911SOL     OW21316   3.913   2.382   1.722
 6911SOL    HW121317   3.972   2.342   1.652
 6911SOL    HW221318   3.855   2.453   1.681
 6912SOL     OW21319   3.976   3.426   1.744
 6912SOL    HW121320   3.946   3.483   1.820
 6912SOL    HW221321   3.969   3.329   1.770
 6913SOL     OW21322   3.883   2.999   1.466
 6913SOL    HW121323   3.905   2.938   1.542
 6913SOL    HW221324   3.893   2.950   1.380
 6914SOL     OW21325   3.807   3.120   1.022
 6914SOL    HW121326   3.802   3.119   1.122
 6914SOL    HW221327   3.724   3.079   0.984
 6915SOL     OW21328   3.854   3.656   1.851
 6915SOL    HW121329   3.813   3.582   1.904
 6915SOL    HW221330   3.918   3.707   1.909
 6916SOL     OW21331   3.799   2.207   0.033
 6916SOL    HW121332   3.707   2.179   0.004
 6916SOL    HW221333   3.830   2.284  -0.023
 6917SOL     OW21334   3.796   2.028   0.318
 6917SOL    HW121335   3.779   2.111   0.264
 6917SOL    HW221336   3.886   1.991   0.296
 6918SOL     OW21337   3.803   3.102   0.653
 6918SOL    HW121338   3.802   3.055   0.741
 6918SOL    HW221339   3.885   3.074   0.602
 6919SOL     OW21340   3.763   2.939   0.300
 6919SOL    HW121341   3.862   2.928   0.291
 6919SOL    HW221342   3.723   2.853   0.332
 6920SOL     OW21343   3.954   2.490   1.975
 6920SOL    HW121344   3.861   2.488   2.012
 6920SOL    HW221345   3.955   2.451   1.883
 6921SOL     OW21346   3.949   2.137   2.858
 6921SOL    HW121347   3.984   2.120   2.950
 6921SOL    HW221348   3.861   2.092   2.846
 6922SOL     OW21349   3.743   2.230   2.509
 6922SOL    HW121350   3.661   2.273   2.548
 6922SOL    HW221351   3.715   2.157   2.446
 6923SOL     OW21352   4.059   3.297   2.923
 6923SOL    HW121353   3.981   3.266   2.870
 6923SOL    HW221354   4.117   3.355   2.866
 6924SOL     OW21355   3.955   3.575   2.345
 6924SOL    HW121356   3.989   3.652   2.399
 6924SOL    HW221357   3.999   3.575   2.255
 6925SOL     OW21358   3.954   3.296   2.400
 6925SOL    HW121359   3.928   3.392   2.400
 6925SOL    HW221360   3.883   3.242   2.445
 6926SOL     OW21361   3.846   2.505   2.425
 6926SOL    HW121362   3.801   2.417   2.442
 6926SOL    HW221363   3.845   2.559   2.509
 6927SOL     OW21364   3.751   3.458   1.979
 6927SOL    HW121365   3.732   3.362   2.000
 6927SOL    HW221366   3.718   3.516   2.054
 6928SOL     OW21367   3.837   2.599   3.459
 6928SOL    HW121368   3.925   2.586   3.504
 6928SOL    HW221369   3.824   2.696   3.437
 6929SOL     OW21370   3.800   2.673   2.651
 6929SOL    HW121371   3.899   2.661   2.660
 6929SOL    HW221372   3.776   2.768   2.672
 6930SOL     OW21373   3.854   3.683   3.433
 6930SOL    HW121374   3.844   3.668   3.532
 6930SOL    HW221375   3.768   3.719   3.397
 6931SOL     OW21376   3.926   2.147   3.360
 6931SOL    HW121377   3.846   2.207   3.347
 6931SOL    HW221378   3.916   2.098   3.446
 6932SOL     OW21379   4.021   1.897   2.033
 6932SOL    HW121380   4.070   1.981   2.012
 6932SOL    HW221381   4.083   1.832   2.078
 6933SOL     OW21382   3.802   2.418   3.248
 6933SOL    HW121383   3.894   2.417   3.207
 6933SOL    HW221384   3.796   2.492   3.315
 6934SOL     OW21385   4.251   2.118   2.190
 6934SOL    HW121386   4.278   2.059   2.115
 6934SOL    HW221387   4.251   2.213   2.159
 6935SOL     OW21388   3.788   3.426   3.193
 6935SOL    HW121389   3.742   3.508   3.159
 6935SOL    HW221390   3.886   3.445   3.202
 6936SOL     OW21391   4.091   2.962   2.363
 6936SOL    HW121392   4.084   3.045   2.307
 6936SOL    HW221393   4.095   2.882   2.303
 6937SOL     OW21394   4.031   2.075   3.093
 6937SOL    HW121395   4.008   2.112   3.183
 6937SOL    HW221396   4.001   1.980   3.087
 6938SOL     OW21397   3.761   3.172   3.144
 6938SOL    HW121398   3.814   3.123   3.212
 6938SOL    HW221399   3.783   3.270   3.149
 6939SOL     OW21400   4.031   1.925   2.480
 6939SOL    HW121401   4.020   2.019   2.513
 6939SOL    HW221402   4.026   1.862   2.557
 6940SOL     OW21403   3.732   3.188   2.062
 6940SOL    HW121404   3.639   3.209   2.031
 6940SOL    HW221405   3.742   3.089   2.075
 6941SOL     OW21406   3.812   3.663   2.789
 6941SOL    HW121407   3.770   3.577   2.762
 6941SOL    HW221408   3.906   3.666   2.755
 6942SOL     OW21409   4.228   3.430   2.772
 6942SOL    HW121410   4.294   3.504   2.781
 6942SOL    HW221411   4.272   3.351   2.730
 6943SOL     OW21412   3.764   2.406   2.976
 6943SOL    HW121413   3.849   2.373   2.935
 6943SOL    HW221414   3.777   2.421   3.074
 6944SOL     OW21415   3.913   2.382   3.584
 6944SOL    HW121416   3.972   2.342   3.514
 6944SOL    HW221417   3.855   2.453   3.543
 6945SOL     OW21418   3.976   3.426   3.606
 6945SOL    HW121419   3.946   3.483   3.682
 6945SOL    HW221420   3.969   3.329   3.632
 6946SOL     OW21421   3.883   2.999   3.328
 6946SOL    HW121422   3.905   2.938   3.404
 6946SOL    HW221423   3.893   2.950   3.242
 6947SOL     OW21424   3.807   3.120   2.884
 6947SOL    HW121425   3.802   3.119   2.984
 6947SOL    HW221426   3.724   3.079   2.846
 6948SOL     OW21427   3.854   3.656   3.713
 6948SOL    HW121428   3.813   3.582   3.766
 6948SOL    HW221429   3.918   3.707   3.771
 6949SOL     OW21430   3.799   2.207   1.895
 6949SOL    HW121431   3.707   2.179   1.866
 6949SOL    HW221432   3.830   2.284   1.839
 6950SOL     OW21433   3.796   2.028   2.180
 6950SOL    HW121434   3.779   2.111   2.126
 6950SOL    HW221435   3.886   1.991   2.158
 6951SOL     OW21436   3.803   3.102   2.515
 6951SOL    HW121437   3.802   3.055   2.603
 6951SOL    HW221438   3.885   3.074   2.464
 6952SOL     OW21439   3.763   2.939   2.162
 6952SOL    HW121440   3.862   2.928   2.153
 6952SOL    HW221441   3.723   2.853   2.194
 6953SOL     OW21442   3.954   2.490   3.837
 6953SOL    HW121443   3.861   2.488   3.874
 6953SOL    HW221444   3.955   2.451   3.745
 6954SOL     OW21445   3.949   2.137   4.720
 6954SOL    HW121446   3.984   2.120   4.812
 6954SOL    HW221447   3.861   2.092   4.708
 6955SOL     OW21448   3.743   2.230   4.371
 6955SOL    HW121449   3.661   2.273   4.410
 6955SOL    HW221450   3.715   2.157   4.308
 6956SOL     OW21451   4.059   3.297   4.785
 6956SOL    HW121452   3.981   3.266   4.732
 6956SOL    HW221453   4.117   3.355   4.728
 6957SOL     OW21454   3.955   3.575   4.207
 6957SOL    HW121455   3.989   3.652   4.261
 6957SOL    HW221456   3.999   3.575   4.117
 6958SOL     OW21457   3.954   3.296   4.262
 6958SOL    HW121458   3.928   3.392   4.262
 6958SOL    HW221459   3.883   3.242   4.307
 6959SOL     OW21460   3.846   2.505   4.287
 6959SOL    HW121461   3.801   2.417   4.304
 6959SOL    HW221462   3.845   2.559   4.371
 6960SOL     OW21463   3.751   3.458   3.841
 6960SOL    HW121464   3.732   3.362   3.862
 6960SOL    HW221465   3.718   3.516   3.916
 6961SOL     OW21466   3.837   2.599   5.321
 6961SOL    HW121467   3.925   2.586   5.366
 6961SOL    HW221468   3.824   2.696   5.299
 6962SOL     OW21469   3.800   2.673   4.513
 6962SOL    HW121470   3.899   2.661   4.522
 6962SOL    HW221471   3.776   2.768   4.534
 6963SOL     OW21472   3.854   3.683   5.295
 6963SOL    HW121473   3.844   3.668   5.394
 6963SOL    HW221474   3.768   3.719   5.259
 6964SOL     OW21475   3.926   2.147   5.222
 6964SOL    HW121476   3.846   2.207   5.209
 6964SOL    HW221477   3.916   2.098   5.308
 6965SOL     OW21478   4.021   1.897   3.895
 6965SOL    HW121479   4.070   1.981   3.874
 6965SOL    HW221480   4.083   1.832   3.940
 6966SOL     OW21481   3.802   2.418   5.110
 6966SOL    HW121482   3.894   2.417   5.069
 6966SOL    HW221483   3.796   2.492   5.177
 6967SOL     OW21484   4.251   2.118   4.052
 6967SOL    HW121485   4.278   2.059   3.977
 6967SOL    HW221486   4.251   2.213   4.021
 6968SOL     OW21487   3.788   3.426   5.055
 6968SOL    HW121488   3.742   3.508   5.021
 6968SOL    HW221489   3.886   3.445   5.064
 6969SOL     OW21490   4.091   2.962   4.225
 6969SOL    HW121491   4.084   3.045   4.169
 6969SOL    HW221492   4.095   2.882   4.165
 6970SOL     OW21493   4.031   2.075   4.955
 6970SOL    HW121494   4.008   2.112   5.045
 6970SOL    HW221495   4.001   1.980   4.949
 6971SOL     OW21496   3.761   3.172   5.006
 6971SOL    HW121497   3.814   3.123   5.074
 6971SOL    HW221498   3.783   3.270   5.011
 6972SOL     OW21499   4.031   1.925   4.342
 6972SOL    HW121500   4.020   2.019   4.375
 6972SOL    HW221501   4.026   1.862   4.419
 6973SOL     OW21502   3.732   3.188   3.924
 6973SOL    HW121503   3.639   3.209   3.893
 6973SOL    HW221504   3.742   3.089   3.937
 6974SOL     OW21505   3.812   3.663   4.651
 6974SOL    HW121506   3.770   3.577   4.624
 6974SOL    HW221507   3.906   3.666   4.617
 6975SOL     OW21508   4.228   3.430   4.634
 6975SOL    HW121509   4.294   3.504   4.643
 6975SOL    HW221510   4.272   3.351   4.592
 6976SOL     OW21511   3.764   2.406   4.838
 6976SOL    HW121512   3.849   2.373   4.797
 6976SOL    HW221513   3.777   2.421   4.936
 6977SOL     OW21514   3.913   2.382   5.446
 6977SOL    HW121515   3.972   2.342   5.376
 6977SOL    HW221516   3.855   2.453   5.405
 6978SOL     OW21517   3.976   3.426   5.468
 6978SOL    HW121518   3.946   3.483   5.544
 6978SOL    HW221519   3.969   3.329   5.494
 6979SOL     OW21520   3.883   2.999   5.190
 6979SOL    HW121521   3.905   2.938   5.266
 6979SOL    HW221522   3.893   2.950   5.104
 6980SOL     OW21523   3.807   3.120   4.746
 6980SOL    HW121524   3.802   3.119   4.846
 6980SOL    HW221525   3.724   3.079   4.708
 6981SOL     OW21526   3.854   3.656   5.575
 6981SOL    HW121527   3.813   3.582   5.628
 6981SOL    HW221528   3.918   3.707   5.633
 6982SOL     OW21529   3.799   2.207   3.757
 6982SOL    HW121530   3.707   2.179   3.728
 6982SOL    HW221531   3.830   2.284   3.701
 6983SOL     OW21532   3.796   2.028   4.042
 6983SOL    HW121533   3.779   2.111   3.988
 6983SOL    HW221534   3.886   1.991   4.020
 6984SOL     OW21535   3.803   3.102   4.377
 6984SOL    HW121536   3.802   3.055   4.465
 6984SOL    HW221537   3.885   3.074   4.326
 6985SOL     OW21538   3.763   2.939   4.024
 6985SOL    HW121539   3.862   2.928   4.015
 6985SOL    HW221540   3.723   2.853   4.056
 6986SOL     OW21541   3.954   2.490   5.699
 6986SOL    HW121542   3.861   2.488   5.736
 6986SOL    HW221543   3.955   2.451   5.607
 6987SOL     OW21544   3.949   2.137   6.582
 6987SOL    HW121545   3.984   2.120   6.674
 6987SOL    HW221546   3.861   2.092   6.570
 6988SOL     OW21547   3.743   2.230   6.233
 6988SOL    HW121548   3.661   2.273   6.272
 6988SOL    HW221549   3.715   2.157   6.170
 6989SOL     OW21550   4.059   3.297   6.647
 6989SOL    HW121551   3.981   3.266   6.594
 6989SOL    HW221552   4.117   3.355   6.590
 6990SOL     OW21553   3.955   3.575   6.069
 6990SOL    HW121554   3.989   3.652   6.123
 6990SOL    HW221555   3.999   3.575   5.979
 6991SOL     OW21556   3.954   3.296   6.124
 6991SOL    HW121557   3.928   3.392   6.124
 6991SOL    HW221558   3.883   3.242   6.169
 6992SOL     OW21559   3.846   2.505   6.149
 6992SOL    HW121560   3.801   2.417   6.166
 6992SOL    HW221561   3.845   2.559   6.233
 6993SOL     OW21562   3.751   3.458   5.703
 6993SOL    HW121563   3.732   3.362   5.724
 6993SOL    HW221564   3.718   3.516   5.778
 6994SOL     OW21565   3.837   2.599   7.183
 6994SOL    HW121566   3.925   2.586   7.228
 6994SOL    HW221567   3.824   2.696   7.161
 6995SOL     OW21568   3.800   2.673   6.375
 6995SOL    HW121569   3.899   2.661   6.384
 6995SOL    HW221570   3.776   2.768   6.396
 6996SOL     OW21571   3.854   3.683   7.157
 6996SOL    HW121572   3.844   3.668   7.256
 6996SOL    HW221573   3.768   3.719   7.121
 6997SOL     OW21574   3.926   2.147   7.084
 6997SOL    HW121575   3.846   2.207   7.071
 6997SOL    HW221576   3.916   2.098   7.170
 6998SOL     OW21577   4.021   1.897   5.757
 6998SOL    HW121578   4.070   1.981   5.736
 6998SOL    HW221579   4.083   1.832   5.802
 6999SOL     OW21580   3.802   2.418   6.972
 6999SOL    HW121581   3.894   2.417   6.931
 6999SOL    HW221582   3.796   2.492   7.039
 7000SOL     OW21583   4.251   2.118   5.914
 7000SOL    HW121584   4.278   2.059   5.839
 7000SOL    HW221585   4.251   2.213   5.883
 7001SOL     OW21586   3.788   3.426   6.917
 7001SOL    HW121587   3.742   3.508   6.883
 7001SOL    HW221588   3.886   3.445   6.926
 7002SOL     OW21589   4.091   2.962   6.087
 7002SOL    HW121590   4.084   3.045   6.031
 7002SOL    HW221591   4.095   2.882   6.027
 7003SOL     OW21592   4.031   2.075   6.817
 7003SOL    HW121593   4.008   2.112   6.907
 7003SOL    HW221594   4.001   1.980   6.811
 7004SOL     OW21595   3.761   3.172   6.868
 7004SOL    HW121596   3.814   3.123   6.936
 7004SOL    HW221597   3.783   3.270   6.873
 7005SOL     OW21598   4.031   1.925   6.204
 7005SOL    HW121599   4.020   2.019   6.237
 7005SOL    HW221600   4.026   1.862   6.281
 7006SOL     OW21601   3.732   3.188   5.786
 7006SOL    HW121602   3.639   3.209   5.755
 7006SOL    HW221603   3.742   3.089   5.799
 7007SOL     OW21604   3.812   3.663   6.513
 7007SOL    HW121605   3.770   3.577   6.486
 7007SOL    HW221606   3.906   3.666   6.479
 7008SOL     OW21607   4.228   3.430   6.496
 7008SOL    HW121608   4.294   3.504   6.505
 7008SOL    HW221609   4.272   3.351   6.454
 7009SOL     OW21610   3.764   2.406   6.700
 7009SOL    HW121611   3.849   2.373   6.659
 7009SOL    HW221612   3.777   2.421   6.798
 7010SOL     OW21613   3.913   2.382   7.308
 7010SOL    HW121614   3.972   2.342   7.238
 7010SOL    HW221615   3.855   2.453   7.267
 7011SOL     OW21616   3.976   3.426   7.330
 7011SOL    HW121617   3.946   3.483   7.406
 7011SOL    HW221618   3.969   3.329   7.356
 7012SOL     OW21619   3.883   2.999   7.052
 7012SOL    HW121620   3.905   2.938   7.128
 7012SOL    HW221621   3.893   2.950   6.966
 7013SOL     OW21622   3.807   3.120   6.608
 7013SOL    HW121623   3.802   3.119   6.708
 7013SOL    HW221624   3.724   3.079   6.570
 7014SOL     OW21625   3.854   3.656   7.437
 7014SOL    HW121626   3.813   3.582   7.490
 7014SOL    HW221627   3.918   3.707   7.495
 7015SOL     OW21628   3.799   2.207   5.619
 7015SOL    HW121629   3.707   2.179   5.590
 7015SOL    HW221630   3.830   2.284   5.563
 7016SOL     OW21631   3.796   2.028   5.904
 7016SOL    HW121632   3.779   2.111   5.850
 7016SOL    HW221633   3.886   1.991   5.882
 7017SOL     OW21634   3.803   3.102   6.239
 7017SOL    HW121635   3.802   3.055   6.327
 7017SOL    HW221636   3.885   3.074   6.188
 7018SOL     OW21637   3.763   2.939   5.886
 7018SOL    HW121638   3.862   2.928   5.877
 7018SOL    HW221639   3.723   2.853   5.918
 7019SOL     OW21640   3.954   2.490   7.561
 7019SOL    HW121641   3.861   2.488   7.598
 7019SOL    HW221642   3.955   2.451   7.469
 7020SOL     OW21643   3.949   2.137   8.444
 7020SOL    HW121644   3.984   2.120   8.536
 7020SOL    HW221645   3.861   2.092   8.432
 7021SOL     OW21646   3.743   2.230   8.095
 7021SOL    HW121647   3.661   2.273   8.134
 7021SOL    HW221648   3.715   2.157   8.032
 7022SOL     OW21649   4.059   3.297   8.509
 7022SOL    HW121650   3.981   3.266   8.456
 7022SOL    HW221651   4.117   3.355   8.452
 7023SOL     OW21652   3.955   3.575   7.931
 7023SOL    HW121653   3.989   3.652   7.985
 7023SOL    HW221654   3.999   3.575   7.841
 7024SOL     OW21655   3.954   3.296   7.986
 7024SOL    HW121656   3.928   3.392   7.986
 7024SOL    HW221657   3.883   3.242   8.031
 7025SOL     OW21658   3.846   2.505   8.011
 7025SOL    HW121659   3.801   2.417   8.028
 7025SOL    HW221660   3.845   2.559   8.095
 7026SOL     OW21661   3.751   3.458   7.565
 7026SOL    HW121662   3.732   3.362   7.586
 7026SOL    HW221663   3.718   3.516   7.640
 7027SOL     OW21664   3.837   2.599   9.045
 7027SOL    HW121665   3.925   2.586   9.090
 7027SOL    HW221666   3.824   2.696   9.023
 7028SOL     OW21667   3.800   2.673   8.237
 7028SOL    HW121668   3.899   2.661   8.246
 7028SOL    HW221669   3.776   2.768   8.258
 7029SOL     OW21670   3.854   3.683   9.019
 7029SOL    HW121671   3.844   3.668   9.118
 7029SOL    HW221672   3.768   3.719   8.983
 7030SOL     OW21673   3.926   2.147   8.946
 7030SOL    HW121674   3.846   2.207   8.933
 7030SOL    HW221675   3.916   2.098   9.032
 7031SOL     OW21676   4.021   1.897   7.619
 7031SOL    HW121677   4.070   1.981   7.598
 7031SOL    HW221678   4.083   1.832   7.664
 7032SOL     OW21679   3.802   2.418   8.834
 7032SOL    HW121680   3.894   2.417   8.793
 7032SOL    HW221681   3.796   2.492   8.901
 7033SOL     OW21682   4.251   2.118   7.776
 7033SOL    HW121683   4.278   2.059   7.701
 7033SOL    HW221684   4.251   2.213   7.745
 7034SOL     OW21685   3.788   3.426   8.779
 7034SOL    HW121686   3.742   3.508   8.745
 7034SOL    HW221687   3.886   3.445   8.788
 7035SOL     OW21688   4.091   2.962   7.949
 7035SOL    HW121689   4.084   3.045   7.893
 7035SOL    HW221690   4.095   2.882   7.889
 7036SOL     OW21691   4.031   2.075   8.679
 7036SOL    HW121692   4.008   2.112   8.769
 7036SOL    HW221693   4.001   1.980   8.673
 7037SOL     OW21694   3.761   3.172   8.730
 7037SOL    HW121695   3.814   3.123   8.798
 7037SOL    HW221696   3.783   3.270   8.735
 7038SOL     OW21697   4.031   1.925   8.066
 7038SOL    HW121698   4.020   2.019   8.099
 7038SOL    HW221699   4.026   1.862   8.143
 7039SOL     OW21700   3.732   3.188   7.648
 7039SOL    HW121701   3.639   3.209   7.617
 7039SOL    HW221702   3.742   3.089   7.661
 7040SOL     OW21703   3.812   3.663   8.375
 7040SOL    HW121704   3.770   3.577   8.348
 7040SOL    HW221705   3.906   3.666   8.341
 7041SOL     OW21706   4.228   3.430   8.358
 7041SOL    HW121707   4.294   3.504   8.367
 7041SOL    HW221708   4.272   3.351   8.316
 7042SOL     OW21709   3.764   2.406   8.562
 7042SOL    HW121710   3.849   2.373   8.521
 7042SOL    HW221711   3.777   2.421   8.660
 7043SOL     OW21712   3.913   2.382   9.170
 7043SOL    HW121713   3.972   2.342   9.100
 7043SOL    HW221714   3.855   2.453   9.129
 7044SOL     OW21715   3.976   3.426   9.192
 7044SOL    HW121716   3.946   3.483   9.268
 7044SOL    HW221717   3.969   3.329   9.218
 7045SOL     OW21718   3.883   2.999   8.914
 7045SOL    HW121719   3.905   2.938   8.990
 7045SOL    HW221720   3.893   2.950   8.828
 7046SOL     OW21721   3.807   3.120   8.470
 7046SOL    HW121722   3.802   3.119   8.570
 7046SOL    HW221723   3.724   3.079   8.432
 7047SOL     OW21724   3.854   3.656   9.299
 7047SOL    HW121725   3.813   3.582   9.352
 7047SOL    HW221726   3.918   3.707   9.357
 7048SOL     OW21727   3.799   2.207   7.481
 7048SOL    HW121728   3.707   2.179   7.452
 7048SOL    HW221729   3.830   2.284   7.425
 7049SOL     OW21730   3.796   2.028   7.766
 7049SOL    HW121731   3.779   2.111   7.712
 7049SOL    HW221732   3.886   1.991   7.744
 7050SOL     OW21733   3.803   3.102   8.101
 7050SOL    HW121734   3.802   3.055   8.189
 7050SOL    HW221735   3.885   3.074   8.050
 7051SOL     OW21736   3.763   2.939   7.748
 7051SOL    HW121737   3.862   2.928   7.739
 7051SOL    HW221738   3.723   2.853   7.780
 7052SOL     OW21739   3.954   2.490   9.423
 7052SOL    HW121740   3.861   2.488   9.460
 7052SOL    HW221741   3.955   2.451   9.331
 7053SOL     OW21742   3.949   2.137  10.306
 7053SOL    HW121743   3.984   2.120  10.398
 7053SOL    HW221744   3.861   2.092  10.294
 7054SOL     OW21745   3.743   2.230   9.957
 7054SOL    HW121746   3.661   2.273   9.996
 7054SOL    HW221747   3.715   2.157   9.894
 7055SOL     OW21748   4.059   3.297  10.371
 7055SOL    HW121749   3.981   3.266  10.318
 7055SOL    HW221750   4.117   3.355  10.314
 7056SOL     OW21751   3.955   3.575   9.793
 7056SOL    HW121752   3.989   3.652   9.847
 7056SOL    HW221753   3.999   3.575   9.703
 7057SOL     OW21754   3.954   3.296   9.848
 7057SOL    HW121755   3.928   3.392   9.848
 7057SOL    HW221756   3.883   3.242   9.893
 7058SOL     OW21757   3.846   2.505   9.873
 7058SOL    HW121758   3.801   2.417   9.890
 7058SOL    HW221759   3.845   2.559   9.957
 7059SOL     OW21760   3.751   3.458   9.427
 7059SOL    HW121761   3.732   3.362   9.448
 7059SOL    HW221762   3.718   3.516   9.502
 7060SOL     OW21763   3.837   2.599  10.907
 7060SOL    HW121764   3.925   2.586  10.952
 7060SOL    HW221765   3.824   2.696  10.885
 7061SOL     OW21766   3.800   2.673  10.099
 7061SOL    HW121767   3.899   2.661  10.108
 7061SOL    HW221768   3.776   2.768  10.120
 7062SOL     OW21769   3.854   3.683  10.881
 7062SOL    HW121770   3.844   3.668  10.980
 7062SOL    HW221771   3.768   3.719  10.845
 7063SOL     OW21772   3.926   2.147  10.808
 7063SOL    HW121773   3.846   2.207  10.795
 7063SOL    HW221774   3.916   2.098  10.894
 7064SOL     OW21775   4.021   1.897   9.481
 7064SOL    HW121776   4.070   1.981   9.460
 7064SOL    HW221777   4.083   1.832   9.526
 7065SOL     OW21778   3.802   2.418  10.696
 7065SOL    HW121779   3.894   2.417  10.655
 7065SOL    HW221780   3.796   2.492  10.763
 7066SOL     OW21781   4.251   2.118   9.638
 7066SOL    HW121782   4.278   2.059   9.563
 7066SOL    HW221783   4.251   2.213   9.607
 7067SOL     OW21784   3.788   3.426  10.641
 7067SOL    HW121785   3.742   3.508  10.607
 7067SOL    HW221786   3.886   3.445  10.650
 7068SOL     OW21787   4.091   2.962   9.811
 7068SOL    HW121788   4.084   3.045   9.755
 7068SOL    HW221789   4.095   2.882   9.751
 7069SOL     OW21790   4.031   2.075  10.541
 7069SOL    HW121791   4.008   2.112  10.631
 7069SOL    HW221792   4.001   1.980  10.535
 7070SOL     OW21793   3.761   3.172  10.592
 7070SOL    HW121794   3.814   3.123  10.660
 7070SOL    HW221795   3.783   3.270  10.597
 7071SOL     OW21796   4.031   1.925   9.928
 7071SOL    HW121797   4.020   2.019   9.961
 7071SOL    HW221798   4.026   1.862  10.005
 7072SOL     OW21799   3.732   3.188   9.510
 7072SOL    HW121800   3.639   3.209   9.479
 7072SOL    HW221801   3.742   3.089   9.523
 7073SOL     OW21802   3.812   3.663  10.237
 7073SOL    HW121803   3.770   3.577  10.210
 7073SOL    HW221804   3.906   3.666  10.203
 7074SOL     OW21805   4.228   3.430  10.220
 7074SOL    HW121806   4.294   3.504  10.229
 7074SOL    HW221807   4.272   3.351  10.178
 7075SOL     OW21808   3.764   2.406  10.424
 7075SOL    HW121809   3.849   2.373  10.383
 7075SOL    HW221810   3.777   2.421  10.522
 7076SOL     OW21811   3.913   2.382  11.032
 7076SOL    HW121812   3.972   2.342  10.962
 7076SOL    HW221813   3.855   2.453  10.991
 7077SOL     OW21814   3.976   3.426  11.054
 7077SOL    HW121815   3.946   3.483  11.130
 7077SOL    HW221816   3.969   3.329  11.080
 7078SOL     OW21817   3.883   2.999  10.776
 7078SOL    HW121818   3.905   2.938  10.852
 7078SOL    HW221819   3.893   2.950  10.690
 7079SOL     OW21820   3.807   3.120  10.332
 7079SOL    HW121821   3.802   3.119  10.432
 7079SOL    HW221822   3.724   3.079  10.294
 7080SOL     OW21823   3.854   3.656  11.161
 7080SOL    HW121824   3.813   3.582  11.214
 7080SOL    HW221825   3.918   3.707  11.219
 7081SOL     OW21826   3.799   2.207   9.343
 7081SOL    HW121827   3.707   2.179   9.314
 7081SOL    HW221828   3.830   2.284   9.287
 7082SOL     OW21829   3.796   2.028   9.628
 7082SOL    HW121830   3.779   2.111   9.574
 7082SOL    HW221831   3.886   1.991   9.606
 7083SOL     OW21832   3.803   3.102   9.963
 7083SOL    HW121833   3.802   3.055  10.051
 7083SOL    HW221834   3.885   3.074   9.912
 7084SOL     OW21835   3.763   2.939   9.610
 7084SOL    HW121836   3.862   2.928   9.601
 7084SOL    HW221837   3.723   2.853   9.642
 7085SOL     OW21838   3.954   2.490  11.285
 7085SOL    HW121839   3.861   2.488  11.322
 7085SOL    HW221840   3.955   2.451  11.193
 7086SOL     OW21841   3.949   2.137  12.168
 7086SOL    HW121842   3.984   2.120  12.260
 7086SOL    HW221843   3.861   2.092  12.156
 7087SOL     OW21844   3.743   2.230  11.819
 7087SOL    HW121845   3.661   2.273  11.858
 7087SOL    HW221846   3.715   2.157  11.756
 7088SOL     OW21847   4.059   3.297  12.233
 7088SOL    HW121848   3.981   3.266  12.180
 7088SOL    HW221849   4.117   3.355  12.176
 7089SOL     OW21850   3.955   3.575  11.655
 7089SOL    HW121851   3.989   3.652  11.709
 7089SOL    HW221852   3.999   3.575  11.565
 7090SOL     OW21853   3.954   3.296  11.710
 7090SOL    HW121854   3.928   3.392  11.710
 7090SOL    HW221855   3.883   3.242  11.755
 7091SOL     OW21856   3.846   2.505  11.735
 7091SOL    HW121857   3.801   2.417  11.752
 7091SOL    HW221858   3.845   2.559  11.819
 7092SOL     OW21859   3.751   3.458  11.289
 7092SOL    HW121860   3.732   3.362  11.310
 7092SOL    HW221861   3.718   3.516  11.364
 7093SOL     OW21862   3.837   2.599  12.769
 7093SOL    HW121863   3.925   2.586  12.814
 7093SOL    HW221864   3.824   2.696  12.747
 7094SOL     OW21865   3.800   2.673  11.961
 7094SOL    HW121866   3.899   2.661  11.970
 7094SOL    HW221867   3.776   2.768  11.982
 7095SOL     OW21868   3.854   3.683  12.743
 7095SOL    HW121869   3.844   3.668  12.842
 7095SOL    HW221870   3.768   3.719  12.707
 7096SOL     OW21871   3.926   2.147  12.670
 7096SOL    HW121872   3.846   2.207  12.657
 7096SOL    HW221873   3.916   2.098  12.756
 7097SOL     OW21874   4.021   1.897  11.343
 7097SOL    HW121875   4.070   1.981  11.322
 7097SOL    HW221876   4.083   1.832  11.388
 7098SOL     OW21877   3.802   2.418  12.558
 7098SOL    HW121878   3.894   2.417  12.517
 7098SOL    HW221879   3.796   2.492  12.625
 7099SOL     OW21880   4.251   2.118  11.500
 7099SOL    HW121881   4.278   2.059  11.425
 7099SOL    HW221882   4.251   2.213  11.469
 7100SOL     OW21883   3.788   3.426  12.503
 7100SOL    HW121884   3.742   3.508  12.469
 7100SOL    HW221885   3.886   3.445  12.512
 7101SOL     OW21886   4.091   2.962  11.673
 7101SOL    HW121887   4.084   3.045  11.617
 7101SOL    HW221888   4.095   2.882  11.613
 7102SOL     OW21889   4.031   2.075  12.403
 7102SOL    HW121890   4.008   2.112  12.493
 7102SOL    HW221891   4.001   1.980  12.397
 7103SOL     OW21892   3.761   3.172  12.454
 7103SOL    HW121893   3.814   3.123  12.522
 7103SOL    HW221894   3.783   3.270  12.459
 7104SOL     OW21895   4.031   1.925  11.790
 7104SOL    HW121896   4.020   2.019  11.823
 7104SOL    HW221897   4.026   1.862  11.867
 7105SOL     OW21898   3.732   3.188  11.372
 7105SOL    HW121899   3.639   3.209  11.341
 7105SOL    HW221900   3.742   3.089  11.385
 7106SOL     OW21901   3.812   3.663  12.099
 7106SOL    HW121902   3.770   3.577  12.072
 7106SOL    HW221903   3.906   3.666  12.065
 7107SOL     OW21904   4.228   3.430  12.082
 7107SOL    HW121905   4.294   3.504  12.091
 7107SOL    HW221906   4.272   3.351  12.040
 7108SOL     OW21907   3.764   2.406  12.286
 7108SOL    HW121908   3.849   2.373  12.245
 7108SOL    HW221909   3.777   2.421  12.384
 7109SOL     OW21910   3.913   2.382  12.894
 7109SOL    HW121911   3.972   2.342  12.824
 7109SOL    HW221912   3.855   2.453  12.853
 7110SOL     OW21913   3.976   3.426  12.916
 7110SOL    HW121914   3.946   3.483  12.992
 7110SOL    HW221915   3.969   3.329  12.942
 7111SOL     OW21916   3.883   2.999  12.638
 7111SOL    HW121917   3.905   2.938  12.714
 7111SOL    HW221918   3.893   2.950  12.552
 7112SOL     OW21919   3.807   3.120  12.194
 7112SOL    HW121920   3.802   3.119  12.294
 7112SOL    HW221921   3.724   3.079  12.156
 7113SOL     OW21922   3.854   3.656  13.023
 7113SOL    HW121923   3.813   3.582  13.076
 7113SOL    HW221924   3.918   3.707  13.081
 7114SOL     OW21925   3.799   2.207  11.205
 7114SOL    HW121926   3.707   2.179  11.176
 7114SOL    HW221927   3.830   2.284  11.149
 7115SOL     OW21928   3.796   2.028  11.490
 7115SOL    HW121929   3.779   2.111  11.436
 7115SOL    HW221930   3.886   1.991  11.468
 7116SOL     OW21931   3.803   3.102  11.825
 7116SOL    HW121932   3.802   3.055  11.913
 7116SOL    HW221933   3.885   3.074  11.774
 7117SOL     OW21934   3.763   2.939  11.472
 7117SOL    HW121935   3.862   2.928  11.463
 7117SOL    HW221936   3.723   2.853  11.504
 7118SOL     OW21937   3.954   2.490  13.147
 7118SOL    HW121938   3.861   2.488  13.184
 7118SOL    HW221939   3.955   2.451  13.055
 7119SOL     OW21940   3.743   2.230  13.681
 7119SOL    HW121941   3.661   2.273  13.720
 7119SOL    HW221942   3.715   2.157  13.618
 7120SOL     OW21943   3.955   3.575  13.517
 7120SOL    HW121944   3.989   3.652  13.571
 7120SOL    HW221945   3.999   3.575  13.427
 7121SOL     OW21946   3.954   3.296  13.572
 7121SOL    HW121947   3.928   3.392  13.572
 7121SOL    HW221948   3.883   3.242  13.617
 7122SOL     OW21949   3.964   2.953  13.920
 7122SOL    HW121950   3.978   2.869  13.972
 7122SOL    HW221951   3.909   3.017  13.975
 7123SOL     OW21952   3.846   2.505  13.597
 7123SOL    HW121953   3.801   2.417  13.614
 7123SOL    HW221954   3.845   2.559  13.681
 7124SOL     OW21955   3.751   3.458  13.151
 7124SOL    HW121956   3.732   3.362  13.172
 7124SOL    HW221957   3.718   3.516  13.226
 7125SOL     OW21958   3.800   2.673  13.823
 7125SOL    HW121959   3.899   2.661  13.832
 7125SOL    HW221960   3.776   2.768  13.844
 7126SOL     OW21961   4.075   3.663  13.887
 7126SOL    HW121962   4.125   3.577  13.893
 7126SOL    HW221963   4.140   3.740  13.884
 7127SOL     OW21964   4.021   1.897  13.205
 7127SOL    HW121965   4.070   1.981  13.184
 7127SOL    HW221966   4.083   1.832  13.250
 7128SOL     OW21967   4.251   2.118  13.362
 7128SOL    HW121968   4.278   2.059  13.287
 7128SOL    HW221969   4.251   2.213  13.331
 7129SOL     OW21970   4.091   2.962  13.535
 7129SOL    HW121971   4.084   3.045  13.479
 7129SOL    HW221972   4.095   2.882  13.475
 7130SOL     OW21973   4.031   1.925  13.652
 7130SOL    HW121974   4.020   2.019  13.685
 7130SOL    HW221975   4.026   1.862  13.729
 7131SOL     OW21976   3.732   3.188  13.234
 7131SOL    HW121977   3.639   3.209  13.203
 7131SOL    HW221978   3.742   3.089  13.247
 7132SOL     OW21979   4.228   3.430  13.944
 7132SOL    HW121980   4.294   3.504  13.953
 7132SOL    HW221981   4.272   3.351  13.902
 7133SOL     OW21982   3.799   2.207  13.067
 7133SOL    HW121983   3.707   2.179  13.038
 7133SOL    HW221984   3.830   2.284  13.011
 7134SOL     OW21985   3.796   2.028  13.352
 7134SOL    HW121986   3.779   2.111  13.298
 7134SOL    HW221987   3.886   1.991  13.330
 7135SOL     OW21988   3.803   3.102  13.687
 7135SOL    HW121989   3.802   3.055  13.775
 7135SOL    HW221990   3.885   3.074  13.636
 7136SOL     OW21991   3.763   2.939  13.334
 7136SOL    HW121992   3.862   2.928  13.325
 7136SOL    HW221993   3.723   2.853  13.366
 7137SOL     OW21994   3.949   3.999   0.996
 7137SOL    HW121995   3.984   3.982   1.088
 7137SOL    HW221996   3.861   3.954   0.984
 7138SOL     OW21997   3.743   4.092   0.647
 7138SOL    HW121998   3.661   4.135   0.686
 7138SOL    HW221999   3.715   4.019   0.584
 7139SOL     OW22000   3.926   4.009   1.498
 7139SOL    HW122001   3.846   4.069   1.485
 7139SOL    HW222002   3.916   3.960   1.584
 7140SOL     OW22003   4.021   3.759   0.171
 7140SOL    HW122004   4.070   3.843   0.150
 7140SOL    HW222005   4.083   3.694   0.216
 7141SOL     OW22006   4.031   3.937   1.231
 7141SOL    HW122007   4.008   3.974   1.321
 7141SOL    HW222008   4.001   3.842   1.225
 7142SOL     OW22009   4.031   3.787   0.618
 7142SOL    HW122010   4.020   3.881   0.651
 7142SOL    HW222011   4.026   3.724   0.695
 7143SOL     OW22012   3.796   3.890   0.318
 7143SOL    HW122013   3.779   3.973   0.264
 7143SOL    HW222014   3.886   3.853   0.296
 7144SOL     OW22015   3.949   3.999   2.858
 7144SOL    HW122016   3.984   3.982   2.950
 7144SOL    HW222017   3.861   3.954   2.846
 7145SOL     OW22018   3.743   4.092   2.509
 7145SOL    HW122019   3.661   4.135   2.548
 7145SOL    HW222020   3.715   4.019   2.446
 7146SOL     OW22021   3.926   4.009   3.360
 7146SOL    HW122022   3.846   4.069   3.347
 7146SOL    HW222023   3.916   3.960   3.446
 7147SOL     OW22024   4.021   3.759   2.033
 7147SOL    HW122025   4.070   3.843   2.012
 7147SOL    HW222026   4.083   3.694   2.078
 7148SOL     OW22027   4.031   3.937   3.093
 7148SOL    HW122028   4.008   3.974   3.183
 7148SOL    HW222029   4.001   3.842   3.087
 7149SOL     OW22030   4.031   3.787   2.480
 7149SOL    HW122031   4.020   3.881   2.513
 7149SOL    HW222032   4.026   3.724   2.557
 7150SOL     OW22033   3.799   4.069   1.895
 7150SOL    HW122034   3.707   4.041   1.866
 7150SOL    HW222035   3.830   4.146   1.839
 7151SOL     OW22036   3.796   3.890   2.180
 7151SOL    HW122037   3.779   3.973   2.126
 7151SOL    HW222038   3.886   3.853   2.158
 7152SOL     OW22039   3.949   3.999   4.720
 7152SOL    HW122040   3.984   3.982   4.812
 7152SOL    HW222041   3.861   3.954   4.708
 7153SOL     OW22042   3.743   4.092   4.371
 7153SOL    HW122043   3.661   4.135   4.410
 7153SOL    HW222044   3.715   4.019   4.308
 7154SOL     OW22045   3.926   4.009   5.222
 7154SOL    HW122046   3.846   4.069   5.209
 7154SOL    HW222047   3.916   3.960   5.308
 7155SOL     OW22048   4.021   3.759   3.895
 7155SOL    HW122049   4.070   3.843   3.874
 7155SOL    HW222050   4.083   3.694   3.940
 7156SOL     OW22051   4.031   3.937   4.955
 7156SOL    HW122052   4.008   3.974   5.045
 7156SOL    HW222053   4.001   3.842   4.949
 7157SOL     OW22054   4.031   3.787   4.342
 7157SOL    HW122055   4.020   3.881   4.375
 7157SOL    HW222056   4.026   3.724   4.419
 7158SOL     OW22057   3.799   4.069   3.757
 7158SOL    HW122058   3.707   4.041   3.728
 7158SOL    HW222059   3.830   4.146   3.701
 7159SOL     OW22060   3.796   3.890   4.042
 7159SOL    HW122061   3.779   3.973   3.988
 7159SOL    HW222062   3.886   3.853   4.020
 7160SOL     OW22063   3.949   3.999   6.582
 7160SOL    HW122064   3.984   3.982   6.674
 7160SOL    HW222065   3.861   3.954   6.570
 7161SOL     OW22066   3.743   4.092   6.233
 7161SOL    HW122067   3.661   4.135   6.272
 7161SOL    HW222068   3.715   4.019   6.170
 7162SOL     OW22069   3.926   4.009   7.084
 7162SOL    HW122070   3.846   4.069   7.071
 7162SOL    HW222071   3.916   3.960   7.170
 7163SOL     OW22072   4.021   3.759   5.757
 7163SOL    HW122073   4.070   3.843   5.736
 7163SOL    HW222074   4.083   3.694   5.802
 7164SOL     OW22075   4.031   3.937   6.817
 7164SOL    HW122076   4.008   3.974   6.907
 7164SOL    HW222077   4.001   3.842   6.811
 7165SOL     OW22078   4.031   3.787   6.204
 7165SOL    HW122079   4.020   3.881   6.237
 7165SOL    HW222080   4.026   3.724   6.281
 7166SOL     OW22081   3.799   4.069   5.619
 7166SOL    HW122082   3.707   4.041   5.590
 7166SOL    HW222083   3.830   4.146   5.563
 7167SOL     OW22084   3.796   3.890   5.904
 7167SOL    HW122085   3.779   3.973   5.850
 7167SOL    HW222086   3.886   3.853   5.882
 7168SOL     OW22087   3.949   3.999   8.444
 7168SOL    HW122088   3.984   3.982   8.536
 7168SOL    HW222089   3.861   3.954   8.432
 7169SOL     OW22090   3.743   4.092   8.095
 7169SOL    HW122091   3.661   4.135   8.134
 7169SOL    HW222092   3.715   4.019   8.032
 7170SOL     OW22093   3.926   4.009   8.946
 7170SOL    HW122094   3.846   4.069   8.933
 7170SOL    HW222095   3.916   3.960   9.032
 7171SOL     OW22096   4.021   3.759   7.619
 7171SOL    HW122097   4.070   3.843   7.598
 7171SOL    HW222098   4.083   3.694   7.664
 7172SOL     OW22099   4.031   3.937   8.679
 7172SOL    HW122100   4.008   3.974   8.769
 7172SOL    HW222101   4.001   3.842   8.673
 7173SOL     OW22102   4.031   3.787   8.066
 7173SOL    HW122103   4.020   3.881   8.099
 7173SOL    HW222104   4.026   3.724   8.143
 7174SOL     OW22105   3.799   4.069   7.481
 7174SOL    HW122106   3.707   4.041   7.452
 7174SOL    HW222107   3.830   4.146   7.425
 7175SOL     OW22108   3.796   3.890   7.766
 7175SOL    HW122109   3.779   3.973   7.712
 7175SOL    HW222110   3.886   3.853   7.744
 7176SOL     OW22111   3.949   3.999  10.306
 7176SOL    HW122112   3.984   3.982  10.398
 7176SOL    HW222113   3.861   3.954  10.294
 7177SOL     OW22114   3.743   4.092   9.957
 7177SOL    HW122115   3.661   4.135   9.996
 7177SOL    HW222116   3.715   4.019   9.894
 7178SOL     OW22117   3.926   4.009  10.808
 7178SOL    HW122118   3.846   4.069  10.795
 7178SOL    HW222119   3.916   3.960  10.894
 7179SOL     OW22120   4.021   3.759   9.481
 7179SOL    HW122121   4.070   3.843   9.460
 7179SOL    HW222122   4.083   3.694   9.526
 7180SOL     OW22123   4.031   3.937  10.541
 7180SOL    HW122124   4.008   3.974  10.631
 7180SOL    HW222125   4.001   3.842  10.535
 7181SOL     OW22126   4.031   3.787   9.928
 7181SOL    HW122127   4.020   3.881   9.961
 7181SOL    HW222128   4.026   3.724  10.005
 7182SOL     OW22129   3.799   4.069   9.343
 7182SOL    HW122130   3.707   4.041   9.314
 7182SOL    HW222131   3.830   4.146   9.287
 7183SOL     OW22132   3.796   3.890   9.628
 7183SOL    HW122133   3.779   3.973   9.574
 7183SOL    HW222134   3.886   3.853   9.606
 7184SOL     OW22135   3.949   3.999  12.168
 7184SOL    HW122136   3.984   3.982  12.260
 7184SOL    HW222137   3.861   3.954  12.156
 7185SOL     OW22138   3.743   4.092  11.819
 7185SOL    HW122139   3.661   4.135  11.858
 7185SOL    HW222140   3.715   4.019  11.756
 7186SOL     OW22141   3.926   4.009  12.670
 7186SOL    HW122142   3.846   4.069  12.657
 7186SOL    HW222143   3.916   3.960  12.756
 7187SOL     OW22144   4.021   3.759  11.343
 7187SOL    HW122145   4.070   3.843  11.322
 7187SOL    HW222146   4.083   3.694  11.388
 7188SOL     OW22147   4.031   3.937  12.403
 7188SOL    HW122148   4.008   3.974  12.493
 7188SOL    HW222149   4.001   3.842  12.397
 7189SOL     OW22150   4.031   3.787  11.790
 7189SOL    HW122151   4.020   3.881  11.823
 7189SOL    HW222152   4.026   3.724  11.867
 7190SOL     OW22153   3.799   4.069  11.205
 7190SOL    HW122154   3.707   4.041  11.176
 7190SOL    HW222155   3.830   4.146  11.149
 7191SOL     OW22156   3.796   3.890  11.490
 7191SOL    HW122157   3.779   3.973  11.436
 7191SOL    HW222158   3.886   3.853  11.468
 7192SOL     OW22159   3.743   4.092  13.681
 7192SOL    HW122160   3.661   4.135  13.720
 7192SOL    HW222161   3.715   4.019  13.618
 7193SOL     OW22162   4.021   3.759  13.205
 7193SOL    HW122163   4.070   3.843  13.184
 7193SOL    HW222164   4.083   3.694  13.250
 7194SOL     OW22165   4.031   3.787  13.652
 7194SOL    HW122166   4.020   3.881  13.685
 7194SOL    HW222167   4.026   3.724  13.729
 7195SOL     OW22168   3.799   4.069  13.067
 7195SOL    HW122169   3.707   4.041  13.038
 7195SOL    HW222170   3.830   4.146  13.011
 7196SOL     OW22171   3.796   3.890  13.352
 7196SOL    HW122172   3.779   3.973  13.298
 7196SOL    HW222173   3.886   3.853  13.330
   4.00000   4.00000  13.90000
