#include "../../../../../forcefield/gaff2.itp" ;general ff


;include PEG potential
#include "../../../../../forcefield/PEG_30_c_GMX.itp" ;Include the PEG ff

;include CD potential
#include "../../../../../forcefield/MOL_gCD-OH.itp"

;include water tip3p
#include "../../../../../forcefield/tip3p.itp"

[ system ]
1gCDOH_2PEG_l14

[ molecules ]
; Compound        nmols
PEG           2
MOL            1
SOL              7195
