Built with Packmol
22254
    1LIG      O    1   2.812   2.736   0.038
    1LIG      C    2   2.740   2.774   0.126
    1LIG     C1    3   2.817   2.732   0.219
    1LIG     O1    4   2.746   2.769   0.308
    1LIG     C2    5   2.817   2.731   0.396
    1LIG     C3    6   2.737   2.773   0.487
    1LIG     O2    7   2.808   2.734   0.575
    1LIG     C4    8   2.736   2.771   0.664
    1LIG     C5    9   2.816   2.728   0.756
    1LIG     O3   10   2.744   2.765   0.844
    1LIG     C6   11   2.815   2.726   0.932
    1LIG     C7   12   2.735   2.768   1.023
    1LIG     O4   13   2.805   2.730   1.112
    1LIG     C8   14   2.734   2.767   1.200
    1LIG     C9   15   2.814   2.724   1.291
    1LIG     O5   16   2.743   2.761   1.379
    1LIG    C10   17   2.814   2.723   1.468
    1LIG    C11   18   2.733   2.766   1.559
    1LIG     O6   19   2.804   2.728   1.647
    1LIG    C12   20   2.733   2.765   1.735
    1LIG    C13   21   2.814   2.722   1.827
    1LIG     O7   22   2.742   2.760   1.915
    1LIG    C14   23   2.813   2.722   2.003
    1LIG    C15   24   2.733   2.764   2.095
    1LIG     O8   25   2.804   2.726   2.184
    1LIG    C16   26   2.732   2.764   2.272
    1LIG    C17   27   2.812   2.721   2.363
    1LIG     O9   28   2.741   2.759   2.452
    1LIG    C18   29   2.813   2.720   2.540
    1LIG    C19   30   2.733   2.763   2.631
    1LIG    O10   31   2.804   2.725   2.720
    1LIG    C20   32   2.732   2.763   2.807
    1LIG    C21   33   2.813   2.720   2.899
    1LIG    O11   34   2.741   2.758   2.987
    1LIG    C22   35   2.813   2.720   3.075
    1LIG    C23   36   2.732   2.763   3.166
    1LIG    O12   37   2.803   2.725   3.254
    1LIG    C24   38   2.732   2.762   3.343
    1LIG    C25   39   2.812   2.719   3.435
    1LIG    O13   40   2.741   2.757   3.524
    1LIG    C26   41   2.813   2.719   3.611
    1LIG    C27   42   2.732   2.762   3.703
    1LIG    O14   43   2.804   2.724   3.791
    1LIG    C28   44   2.732   2.762   3.879
    1LIG    C29   45   2.813   2.720   3.971
    1LIG    O15   46   2.741   2.758   4.059
    1LIG    C30   47   2.813   2.720   4.147
    1LIG    C31   48   2.733   2.763   4.238
    1LIG    O16   49   2.804   2.725   4.326
    1LIG    C32   50   2.733   2.763   4.415
    1LIG    C33   51   2.813   2.721   4.506
    1LIG    O17   52   2.742   2.758   4.595
    1LIG    C34   53   2.814   2.721   4.683
    1LIG    C35   54   2.734   2.762   4.774
    1LIG    O18   55   2.805   2.725   4.863
    1LIG    C36   56   2.733   2.763   4.951
    1LIG    C37   57   2.813   2.721   5.042
    1LIG    O19   58   2.742   2.759   5.131
    1LIG    C38   59   2.814   2.722   5.219
    1LIG    C39   60   2.735   2.764   5.311
    1LIG    O20   61   2.806   2.726   5.399
    1LIG    C40   62   2.734   2.764   5.487
    1LIG    C41   63   2.814   2.723   5.579
    1LIG    O21   64   2.743   2.760   5.667
    1LIG    C42   65   2.815   2.723   5.755
    1LIG    C43   66   2.735   2.765   5.846
    1LIG    O22   67   2.806   2.728   5.935
    1LIG    C44   68   2.735   2.766   6.023
    1LIG    C45   69   2.816   2.724   6.114
    1LIG    O23   70   2.745   2.761   6.202
    1LIG    C46   71   2.816   2.724   6.291
    1LIG    C47   72   2.735   2.766   6.382
    1LIG    O24   73   2.807   2.729   6.470
    1LIG    C48   74   2.736   2.766   6.558
    1LIG    C49   75   2.817   2.724   6.650
    1LIG    O25   76   2.746   2.762   6.738
    1LIG    C50   77   2.816   2.725   6.826
    1LIG    C51   78   2.736   2.767   6.917
    1LIG    O26   79   2.807   2.730   7.005
    1LIG    C52   80   2.737   2.768   7.094
    1LIG    C53   81   2.818   2.726   7.185
    1LIG    O27   82   2.746   2.763   7.273
    1LIG    C54   83   2.817   2.727   7.362
    1LIG    C55   84   2.737   2.769   7.454
    1LIG    O28   85   2.809   2.732   7.542
    1LIG    C56   86   2.738   2.769   7.630
    1LIG    C57   87   2.818   2.728   7.723
    1LIG    O29   88   2.747   2.766   7.811
    1LIG    C58   89   2.819   2.728   7.899
    1LIG    C59   90   2.740   2.770   7.991
    1LIG      H   91   2.641   2.726   0.125
    1LIG     H1   92   2.724   2.883   0.125
    1LIG     H2   93   2.916   2.780   0.219
    1LIG     H3   94   2.833   2.624   0.218
    1LIG     H4   95   2.916   2.779   0.397
    1LIG     H5   96   2.833   2.622   0.396
    1LIG     H6   97   2.638   2.725   0.486
    1LIG     H7   98   2.721   2.881   0.487
    1LIG     H8   99   2.637   2.723   0.664
    1LIG     H9  100   2.721   2.879   0.665
    1LIG    H10  101   2.914   2.776   0.755
    1LIG    H11  102   2.831   2.619   0.754
    1LIG    H12  103   2.914   2.774   0.933
    1LIG    H13  104   2.831   2.618   0.933
    1LIG    H14  105   2.636   2.720   1.022
    1LIG    H15  106   2.719   2.876   1.023
    1LIG    H16  107   2.635   2.719   1.201
    1LIG    H17  108   2.718   2.876   1.202
    1LIG    H18  109   2.913   2.772   1.290
    1LIG    H19  110   2.830   2.615   1.290
    1LIG    H20  111   2.912   2.771   1.469
    1LIG    H21  112   2.829   2.615   1.469
    1LIG    H22  113   2.635   2.718   1.558
    1LIG    H23  114   2.718   2.874   1.558
    1LIG    H24  115   2.635   2.717   1.736
    1LIG    H25  116   2.718   2.873   1.737
    1LIG    H26  117   2.912   2.770   1.826
    1LIG    H27  118   2.829   2.613   1.825
    1LIG    H28  119   2.912   2.770   2.004
    1LIG    H29  120   2.829   2.613   2.004
    1LIG    H30  121   2.635   2.715   2.094
    1LIG    H31  122   2.718   2.872   2.094
    1LIG    H32  123   2.634   2.716   2.272
    1LIG    H33  124   2.717   2.872   2.273
    1LIG    H34  125   2.910   2.770   2.362
    1LIG    H35  126   2.828   2.613   2.362
    1LIG    H36  127   2.912   2.769   2.541
    1LIG    H37  128   2.829   2.612   2.541
    1LIG    H38  129   2.634   2.715   2.630
    1LIG    H39  130   2.717   2.871   2.630
    1LIG    H40  131   2.634   2.715   2.809
    1LIG    H41  132   2.717   2.871   2.809
    1LIG    H42  133   2.911   2.769   2.897
    1LIG    H43  134   2.828   2.612   2.897
    1LIG    H44  135   2.911   2.768   3.076
    1LIG    H45  136   2.828   2.612   3.076
    1LIG    H46  137   2.634   2.714   3.165
    1LIG    H47  138   2.716   2.871   3.165
    1LIG    H48  139   2.634   2.714   3.344
    1LIG    H49  140   2.717   2.870   3.344
    1LIG    H50  141   2.911   2.768   3.434
    1LIG    H51  142   2.828   2.611   3.434
    1LIG    H52  143   2.911   2.767   3.612
    1LIG    H53  144   2.828   2.610   3.612
    1LIG    H54  145   2.634   2.713   3.702
    1LIG    H55  146   2.717   2.870   3.701
    1LIG    H56  147   2.634   2.714   3.880
    1LIG    H57  148   2.717   2.871   3.880
    1LIG    H58  149   2.911   2.768   3.970
    1LIG    H59  150   2.828   2.611   3.970
    1LIG    H60  151   2.911   2.768   4.148
    1LIG    H61  152   2.829   2.612   4.148
    1LIG    H62  153   2.634   2.714   4.237
    1LIG    H63  154   2.717   2.871   4.237
    1LIG    H64  155   2.635   2.714   4.416
    1LIG    H65  156   2.717   2.871   4.416
    1LIG    H66  157   2.912   2.769   4.505
    1LIG    H67  158   2.829   2.612   4.505
    1LIG    H68  159   2.912   2.769   4.683
    1LIG    H69  160   2.829   2.612   4.683
    1LIG    H70  161   2.635   2.714   4.773
    1LIG    H71  162   2.718   2.871   4.773
    1LIG    H72  163   2.635   2.715   4.952
    1LIG    H73  164   2.718   2.872   4.951
    1LIG    H74  165   2.912   2.770   5.041
    1LIG    H75  166   2.829   2.613   5.042
    1LIG    H76  167   2.913   2.770   5.219
    1LIG    H77  168   2.830   2.613   5.220
    1LIG    H78  169   2.636   2.716   5.310
    1LIG    H79  170   2.719   2.872   5.309
    1LIG    H80  171   2.636   2.716   5.488
    1LIG    H81  172   2.718   2.873   5.488
    1LIG    H82  173   2.913   2.771   5.577
    1LIG    H83  174   2.830   2.614   5.578
    1LIG    H84  175   2.914   2.771   5.756
    1LIG    H85  176   2.831   2.614   5.756
    1LIG    H86  177   2.637   2.716   5.845
    1LIG    H87  178   2.719   2.873   5.845
    1LIG    H88  179   2.636   2.717   6.024
    1LIG    H89  180   2.719   2.874   6.024
    1LIG    H90  181   2.914   2.772   6.113
    1LIG    H91  182   2.832   2.615   6.113
    1LIG    H92  183   2.914   2.772   6.292
    1LIG    H93  184   2.832   2.615   6.292
    1LIG    H94  185   2.637   2.718   6.381
    1LIG    H95  186   2.719   2.875   6.381
    1LIG    H96  187   2.638   2.718   6.560
    1LIG    H97  188   2.720   2.875   6.560
    1LIG    H98  189   2.915   2.773   6.648
    1LIG    H99  190   2.833   2.616   6.649
    1LIG   H100  191   2.915   2.773   6.827
    1LIG   H101  192   2.833   2.617   6.828
    1LIG   H102  193   2.638   2.719   6.916
    1LIG   H103  194   2.720   2.876   6.916
    1LIG   H104  195   2.638   2.719   7.095
    1LIG   H105  196   2.721   2.876   7.095
    1LIG   H106  197   2.916   2.774   7.184
    1LIG   H107  198   2.834   2.617   7.184
    1LIG   H108  199   2.915   2.775   7.363
    1LIG   H109  200   2.833   2.618   7.363
    1LIG   H110  201   2.639   2.720   7.453
    1LIG   H111  202   2.721   2.877   7.452
    1LIG   H112  203   2.639   2.721   7.631
    1LIG   H113  204   2.721   2.878   7.631
    1LIG   H114  205   2.916   2.777   7.721
    1LIG   H115  206   2.834   2.620   7.722
    1LIG   H116  207   2.917   2.778   7.899
    1LIG   H117  208   2.834   2.620   7.900
    1LIG   H118  209   2.723   2.878   7.991
    1LIG   H119  210   2.793   2.743   8.060
    1LIG      O  211   2.512   2.515   0.038
    1LIG      C  212   2.577   2.565   0.126
    1LIG     C1  213   2.507   2.512   0.219
    1LIG     O1  214   2.570   2.561   0.308
    1LIG     C2  215   2.505   2.513   0.396
    1LIG     C3  216   2.577   2.568   0.487
    1LIG     O2  217   2.512   2.520   0.575
    1LIG     C4  218   2.576   2.569   0.664
    1LIG     C5  219   2.503   2.515   0.756
    1LIG     O3  220   2.566   2.565   0.844
    1LIG     C6  221   2.502   2.516   0.932
    1LIG     C7  222   2.573   2.572   1.023
    1LIG     O4  223   2.510   2.524   1.112
    1LIG     C8  224   2.573   2.573   1.200
    1LIG     C9  225   2.500   2.518   1.291
    1LIG     O5  226   2.564   2.567   1.379
    1LIG    C10  227   2.500   2.519   1.468
    1LIG    C11  228   2.572   2.574   1.559
    1LIG     O6  229   2.508   2.525   1.647
    1LIG    C12  230   2.571   2.574   1.735
    1LIG    C13  231   2.499   2.519   1.827
    1LIG     O7  232   2.563   2.569   1.915
    1LIG    C14  233   2.499   2.520   2.003
    1LIG    C15  234   2.570   2.575   2.095
    1LIG     O8  235   2.506   2.526   2.184
    1LIG    C16  236   2.571   2.576   2.272
    1LIG    C17  237   2.499   2.521   2.363
    1LIG     O9  238   2.562   2.570   2.452
    1LIG    C18  239   2.497   2.520   2.540
    1LIG    C19  240   2.569   2.576   2.631
    1LIG    O10  241   2.506   2.527   2.720
    1LIG    C20  242   2.570   2.576   2.807
    1LIG    C21  243   2.498   2.521   2.899
    1LIG    O11  244   2.561   2.570   2.987
    1LIG    C22  245   2.498   2.521   3.075
    1LIG    C23  246   2.570   2.577   3.166
    1LIG    O12  247   2.505   2.528   3.254
    1LIG    C24  248   2.569   2.577   3.343
    1LIG    C25  249   2.497   2.522   3.435
    1LIG    O13  250   2.561   2.571   3.524
    1LIG    C26  251   2.496   2.521   3.611
    1LIG    C27  252   2.569   2.577   3.703
    1LIG    O14  253   2.505   2.527   3.791
    1LIG    C28  254   2.569   2.576   3.879
    1LIG    C29  255   2.497   2.521   3.971
    1LIG    O15  256   2.561   2.570   4.059
    1LIG    C30  257   2.497   2.521   4.147
    1LIG    C31  258   2.570   2.576   4.238
    1LIG    O16  259   2.505   2.527   4.326
    1LIG    C32  260   2.569   2.576   4.415
    1LIG    C33  261   2.498   2.520   4.506
    1LIG    O17  262   2.562   2.570   4.595
    1LIG    C34  263   2.498   2.520   4.683
    1LIG    C35  264   2.569   2.575   4.774
    1LIG    O18  265   2.505   2.526   4.863
    1LIG    C36  266   2.570   2.575   4.951
    1LIG    C37  267   2.498   2.520   5.042
    1LIG    O19  268   2.562   2.569   5.131
    1LIG    C38  269   2.498   2.519   5.219
    1LIG    C39  270   2.569   2.574   5.311
    1LIG    O20  271   2.506   2.524   5.399
    1LIG    C40  272   2.570   2.574   5.487
    1LIG    C41  273   2.499   2.518   5.579
    1LIG    O21  274   2.563   2.568   5.667
    1LIG    C42  275   2.499   2.518   5.755
    1LIG    C43  276   2.571   2.573   5.846
    1LIG    O22  277   2.507   2.524   5.935
    1LIG    C44  278   2.571   2.573   6.023
    1LIG    C45  279   2.499   2.517   6.114
    1LIG    O23  280   2.563   2.566   6.202
    1LIG    C46  281   2.500   2.516   6.291
    1LIG    C47  282   2.572   2.572   6.382
    1LIG    O24  283   2.508   2.523   6.470
    1LIG    C48  284   2.571   2.572   6.558
    1LIG    C49  285   2.499   2.515   6.650
    1LIG    O25  286   2.563   2.565   6.738
    1LIG    C50  287   2.500   2.516   6.826
    1LIG    C51  288   2.572   2.571   6.917
    1LIG    O26  289   2.509   2.521   7.005
    1LIG    C52  290   2.572   2.570   7.094
    1LIG    C53  291   2.500   2.514   7.185
    1LIG    O27  292   2.565   2.564   7.273
    1LIG    C54  293   2.501   2.514   7.362
    1LIG    C55  294   2.573   2.569   7.454
    1LIG    O28  295   2.509   2.519   7.542
    1LIG    C56  296   2.574   2.569   7.630
    1LIG    C57  297   2.503   2.513   7.723
    1LIG    O29  298   2.566   2.562   7.811
    1LIG    C58  299   2.502   2.512   7.899
    1LIG    C59  300   2.573   2.566   7.991
    1LIG      H  301   2.574   2.674   0.125
    1LIG     H1  302   2.682   2.534   0.125
    1LIG     H2  303   2.509   2.402   0.219
    1LIG     H3  304   2.401   2.543   0.218
    1LIG     H4  305   2.508   2.403   0.397
    1LIG     H5  306   2.400   2.544   0.396
    1LIG     H6  307   2.574   2.678   0.486
    1LIG     H7  308   2.682   2.537   0.487
    1LIG     H8  309   2.573   2.679   0.664
    1LIG     H9  310   2.681   2.538   0.665
    1LIG    H10  311   2.506   2.406   0.755
    1LIG    H11  312   2.398   2.546   0.754
    1LIG    H12  313   2.505   2.406   0.933
    1LIG    H13  314   2.397   2.547   0.933
    1LIG    H14  315   2.571   2.682   1.022
    1LIG    H15  316   2.679   2.541   1.023
    1LIG    H16  317   2.570   2.683   1.201
    1LIG    H17  318   2.678   2.542   1.202
    1LIG    H18  319   2.503   2.408   1.290
    1LIG    H19  320   2.395   2.549   1.290
    1LIG    H20  321   2.502   2.409   1.469
    1LIG    H21  322   2.395   2.550   1.469
    1LIG    H22  323   2.569   2.684   1.558
    1LIG    H23  324   2.677   2.543   1.558
    1LIG    H24  325   2.569   2.684   1.736
    1LIG    H25  326   2.676   2.543   1.737
    1LIG    H26  327   2.502   2.410   1.826
    1LIG    H27  328   2.394   2.550   1.825
    1LIG    H28  329   2.502   2.410   2.004
    1LIG    H29  330   2.394   2.551   2.004
    1LIG    H30  331   2.567   2.685   2.094
    1LIG    H31  332   2.675   2.544   2.094
    1LIG    H32  333   2.568   2.686   2.272
    1LIG    H33  334   2.676   2.545   2.273
    1LIG    H34  335   2.502   2.411   2.362
    1LIG    H35  336   2.394   2.552   2.362
    1LIG    H36  337   2.500   2.411   2.541
    1LIG    H37  338   2.392   2.551   2.541
    1LIG    H38  339   2.567   2.685   2.630
    1LIG    H39  340   2.675   2.545   2.630
    1LIG    H40  341   2.567   2.686   2.809
    1LIG    H41  342   2.675   2.545   2.809
    1LIG    H42  343   2.501   2.411   2.897
    1LIG    H43  344   2.392   2.552   2.897
    1LIG    H44  345   2.500   2.411   3.076
    1LIG    H45  346   2.392   2.552   3.076
    1LIG    H46  347   2.567   2.686   3.165
    1LIG    H47  348   2.675   2.546   3.165
    1LIG    H48  349   2.566   2.686   3.344
    1LIG    H49  350   2.674   2.546   3.344
    1LIG    H50  351   2.500   2.412   3.434
    1LIG    H51  352   2.392   2.553   3.434
    1LIG    H52  353   2.499   2.412   3.612
    1LIG    H53  354   2.391   2.552   3.612
    1LIG    H54  355   2.566   2.686   3.702
    1LIG    H55  356   2.674   2.546   3.701
    1LIG    H56  357   2.566   2.686   3.880
    1LIG    H57  358   2.674   2.546   3.880
    1LIG    H58  359   2.500   2.412   3.970
    1LIG    H59  360   2.392   2.552   3.970
    1LIG    H60  361   2.500   2.411   4.148
    1LIG    H61  362   2.392   2.552   4.148
    1LIG    H62  363   2.567   2.686   4.237
    1LIG    H63  364   2.675   2.545   4.237
    1LIG    H64  365   2.566   2.685   4.416
    1LIG    H65  366   2.674   2.545   4.416
    1LIG    H66  367   2.501   2.411   4.505
    1LIG    H67  368   2.392   2.551   4.505
    1LIG    H68  369   2.501   2.410   4.683
    1LIG    H69  370   2.392   2.551   4.683
    1LIG    H70  371   2.566   2.685   4.773
    1LIG    H71  372   2.674   2.545   4.773
    1LIG    H72  373   2.567   2.685   4.952
    1LIG    H73  374   2.675   2.544   4.951
    1LIG    H74  375   2.501   2.410   5.041
    1LIG    H75  376   2.393   2.551   5.042
    1LIG    H76  377   2.501   2.409   5.219
    1LIG    H77  378   2.393   2.550   5.220
    1LIG    H78  379   2.567   2.683   5.310
    1LIG    H79  380   2.675   2.543   5.309
    1LIG    H80  381   2.567   2.684   5.488
    1LIG    H81  382   2.676   2.543   5.488
    1LIG    H82  383   2.502   2.409   5.577
    1LIG    H83  384   2.394   2.549   5.578
    1LIG    H84  385   2.502   2.408   5.756
    1LIG    H85  386   2.393   2.548   5.756
    1LIG    H86  387   2.567   2.683   5.845
    1LIG    H87  388   2.676   2.543   5.845
    1LIG    H88  389   2.568   2.683   6.024
    1LIG    H89  390   2.677   2.542   6.024
    1LIG    H90  391   2.503   2.407   6.113
    1LIG    H91  392   2.394   2.547   6.113
    1LIG    H92  393   2.503   2.407   6.292
    1LIG    H93  394   2.394   2.547   6.292
    1LIG    H94  395   2.569   2.682   6.381
    1LIG    H95  396   2.677   2.542   6.381
    1LIG    H96  397   2.568   2.681   6.560
    1LIG    H97  398   2.677   2.541   6.560
    1LIG    H98  399   2.503   2.406   6.648
    1LIG    H99  400   2.394   2.546   6.649
    1LIG   H100  401   2.503   2.406   6.827
    1LIG   H101  402   2.395   2.546   6.828
    1LIG   H102  403   2.569   2.681   6.916
    1LIG   H103  404   2.678   2.541   6.916
    1LIG   H104  405   2.569   2.680   7.095
    1LIG   H105  406   2.678   2.540   7.095
    1LIG   H106  407   2.504   2.405   7.184
    1LIG   H107  408   2.395   2.545   7.184
    1LIG   H108  409   2.505   2.405   7.363
    1LIG   H109  410   2.396   2.545   7.363
    1LIG   H110  411   2.569   2.679   7.453
    1LIG   H111  412   2.678   2.539   7.452
    1LIG   H112  413   2.570   2.678   7.631
    1LIG   H113  414   2.679   2.538   7.631
    1LIG   H114  415   2.506   2.403   7.721
    1LIG   H115  416   2.397   2.543   7.722
    1LIG   H116  417   2.507   2.402   7.899
    1LIG   H117  418   2.397   2.543   7.900
    1LIG   H118  419   2.679   2.537   7.991
    1LIG   H119  420   2.526   2.529   8.060
    1MOL     C1  421   2.124   2.202   3.366
    1MOL     H1  422   2.103   2.095   3.356
    1MOL     O1  423   2.079   2.235   3.496
    1MOL     C2  424   2.098   2.373   3.532
    1MOL     H2  425   2.204   2.399   3.518
    1MOL     C3  426   2.067   2.386   3.680
    1MOL     H3  427   2.100   2.485   3.715
    1MOL     H4  428   2.123   2.309   3.735
    1MOL     O2  429   1.928   2.371   3.702
    1MOL     C4  430   1.892   2.387   3.838
    1MOL     C5  431   2.043   2.283   3.263
    1MOL     H5  432   1.939   2.247   3.271
    1MOL     O3  433   2.088   2.268   3.130
    1MOL     C6  434   2.058   2.143   3.070
    1MOL     C7  435   2.041   2.433   3.293
    1MOL     H6  436   2.139   2.475   3.269
    1MOL     O4  437   1.939   2.494   3.215
    1MOL     C8  438   1.986   2.585   3.117
    1MOL     C9  439   2.012   2.461   3.441
    1MOL     H7  440   1.906   2.438   3.460
    1MOL     O5  441   2.036   2.601   3.463
    1MOL    C10  442   1.951   2.670   3.552
    1MOL     H8  443   1.872   2.602   3.587
    1MOL     O6  444   2.019   2.710   3.669
    1MOL    C11  445   2.130   2.798   3.645
    1MOL     H9  446   2.200   2.750   3.575
    1MOL    C12  447   2.203   2.817   3.777
    1MOL    H10  448   2.300   2.865   3.758
    1MOL    H11  449   2.221   2.718   3.822
    1MOL     O7  450   2.125   2.897   3.864
    1MOL    C13  451   2.192   2.925   3.985
    1MOL    C14  452   1.890   2.794   3.483
    1MOL    H12  453   1.815   2.835   3.552
    1MOL     O8  454   1.830   2.766   3.358
    1MOL    C15  455   1.706   2.698   3.365
    1MOL    C16  456   1.995   2.903   3.458
    1MOL    H13  457   2.061   2.871   3.377
    1MOL     O9  458   1.928   3.024   3.424
    1MOL    C17  459   1.943   3.064   3.289
    1MOL    C18  460   2.080   2.929   3.582
    1MOL    H14  461   2.019   2.982   3.656
    1MOL    O10  462   2.190   3.012   3.541
    1MOL    C19  463   2.231   3.116   3.626
    1MOL    H15  464   2.163   3.124   3.712
    1MOL    O11  465   2.358   3.091   3.683
    1MOL    C20  466   2.464   3.076   3.588
    1MOL    H16  467   2.437   2.998   3.515
    1MOL    C21  468   2.587   3.028   3.663
    1MOL    H17  469   2.663   2.996   3.590
    1MOL    H18  470   2.558   2.940   3.723
    1MOL    O12  471   2.637   3.130   3.747
    1MOL    C22  472   2.737   3.085   3.834
    1MOL    C23  473   2.237   3.250   3.548
    1MOL    H19  474   2.258   3.329   3.622
    1MOL    O13  475   2.117   3.279   3.479
    1MOL    C24  476   2.009   3.321   3.562
    1MOL    C25  477   2.351   3.250   3.446
    1MOL    H20  478   2.328   3.178   3.366
    1MOL    O14  479   2.365   3.380   3.391
    1MOL    C26  480   2.308   3.397   3.261
    1MOL    C27  481   2.483   3.208   3.511
    1MOL    H21  482   2.517   3.286   3.581
    1MOL    O15  483   2.584   3.185   3.411
    1MOL    C28  484   2.656   3.299   3.368
    1MOL    H22  485   2.590   3.385   3.364
    1MOL    O16  486   2.758   3.335   3.458
    1MOL    C29  487   2.859   3.236   3.481
    1MOL    H23  488   2.812   3.146   3.524
    1MOL    C30  489   2.953   3.293   3.586
    1MOL    H24  490   3.016   3.213   3.627
    1MOL    H25  491   2.891   3.334   3.667
    1MOL    O17  492   3.033   3.395   3.528
    1MOL    C31  493   3.117   3.457   3.623
    1MOL    C32  494   2.716   3.268   3.230
    1MOL    H26  495   2.764   3.361   3.196
    1MOL    O18  496   2.612   3.232   3.141
    1MOL    C33  497   2.626   3.284   3.010
    1MOL    C34  498   2.823   3.159   3.241
    1MOL    H27  499   2.774   3.065   3.269
    1MOL    O19  500   2.886   3.146   3.114
    1MOL    C35  501   2.901   3.013   3.068
    1MOL    C36  502   2.927   3.197   3.348
    1MOL    H28  503   2.984   3.283   3.311
    1MOL    O20  504   3.014   3.084   3.364
    1MOL    C37  505   3.148   3.110   3.399
    1MOL    H29  506   3.166   3.218   3.401
    1MOL    O21  507   3.178   3.067   3.531
    1MOL    C38  508   3.160   2.926   3.552
    1MOL    H30  509   3.058   2.897   3.523
    1MOL    C39  510   3.174   2.901   3.702
    1MOL    H31  511   3.140   2.799   3.724
    1MOL    H32  512   3.108   2.971   3.756
    1MOL    O22  513   3.309   2.918   3.741
    1MOL    C40  514   3.329   2.885   3.877
    1MOL    C41  515   3.245   3.040   3.301
    1MOL    H33  516   3.346   3.078   3.324
    1MOL    O23  517   3.214   3.064   3.165
    1MOL    C42  518   3.246   3.194   3.118
    1MOL    C43  519   3.249   2.888   3.319
    1MOL    H34  520   3.156   2.845   3.279
    1MOL    O24  521   3.361   2.836   3.249
    1MOL    C44  522   3.330   2.757   3.136
    1MOL    C45  523   3.261   2.849   3.466
    1MOL    H35  524   3.362   2.874   3.501
    1MOL    O25  525   3.241   2.707   3.474
    1MOL    C46  526   3.322   2.634   3.564
    1MOL    H36  527   3.397   2.700   3.608
    1MOL    O26  528   3.249   2.585   3.674
    1MOL    C47  529   3.142   2.494   3.641
    1MOL    H37  530   3.074   2.543   3.570
    1MOL    C48  531   3.064   2.466   3.769
    1MOL    H38  532   2.969   2.418   3.744
    1MOL    H39  533   3.042   2.562   3.818
    1MOL    O27  534   3.141   2.384   3.854
    1MOL    C49  535   3.069   2.343   3.969
    1MOL    C50  536   3.389   2.515   3.491
    1MOL    H40  537   3.461   2.472   3.561
    1MOL    O28  538   3.454   2.552   3.371
    1MOL    C51  539   3.577   2.621   3.389
    1MOL    C52  540   3.288   2.405   3.455
    1MOL    H41  541   3.223   2.441   3.374
    1MOL    O29  542   3.359   2.289   3.414
    1MOL    C53  543   3.355   2.262   3.275
    1MOL    C54  544   3.201   2.368   3.575
    1MOL    H42  545   3.264   2.317   3.650
    1MOL    O30  546   3.098   2.280   3.530
    1MOL    C55  547   3.074   2.162   3.604
    1MOL    H43  548   3.154   2.148   3.677
    1MOL    O31  549   2.956   2.170   3.681
    1MOL    C56  550   2.834   2.188   3.607
    1MOL    H44  551   2.838   2.283   3.552
    1MOL    C57  552   2.723   2.194   3.710
    1MOL    H45  553   2.738   2.112   3.783
    1MOL    H46  554   2.626   2.178   3.662
    1MOL    O32  555   2.726   2.320   3.776
    1MOL    C58  556   2.625   2.331   3.874
    1MOL    C59  557   3.064   2.041   3.509
    1MOL    H47  558   3.053   1.952   3.574
    1MOL    O33  559   3.176   2.024   3.425
    1MOL    C60  560   3.293   1.977   3.490
    1MOL    C61  561   2.939   2.049   3.421
    1MOL    H48  562   2.950   2.133   3.351
    1MOL    O34  563   2.919   1.927   3.351
    1MOL    C62  564   2.971   1.924   3.219
    1MOL    C63  565   2.814   2.074   3.506
    1MOL    H49  566   2.790   1.982   3.561
    1MOL    O35  567   2.703   2.109   3.421
    1MOL    C64  568   2.621   2.001   3.382
    1MOL    H50  569   2.678   1.908   3.383
    1MOL    O36  570   2.514   1.980   3.474
    1MOL    C65  571   2.419   2.087   3.486
    1MOL    H51  572   2.469   2.180   3.515
    1MOL    C66  573   2.325   2.045   3.598
    1MOL    H52  574   2.300   1.939   3.585
    1MOL    H53  575   2.232   2.104   3.595
    1MOL    O37  576   2.391   2.066   3.722
    1MOL    C67  577   2.318   2.014   3.831
    1MOL    C68  578   2.563   2.026   3.242
    1MOL    H54  579   2.512   1.932   3.214
    1MOL    O38  580   2.667   2.055   3.150
    1MOL    C69  581   2.656   1.987   3.026
    1MOL    C70  582   2.457   2.138   3.243
    1MOL    H55  583   2.507   2.232   3.266
    1MOL    O39  584   2.397   2.143   3.114
    1MOL    C71  585   2.404   2.271   3.052
    1MOL    C72  586   2.350   2.111   3.350
    1MOL    H56  587   2.294   2.021   3.321
    1MOL    O40  588   2.263   2.225   3.351
    1MOL    H57  589   1.784   2.374   3.844
    1MOL    H58  590   1.941   2.312   3.902
    1MOL    H59  591   1.919   2.488   3.874
    1MOL    H60  592   2.376   2.035   3.921
    1MOL    H61  593   2.219   2.062   3.841
    1MOL    H62  594   2.303   1.905   3.823
    1MOL    H63  595   2.630   2.433   3.914
    1MOL    H64  596   2.525   2.313   3.831
    1MOL    H65  597   2.641   2.259   3.956
    1MOL    H66  598   3.134   2.277   4.026
    1MOL    H67  599   3.042   2.430   4.032
    1MOL    H68  600   2.977   2.290   3.941
    1MOL    H69  601   3.435   2.901   3.899
    1MOL    H70  602   3.269   2.949   3.944
    1MOL    H71  603   3.304   2.779   3.897
    1MOL    H72  604   3.175   3.533   3.570
    1MOL    H73  605   3.059   3.506   3.703
    1MOL    H74  606   3.186   3.385   3.670
    1MOL    H75  607   2.769   3.170   3.894
    1MOL    H76  608   2.700   3.006   3.901
    1MOL    H77  609   2.824   3.045   3.780
    1MOL    H78  610   2.125   2.987   4.045
    1MOL    H79  611   2.215   2.833   4.041
    1MOL    H80  612   2.285   2.980   3.968
    1MOL    H81  613   1.885   3.156   3.277
    1MOL    H82  614   2.048   3.086   3.265
    1MOL    H83  615   1.904   2.988   3.220
    1MOL    H84  616   1.665   2.697   3.264
    1MOL    H85  617   1.716   2.594   3.399
    1MOL    H86  618   1.636   2.751   3.431
    1MOL    H87  619   1.897   2.622   3.064
    1MOL    H88  620   2.038   2.670   3.163
    1MOL    H89  621   2.052   2.536   3.044
    1MOL    H90  622   2.080   2.154   2.964
    1MOL    H91  623   2.121   2.062   3.110
    1MOL    H92  624   1.952   2.117   3.083
    1MOL    H93  625   2.357   2.260   2.953
    1MOL    H94  626   2.349   2.346   3.109
    1MOL    H95  627   2.508   2.303   3.038
    1MOL    H96  628   2.740   2.019   2.965
    1MOL    H97  629   2.661   1.878   3.039
    1MOL    H98  630   2.562   2.012   2.975
    1MOL    H99  631   2.942   1.827   3.177
    1MOL   H100  632   2.928   2.004   3.158
    1MOL   H101  633   3.080   1.932   3.219
    1MOL   H102  634   3.363   1.948   3.412
    1MOL   H103  635   3.340   2.055   3.552
    1MOL   H104  636   3.271   1.889   3.552
    1MOL   H105  637   3.417   2.174   3.258
    1MOL   H106  638   3.252   2.240   3.242
    1MOL   H107  639   3.395   2.347   3.217
    1MOL   H108  640   3.624   2.628   3.291
    1MOL   H109  641   3.561   2.723   3.427
    1MOL   H110  642   3.644   2.567   3.458
    1MOL   H111  643   3.425   2.727   3.092
    1MOL   H112  644   3.275   2.667   3.165
    1MOL   H113  645   3.272   2.814   3.062
    1MOL   H114  646   3.231   3.193   3.010
    1MOL   H115  647   3.181   3.271   3.161
    1MOL   H116  648   3.351   3.220   3.140
    1MOL   H117  649   2.949   3.018   2.970
    1MOL   H118  650   2.965   2.954   3.135
    1MOL   H119  651   2.803   2.963   3.057
    1MOL   H120  652   2.540   3.248   2.953
    1MOL   H121  653   2.624   3.394   3.010
    1MOL   H122  654   2.718   3.250   2.962
    1MOL   H123  655   2.324   3.501   3.233
    1MOL   H124  656   2.358   3.332   3.188
    1MOL   H125  657   2.201   3.376   3.262
    1MOL   H126  658   1.931   3.357   3.495
    1MOL   H127  659   1.968   3.238   3.621
    1MOL   H128  660   2.039   3.402   3.629
    1MOL     C1  661   2.124   2.202   4.506
    1MOL     H1  662   2.103   2.095   4.496
    1MOL     O1  663   2.079   2.235   4.636
    1MOL     C2  664   2.098   2.373   4.672
    1MOL     H2  665   2.204   2.399   4.658
    1MOL     C3  666   2.067   2.386   4.820
    1MOL     H3  667   2.100   2.485   4.855
    1MOL     H4  668   2.123   2.309   4.875
    1MOL     O2  669   1.928   2.371   4.842
    1MOL     C4  670   1.892   2.387   4.978
    1MOL     C5  671   2.043   2.283   4.403
    1MOL     H5  672   1.939   2.247   4.411
    1MOL     O3  673   2.088   2.268   4.270
    1MOL     C6  674   2.058   2.143   4.210
    1MOL     C7  675   2.041   2.433   4.433
    1MOL     H6  676   2.139   2.475   4.409
    1MOL     O4  677   1.939   2.494   4.355
    1MOL     C8  678   1.986   2.585   4.257
    1MOL     C9  679   2.012   2.461   4.581
    1MOL     H7  680   1.906   2.438   4.600
    1MOL     O5  681   2.036   2.601   4.603
    1MOL    C10  682   1.951   2.670   4.692
    1MOL     H8  683   1.872   2.602   4.727
    1MOL     O6  684   2.019   2.710   4.809
    1MOL    C11  685   2.130   2.798   4.785
    1MOL     H9  686   2.200   2.750   4.715
    1MOL    C12  687   2.203   2.817   4.917
    1MOL    H10  688   2.300   2.865   4.898
    1MOL    H11  689   2.221   2.718   4.962
    1MOL     O7  690   2.125   2.897   5.004
    1MOL    C13  691   2.192   2.925   5.125
    1MOL    C14  692   1.890   2.794   4.623
    1MOL    H12  693   1.815   2.835   4.692
    1MOL     O8  694   1.830   2.766   4.498
    1MOL    C15  695   1.706   2.698   4.505
    1MOL    C16  696   1.995   2.903   4.598
    1MOL    H13  697   2.061   2.871   4.517
    1MOL     O9  698   1.928   3.024   4.564
    1MOL    C17  699   1.943   3.064   4.429
    1MOL    C18  700   2.080   2.929   4.722
    1MOL    H14  701   2.019   2.982   4.796
    1MOL    O10  702   2.190   3.012   4.681
    1MOL    C19  703   2.231   3.116   4.766
    1MOL    H15  704   2.163   3.124   4.852
    1MOL    O11  705   2.358   3.091   4.823
    1MOL    C20  706   2.464   3.076   4.728
    1MOL    H16  707   2.437   2.998   4.655
    1MOL    C21  708   2.587   3.028   4.803
    1MOL    H17  709   2.663   2.996   4.730
    1MOL    H18  710   2.558   2.940   4.863
    1MOL    O12  711   2.637   3.130   4.887
    1MOL    C22  712   2.737   3.085   4.974
    1MOL    C23  713   2.237   3.250   4.688
    1MOL    H19  714   2.258   3.329   4.762
    1MOL    O13  715   2.117   3.279   4.619
    1MOL    C24  716   2.009   3.321   4.702
    1MOL    C25  717   2.351   3.250   4.586
    1MOL    H20  718   2.328   3.178   4.506
    1MOL    O14  719   2.365   3.380   4.531
    1MOL    C26  720   2.308   3.397   4.401
    1MOL    C27  721   2.483   3.208   4.651
    1MOL    H21  722   2.517   3.286   4.721
    1MOL    O15  723   2.584   3.185   4.551
    1MOL    C28  724   2.656   3.299   4.508
    1MOL    H22  725   2.590   3.385   4.504
    1MOL    O16  726   2.758   3.335   4.598
    1MOL    C29  727   2.859   3.236   4.621
    1MOL    H23  728   2.812   3.146   4.664
    1MOL    C30  729   2.953   3.293   4.726
    1MOL    H24  730   3.016   3.213   4.767
    1MOL    H25  731   2.891   3.334   4.807
    1MOL    O17  732   3.033   3.395   4.668
    1MOL    C31  733   3.117   3.457   4.763
    1MOL    C32  734   2.716   3.268   4.370
    1MOL    H26  735   2.764   3.361   4.336
    1MOL    O18  736   2.612   3.232   4.281
    1MOL    C33  737   2.626   3.284   4.150
    1MOL    C34  738   2.823   3.159   4.381
    1MOL    H27  739   2.774   3.065   4.409
    1MOL    O19  740   2.886   3.146   4.254
    1MOL    C35  741   2.901   3.013   4.208
    1MOL    C36  742   2.927   3.197   4.488
    1MOL    H28  743   2.984   3.283   4.451
    1MOL    O20  744   3.014   3.084   4.504
    1MOL    C37  745   3.148   3.110   4.539
    1MOL    H29  746   3.166   3.218   4.541
    1MOL    O21  747   3.178   3.067   4.671
    1MOL    C38  748   3.160   2.926   4.692
    1MOL    H30  749   3.058   2.897   4.663
    1MOL    C39  750   3.174   2.901   4.842
    1MOL    H31  751   3.140   2.799   4.864
    1MOL    H32  752   3.108   2.971   4.896
    1MOL    O22  753   3.309   2.918   4.881
    1MOL    C40  754   3.329   2.885   5.017
    1MOL    C41  755   3.245   3.040   4.441
    1MOL    H33  756   3.346   3.078   4.464
    1MOL    O23  757   3.214   3.064   4.305
    1MOL    C42  758   3.246   3.194   4.258
    1MOL    C43  759   3.249   2.888   4.459
    1MOL    H34  760   3.156   2.845   4.419
    1MOL    O24  761   3.361   2.836   4.389
    1MOL    C44  762   3.330   2.757   4.276
    1MOL    C45  763   3.261   2.849   4.606
    1MOL    H35  764   3.362   2.874   4.641
    1MOL    O25  765   3.241   2.707   4.614
    1MOL    C46  766   3.322   2.634   4.704
    1MOL    H36  767   3.397   2.700   4.748
    1MOL    O26  768   3.249   2.585   4.814
    1MOL    C47  769   3.142   2.494   4.781
    1MOL    H37  770   3.074   2.543   4.710
    1MOL    C48  771   3.064   2.466   4.909
    1MOL    H38  772   2.969   2.418   4.884
    1MOL    H39  773   3.042   2.562   4.958
    1MOL    O27  774   3.141   2.384   4.994
    1MOL    C49  775   3.069   2.343   5.109
    1MOL    C50  776   3.389   2.515   4.631
    1MOL    H40  777   3.461   2.472   4.701
    1MOL    O28  778   3.454   2.552   4.511
    1MOL    C51  779   3.577   2.621   4.529
    1MOL    C52  780   3.288   2.405   4.595
    1MOL    H41  781   3.223   2.441   4.514
    1MOL    O29  782   3.359   2.289   4.554
    1MOL    C53  783   3.355   2.262   4.415
    1MOL    C54  784   3.201   2.368   4.715
    1MOL    H42  785   3.264   2.317   4.790
    1MOL    O30  786   3.098   2.280   4.670
    1MOL    C55  787   3.074   2.162   4.744
    1MOL    H43  788   3.154   2.148   4.817
    1MOL    O31  789   2.956   2.170   4.821
    1MOL    C56  790   2.834   2.188   4.747
    1MOL    H44  791   2.838   2.283   4.692
    1MOL    C57  792   2.723   2.194   4.850
    1MOL    H45  793   2.738   2.112   4.923
    1MOL    H46  794   2.626   2.178   4.802
    1MOL    O32  795   2.726   2.320   4.916
    1MOL    C58  796   2.625   2.331   5.014
    1MOL    C59  797   3.064   2.041   4.649
    1MOL    H47  798   3.053   1.952   4.714
    1MOL    O33  799   3.176   2.024   4.565
    1MOL    C60  800   3.293   1.977   4.630
    1MOL    C61  801   2.939   2.049   4.561
    1MOL    H48  802   2.950   2.133   4.491
    1MOL    O34  803   2.919   1.927   4.491
    1MOL    C62  804   2.971   1.924   4.359
    1MOL    C63  805   2.814   2.074   4.646
    1MOL    H49  806   2.790   1.982   4.701
    1MOL    O35  807   2.703   2.109   4.561
    1MOL    C64  808   2.621   2.001   4.522
    1MOL    H50  809   2.678   1.908   4.523
    1MOL    O36  810   2.514   1.980   4.614
    1MOL    C65  811   2.419   2.087   4.626
    1MOL    H51  812   2.469   2.180   4.655
    1MOL    C66  813   2.325   2.045   4.738
    1MOL    H52  814   2.300   1.939   4.725
    1MOL    H53  815   2.232   2.104   4.735
    1MOL    O37  816   2.391   2.066   4.862
    1MOL    C67  817   2.318   2.014   4.971
    1MOL    C68  818   2.563   2.026   4.382
    1MOL    H54  819   2.512   1.932   4.354
    1MOL    O38  820   2.667   2.055   4.290
    1MOL    C69  821   2.656   1.987   4.166
    1MOL    C70  822   2.457   2.138   4.383
    1MOL    H55  823   2.507   2.232   4.406
    1MOL    O39  824   2.397   2.143   4.254
    1MOL    C71  825   2.404   2.271   4.192
    1MOL    C72  826   2.350   2.111   4.490
    1MOL    H56  827   2.294   2.021   4.461
    1MOL    O40  828   2.263   2.225   4.491
    1MOL    H57  829   1.784   2.374   4.984
    1MOL    H58  830   1.941   2.312   5.042
    1MOL    H59  831   1.919   2.488   5.014
    1MOL    H60  832   2.376   2.035   5.061
    1MOL    H61  833   2.219   2.062   4.981
    1MOL    H62  834   2.303   1.905   4.963
    1MOL    H63  835   2.630   2.433   5.054
    1MOL    H64  836   2.525   2.313   4.971
    1MOL    H65  837   2.641   2.259   5.096
    1MOL    H66  838   3.134   2.277   5.166
    1MOL    H67  839   3.042   2.430   5.172
    1MOL    H68  840   2.977   2.290   5.081
    1MOL    H69  841   3.435   2.901   5.039
    1MOL    H70  842   3.269   2.949   5.084
    1MOL    H71  843   3.304   2.779   5.037
    1MOL    H72  844   3.175   3.533   4.710
    1MOL    H73  845   3.059   3.506   4.843
    1MOL    H74  846   3.186   3.385   4.810
    1MOL    H75  847   2.769   3.170   5.034
    1MOL    H76  848   2.700   3.006   5.041
    1MOL    H77  849   2.824   3.045   4.920
    1MOL    H78  850   2.125   2.987   5.185
    1MOL    H79  851   2.215   2.833   5.181
    1MOL    H80  852   2.285   2.980   5.108
    1MOL    H81  853   1.885   3.156   4.417
    1MOL    H82  854   2.048   3.086   4.405
    1MOL    H83  855   1.904   2.988   4.360
    1MOL    H84  856   1.665   2.697   4.404
    1MOL    H85  857   1.716   2.594   4.539
    1MOL    H86  858   1.636   2.751   4.571
    1MOL    H87  859   1.897   2.622   4.204
    1MOL    H88  860   2.038   2.670   4.303
    1MOL    H89  861   2.052   2.536   4.184
    1MOL    H90  862   2.080   2.154   4.104
    1MOL    H91  863   2.121   2.062   4.250
    1MOL    H92  864   1.952   2.117   4.223
    1MOL    H93  865   2.357   2.260   4.093
    1MOL    H94  866   2.349   2.346   4.249
    1MOL    H95  867   2.508   2.303   4.178
    1MOL    H96  868   2.740   2.019   4.105
    1MOL    H97  869   2.661   1.878   4.179
    1MOL    H98  870   2.562   2.012   4.115
    1MOL    H99  871   2.942   1.827   4.317
    1MOL   H100  872   2.928   2.004   4.298
    1MOL   H101  873   3.080   1.932   4.359
    1MOL   H102  874   3.363   1.948   4.552
    1MOL   H103  875   3.340   2.055   4.692
    1MOL   H104  876   3.271   1.889   4.692
    1MOL   H105  877   3.417   2.174   4.398
    1MOL   H106  878   3.252   2.240   4.382
    1MOL   H107  879   3.395   2.347   4.357
    1MOL   H108  880   3.624   2.628   4.431
    1MOL   H109  881   3.561   2.723   4.567
    1MOL   H110  882   3.644   2.567   4.598
    1MOL   H111  883   3.425   2.727   4.232
    1MOL   H112  884   3.275   2.667   4.305
    1MOL   H113  885   3.272   2.814   4.202
    1MOL   H114  886   3.231   3.193   4.150
    1MOL   H115  887   3.181   3.271   4.301
    1MOL   H116  888   3.351   3.220   4.280
    1MOL   H117  889   2.949   3.018   4.110
    1MOL   H118  890   2.965   2.954   4.275
    1MOL   H119  891   2.803   2.963   4.197
    1MOL   H120  892   2.540   3.248   4.093
    1MOL   H121  893   2.624   3.394   4.150
    1MOL   H122  894   2.718   3.250   4.102
    1MOL   H123  895   2.324   3.501   4.373
    1MOL   H124  896   2.358   3.332   4.328
    1MOL   H125  897   2.201   3.376   4.402
    1MOL   H126  898   1.931   3.357   4.635
    1MOL   H127  899   1.968   3.238   4.761
    1MOL   H128  900   2.039   3.402   4.769
    2SOL     OW  901   0.230   0.628   0.113
    2SOL    HW1  902   0.137   0.626   0.150
    2SOL    HW2  903   0.231   0.589   0.021
    3SOL     OW  904   0.225   0.275   0.996
    3SOL    HW1  905   0.260   0.258   1.088
    3SOL    HW2  906   0.137   0.230   0.984
    4SOL     OW  907   0.019   0.368   0.647
    4SOL    HW1  908  -0.063   0.411   0.686
    4SOL    HW2  909  -0.009   0.295   0.584
    5SOL     OW  910   0.569   1.275   1.165
    5SOL    HW1  911   0.476   1.268   1.128
    5SOL    HW2  912   0.580   1.364   1.209
    6SOL     OW  913   1.555   1.511   0.703
    6SOL    HW1  914   1.498   1.495   0.784
    6SOL    HW2  915   1.496   1.521   0.623
    7SOL     OW  916   1.135   0.703   0.717
    7SOL    HW1  917   1.192   0.781   0.692
    7SOL    HW2  918   1.075   0.729   0.793
    8SOL     OW  919   1.755   0.607   0.231
    8SOL    HW1  920   1.743   0.594   0.132
    8SOL    HW2  921   1.725   0.526   0.280
    9SOL     OW  922   0.768   1.144   1.023
    9SOL    HW1  923   0.690   1.161   1.083
    9SOL    HW2  924   0.802   1.231   0.987
   10SOL     OW  925   0.850   0.798   1.823
   10SOL    HW1  926   0.846   0.874   1.888
   10SOL    HW2  927   0.872   0.834   1.732
   11SOL     OW  928   0.685   1.012   0.665
   11SOL    HW1  929   0.754   0.996   0.735
   11SOL    HW2  930   0.612   1.069   0.703
   12SOL     OW  931   0.686   1.161   1.803
   12SOL    HW1  932   0.746   1.240   1.817
   12SOL    HW2  933   0.600   1.192   1.762
   13SOL     OW  934   0.335   1.435   1.061
   13SOL    HW1  935   0.257   1.404   1.008
   13SOL    HW2  936   0.393   1.493   1.004
   14SOL     OW  937   1.460   1.505   1.339
   14SOL    HW1  938   1.484   1.599   1.365
   14SOL    HW2  939   1.444   1.451   1.421
   15SOL     OW  940   0.438   0.392   1.499
   15SOL    HW1  941   0.520   0.336   1.508
   15SOL    HW2  942   0.357   0.334   1.503
   16SOL     OW  943   1.603   0.447   0.737
   16SOL    HW1  944   1.529   0.493   0.687
   16SOL    HW2  945   1.654   0.515   0.790
   17SOL     OW  946   0.231   1.713   0.483
   17SOL    HW1  947   0.265   1.790   0.537
   17SOL    HW2  948   0.275   1.713   0.393
   18SOL     OW  949   1.127   1.341   1.690
   18SOL    HW1  950   1.174   1.341   1.778
   18SOL    HW2  951   1.079   1.254   1.679
   19SOL     OW  952   0.230   1.434   0.538
   19SOL    HW1  953   0.204   1.530   0.538
   19SOL    HW2  954   0.159   1.380   0.583
   20SOL     OW  955   0.240   1.091   0.886
   20SOL    HW1  956   0.254   1.007   0.938
   20SOL    HW2  957   0.185   1.155   0.941
   21SOL     OW  958   0.620   1.786   1.439
   21SOL    HW1  959   0.528   1.769   1.474
   21SOL    HW2  960   0.648   1.878   1.465
   22SOL     OW  961   0.606   0.964   0.123
   22SOL    HW1  962   0.613   1.048   0.069
   22SOL    HW2  963   0.652   0.977   0.211
   23SOL     OW  964   1.594   0.114   1.480
   23SOL    HW1  965   1.576   0.181   1.408
   23SOL    HW2  966   1.591   0.160   1.569
   24SOL     OW  967   0.122   0.643   0.563
   24SOL    HW1  968   0.077   0.555   0.580
   24SOL    HW2  969   0.121   0.697   0.647
   25SOL     OW  970   1.842   1.767   0.359
   25SOL    HW1  971   1.896   1.738   0.439
   25SOL    HW2  972   1.872   1.857   0.330
   26SOL     OW  973   0.027   1.596   0.117
   26SOL    HW1  974   0.008   1.500   0.138
   26SOL    HW2  975  -0.006   1.654   0.192
   27SOL     OW  976   1.689   0.922   0.612
   27SOL    HW1  977   1.784   0.893   0.620
   27SOL    HW2  978   1.681   0.987   0.537
   28SOL     OW  979   1.641   1.108   0.432
   28SOL    HW1  980   1.727   1.110   0.380
   28SOL    HW2  981   1.655   1.155   0.520
   29SOL     OW  982   0.113   0.737   1.597
   29SOL    HW1  983   0.201   0.724   1.642
   29SOL    HW2  984   0.100   0.834   1.575
   30SOL     OW  985   0.613   1.365   0.726
   30SOL    HW1  986   0.564   1.278   0.735
   30SOL    HW2  987   0.590   1.408   0.639
   31SOL     OW  988   1.293   1.228   1.423
   31SOL    HW1  989   1.330   1.155   1.365
   31SOL    HW2  990   1.345   1.233   1.508
   32SOL     OW  991   0.809   0.004   0.502
   32SOL    HW1  992   0.849   0.095   0.493
   32SOL    HW2  993   0.709   0.012   0.508
   33SOL     OW  994   0.197   0.976   1.264
   33SOL    HW1  995   0.286   0.931   1.250
   33SOL    HW2  996   0.124   0.911   1.245
   34SOL     OW  997   1.525   0.999   0.190
   34SOL    HW1  998   1.462   0.923   0.203
   34SOL    HW2  999   1.573   1.017   0.276
   35SOL     OW 1000   1.187   1.792   1.616
   35SOL    HW1 1001   1.211   1.852   1.540
   35SOL    HW2 1002   1.194   1.697   1.586
   36SOL     OW 1003   0.317   0.251   1.801
   36SOL    HW1 1004   0.388   0.322   1.807
   36SOL    HW2 1005   0.229   0.290   1.829
   37SOL     OW 1006   1.466   1.417   0.953
   37SOL    HW1 1007   1.407   1.423   1.033
   37SOL    HW2 1008   1.451   1.329   0.907
   38SOL     OW 1009   1.667   1.714   0.572
   38SOL    HW1 1010   1.626   1.691   0.484
   38SOL    HW2 1011   1.649   1.640   0.637
   39SOL     OW 1012   0.598   0.729   0.270
   39SOL    HW1 1013   0.622   0.798   0.202
   39SOL    HW2 1014   0.520   0.762   0.324
   40SOL     OW 1015   1.281   0.345   0.944
   40SOL    HW1 1016   1.195   0.295   0.931
   40SOL    HW2 1017   1.343   0.291   1.000
   41SOL     OW 1018   1.576   1.662   0.307
   41SOL    HW1 1019   1.665   1.708   0.310
   41SOL    HW2 1020   1.555   1.638   0.212
   42SOL     OW 1021   0.807   0.605   1.465
   42SOL    HW1 1022   0.760   0.602   1.554
   42SOL    HW2 1023   0.756   0.550   1.399
   43SOL     OW 1024   1.394   0.469   1.674
   43SOL    HW1 1025   1.374   0.512   1.762
   43SOL    HW2 1026   1.472   0.407   1.683
   44SOL     OW 1027   0.973   0.890   1.572
   44SOL    HW1 1028   1.019   0.806   1.543
   44SOL    HW2 1029   0.917   0.924   1.497
   45SOL     OW 1030   0.991   0.410   1.242
   45SOL    HW1 1031   0.914   0.444   1.296
   45SOL    HW2 1032   0.957   0.359   1.163
   46SOL     OW 1033   1.041   0.701   0.429
   46SOL    HW1 1034   1.067   0.697   0.525
   46SOL    HW2 1035   0.956   0.650   0.415
   47SOL     OW 1036   0.076   0.811   0.789
   47SOL    HW1 1037   0.175   0.799   0.798
   47SOL    HW2 1038   0.052   0.906   0.810
   48SOL     OW 1039   0.130   1.821   1.571
   48SOL    HW1 1040   0.120   1.806   1.670
   48SOL    HW2 1041   0.044   1.857   1.535
   49SOL     OW 1042   0.865   0.348   0.195
   49SOL    HW1 1043   0.924   0.411   0.146
   49SOL    HW2 1044   0.884   0.254   0.166
   50SOL     OW 1045   1.719   0.585   1.831
   50SOL    HW1 1046   1.693   0.674   1.795
   50SOL    HW2 1047   1.717   0.517   1.758
   51SOL     OW 1048   1.362   1.144   0.545
   51SOL    HW1 1049   1.445   1.115   0.497
   51SOL    HW2 1050   1.313   1.211   0.489
   52SOL     OW 1051   0.550   0.196   0.885
   52SOL    HW1 1052   0.545   0.191   0.985
   52SOL    HW2 1053   0.552   0.292   0.856
   53SOL     OW 1054   1.008   1.456   0.477
   53SOL    HW1 1055   0.962   1.528   0.425
   53SOL    HW2 1056   1.004   1.476   0.575
   54SOL     OW 1057   0.351   1.801   0.853
   54SOL    HW1 1058   0.401   1.715   0.859
   54SOL    HW2 1059   0.416   1.878   0.850
   55SOL     OW 1060   1.795   1.066   0.873
   55SOL    HW1 1061   1.733   1.051   0.797
   55SOL    HW2 1062   1.743   1.077   0.958
   56SOL     OW 1063   1.227   1.550   1.506
   56SOL    HW1 1064   1.233   1.473   1.570
   56SOL    HW2 1065   1.175   1.524   1.426
   57SOL     OW 1066   0.321   0.943   0.242
   57SOL    HW1 1067   0.403   0.982   0.200
   57SOL    HW2 1068   0.294   0.861   0.193
   58SOL     OW 1069   1.458   0.735   0.728
   58SOL    HW1 1070   1.453   0.670   0.803
   58SOL    HW2 1071   1.538   0.794   0.741
   59SOL     OW 1072   0.461   1.266   1.727
   59SOL    HW1 1073   0.411   1.267   1.641
   59SOL    HW2 1074   0.398   1.248   1.803
   60SOL     OW 1075   1.111   1.776   0.237
   60SOL    HW1 1076   1.051   1.714   0.287
   60SOL    HW2 1077   1.142   1.732   0.152
   61SOL     OW 1078   0.202   0.285   1.498
   61SOL    HW1 1079   0.122   0.345   1.485
   61SOL    HW2 1080   0.192   0.236   1.584
   62SOL     OW 1081   1.632   1.377   0.081
   62SOL    HW1 1082   1.600   1.471   0.071
   62SOL    HW2 1083   1.556   1.314   0.069
   63SOL     OW 1084   0.464   1.743   0.323
   63SOL    HW1 1085   0.497   1.782   0.409
   63SOL    HW2 1086   0.540   1.736   0.258
   64SOL     OW 1087   1.400   0.107   0.426
   64SOL    HW1 1088   1.376   0.070   0.336
   64SOL    HW2 1089   1.499   0.123   0.430
   65SOL     OW 1090   0.249   1.785   1.241
   65SOL    HW1 1091   0.306   1.720   1.291
   65SOL    HW2 1092   0.233   1.752   1.148
   66SOL     OW 1093   0.940   1.698   0.904
   66SOL    HW1 1094   1.020   1.641   0.925
   66SOL    HW2 1095   0.891   1.658   0.827
   67SOL     OW 1096   0.382   0.700   0.480
   67SOL    HW1 1097   0.427   0.610   0.477
   67SOL    HW2 1098   0.288   0.689   0.513
   68SOL     OW 1099   1.547   0.222   1.729
   68SOL    HW1 1100   1.542   0.259   1.821
   68SOL    HW2 1101   1.475   0.153   1.717
   69SOL     OW 1102   0.614   0.122   0.117
   69SOL    HW1 1103   0.712   0.100   0.124
   69SOL    HW2 1104   0.583   0.105   0.024
   70SOL     OW 1105   0.781   0.264   1.749
   70SOL    HW1 1106   0.848   0.203   1.792
   70SOL    HW2 1107   0.708   0.283   1.814
   71SOL     OW 1108   0.888   1.514   1.195
   71SOL    HW1 1109   0.865   1.489   1.101
   71SOL    HW2 1110   0.949   1.445   1.234
   72SOL     OW 1111   1.351   0.590   1.433
   72SOL    HW1 1112   1.379   0.547   1.518
   72SOL    HW2 1113   1.376   0.686   1.434
   73SOL     OW 1114   0.803   1.402   0.924
   73SOL    HW1 1115   0.893   1.416   0.882
   73SOL    HW2 1116   0.732   1.404   0.853
   74SOL     OW 1117   0.922   0.503   0.899
   74SOL    HW1 1118   0.897   0.494   0.803
   74SOL    HW2 1119   0.970   0.421   0.930
   75SOL     OW 1120   0.539   0.064   0.512
   75SOL    HW1 1121   0.458   0.065   0.570
   75SOL    HW2 1122   0.542   0.147   0.457
   76SOL     OW 1123   1.434   1.188   0.041
   76SOL    HW1 1124   1.466   1.112   0.098
   76SOL    HW2 1125   1.342   1.215   0.071
   77SOL     OW 1126   0.297   0.035   0.171
   77SOL    HW1 1127   0.346   0.119   0.150
   77SOL    HW2 1128   0.359  -0.030   0.216
   78SOL     OW 1129   0.935   0.236   0.480
   78SOL    HW1 1130   0.887   0.277   0.402
   78SOL    HW2 1131   1.034   0.234   0.461
   79SOL     OW 1132   1.076   0.683   1.464
   79SOL    HW1 1133   0.996   0.622   1.467
   79SOL    HW2 1134   1.157   0.630   1.440
   80SOL     OW 1135   1.227   1.570   0.793
   80SOL    HW1 1136   1.248   1.644   0.728
   80SOL    HW2 1137   1.295   1.570   0.866
   81SOL     OW 1138   0.459   1.152   0.741
   81SOL    HW1 1139   0.388   1.125   0.806
   81SOL    HW2 1140   0.433   1.124   0.648
   82SOL     OW 1141   1.271   1.797   0.591
   82SOL    HW1 1142   1.315   1.861   0.527
   82SOL    HW2 1143   1.221   1.849   0.661
   83SOL     OW 1144   1.032   0.549   0.016
   83SOL    HW1 1145   0.991   0.631  -0.023
   83SOL    HW2 1146   1.096   0.575   0.089
   84SOL     OW 1147   0.078   0.556   1.386
   84SOL    HW1 1148   0.170   0.555   1.345
   84SOL    HW2 1149   0.072   0.630   1.453
   85SOL     OW 1150   0.561   0.222   1.147
   85SOL    HW1 1151   0.599   0.138   1.184
   85SOL    HW2 1152   0.473   0.241   1.191
   86SOL     OW 1153   0.866   0.454   0.642
   86SOL    HW1 1154   0.834   0.526   0.580
   86SOL    HW2 1155   0.890   0.373   0.589
   87SOL     OW 1156   1.017   0.039   0.753
   87SOL    HW1 1157   0.945   0.044   0.684
   87SOL    HW2 1158   0.993  -0.030   0.822
   88SOL     OW 1159   1.429   1.173   0.867
   88SOL    HW1 1160   1.374   1.089   0.860
   88SOL    HW2 1161   1.455   1.202   0.775
   89SOL     OW 1162   1.466   0.590   0.992
   89SOL    HW1 1163   1.436   0.495   0.999
   89SOL    HW2 1164   1.539   0.606   1.058
   90SOL     OW 1165   1.857   0.833   0.377
   90SOL    HW1 1166   1.899   0.769   0.441
   90SOL    HW2 1167   1.819   0.782   0.299
   91SOL     OW 1168   0.488   1.385   0.174
   91SOL    HW1 1169   0.401   1.370   0.221
   91SOL    HW2 1170   0.471   1.411   0.079
   92SOL     OW 1171   1.664   1.280   0.657
   92SOL    HW1 1172   1.763   1.288   0.671
   92SOL    HW2 1173   1.619   1.364   0.688
   93SOL     OW 1174   1.390   0.575   0.078
   93SOL    HW1 1175   1.336   0.554   0.159
   93SOL    HW2 1176   1.481   0.534   0.087
   94SOL     OW 1177   0.527   0.256   0.328
   94SOL    HW1 1178   0.554   0.197   0.253
   94SOL    HW2 1179   0.527   0.351   0.297
   95SOL     OW 1180   1.754   1.223   1.588
   95SOL    HW1 1181   1.845   1.184   1.575
   95SOL    HW2 1182   1.762   1.319   1.612
   96SOL     OW 1183   1.064   1.347   1.340
   96SOL    HW1 1184   0.984   1.324   1.395
   96SOL    HW2 1185   1.147   1.321   1.389
   97SOL     OW 1186   1.592   1.629   1.625
   97SOL    HW1 1187   1.619   1.663   1.535
   97SOL    HW2 1188   1.671   1.591   1.671
   98SOL     OW 1189   1.111   1.195   1.100
   98SOL    HW1 1190   1.071   1.239   1.181
   98SOL    HW2 1191   1.070   1.232   1.017
   99SOL     OW 1192   1.638   1.099   1.079
   99SOL    HW1 1193   1.643   1.180   1.138
   99SOL    HW2 1194   1.552   1.101   1.028
  100SOL     OW 1195   0.915   0.089   1.402
  100SOL    HW1 1196   0.940   0.069   1.307
  100SOL    HW2 1197   0.987   0.145   1.444
  101SOL     OW 1198   0.980   1.116   1.719
  101SOL    HW1 1199   0.881   1.122   1.729
  101SOL    HW2 1200   1.003   1.036   1.663
  102SOL     OW 1201   0.705   1.050   0.368
  102SOL    HW1 1202   0.691   1.057   0.467
  102SOL    HW2 1203   0.789   0.999   0.350
  103SOL     OW 1204   0.410   0.813   1.251
  103SOL    HW1 1205   0.496   0.825   1.301
  103SOL    HW2 1206   0.368   0.726   1.278
  104SOL     OW 1207   1.274   0.386   1.262
  104SOL    HW1 1208   1.295   0.460   1.326
  104SOL    HW2 1209   1.185   0.403   1.219
  105SOL     OW 1210   0.064   1.564   1.331
  105SOL    HW1 1211   0.018   1.646   1.297
  105SOL    HW2 1212   0.162   1.583   1.340
  106SOL     OW 1213   0.367   1.100   0.501
  106SOL    HW1 1214   0.360   1.183   0.445
  106SOL    HW2 1215   0.371   1.020   0.441
  107SOL     OW 1216   0.566   0.537   0.865
  107SOL    HW1 1217   0.578   0.603   0.791
  107SOL    HW2 1218   0.612   0.571   0.948
  108SOL     OW 1219   1.252   1.348   0.388
  108SOL    HW1 1220   1.302   1.425   0.428
  108SOL    HW2 1221   1.157   1.350   0.420
  109SOL     OW 1222   1.272   1.445   1.142
  109SOL    HW1 1223   1.319   1.458   1.229
  109SOL    HW2 1224   1.206   1.371   1.151
  110SOL     OW 1225   1.582   0.639   0.472
  110SOL    HW1 1226   1.551   0.700   0.545
  110SOL    HW2 1227   1.632   0.691   0.403
  111SOL     OW 1228   0.354   1.510   1.329
  111SOL    HW1 1229   0.333   1.466   1.242
  111SOL    HW2 1230   0.451   1.536   1.332
  112SOL     OW 1231   0.402   0.751   1.598
  112SOL    HW1 1232   0.470   0.806   1.551
  112SOL    HW2 1233   0.442   0.663   1.625
  113SOL     OW 1234   1.587   0.779   1.670
  113SOL    HW1 1235   1.495   0.817   1.665
  113SOL    HW2 1236   1.647   0.826   1.605
  114SOL     OW 1237   1.013   0.105   1.770
  114SOL    HW1 1238   1.019   0.190   1.718
  114SOL    HW2 1239   1.045   0.029   1.713
  115SOL     OW 1240   0.504   0.050   1.740
  115SOL    HW1 1241   0.462  -0.007   1.670
  115SOL    HW2 1242   0.438   0.119   1.772
  116SOL     OW 1243   0.573   0.870   1.029
  116SOL    HW1 1244   0.617   0.959   1.020
  116SOL    HW2 1245   0.510   0.870   1.106
  117SOL     OW 1246   1.360   0.862   1.045
  117SOL    HW1 1247   1.285   0.862   0.979
  117SOL    HW2 1248   1.397   0.770   1.054
  118SOL     OW 1249   1.209   0.525   0.275
  118SOL    HW1 1250   1.222   0.441   0.329
  118SOL    HW2 1251   1.180   0.599   0.335
  119SOL     OW 1252   0.307   0.213   1.231
  119SOL    HW1 1253   0.284   0.250   1.321
  119SOL    HW2 1254   0.277   0.118   1.225
  120SOL     OW 1255   0.037   1.310   1.282
  120SOL    HW1 1256   0.090   1.261   1.350
  120SOL    HW2 1257   0.059   1.408   1.287
  121SOL     OW 1258   0.732   0.634   1.064
  121SOL    HW1 1259   0.791   0.608   0.988
  121SOL    HW2 1260   0.704   0.730   1.053
  122SOL     OW 1261   1.728   0.935   1.854
  122SOL    HW1 1262   1.682   0.928   1.765
  122SOL    HW2 1263   1.666   0.979   1.920
  123SOL     OW 1264   0.307   0.063   0.618
  123SOL    HW1 1265   0.296   0.157   0.651
  123SOL    HW2 1266   0.302   0.000   0.695
  124SOL     OW 1267   1.622   0.367   0.374
  124SOL    HW1 1268   1.624   0.291   0.438
  124SOL    HW2 1269   1.574   0.444   0.414
  125SOL     OW 1270   1.023   0.766   0.966
  125SOL    HW1 1271   1.038   0.787   1.062
  125SOL    HW2 1272   0.993   0.671   0.957
  126SOL     OW 1273   0.980   1.573   1.700
  126SOL    HW1 1274   0.960   1.617   1.612
  126SOL    HW2 1275   1.019   1.482   1.684
  127SOL     OW 1276   1.859   1.518   1.605
  127SOL    HW1 1277   1.873   1.545   1.510
  127SOL    HW2 1278   1.942   1.540   1.658
  128SOL     OW 1279   0.350   0.898   1.804
  128SOL    HW1 1280   0.426   0.942   1.852
  128SOL    HW2 1281   0.385   0.851   1.722
  129SOL     OW 1282   1.540   0.274   0.125
  129SOL    HW1 1283   1.479   0.199   0.148
  129SOL    HW2 1284   1.562   0.326   0.208
  130SOL     OW 1285   1.303   0.838   0.042
  130SOL    HW1 1286   1.337   0.745   0.057
  130SOL    HW2 1287   1.321   0.865  -0.053
  131SOL     OW 1288   1.068   1.333   0.849
  131SOL    HW1 1289   1.075   1.249   0.794
  131SOL    HW2 1290   1.130   1.402   0.813
  132SOL     OW 1291   0.319   0.810   0.949
  132SOL    HW1 1292   0.412   0.846   0.954
  132SOL    HW2 1293   0.313   0.725   1.001
  133SOL     OW 1294   0.339   0.509   1.006
  133SOL    HW1 1295   0.287   0.426   0.989
  133SOL    HW2 1296   0.416   0.514   0.942
  134SOL     OW 1297   1.138   0.380   1.678
  134SOL    HW1 1298   1.093   0.443   1.742
  134SOL    HW2 1299   1.231   0.411   1.661
  135SOL     OW 1300   1.160   0.207   1.477
  135SOL    HW1 1301   1.160   0.271   1.554
  135SOL    HW2 1302   1.188   0.255   1.394
  136SOL     OW 1303   0.008   1.326   0.200
  136SOL    HW1 1304  -0.085   1.347   0.169
  136SOL    HW2 1305   0.018   1.227   0.213
  137SOL     OW 1306   0.088   1.801   0.927
  137SOL    HW1 1307   0.046   1.715   0.900
  137SOL    HW2 1308   0.182   1.804   0.893
  138SOL     OW 1309   0.504   1.568   0.910
  138SOL    HW1 1310   0.570   1.642   0.919
  138SOL    HW2 1311   0.548   1.489   0.868
  139SOL     OW 1312   1.002   0.796   1.238
  139SOL    HW1 1313   1.043   0.764   1.324
  139SOL    HW2 1314   0.906   0.769   1.235
  140SOL     OW 1315   0.040   0.544   1.114
  140SOL    HW1 1316   0.125   0.511   1.073
  140SOL    HW2 1317   0.053   0.559   1.212
  141SOL     OW 1318   0.189   0.520   1.722
  141SOL    HW1 1319   0.248   0.480   1.652
  141SOL    HW2 1320   0.131   0.591   1.681
  142SOL     OW 1321   1.369   0.950   1.660
  142SOL    HW1 1322   1.408   1.039   1.680
  142SOL    HW2 1323   1.379   0.930   1.563
  143SOL     OW 1324   0.815   0.572   0.325
  143SOL    HW1 1325   0.822   0.483   0.279
  143SOL    HW2 1326   0.721   0.606   0.317
  144SOL     OW 1327   1.657   0.604   1.206
  144SOL    HW1 1328   1.619   0.535   1.268
  144SOL    HW2 1329   1.739   0.568   1.162
  145SOL     OW 1330   0.252   1.564   1.744
  145SOL    HW1 1331   0.222   1.621   1.820
  145SOL    HW2 1332   0.245   1.467   1.770
  146SOL     OW 1333   0.671   0.464   1.269
  146SOL    HW1 1334   0.637   0.375   1.239
  146SOL    HW2 1335   0.697   0.518   1.189
  147SOL     OW 1336   0.930   1.678   1.465
  147SOL    HW1 1337   0.906   1.660   1.370
  147SOL    HW2 1338   0.960   1.772   1.475
  148SOL     OW 1339   0.473   0.500   0.191
  148SOL    HW1 1340   0.534   0.580   0.195
  148SOL    HW2 1341   0.378   0.531   0.198
  149SOL     OW 1342   0.159   1.137   1.466
  149SOL    HW1 1343   0.181   1.076   1.542
  149SOL    HW2 1344   0.169   1.088   1.380
  150SOL     OW 1345   1.347   1.059   1.234
  150SOL    HW1 1346   1.371   0.996   1.160
  150SOL    HW2 1347   1.257   1.099   1.216
  151SOL     OW 1348   1.302   0.855   0.309
  151SOL    HW1 1349   1.216   0.824   0.351
  151SOL    HW2 1350   1.298   0.841   0.210
  152SOL     OW 1351   1.759   1.747   1.154
  152SOL    HW1 1352   1.820   1.777   1.081
  152SOL    HW2 1353   1.721   1.658   1.132
  153SOL     OW 1354   1.252   1.731   1.128
  153SOL    HW1 1355   1.336   1.736   1.074
  153SOL    HW2 1356   1.229   1.635   1.146
  154SOL     OW 1357   0.083   1.258   1.022
  154SOL    HW1 1358   0.078   1.257   1.122
  154SOL    HW2 1359   0.000   1.217   0.984
  155SOL     OW 1360   0.688   1.662   1.716
  155SOL    HW1 1361   0.632   1.743   1.725
  155SOL    HW2 1362   0.740   1.666   1.630
  156SOL     OW 1363   0.903   0.086   0.133
  156SOL    HW1 1364   0.954   0.087   0.047
  156SOL    HW2 1365   0.959   0.044   0.204
  157SOL     OW 1366   1.726   0.135   0.523
  157SOL    HW1 1367   1.799   0.118   0.456
  157SOL    HW2 1368   1.695   0.048   0.561
  158SOL     OW 1369   1.388   1.573   0.477
  158SOL    HW1 1370   1.455   1.585   0.403
  158SOL    HW2 1371   1.348   1.662   0.500
  159SOL     OW 1372   0.130   1.794   1.851
  159SOL    HW1 1373   0.089   1.720   1.904
  159SOL    HW2 1374   0.194   1.845   1.909
  160SOL     OW 1375   1.280   0.927   0.672
  160SOL    HW1 1376   1.340   0.846   0.674
  160SOL    HW2 1377   1.320   0.996   0.612
  161SOL     OW 1378   0.830   1.273   1.422
  161SOL    HW1 1379   0.825   1.306   1.517
  161SOL    HW2 1380   0.744   1.292   1.376
  162SOL     OW 1381   0.672   1.616   0.154
  162SOL    HW1 1382   0.681   1.626   0.055
  162SOL    HW2 1383   0.632   1.527   0.175
  163SOL     OW 1384   1.650   1.720   1.394
  163SOL    HW1 1385   1.703   1.730   1.310
  163SOL    HW2 1386   1.623   1.810   1.428
  164SOL     OW 1387   1.841   0.175   0.963
  164SOL    HW1 1388   1.880   0.090   0.927
  164SOL    HW2 1389   1.743   0.177   0.944
  165SOL     OW 1390   0.263   0.326   0.720
  165SOL    HW1 1391   0.184   0.377   0.686
  165SOL    HW2 1392   0.254   0.311   0.818
  166SOL     OW 1393   1.194   1.612   0.031
  166SOL    HW1 1394   1.200   1.519   0.068
  166SOL    HW2 1395   1.135   1.612  -0.049
  167SOL     OW 1396   0.822   1.002   1.372
  167SOL    HW1 1397   0.862   1.001   1.280
  167SOL    HW2 1398   0.832   1.094   1.412
  168SOL     OW 1399   0.916   0.910   0.291
  168SOL    HW1 1400   0.979   0.948   0.223
  168SOL    HW2 1401   0.956   0.827   0.330
  169SOL     OW 1402   1.504   1.607   0.044
  169SOL    HW1 1403   1.412   1.644   0.051
  169SOL    HW2 1404   1.542   1.627  -0.046
  170SOL     OW 1405   0.372   1.288   1.490
  170SOL    HW1 1406   0.359   1.381   1.456
  170SOL    HW2 1407   0.288   1.236   1.477
  171SOL     OW 1408   1.614   1.292   1.289
  171SOL    HW1 1409   1.674   1.295   1.369
  171SOL    HW2 1410   1.539   1.356   1.302
  172SOL     OW 1411   1.039   1.098   0.696
  172SOL    HW1 1412   0.969   1.051   0.750
  172SOL    HW2 1413   1.098   1.030   0.653
  173SOL     OW 1414   1.014   0.236   0.971
  173SOL    HW1 1415   1.006   0.200   0.878
  173SOL    HW2 1416   1.012   0.160   1.036
  174SOL     OW 1417   0.590   1.487   0.491
  174SOL    HW1 1418   0.632   1.429   0.421
  174SOL    HW2 1419   0.546   1.566   0.447
  175SOL     OW 1420   1.709   0.385   1.381
  175SOL    HW1 1421   1.782   0.454   1.385
  175SOL    HW2 1422   1.737   0.310   1.322
  176SOL     OW 1423   0.255   1.348   0.290
  176SOL    HW1 1424   0.159   1.349   0.263
  176SOL    HW2 1425   0.267   1.401   0.374
  177SOL     OW 1426   0.105   1.013   1.726
  177SOL    HW1 1427   0.028   0.980   1.780
  177SOL    HW2 1428   0.190   0.983   1.768
  178SOL     OW 1429   0.672   0.203   1.489
  178SOL    HW1 1430   0.762   0.187   1.449
  178SOL    HW2 1431   0.680   0.208   1.588
  179SOL     OW 1432   0.075   0.345   0.033
  179SOL    HW1 1433  -0.017   0.317   0.004
  179SOL    HW2 1434   0.106   0.422  -0.023
  180SOL     OW 1435   1.440   0.856   1.398
  180SOL    HW1 1436   1.383   0.908   1.335
  180SOL    HW2 1437   1.536   0.868   1.374
  181SOL     OW 1438   0.072   0.166   0.318
  181SOL    HW1 1439   0.055   0.249   0.264
  181SOL    HW2 1440   0.162   0.129   0.296
  182SOL     OW 1441   1.183   1.335   0.119
  182SOL    HW1 1442   1.084   1.324   0.121
  182SOL    HW2 1443   1.217   1.350   0.212
  183SOL     OW 1444   0.613   0.842   1.431
  183SOL    HW1 1445   0.669   0.923   1.414
  183SOL    HW2 1446   0.672   0.762   1.434
  184SOL     OW 1447   1.493   1.767   0.959
  184SOL    HW1 1448   1.526   1.831   0.890
  184SOL    HW2 1449   1.559   1.761   1.034
  185SOL     OW 1450   0.716   0.565   1.708
  185SOL    HW1 1451   0.735   0.630   1.782
  185SOL    HW2 1452   0.776   0.485   1.717
  186SOL     OW 1453   1.450   1.220   1.633
  186SOL    HW1 1454   1.441   1.210   1.732
  186SOL    HW2 1455   1.546   1.213   1.607
  187SOL     OW 1456   0.390   1.741   1.560
  187SOL    HW1 1457   0.299   1.782   1.558
  187SOL    HW2 1458   0.383   1.647   1.592
  188SOL     OW 1459   1.674   0.883   1.254
  188SOL    HW1 1460   1.647   0.794   1.217
  188SOL    HW2 1461   1.675   0.951   1.181
  189SOL     OW 1462   1.225   0.325   0.449
  189SOL    HW1 1463   1.290   0.251   0.438
  189SOL    HW2 1464   1.245   0.375   0.533
  190SOL     OW 1465   0.594   0.745   0.652
  190SOL    HW1 1466   0.644   0.830   0.633
  190SOL    HW2 1467   0.506   0.747   0.604
  191SOL     OW 1468   1.777   0.342   1.642
  191SOL    HW1 1469   1.760   0.373   1.548
  191SOL    HW2 1470   1.693   0.305   1.680
  192SOL     OW 1471   1.730   0.934   1.517
  192SOL    HW1 1472   1.768   1.025   1.532
  192SOL    HW2 1473   1.722   0.917   1.418
  193SOL     OW 1474   0.859   1.374   0.016
  193SOL    HW1 1475   0.813   1.389   0.104
  193SOL    HW2 1476   0.903   1.459  -0.014
  194SOL     OW 1477   0.661   1.790   0.953
  194SOL    HW1 1478   0.615   1.878   0.940
  194SOL    HW2 1479   0.760   1.802   0.946
  195SOL     OW 1480   0.859   0.956   0.861
  195SOL    HW1 1481   0.913   0.887   0.909
  195SOL    HW2 1482   0.827   1.025   0.927
  196SOL     OW 1483   1.083   0.984   0.087
  196SOL    HW1 1484   1.060   1.037   0.005
  196SOL    HW2 1485   1.164   0.928   0.068
  197SOL     OW 1486   1.861   1.569   0.851
  197SOL    HW1 1487   1.790   1.557   0.781
  197SOL    HW2 1488   1.862   1.490   0.911
  198SOL     OW 1489   0.221   1.314   1.844
  198SOL    HW1 1490   0.156   1.241   1.823
  198SOL    HW2 1491   0.225   1.328   1.942
  199SOL     OW 1492   0.079   1.240   0.653
  199SOL    HW1 1493   0.078   1.193   0.741
  199SOL    HW2 1494   0.161   1.212   0.602
  200SOL     OW 1495   0.672   1.391   1.624
  200SOL    HW1 1496   0.594   1.341   1.662
  200SOL    HW2 1497   0.669   1.486   1.655
  201SOL     OW 1498   1.824   0.192   1.227
  201SOL    HW1 1499   1.820   0.102   1.271
  201SOL    HW2 1500   1.827   0.181   1.128
  202SOL     OW 1501   0.428   0.424   0.520
  202SOL    HW1 1502   0.458   0.352   0.458
  202SOL    HW2 1503   0.389   0.384   0.603
  203SOL     OW 1504   1.705   1.487   1.104
  203SOL    HW1 1505   1.612   1.462   1.077
  203SOL    HW2 1506   1.731   1.437   1.186
  204SOL     OW 1507   0.317   0.547   1.280
  204SOL    HW1 1508   0.355   0.488   1.352
  204SOL    HW2 1509   0.357   0.521   1.192
  205SOL     OW 1510   0.812   1.586   0.687
  205SOL    HW1 1511   0.844   1.596   0.593
  205SOL    HW2 1512   0.733   1.524   0.689
  206SOL     OW 1513   1.424   0.214   1.112
  206SOL    HW1 1514   1.476   0.149   1.167
  206SOL    HW2 1515   1.375   0.277   1.173
  207SOL     OW 1516   1.001   0.034   1.154
  207SOL    HW1 1517   0.938  -0.038   1.123
  207SOL    HW2 1518   1.094  -0.002   1.154
  208SOL     OW 1519   0.770   1.330   0.301
  208SOL    HW1 1520   0.724   1.243   0.318
  208SOL    HW2 1521   0.861   1.327   0.342
  209SOL     OW 1522   0.618   1.567   1.284
  209SOL    HW1 1523   0.613   1.649   1.341
  209SOL    HW2 1524   0.707   1.564   1.239
  210SOL     OW 1525   1.352   0.052   0.168
  210SOL    HW1 1526   1.387   0.011   0.084
  210SOL    HW2 1527   1.262   0.014   0.188
  211SOL     OW 1528   1.300   0.453   0.691
  211SOL    HW1 1529   1.241   0.533   0.695
  211SOL    HW2 1530   1.315   0.418   0.784
  212SOL     OW 1531   1.593   0.221   0.882
  212SOL    HW1 1532   1.509   0.220   0.936
  212SOL    HW2 1533   1.595   0.304   0.826
  213SOL     OW 1534   0.039   1.077   0.300
  213SOL    HW1 1535   0.138   1.066   0.291
  213SOL    HW2 1536  -0.001   0.991   0.332
  214SOL     OW 1537   0.875   1.646   0.337
  214SOL    HW1 1538   0.798   1.611   0.283
  214SOL    HW2 1539   0.843   1.717   0.399
  215SOL     OW 1540   0.230   0.628   1.975
  215SOL    HW1 1541   0.137   0.626   2.012
  215SOL    HW2 1542   0.231   0.589   1.883
  216SOL     OW 1543   0.225   0.275   2.858
  216SOL    HW1 1544   0.260   0.258   2.950
  216SOL    HW2 1545   0.137   0.230   2.846
  217SOL     OW 1546   0.019   0.368   2.509
  217SOL    HW1 1547  -0.063   0.411   2.548
  217SOL    HW2 1548  -0.009   0.295   2.446
  218SOL     OW 1549   0.569   1.275   3.027
  218SOL    HW1 1550   0.476   1.268   2.990
  218SOL    HW2 1551   0.580   1.364   3.071
  219SOL     OW 1552   1.555   1.511   2.565
  219SOL    HW1 1553   1.498   1.495   2.646
  219SOL    HW2 1554   1.496   1.521   2.485
  220SOL     OW 1555   1.135   0.703   2.579
  220SOL    HW1 1556   1.192   0.781   2.554
  220SOL    HW2 1557   1.075   0.729   2.655
  221SOL     OW 1558   1.755   0.607   2.093
  221SOL    HW1 1559   1.743   0.594   1.994
  221SOL    HW2 1560   1.725   0.526   2.142
  222SOL     OW 1561   0.768   1.144   2.885
  222SOL    HW1 1562   0.690   1.161   2.945
  222SOL    HW2 1563   0.802   1.231   2.849
  223SOL     OW 1564   0.850   0.798   3.685
  223SOL    HW1 1565   0.846   0.874   3.750
  223SOL    HW2 1566   0.872   0.834   3.594
  224SOL     OW 1567   0.685   1.012   2.527
  224SOL    HW1 1568   0.754   0.996   2.597
  224SOL    HW2 1569   0.612   1.069   2.565
  225SOL     OW 1570   0.686   1.161   3.665
  225SOL    HW1 1571   0.746   1.240   3.679
  225SOL    HW2 1572   0.600   1.192   3.624
  226SOL     OW 1573   0.335   1.435   2.923
  226SOL    HW1 1574   0.257   1.404   2.870
  226SOL    HW2 1575   0.393   1.493   2.866
  227SOL     OW 1576   1.460   1.505   3.201
  227SOL    HW1 1577   1.484   1.599   3.227
  227SOL    HW2 1578   1.444   1.451   3.283
  228SOL     OW 1579   0.438   0.392   3.361
  228SOL    HW1 1580   0.520   0.336   3.370
  228SOL    HW2 1581   0.357   0.334   3.365
  229SOL     OW 1582   1.603   0.447   2.599
  229SOL    HW1 1583   1.529   0.493   2.549
  229SOL    HW2 1584   1.654   0.515   2.652
  230SOL     OW 1585   0.231   1.713   2.345
  230SOL    HW1 1586   0.265   1.790   2.399
  230SOL    HW2 1587   0.275   1.713   2.255
  231SOL     OW 1588   1.127   1.341   3.552
  231SOL    HW1 1589   1.174   1.341   3.640
  231SOL    HW2 1590   1.079   1.254   3.541
  232SOL     OW 1591   0.230   1.434   2.400
  232SOL    HW1 1592   0.204   1.530   2.400
  232SOL    HW2 1593   0.159   1.380   2.445
  233SOL     OW 1594   0.240   1.091   2.748
  233SOL    HW1 1595   0.254   1.007   2.800
  233SOL    HW2 1596   0.185   1.155   2.803
  234SOL     OW 1597   0.620   1.786   3.301
  234SOL    HW1 1598   0.528   1.769   3.336
  234SOL    HW2 1599   0.648   1.878   3.327
  235SOL     OW 1600   0.606   0.964   1.985
  235SOL    HW1 1601   0.613   1.048   1.931
  235SOL    HW2 1602   0.652   0.977   2.073
  236SOL     OW 1603   1.594   0.114   3.342
  236SOL    HW1 1604   1.576   0.181   3.270
  236SOL    HW2 1605   1.591   0.160   3.431
  237SOL     OW 1606   0.122   0.643   2.425
  237SOL    HW1 1607   0.077   0.555   2.442
  237SOL    HW2 1608   0.121   0.697   2.509
  238SOL     OW 1609   1.842   1.767   2.221
  238SOL    HW1 1610   1.896   1.738   2.301
  238SOL    HW2 1611   1.872   1.857   2.192
  239SOL     OW 1612   0.027   1.596   1.979
  239SOL    HW1 1613   0.008   1.500   2.000
  239SOL    HW2 1614  -0.006   1.654   2.054
  240SOL     OW 1615   1.689   0.922   2.474
  240SOL    HW1 1616   1.784   0.893   2.482
  240SOL    HW2 1617   1.681   0.987   2.399
  241SOL     OW 1618   1.641   1.108   2.294
  241SOL    HW1 1619   1.727   1.110   2.242
  241SOL    HW2 1620   1.655   1.155   2.382
  242SOL     OW 1621   0.113   0.737   3.459
  242SOL    HW1 1622   0.201   0.724   3.504
  242SOL    HW2 1623   0.100   0.834   3.437
  243SOL     OW 1624   0.613   1.365   2.588
  243SOL    HW1 1625   0.564   1.278   2.597
  243SOL    HW2 1626   0.590   1.408   2.501
  244SOL     OW 1627   1.293   1.228   3.285
  244SOL    HW1 1628   1.330   1.155   3.227
  244SOL    HW2 1629   1.345   1.233   3.370
  245SOL     OW 1630   0.809   0.004   2.364
  245SOL    HW1 1631   0.849   0.095   2.355
  245SOL    HW2 1632   0.709   0.012   2.370
  246SOL     OW 1633   0.197   0.976   3.126
  246SOL    HW1 1634   0.286   0.931   3.112
  246SOL    HW2 1635   0.124   0.911   3.107
  247SOL     OW 1636   1.525   0.999   2.052
  247SOL    HW1 1637   1.462   0.923   2.065
  247SOL    HW2 1638   1.573   1.017   2.138
  248SOL     OW 1639   1.187   1.792   3.478
  248SOL    HW1 1640   1.211   1.852   3.402
  248SOL    HW2 1641   1.194   1.697   3.448
  249SOL     OW 1642   0.317   0.251   3.663
  249SOL    HW1 1643   0.388   0.322   3.669
  249SOL    HW2 1644   0.229   0.290   3.691
  250SOL     OW 1645   1.466   1.417   2.815
  250SOL    HW1 1646   1.407   1.423   2.895
  250SOL    HW2 1647   1.451   1.329   2.769
  251SOL     OW 1648   1.667   1.714   2.434
  251SOL    HW1 1649   1.626   1.691   2.346
  251SOL    HW2 1650   1.649   1.640   2.499
  252SOL     OW 1651   0.598   0.729   2.132
  252SOL    HW1 1652   0.622   0.798   2.064
  252SOL    HW2 1653   0.520   0.762   2.186
  253SOL     OW 1654   1.281   0.345   2.806
  253SOL    HW1 1655   1.195   0.295   2.793
  253SOL    HW2 1656   1.343   0.291   2.862
  254SOL     OW 1657   1.576   1.662   2.169
  254SOL    HW1 1658   1.665   1.708   2.172
  254SOL    HW2 1659   1.555   1.638   2.074
  255SOL     OW 1660   0.807   0.605   3.327
  255SOL    HW1 1661   0.760   0.602   3.416
  255SOL    HW2 1662   0.756   0.550   3.261
  256SOL     OW 1663   1.394   0.469   3.536
  256SOL    HW1 1664   1.374   0.512   3.624
  256SOL    HW2 1665   1.472   0.407   3.545
  257SOL     OW 1666   0.973   0.890   3.434
  257SOL    HW1 1667   1.019   0.806   3.405
  257SOL    HW2 1668   0.917   0.924   3.359
  258SOL     OW 1669   0.991   0.410   3.104
  258SOL    HW1 1670   0.914   0.444   3.158
  258SOL    HW2 1671   0.957   0.359   3.025
  259SOL     OW 1672   1.041   0.701   2.291
  259SOL    HW1 1673   1.067   0.697   2.387
  259SOL    HW2 1674   0.956   0.650   2.277
  260SOL     OW 1675   0.076   0.811   2.651
  260SOL    HW1 1676   0.175   0.799   2.660
  260SOL    HW2 1677   0.052   0.906   2.672
  261SOL     OW 1678   0.130   1.821   3.433
  261SOL    HW1 1679   0.120   1.806   3.532
  261SOL    HW2 1680   0.044   1.857   3.397
  262SOL     OW 1681   0.865   0.348   2.057
  262SOL    HW1 1682   0.924   0.411   2.008
  262SOL    HW2 1683   0.884   0.254   2.028
  263SOL     OW 1684   1.719   0.585   3.693
  263SOL    HW1 1685   1.693   0.674   3.657
  263SOL    HW2 1686   1.717   0.517   3.620
  264SOL     OW 1687   1.362   1.144   2.407
  264SOL    HW1 1688   1.445   1.115   2.359
  264SOL    HW2 1689   1.313   1.211   2.351
  265SOL     OW 1690   0.550   0.196   2.747
  265SOL    HW1 1691   0.545   0.191   2.847
  265SOL    HW2 1692   0.552   0.292   2.718
  266SOL     OW 1693   1.008   1.456   2.339
  266SOL    HW1 1694   0.962   1.528   2.287
  266SOL    HW2 1695   1.004   1.476   2.437
  267SOL     OW 1696   0.351   1.801   2.715
  267SOL    HW1 1697   0.401   1.715   2.721
  267SOL    HW2 1698   0.416   1.878   2.712
  268SOL     OW 1699   1.795   1.066   2.735
  268SOL    HW1 1700   1.733   1.051   2.659
  268SOL    HW2 1701   1.743   1.077   2.820
  269SOL     OW 1702   1.227   1.550   3.368
  269SOL    HW1 1703   1.233   1.473   3.432
  269SOL    HW2 1704   1.175   1.524   3.288
  270SOL     OW 1705   0.321   0.943   2.104
  270SOL    HW1 1706   0.403   0.982   2.062
  270SOL    HW2 1707   0.294   0.861   2.055
  271SOL     OW 1708   1.458   0.735   2.590
  271SOL    HW1 1709   1.453   0.670   2.665
  271SOL    HW2 1710   1.538   0.794   2.603
  272SOL     OW 1711   0.461   1.266   3.589
  272SOL    HW1 1712   0.411   1.267   3.503
  272SOL    HW2 1713   0.398   1.248   3.665
  273SOL     OW 1714   1.111   1.776   2.099
  273SOL    HW1 1715   1.051   1.714   2.149
  273SOL    HW2 1716   1.142   1.732   2.014
  274SOL     OW 1717   0.202   0.285   3.360
  274SOL    HW1 1718   0.122   0.345   3.347
  274SOL    HW2 1719   0.192   0.236   3.446
  275SOL     OW 1720   1.632   1.377   1.943
  275SOL    HW1 1721   1.600   1.471   1.933
  275SOL    HW2 1722   1.556   1.314   1.931
  276SOL     OW 1723   0.464   1.743   2.185
  276SOL    HW1 1724   0.497   1.782   2.271
  276SOL    HW2 1725   0.540   1.736   2.120
  277SOL     OW 1726   1.400   0.107   2.288
  277SOL    HW1 1727   1.376   0.070   2.198
  277SOL    HW2 1728   1.499   0.123   2.292
  278SOL     OW 1729   0.249   1.785   3.103
  278SOL    HW1 1730   0.306   1.720   3.153
  278SOL    HW2 1731   0.233   1.752   3.010
  279SOL     OW 1732   0.940   1.698   2.766
  279SOL    HW1 1733   1.020   1.641   2.787
  279SOL    HW2 1734   0.891   1.658   2.689
  280SOL     OW 1735   0.382   0.700   2.342
  280SOL    HW1 1736   0.427   0.610   2.339
  280SOL    HW2 1737   0.288   0.689   2.375
  281SOL     OW 1738   1.547   0.222   3.591
  281SOL    HW1 1739   1.542   0.259   3.683
  281SOL    HW2 1740   1.475   0.153   3.579
  282SOL     OW 1741   0.614   0.122   1.979
  282SOL    HW1 1742   0.712   0.100   1.986
  282SOL    HW2 1743   0.583   0.105   1.886
  283SOL     OW 1744   0.781   0.264   3.611
  283SOL    HW1 1745   0.848   0.203   3.654
  283SOL    HW2 1746   0.708   0.283   3.676
  284SOL     OW 1747   0.888   1.514   3.057
  284SOL    HW1 1748   0.865   1.489   2.963
  284SOL    HW2 1749   0.949   1.445   3.096
  285SOL     OW 1750   1.351   0.590   3.295
  285SOL    HW1 1751   1.379   0.547   3.380
  285SOL    HW2 1752   1.376   0.686   3.296
  286SOL     OW 1753   0.803   1.402   2.786
  286SOL    HW1 1754   0.893   1.416   2.744
  286SOL    HW2 1755   0.732   1.404   2.715
  287SOL     OW 1756   0.922   0.503   2.761
  287SOL    HW1 1757   0.897   0.494   2.665
  287SOL    HW2 1758   0.970   0.421   2.792
  288SOL     OW 1759   0.539   0.064   2.374
  288SOL    HW1 1760   0.458   0.065   2.432
  288SOL    HW2 1761   0.542   0.147   2.319
  289SOL     OW 1762   1.434   1.188   1.903
  289SOL    HW1 1763   1.466   1.112   1.960
  289SOL    HW2 1764   1.342   1.215   1.933
  290SOL     OW 1765   0.297   0.035   2.033
  290SOL    HW1 1766   0.346   0.119   2.012
  290SOL    HW2 1767   0.359  -0.030   2.078
  291SOL     OW 1768   0.935   0.236   2.342
  291SOL    HW1 1769   0.887   0.277   2.264
  291SOL    HW2 1770   1.034   0.234   2.323
  292SOL     OW 1771   1.076   0.683   3.326
  292SOL    HW1 1772   0.996   0.622   3.329
  292SOL    HW2 1773   1.157   0.630   3.302
  293SOL     OW 1774   1.227   1.570   2.655
  293SOL    HW1 1775   1.248   1.644   2.590
  293SOL    HW2 1776   1.295   1.570   2.728
  294SOL     OW 1777   0.459   1.152   2.603
  294SOL    HW1 1778   0.388   1.125   2.668
  294SOL    HW2 1779   0.433   1.124   2.510
  295SOL     OW 1780   1.271   1.797   2.453
  295SOL    HW1 1781   1.315   1.861   2.389
  295SOL    HW2 1782   1.221   1.849   2.523
  296SOL     OW 1783   1.032   0.549   1.878
  296SOL    HW1 1784   0.991   0.631   1.839
  296SOL    HW2 1785   1.096   0.575   1.951
  297SOL     OW 1786   0.078   0.556   3.248
  297SOL    HW1 1787   0.170   0.555   3.207
  297SOL    HW2 1788   0.072   0.630   3.315
  298SOL     OW 1789   0.561   0.222   3.009
  298SOL    HW1 1790   0.599   0.138   3.046
  298SOL    HW2 1791   0.473   0.241   3.053
  299SOL     OW 1792   0.866   0.454   2.504
  299SOL    HW1 1793   0.834   0.526   2.442
  299SOL    HW2 1794   0.890   0.373   2.451
  300SOL     OW 1795   1.017   0.039   2.615
  300SOL    HW1 1796   0.945   0.044   2.546
  300SOL    HW2 1797   0.993  -0.030   2.684
  301SOL     OW 1798   1.429   1.173   2.729
  301SOL    HW1 1799   1.374   1.089   2.722
  301SOL    HW2 1800   1.455   1.202   2.637
  302SOL     OW 1801   1.466   0.590   2.854
  302SOL    HW1 1802   1.436   0.495   2.861
  302SOL    HW2 1803   1.539   0.606   2.920
  303SOL     OW 1804   1.857   0.833   2.239
  303SOL    HW1 1805   1.899   0.769   2.303
  303SOL    HW2 1806   1.819   0.782   2.161
  304SOL     OW 1807   0.488   1.385   2.036
  304SOL    HW1 1808   0.401   1.370   2.083
  304SOL    HW2 1809   0.471   1.411   1.941
  305SOL     OW 1810   1.664   1.280   2.519
  305SOL    HW1 1811   1.763   1.288   2.533
  305SOL    HW2 1812   1.619   1.364   2.550
  306SOL     OW 1813   1.390   0.575   1.940
  306SOL    HW1 1814   1.336   0.554   2.021
  306SOL    HW2 1815   1.481   0.534   1.949
  307SOL     OW 1816   0.527   0.256   2.190
  307SOL    HW1 1817   0.554   0.197   2.115
  307SOL    HW2 1818   0.527   0.351   2.159
  308SOL     OW 1819   1.754   1.223   3.450
  308SOL    HW1 1820   1.845   1.184   3.437
  308SOL    HW2 1821   1.762   1.319   3.474
  309SOL     OW 1822   1.064   1.347   3.202
  309SOL    HW1 1823   0.984   1.324   3.257
  309SOL    HW2 1824   1.147   1.321   3.251
  310SOL     OW 1825   1.592   1.629   3.487
  310SOL    HW1 1826   1.619   1.663   3.397
  310SOL    HW2 1827   1.671   1.591   3.533
  311SOL     OW 1828   1.111   1.195   2.962
  311SOL    HW1 1829   1.071   1.239   3.043
  311SOL    HW2 1830   1.070   1.232   2.879
  312SOL     OW 1831   1.638   1.099   2.941
  312SOL    HW1 1832   1.643   1.180   3.000
  312SOL    HW2 1833   1.552   1.101   2.890
  313SOL     OW 1834   0.915   0.089   3.264
  313SOL    HW1 1835   0.940   0.069   3.169
  313SOL    HW2 1836   0.987   0.145   3.306
  314SOL     OW 1837   0.980   1.116   3.581
  314SOL    HW1 1838   0.881   1.122   3.591
  314SOL    HW2 1839   1.003   1.036   3.525
  315SOL     OW 1840   0.705   1.050   2.230
  315SOL    HW1 1841   0.691   1.057   2.329
  315SOL    HW2 1842   0.789   0.999   2.212
  316SOL     OW 1843   0.410   0.813   3.113
  316SOL    HW1 1844   0.496   0.825   3.163
  316SOL    HW2 1845   0.368   0.726   3.140
  317SOL     OW 1846   1.274   0.386   3.124
  317SOL    HW1 1847   1.295   0.460   3.188
  317SOL    HW2 1848   1.185   0.403   3.081
  318SOL     OW 1849   0.064   1.564   3.193
  318SOL    HW1 1850   0.018   1.646   3.159
  318SOL    HW2 1851   0.162   1.583   3.202
  319SOL     OW 1852   0.367   1.100   2.363
  319SOL    HW1 1853   0.360   1.183   2.307
  319SOL    HW2 1854   0.371   1.020   2.303
  320SOL     OW 1855   0.566   0.537   2.727
  320SOL    HW1 1856   0.578   0.603   2.653
  320SOL    HW2 1857   0.612   0.571   2.810
  321SOL     OW 1858   1.252   1.348   2.250
  321SOL    HW1 1859   1.302   1.425   2.290
  321SOL    HW2 1860   1.157   1.350   2.282
  322SOL     OW 1861   1.272   1.445   3.004
  322SOL    HW1 1862   1.319   1.458   3.091
  322SOL    HW2 1863   1.206   1.371   3.013
  323SOL     OW 1864   1.582   0.639   2.334
  323SOL    HW1 1865   1.551   0.700   2.407
  323SOL    HW2 1866   1.632   0.691   2.265
  324SOL     OW 1867   0.354   1.510   3.191
  324SOL    HW1 1868   0.333   1.466   3.104
  324SOL    HW2 1869   0.451   1.536   3.194
  325SOL     OW 1870   0.402   0.751   3.460
  325SOL    HW1 1871   0.470   0.806   3.413
  325SOL    HW2 1872   0.442   0.663   3.487
  326SOL     OW 1873   1.587   0.779   3.532
  326SOL    HW1 1874   1.495   0.817   3.527
  326SOL    HW2 1875   1.647   0.826   3.467
  327SOL     OW 1876   1.013   0.105   3.632
  327SOL    HW1 1877   1.019   0.190   3.580
  327SOL    HW2 1878   1.045   0.029   3.575
  328SOL     OW 1879   0.504   0.050   3.602
  328SOL    HW1 1880   0.462  -0.007   3.532
  328SOL    HW2 1881   0.438   0.119   3.634
  329SOL     OW 1882   0.573   0.870   2.891
  329SOL    HW1 1883   0.617   0.959   2.882
  329SOL    HW2 1884   0.510   0.870   2.968
  330SOL     OW 1885   1.360   0.862   2.907
  330SOL    HW1 1886   1.285   0.862   2.841
  330SOL    HW2 1887   1.397   0.770   2.916
  331SOL     OW 1888   1.209   0.525   2.137
  331SOL    HW1 1889   1.222   0.441   2.191
  331SOL    HW2 1890   1.180   0.599   2.197
  332SOL     OW 1891   0.307   0.213   3.093
  332SOL    HW1 1892   0.284   0.250   3.183
  332SOL    HW2 1893   0.277   0.118   3.087
  333SOL     OW 1894   0.037   1.310   3.144
  333SOL    HW1 1895   0.090   1.261   3.212
  333SOL    HW2 1896   0.059   1.408   3.149
  334SOL     OW 1897   0.732   0.634   2.926
  334SOL    HW1 1898   0.791   0.608   2.850
  334SOL    HW2 1899   0.704   0.730   2.915
  335SOL     OW 1900   1.728   0.935   3.716
  335SOL    HW1 1901   1.682   0.928   3.627
  335SOL    HW2 1902   1.666   0.979   3.782
  336SOL     OW 1903   0.307   0.063   2.480
  336SOL    HW1 1904   0.296   0.157   2.513
  336SOL    HW2 1905   0.302   0.000   2.557
  337SOL     OW 1906   1.622   0.367   2.236
  337SOL    HW1 1907   1.624   0.291   2.300
  337SOL    HW2 1908   1.574   0.444   2.276
  338SOL     OW 1909   1.023   0.766   2.828
  338SOL    HW1 1910   1.038   0.787   2.924
  338SOL    HW2 1911   0.993   0.671   2.819
  339SOL     OW 1912   0.980   1.573   3.562
  339SOL    HW1 1913   0.960   1.617   3.474
  339SOL    HW2 1914   1.019   1.482   3.546
  340SOL     OW 1915   1.859   1.518   3.467
  340SOL    HW1 1916   1.873   1.545   3.372
  340SOL    HW2 1917   1.942   1.540   3.520
  341SOL     OW 1918   0.350   0.898   3.666
  341SOL    HW1 1919   0.426   0.942   3.714
  341SOL    HW2 1920   0.385   0.851   3.584
  342SOL     OW 1921   1.540   0.274   1.987
  342SOL    HW1 1922   1.479   0.199   2.010
  342SOL    HW2 1923   1.562   0.326   2.070
  343SOL     OW 1924   1.303   0.838   1.904
  343SOL    HW1 1925   1.337   0.745   1.919
  343SOL    HW2 1926   1.321   0.865   1.809
  344SOL     OW 1927   1.068   1.333   2.711
  344SOL    HW1 1928   1.075   1.249   2.656
  344SOL    HW2 1929   1.130   1.402   2.675
  345SOL     OW 1930   0.319   0.810   2.811
  345SOL    HW1 1931   0.412   0.846   2.816
  345SOL    HW2 1932   0.313   0.725   2.863
  346SOL     OW 1933   0.339   0.509   2.868
  346SOL    HW1 1934   0.287   0.426   2.851
  346SOL    HW2 1935   0.416   0.514   2.804
  347SOL     OW 1936   1.138   0.380   3.540
  347SOL    HW1 1937   1.093   0.443   3.604
  347SOL    HW2 1938   1.231   0.411   3.523
  348SOL     OW 1939   1.160   0.207   3.339
  348SOL    HW1 1940   1.160   0.271   3.416
  348SOL    HW2 1941   1.188   0.255   3.256
  349SOL     OW 1942   0.008   1.326   2.062
  349SOL    HW1 1943  -0.085   1.347   2.031
  349SOL    HW2 1944   0.018   1.227   2.075
  350SOL     OW 1945   0.088   1.801   2.789
  350SOL    HW1 1946   0.046   1.715   2.762
  350SOL    HW2 1947   0.182   1.804   2.755
  351SOL     OW 1948   0.504   1.568   2.772
  351SOL    HW1 1949   0.570   1.642   2.781
  351SOL    HW2 1950   0.548   1.489   2.730
  352SOL     OW 1951   1.002   0.796   3.100
  352SOL    HW1 1952   1.043   0.764   3.186
  352SOL    HW2 1953   0.906   0.769   3.097
  353SOL     OW 1954   0.040   0.544   2.976
  353SOL    HW1 1955   0.125   0.511   2.935
  353SOL    HW2 1956   0.053   0.559   3.074
  354SOL     OW 1957   0.189   0.520   3.584
  354SOL    HW1 1958   0.248   0.480   3.514
  354SOL    HW2 1959   0.131   0.591   3.543
  355SOL     OW 1960   1.369   0.950   3.522
  355SOL    HW1 1961   1.408   1.039   3.542
  355SOL    HW2 1962   1.379   0.930   3.425
  356SOL     OW 1963   0.815   0.572   2.187
  356SOL    HW1 1964   0.822   0.483   2.141
  356SOL    HW2 1965   0.721   0.606   2.179
  357SOL     OW 1966   1.657   0.604   3.068
  357SOL    HW1 1967   1.619   0.535   3.130
  357SOL    HW2 1968   1.739   0.568   3.024
  358SOL     OW 1969   0.252   1.564   3.606
  358SOL    HW1 1970   0.222   1.621   3.682
  358SOL    HW2 1971   0.245   1.467   3.632
  359SOL     OW 1972   0.671   0.464   3.131
  359SOL    HW1 1973   0.637   0.375   3.101
  359SOL    HW2 1974   0.697   0.518   3.051
  360SOL     OW 1975   0.930   1.678   3.327
  360SOL    HW1 1976   0.906   1.660   3.232
  360SOL    HW2 1977   0.960   1.772   3.337
  361SOL     OW 1978   0.473   0.500   2.053
  361SOL    HW1 1979   0.534   0.580   2.057
  361SOL    HW2 1980   0.378   0.531   2.060
  362SOL     OW 1981   0.159   1.137   3.328
  362SOL    HW1 1982   0.181   1.076   3.404
  362SOL    HW2 1983   0.169   1.088   3.242
  363SOL     OW 1984   1.347   1.059   3.096
  363SOL    HW1 1985   1.371   0.996   3.022
  363SOL    HW2 1986   1.257   1.099   3.078
  364SOL     OW 1987   1.302   0.855   2.171
  364SOL    HW1 1988   1.216   0.824   2.213
  364SOL    HW2 1989   1.298   0.841   2.072
  365SOL     OW 1990   1.759   1.747   3.016
  365SOL    HW1 1991   1.820   1.777   2.943
  365SOL    HW2 1992   1.721   1.658   2.994
  366SOL     OW 1993   1.252   1.731   2.990
  366SOL    HW1 1994   1.336   1.736   2.936
  366SOL    HW2 1995   1.229   1.635   3.008
  367SOL     OW 1996   0.083   1.258   2.884
  367SOL    HW1 1997   0.078   1.257   2.984
  367SOL    HW2 1998   0.000   1.217   2.846
  368SOL     OW 1999   0.688   1.662   3.578
  368SOL    HW1 2000   0.632   1.743   3.587
  368SOL    HW2 2001   0.740   1.666   3.492
  369SOL     OW 2002   1.726   0.135   2.385
  369SOL    HW1 2003   1.799   0.118   2.318
  369SOL    HW2 2004   1.695   0.048   2.423
  370SOL     OW 2005   1.388   1.573   2.339
  370SOL    HW1 2006   1.455   1.585   2.265
  370SOL    HW2 2007   1.348   1.662   2.362
  371SOL     OW 2008   0.130   1.794   3.713
  371SOL    HW1 2009   0.089   1.720   3.766
  371SOL    HW2 2010   0.194   1.845   3.771
  372SOL     OW 2011   1.280   0.927   2.534
  372SOL    HW1 2012   1.340   0.846   2.536
  372SOL    HW2 2013   1.320   0.996   2.474
  373SOL     OW 2014   0.830   1.273   3.284
  373SOL    HW1 2015   0.825   1.306   3.379
  373SOL    HW2 2016   0.744   1.292   3.238
  374SOL     OW 2017   0.672   1.616   2.016
  374SOL    HW1 2018   0.681   1.626   1.917
  374SOL    HW2 2019   0.632   1.527   2.037
  375SOL     OW 2020   1.650   1.720   3.256
  375SOL    HW1 2021   1.703   1.730   3.172
  375SOL    HW2 2022   1.623   1.810   3.290
  376SOL     OW 2023   1.841   0.175   2.825
  376SOL    HW1 2024   1.880   0.090   2.789
  376SOL    HW2 2025   1.743   0.177   2.806
  377SOL     OW 2026   0.263   0.326   2.582
  377SOL    HW1 2027   0.184   0.377   2.548
  377SOL    HW2 2028   0.254   0.311   2.680
  378SOL     OW 2029   1.194   1.612   1.893
  378SOL    HW1 2030   1.200   1.519   1.930
  378SOL    HW2 2031   1.135   1.612   1.813
  379SOL     OW 2032   0.822   1.002   3.234
  379SOL    HW1 2033   0.862   1.001   3.142
  379SOL    HW2 2034   0.832   1.094   3.274
  380SOL     OW 2035   0.916   0.910   2.153
  380SOL    HW1 2036   0.979   0.948   2.085
  380SOL    HW2 2037   0.956   0.827   2.192
  381SOL     OW 2038   1.504   1.607   1.906
  381SOL    HW1 2039   1.412   1.644   1.913
  381SOL    HW2 2040   1.542   1.627   1.816
  382SOL     OW 2041   0.372   1.288   3.352
  382SOL    HW1 2042   0.359   1.381   3.318
  382SOL    HW2 2043   0.288   1.236   3.339
  383SOL     OW 2044   1.614   1.292   3.151
  383SOL    HW1 2045   1.674   1.295   3.231
  383SOL    HW2 2046   1.539   1.356   3.164
  384SOL     OW 2047   1.039   1.098   2.558
  384SOL    HW1 2048   0.969   1.051   2.612
  384SOL    HW2 2049   1.098   1.030   2.515
  385SOL     OW 2050   1.014   0.236   2.833
  385SOL    HW1 2051   1.006   0.200   2.740
  385SOL    HW2 2052   1.012   0.160   2.898
  386SOL     OW 2053   0.590   1.487   2.353
  386SOL    HW1 2054   0.632   1.429   2.283
  386SOL    HW2 2055   0.546   1.566   2.309
  387SOL     OW 2056   1.709   0.385   3.243
  387SOL    HW1 2057   1.782   0.454   3.247
  387SOL    HW2 2058   1.737   0.310   3.184
  388SOL     OW 2059   0.255   1.348   2.152
  388SOL    HW1 2060   0.159   1.349   2.125
  388SOL    HW2 2061   0.267   1.401   2.236
  389SOL     OW 2062   0.105   1.013   3.588
  389SOL    HW1 2063   0.028   0.980   3.642
  389SOL    HW2 2064   0.190   0.983   3.630
  390SOL     OW 2065   0.672   0.203   3.351
  390SOL    HW1 2066   0.762   0.187   3.311
  390SOL    HW2 2067   0.680   0.208   3.450
  391SOL     OW 2068   0.075   0.345   1.895
  391SOL    HW1 2069  -0.017   0.317   1.866
  391SOL    HW2 2070   0.106   0.422   1.839
  392SOL     OW 2071   1.440   0.856   3.260
  392SOL    HW1 2072   1.383   0.908   3.197
  392SOL    HW2 2073   1.536   0.868   3.236
  393SOL     OW 2074   0.072   0.166   2.180
  393SOL    HW1 2075   0.055   0.249   2.126
  393SOL    HW2 2076   0.162   0.129   2.158
  394SOL     OW 2077   1.183   1.335   1.981
  394SOL    HW1 2078   1.084   1.324   1.983
  394SOL    HW2 2079   1.217   1.350   2.074
  395SOL     OW 2080   0.613   0.842   3.293
  395SOL    HW1 2081   0.669   0.923   3.276
  395SOL    HW2 2082   0.672   0.762   3.296
  396SOL     OW 2083   1.493   1.767   2.821
  396SOL    HW1 2084   1.526   1.831   2.752
  396SOL    HW2 2085   1.559   1.761   2.896
  397SOL     OW 2086   0.716   0.565   3.570
  397SOL    HW1 2087   0.735   0.630   3.644
  397SOL    HW2 2088   0.776   0.485   3.579
  398SOL     OW 2089   1.450   1.220   3.495
  398SOL    HW1 2090   1.441   1.210   3.594
  398SOL    HW2 2091   1.546   1.213   3.469
  399SOL     OW 2092   0.390   1.741   3.422
  399SOL    HW1 2093   0.299   1.782   3.420
  399SOL    HW2 2094   0.383   1.647   3.454
  400SOL     OW 2095   1.674   0.883   3.116
  400SOL    HW1 2096   1.647   0.794   3.079
  400SOL    HW2 2097   1.675   0.951   3.043
  401SOL     OW 2098   1.225   0.325   2.311
  401SOL    HW1 2099   1.290   0.251   2.300
  401SOL    HW2 2100   1.245   0.375   2.395
  402SOL     OW 2101   0.594   0.745   2.514
  402SOL    HW1 2102   0.644   0.830   2.495
  402SOL    HW2 2103   0.506   0.747   2.466
  403SOL     OW 2104   1.777   0.342   3.504
  403SOL    HW1 2105   1.760   0.373   3.410
  403SOL    HW2 2106   1.693   0.305   3.542
  404SOL     OW 2107   1.730   0.934   3.379
  404SOL    HW1 2108   1.768   1.025   3.394
  404SOL    HW2 2109   1.722   0.917   3.280
  405SOL     OW 2110   0.859   1.374   1.878
  405SOL    HW1 2111   0.813   1.389   1.966
  405SOL    HW2 2112   0.903   1.459   1.848
  406SOL     OW 2113   0.661   1.790   2.815
  406SOL    HW1 2114   0.615   1.878   2.802
  406SOL    HW2 2115   0.760   1.802   2.808
  407SOL     OW 2116   0.859   0.956   2.723
  407SOL    HW1 2117   0.913   0.887   2.771
  407SOL    HW2 2118   0.827   1.025   2.789
  408SOL     OW 2119   1.083   0.984   1.949
  408SOL    HW1 2120   1.060   1.037   1.867
  408SOL    HW2 2121   1.164   0.928   1.930
  409SOL     OW 2122   1.861   1.569   2.713
  409SOL    HW1 2123   1.790   1.557   2.643
  409SOL    HW2 2124   1.862   1.490   2.773
  410SOL     OW 2125   0.221   1.314   3.706
  410SOL    HW1 2126   0.156   1.241   3.685
  410SOL    HW2 2127   0.225   1.328   3.804
  411SOL     OW 2128   0.079   1.240   2.515
  411SOL    HW1 2129   0.078   1.193   2.603
  411SOL    HW2 2130   0.161   1.212   2.464
  412SOL     OW 2131   0.672   1.391   3.486
  412SOL    HW1 2132   0.594   1.341   3.524
  412SOL    HW2 2133   0.669   1.486   3.517
  413SOL     OW 2134   1.824   0.192   3.089
  413SOL    HW1 2135   1.820   0.102   3.133
  413SOL    HW2 2136   1.827   0.181   2.990
  414SOL     OW 2137   0.428   0.424   2.382
  414SOL    HW1 2138   0.458   0.352   2.320
  414SOL    HW2 2139   0.389   0.384   2.465
  415SOL     OW 2140   1.705   1.487   2.966
  415SOL    HW1 2141   1.612   1.462   2.939
  415SOL    HW2 2142   1.731   1.437   3.048
  416SOL     OW 2143   0.317   0.547   3.142
  416SOL    HW1 2144   0.355   0.488   3.214
  416SOL    HW2 2145   0.357   0.521   3.054
  417SOL     OW 2146   0.812   1.586   2.549
  417SOL    HW1 2147   0.844   1.596   2.455
  417SOL    HW2 2148   0.733   1.524   2.551
  418SOL     OW 2149   1.424   0.214   2.974
  418SOL    HW1 2150   1.476   0.149   3.029
  418SOL    HW2 2151   1.375   0.277   3.035
  419SOL     OW 2152   1.001   0.034   3.016
  419SOL    HW1 2153   0.938  -0.038   2.985
  419SOL    HW2 2154   1.094  -0.002   3.016
  420SOL     OW 2155   0.770   1.330   2.163
  420SOL    HW1 2156   0.724   1.243   2.180
  420SOL    HW2 2157   0.861   1.327   2.204
  421SOL     OW 2158   0.618   1.567   3.146
  421SOL    HW1 2159   0.613   1.649   3.203
  421SOL    HW2 2160   0.707   1.564   3.101
  422SOL     OW 2161   1.352   0.052   2.030
  422SOL    HW1 2162   1.387   0.011   1.946
  422SOL    HW2 2163   1.262   0.014   2.050
  423SOL     OW 2164   1.300   0.453   2.553
  423SOL    HW1 2165   1.241   0.533   2.557
  423SOL    HW2 2166   1.315   0.418   2.646
  424SOL     OW 2167   1.593   0.221   2.744
  424SOL    HW1 2168   1.509   0.220   2.798
  424SOL    HW2 2169   1.595   0.304   2.688
  425SOL     OW 2170   0.039   1.077   2.162
  425SOL    HW1 2171   0.138   1.066   2.153
  425SOL    HW2 2172  -0.001   0.991   2.194
  426SOL     OW 2173   0.875   1.646   2.199
  426SOL    HW1 2174   0.798   1.611   2.145
  426SOL    HW2 2175   0.843   1.717   2.261
  427SOL     OW 2176   0.230   0.628   3.837
  427SOL    HW1 2177   0.137   0.626   3.874
  427SOL    HW2 2178   0.231   0.589   3.745
  428SOL     OW 2179   0.225   0.275   4.720
  428SOL    HW1 2180   0.260   0.258   4.812
  428SOL    HW2 2181   0.137   0.230   4.708
  429SOL     OW 2182   0.019   0.368   4.371
  429SOL    HW1 2183  -0.063   0.411   4.410
  429SOL    HW2 2184  -0.009   0.295   4.308
  430SOL     OW 2185   0.569   1.275   4.889
  430SOL    HW1 2186   0.476   1.268   4.852
  430SOL    HW2 2187   0.580   1.364   4.933
  431SOL     OW 2188   1.555   1.511   4.427
  431SOL    HW1 2189   1.498   1.495   4.508
  431SOL    HW2 2190   1.496   1.521   4.347
  432SOL     OW 2191   1.135   0.703   4.441
  432SOL    HW1 2192   1.192   0.781   4.416
  432SOL    HW2 2193   1.075   0.729   4.517
  433SOL     OW 2194   1.755   0.607   3.955
  433SOL    HW1 2195   1.743   0.594   3.856
  433SOL    HW2 2196   1.725   0.526   4.004
  434SOL     OW 2197   0.768   1.144   4.747
  434SOL    HW1 2198   0.690   1.161   4.807
  434SOL    HW2 2199   0.802   1.231   4.711
  435SOL     OW 2200   0.850   0.798   5.547
  435SOL    HW1 2201   0.846   0.874   5.612
  435SOL    HW2 2202   0.872   0.834   5.456
  436SOL     OW 2203   0.685   1.012   4.389
  436SOL    HW1 2204   0.754   0.996   4.459
  436SOL    HW2 2205   0.612   1.069   4.427
  437SOL     OW 2206   0.686   1.161   5.527
  437SOL    HW1 2207   0.746   1.240   5.541
  437SOL    HW2 2208   0.600   1.192   5.486
  438SOL     OW 2209   0.335   1.435   4.785
  438SOL    HW1 2210   0.257   1.404   4.732
  438SOL    HW2 2211   0.393   1.493   4.728
  439SOL     OW 2212   1.460   1.505   5.063
  439SOL    HW1 2213   1.484   1.599   5.089
  439SOL    HW2 2214   1.444   1.451   5.145
  440SOL     OW 2215   0.438   0.392   5.223
  440SOL    HW1 2216   0.520   0.336   5.232
  440SOL    HW2 2217   0.357   0.334   5.227
  441SOL     OW 2218   1.603   0.447   4.461
  441SOL    HW1 2219   1.529   0.493   4.411
  441SOL    HW2 2220   1.654   0.515   4.514
  442SOL     OW 2221   0.231   1.713   4.207
  442SOL    HW1 2222   0.265   1.790   4.261
  442SOL    HW2 2223   0.275   1.713   4.117
  443SOL     OW 2224   1.127   1.341   5.414
  443SOL    HW1 2225   1.174   1.341   5.502
  443SOL    HW2 2226   1.079   1.254   5.403
  444SOL     OW 2227   0.230   1.434   4.262
  444SOL    HW1 2228   0.204   1.530   4.262
  444SOL    HW2 2229   0.159   1.380   4.307
  445SOL     OW 2230   0.240   1.091   4.610
  445SOL    HW1 2231   0.254   1.007   4.662
  445SOL    HW2 2232   0.185   1.155   4.665
  446SOL     OW 2233   0.620   1.786   5.163
  446SOL    HW1 2234   0.528   1.769   5.198
  446SOL    HW2 2235   0.648   1.878   5.189
  447SOL     OW 2236   0.606   0.964   3.847
  447SOL    HW1 2237   0.613   1.048   3.793
  447SOL    HW2 2238   0.652   0.977   3.935
  448SOL     OW 2239   1.594   0.114   5.204
  448SOL    HW1 2240   1.576   0.181   5.132
  448SOL    HW2 2241   1.591   0.160   5.293
  449SOL     OW 2242   0.122   0.643   4.287
  449SOL    HW1 2243   0.077   0.555   4.304
  449SOL    HW2 2244   0.121   0.697   4.371
  450SOL     OW 2245   1.842   1.767   4.083
  450SOL    HW1 2246   1.896   1.738   4.163
  450SOL    HW2 2247   1.872   1.857   4.054
  451SOL     OW 2248   0.027   1.596   3.841
  451SOL    HW1 2249   0.008   1.500   3.862
  451SOL    HW2 2250  -0.006   1.654   3.916
  452SOL     OW 2251   1.689   0.922   4.336
  452SOL    HW1 2252   1.784   0.893   4.344
  452SOL    HW2 2253   1.681   0.987   4.261
  453SOL     OW 2254   1.641   1.108   4.156
  453SOL    HW1 2255   1.727   1.110   4.104
  453SOL    HW2 2256   1.655   1.155   4.244
  454SOL     OW 2257   0.113   0.737   5.321
  454SOL    HW1 2258   0.201   0.724   5.366
  454SOL    HW2 2259   0.100   0.834   5.299
  455SOL     OW 2260   0.613   1.365   4.450
  455SOL    HW1 2261   0.564   1.278   4.459
  455SOL    HW2 2262   0.590   1.408   4.363
  456SOL     OW 2263   1.293   1.228   5.147
  456SOL    HW1 2264   1.330   1.155   5.089
  456SOL    HW2 2265   1.345   1.233   5.232
  457SOL     OW 2266   0.809   0.004   4.226
  457SOL    HW1 2267   0.849   0.095   4.217
  457SOL    HW2 2268   0.709   0.012   4.232
  458SOL     OW 2269   0.197   0.976   4.988
  458SOL    HW1 2270   0.286   0.931   4.974
  458SOL    HW2 2271   0.124   0.911   4.969
  459SOL     OW 2272   1.525   0.999   3.914
  459SOL    HW1 2273   1.462   0.923   3.927
  459SOL    HW2 2274   1.573   1.017   4.000
  460SOL     OW 2275   1.187   1.792   5.340
  460SOL    HW1 2276   1.211   1.852   5.264
  460SOL    HW2 2277   1.194   1.697   5.310
  461SOL     OW 2278   0.317   0.251   5.525
  461SOL    HW1 2279   0.388   0.322   5.531
  461SOL    HW2 2280   0.229   0.290   5.553
  462SOL     OW 2281   1.466   1.417   4.677
  462SOL    HW1 2282   1.407   1.423   4.757
  462SOL    HW2 2283   1.451   1.329   4.631
  463SOL     OW 2284   1.667   1.714   4.296
  463SOL    HW1 2285   1.626   1.691   4.208
  463SOL    HW2 2286   1.649   1.640   4.361
  464SOL     OW 2287   0.598   0.729   3.994
  464SOL    HW1 2288   0.622   0.798   3.926
  464SOL    HW2 2289   0.520   0.762   4.048
  465SOL     OW 2290   1.281   0.345   4.668
  465SOL    HW1 2291   1.195   0.295   4.655
  465SOL    HW2 2292   1.343   0.291   4.724
  466SOL     OW 2293   1.576   1.662   4.031
  466SOL    HW1 2294   1.665   1.708   4.034
  466SOL    HW2 2295   1.555   1.638   3.936
  467SOL     OW 2296   0.807   0.605   5.189
  467SOL    HW1 2297   0.760   0.602   5.278
  467SOL    HW2 2298   0.756   0.550   5.123
  468SOL     OW 2299   1.394   0.469   5.398
  468SOL    HW1 2300   1.374   0.512   5.486
  468SOL    HW2 2301   1.472   0.407   5.407
  469SOL     OW 2302   0.973   0.890   5.296
  469SOL    HW1 2303   1.019   0.806   5.267
  469SOL    HW2 2304   0.917   0.924   5.221
  470SOL     OW 2305   0.991   0.410   4.966
  470SOL    HW1 2306   0.914   0.444   5.020
  470SOL    HW2 2307   0.957   0.359   4.887
  471SOL     OW 2308   1.041   0.701   4.153
  471SOL    HW1 2309   1.067   0.697   4.249
  471SOL    HW2 2310   0.956   0.650   4.139
  472SOL     OW 2311   0.076   0.811   4.513
  472SOL    HW1 2312   0.175   0.799   4.522
  472SOL    HW2 2313   0.052   0.906   4.534
  473SOL     OW 2314   0.130   1.821   5.295
  473SOL    HW1 2315   0.120   1.806   5.394
  473SOL    HW2 2316   0.044   1.857   5.259
  474SOL     OW 2317   0.865   0.348   3.919
  474SOL    HW1 2318   0.924   0.411   3.870
  474SOL    HW2 2319   0.884   0.254   3.890
  475SOL     OW 2320   1.719   0.585   5.555
  475SOL    HW1 2321   1.693   0.674   5.519
  475SOL    HW2 2322   1.717   0.517   5.482
  476SOL     OW 2323   1.362   1.144   4.269
  476SOL    HW1 2324   1.445   1.115   4.221
  476SOL    HW2 2325   1.313   1.211   4.213
  477SOL     OW 2326   0.550   0.196   4.609
  477SOL    HW1 2327   0.545   0.191   4.709
  477SOL    HW2 2328   0.552   0.292   4.580
  478SOL     OW 2329   1.008   1.456   4.201
  478SOL    HW1 2330   0.962   1.528   4.149
  478SOL    HW2 2331   1.004   1.476   4.299
  479SOL     OW 2332   0.351   1.801   4.577
  479SOL    HW1 2333   0.401   1.715   4.583
  479SOL    HW2 2334   0.416   1.878   4.574
  480SOL     OW 2335   1.795   1.066   4.597
  480SOL    HW1 2336   1.733   1.051   4.521
  480SOL    HW2 2337   1.743   1.077   4.682
  481SOL     OW 2338   1.227   1.550   5.230
  481SOL    HW1 2339   1.233   1.473   5.294
  481SOL    HW2 2340   1.175   1.524   5.150
  482SOL     OW 2341   0.321   0.943   3.966
  482SOL    HW1 2342   0.403   0.982   3.924
  482SOL    HW2 2343   0.294   0.861   3.917
  483SOL     OW 2344   1.458   0.735   4.452
  483SOL    HW1 2345   1.453   0.670   4.527
  483SOL    HW2 2346   1.538   0.794   4.465
  484SOL     OW 2347   0.461   1.266   5.451
  484SOL    HW1 2348   0.411   1.267   5.365
  484SOL    HW2 2349   0.398   1.248   5.527
  485SOL     OW 2350   1.111   1.776   3.961
  485SOL    HW1 2351   1.051   1.714   4.011
  485SOL    HW2 2352   1.142   1.732   3.876
  486SOL     OW 2353   0.202   0.285   5.222
  486SOL    HW1 2354   0.122   0.345   5.209
  486SOL    HW2 2355   0.192   0.236   5.308
  487SOL     OW 2356   1.632   1.377   3.805
  487SOL    HW1 2357   1.600   1.471   3.795
  487SOL    HW2 2358   1.556   1.314   3.793
  488SOL     OW 2359   0.464   1.743   4.047
  488SOL    HW1 2360   0.497   1.782   4.133
  488SOL    HW2 2361   0.540   1.736   3.982
  489SOL     OW 2362   1.400   0.107   4.150
  489SOL    HW1 2363   1.376   0.070   4.060
  489SOL    HW2 2364   1.499   0.123   4.154
  490SOL     OW 2365   0.249   1.785   4.965
  490SOL    HW1 2366   0.306   1.720   5.015
  490SOL    HW2 2367   0.233   1.752   4.872
  491SOL     OW 2368   0.940   1.698   4.628
  491SOL    HW1 2369   1.020   1.641   4.649
  491SOL    HW2 2370   0.891   1.658   4.551
  492SOL     OW 2371   0.382   0.700   4.204
  492SOL    HW1 2372   0.427   0.610   4.201
  492SOL    HW2 2373   0.288   0.689   4.237
  493SOL     OW 2374   1.547   0.222   5.453
  493SOL    HW1 2375   1.542   0.259   5.545
  493SOL    HW2 2376   1.475   0.153   5.441
  494SOL     OW 2377   0.614   0.122   3.841
  494SOL    HW1 2378   0.712   0.100   3.848
  494SOL    HW2 2379   0.583   0.105   3.748
  495SOL     OW 2380   0.781   0.264   5.473
  495SOL    HW1 2381   0.848   0.203   5.516
  495SOL    HW2 2382   0.708   0.283   5.538
  496SOL     OW 2383   0.888   1.514   4.919
  496SOL    HW1 2384   0.865   1.489   4.825
  496SOL    HW2 2385   0.949   1.445   4.958
  497SOL     OW 2386   1.351   0.590   5.157
  497SOL    HW1 2387   1.379   0.547   5.242
  497SOL    HW2 2388   1.376   0.686   5.158
  498SOL     OW 2389   0.803   1.402   4.648
  498SOL    HW1 2390   0.893   1.416   4.606
  498SOL    HW2 2391   0.732   1.404   4.577
  499SOL     OW 2392   0.922   0.503   4.623
  499SOL    HW1 2393   0.897   0.494   4.527
  499SOL    HW2 2394   0.970   0.421   4.654
  500SOL     OW 2395   0.539   0.064   4.236
  500SOL    HW1 2396   0.458   0.065   4.294
  500SOL    HW2 2397   0.542   0.147   4.181
  501SOL     OW 2398   1.434   1.188   3.765
  501SOL    HW1 2399   1.466   1.112   3.822
  501SOL    HW2 2400   1.342   1.215   3.795
  502SOL     OW 2401   0.297   0.035   3.895
  502SOL    HW1 2402   0.346   0.119   3.874
  502SOL    HW2 2403   0.359  -0.030   3.940
  503SOL     OW 2404   0.935   0.236   4.204
  503SOL    HW1 2405   0.887   0.277   4.126
  503SOL    HW2 2406   1.034   0.234   4.185
  504SOL     OW 2407   1.076   0.683   5.188
  504SOL    HW1 2408   0.996   0.622   5.191
  504SOL    HW2 2409   1.157   0.630   5.164
  505SOL     OW 2410   1.227   1.570   4.517
  505SOL    HW1 2411   1.248   1.644   4.452
  505SOL    HW2 2412   1.295   1.570   4.590
  506SOL     OW 2413   0.459   1.152   4.465
  506SOL    HW1 2414   0.388   1.125   4.530
  506SOL    HW2 2415   0.433   1.124   4.372
  507SOL     OW 2416   1.271   1.797   4.315
  507SOL    HW1 2417   1.315   1.861   4.251
  507SOL    HW2 2418   1.221   1.849   4.385
  508SOL     OW 2419   1.032   0.549   3.740
  508SOL    HW1 2420   0.991   0.631   3.701
  508SOL    HW2 2421   1.096   0.575   3.813
  509SOL     OW 2422   0.078   0.556   5.110
  509SOL    HW1 2423   0.170   0.555   5.069
  509SOL    HW2 2424   0.072   0.630   5.177
  510SOL     OW 2425   0.561   0.222   4.871
  510SOL    HW1 2426   0.599   0.138   4.908
  510SOL    HW2 2427   0.473   0.241   4.915
  511SOL     OW 2428   0.866   0.454   4.366
  511SOL    HW1 2429   0.834   0.526   4.304
  511SOL    HW2 2430   0.890   0.373   4.313
  512SOL     OW 2431   1.017   0.039   4.477
  512SOL    HW1 2432   0.945   0.044   4.408
  512SOL    HW2 2433   0.993  -0.030   4.546
  513SOL     OW 2434   1.429   1.173   4.591
  513SOL    HW1 2435   1.374   1.089   4.584
  513SOL    HW2 2436   1.455   1.202   4.499
  514SOL     OW 2437   1.466   0.590   4.716
  514SOL    HW1 2438   1.436   0.495   4.723
  514SOL    HW2 2439   1.539   0.606   4.782
  515SOL     OW 2440   1.857   0.833   4.101
  515SOL    HW1 2441   1.899   0.769   4.165
  515SOL    HW2 2442   1.819   0.782   4.023
  516SOL     OW 2443   0.488   1.385   3.898
  516SOL    HW1 2444   0.401   1.370   3.945
  516SOL    HW2 2445   0.471   1.411   3.803
  517SOL     OW 2446   1.664   1.280   4.381
  517SOL    HW1 2447   1.763   1.288   4.395
  517SOL    HW2 2448   1.619   1.364   4.412
  518SOL     OW 2449   1.390   0.575   3.802
  518SOL    HW1 2450   1.336   0.554   3.883
  518SOL    HW2 2451   1.481   0.534   3.811
  519SOL     OW 2452   0.527   0.256   4.052
  519SOL    HW1 2453   0.554   0.197   3.977
  519SOL    HW2 2454   0.527   0.351   4.021
  520SOL     OW 2455   1.754   1.223   5.312
  520SOL    HW1 2456   1.845   1.184   5.299
  520SOL    HW2 2457   1.762   1.319   5.336
  521SOL     OW 2458   1.064   1.347   5.064
  521SOL    HW1 2459   0.984   1.324   5.119
  521SOL    HW2 2460   1.147   1.321   5.113
  522SOL     OW 2461   1.592   1.629   5.349
  522SOL    HW1 2462   1.619   1.663   5.259
  522SOL    HW2 2463   1.671   1.591   5.395
  523SOL     OW 2464   1.111   1.195   4.824
  523SOL    HW1 2465   1.071   1.239   4.905
  523SOL    HW2 2466   1.070   1.232   4.741
  524SOL     OW 2467   1.638   1.099   4.803
  524SOL    HW1 2468   1.643   1.180   4.862
  524SOL    HW2 2469   1.552   1.101   4.752
  525SOL     OW 2470   0.915   0.089   5.126
  525SOL    HW1 2471   0.940   0.069   5.031
  525SOL    HW2 2472   0.987   0.145   5.168
  526SOL     OW 2473   0.980   1.116   5.443
  526SOL    HW1 2474   0.881   1.122   5.453
  526SOL    HW2 2475   1.003   1.036   5.387
  527SOL     OW 2476   0.705   1.050   4.092
  527SOL    HW1 2477   0.691   1.057   4.191
  527SOL    HW2 2478   0.789   0.999   4.074
  528SOL     OW 2479   0.410   0.813   4.975
  528SOL    HW1 2480   0.496   0.825   5.025
  528SOL    HW2 2481   0.368   0.726   5.002
  529SOL     OW 2482   1.274   0.386   4.986
  529SOL    HW1 2483   1.295   0.460   5.050
  529SOL    HW2 2484   1.185   0.403   4.943
  530SOL     OW 2485   0.064   1.564   5.055
  530SOL    HW1 2486   0.018   1.646   5.021
  530SOL    HW2 2487   0.162   1.583   5.064
  531SOL     OW 2488   0.367   1.100   4.225
  531SOL    HW1 2489   0.360   1.183   4.169
  531SOL    HW2 2490   0.371   1.020   4.165
  532SOL     OW 2491   0.566   0.537   4.589
  532SOL    HW1 2492   0.578   0.603   4.515
  532SOL    HW2 2493   0.612   0.571   4.672
  533SOL     OW 2494   1.252   1.348   4.112
  533SOL    HW1 2495   1.302   1.425   4.152
  533SOL    HW2 2496   1.157   1.350   4.144
  534SOL     OW 2497   1.272   1.445   4.866
  534SOL    HW1 2498   1.319   1.458   4.953
  534SOL    HW2 2499   1.206   1.371   4.875
  535SOL     OW 2500   1.582   0.639   4.196
  535SOL    HW1 2501   1.551   0.700   4.269
  535SOL    HW2 2502   1.632   0.691   4.127
  536SOL     OW 2503   0.354   1.510   5.053
  536SOL    HW1 2504   0.333   1.466   4.966
  536SOL    HW2 2505   0.451   1.536   5.056
  537SOL     OW 2506   0.402   0.751   5.322
  537SOL    HW1 2507   0.470   0.806   5.275
  537SOL    HW2 2508   0.442   0.663   5.349
  538SOL     OW 2509   1.587   0.779   5.394
  538SOL    HW1 2510   1.495   0.817   5.389
  538SOL    HW2 2511   1.647   0.826   5.329
  539SOL     OW 2512   1.013   0.105   5.494
  539SOL    HW1 2513   1.019   0.190   5.442
  539SOL    HW2 2514   1.045   0.029   5.437
  540SOL     OW 2515   0.504   0.050   5.464
  540SOL    HW1 2516   0.462  -0.007   5.394
  540SOL    HW2 2517   0.438   0.119   5.496
  541SOL     OW 2518   0.573   0.870   4.753
  541SOL    HW1 2519   0.617   0.959   4.744
  541SOL    HW2 2520   0.510   0.870   4.830
  542SOL     OW 2521   1.360   0.862   4.769
  542SOL    HW1 2522   1.285   0.862   4.703
  542SOL    HW2 2523   1.397   0.770   4.778
  543SOL     OW 2524   1.209   0.525   3.999
  543SOL    HW1 2525   1.222   0.441   4.053
  543SOL    HW2 2526   1.180   0.599   4.059
  544SOL     OW 2527   0.307   0.213   4.955
  544SOL    HW1 2528   0.284   0.250   5.045
  544SOL    HW2 2529   0.277   0.118   4.949
  545SOL     OW 2530   0.037   1.310   5.006
  545SOL    HW1 2531   0.090   1.261   5.074
  545SOL    HW2 2532   0.059   1.408   5.011
  546SOL     OW 2533   0.732   0.634   4.788
  546SOL    HW1 2534   0.791   0.608   4.712
  546SOL    HW2 2535   0.704   0.730   4.777
  547SOL     OW 2536   1.728   0.935   5.578
  547SOL    HW1 2537   1.682   0.928   5.489
  547SOL    HW2 2538   1.666   0.979   5.644
  548SOL     OW 2539   0.307   0.063   4.342
  548SOL    HW1 2540   0.296   0.157   4.375
  548SOL    HW2 2541   0.302   0.000   4.419
  549SOL     OW 2542   1.622   0.367   4.098
  549SOL    HW1 2543   1.624   0.291   4.162
  549SOL    HW2 2544   1.574   0.444   4.138
  550SOL     OW 2545   1.023   0.766   4.690
  550SOL    HW1 2546   1.038   0.787   4.786
  550SOL    HW2 2547   0.993   0.671   4.681
  551SOL     OW 2548   0.980   1.573   5.424
  551SOL    HW1 2549   0.960   1.617   5.336
  551SOL    HW2 2550   1.019   1.482   5.408
  552SOL     OW 2551   1.859   1.518   5.329
  552SOL    HW1 2552   1.873   1.545   5.234
  552SOL    HW2 2553   1.942   1.540   5.382
  553SOL     OW 2554   0.350   0.898   5.528
  553SOL    HW1 2555   0.426   0.942   5.576
  553SOL    HW2 2556   0.385   0.851   5.446
  554SOL     OW 2557   1.540   0.274   3.849
  554SOL    HW1 2558   1.479   0.199   3.872
  554SOL    HW2 2559   1.562   0.326   3.932
  555SOL     OW 2560   1.303   0.838   3.766
  555SOL    HW1 2561   1.337   0.745   3.781
  555SOL    HW2 2562   1.321   0.865   3.671
  556SOL     OW 2563   1.068   1.333   4.573
  556SOL    HW1 2564   1.075   1.249   4.518
  556SOL    HW2 2565   1.130   1.402   4.537
  557SOL     OW 2566   0.319   0.810   4.673
  557SOL    HW1 2567   0.412   0.846   4.678
  557SOL    HW2 2568   0.313   0.725   4.725
  558SOL     OW 2569   0.339   0.509   4.730
  558SOL    HW1 2570   0.287   0.426   4.713
  558SOL    HW2 2571   0.416   0.514   4.666
  559SOL     OW 2572   1.138   0.380   5.402
  559SOL    HW1 2573   1.093   0.443   5.466
  559SOL    HW2 2574   1.231   0.411   5.385
  560SOL     OW 2575   1.160   0.207   5.201
  560SOL    HW1 2576   1.160   0.271   5.278
  560SOL    HW2 2577   1.188   0.255   5.118
  561SOL     OW 2578   0.008   1.326   3.924
  561SOL    HW1 2579  -0.085   1.347   3.893
  561SOL    HW2 2580   0.018   1.227   3.937
  562SOL     OW 2581   0.088   1.801   4.651
  562SOL    HW1 2582   0.046   1.715   4.624
  562SOL    HW2 2583   0.182   1.804   4.617
  563SOL     OW 2584   0.504   1.568   4.634
  563SOL    HW1 2585   0.570   1.642   4.643
  563SOL    HW2 2586   0.548   1.489   4.592
  564SOL     OW 2587   1.002   0.796   4.962
  564SOL    HW1 2588   1.043   0.764   5.048
  564SOL    HW2 2589   0.906   0.769   4.959
  565SOL     OW 2590   0.040   0.544   4.838
  565SOL    HW1 2591   0.125   0.511   4.797
  565SOL    HW2 2592   0.053   0.559   4.936
  566SOL     OW 2593   0.189   0.520   5.446
  566SOL    HW1 2594   0.248   0.480   5.376
  566SOL    HW2 2595   0.131   0.591   5.405
  567SOL     OW 2596   1.369   0.950   5.384
  567SOL    HW1 2597   1.408   1.039   5.404
  567SOL    HW2 2598   1.379   0.930   5.287
  568SOL     OW 2599   0.815   0.572   4.049
  568SOL    HW1 2600   0.822   0.483   4.003
  568SOL    HW2 2601   0.721   0.606   4.041
  569SOL     OW 2602   1.657   0.604   4.930
  569SOL    HW1 2603   1.619   0.535   4.992
  569SOL    HW2 2604   1.739   0.568   4.886
  570SOL     OW 2605   0.252   1.564   5.468
  570SOL    HW1 2606   0.222   1.621   5.544
  570SOL    HW2 2607   0.245   1.467   5.494
  571SOL     OW 2608   0.671   0.464   4.993
  571SOL    HW1 2609   0.637   0.375   4.963
  571SOL    HW2 2610   0.697   0.518   4.913
  572SOL     OW 2611   0.930   1.678   5.189
  572SOL    HW1 2612   0.906   1.660   5.094
  572SOL    HW2 2613   0.960   1.772   5.199
  573SOL     OW 2614   0.473   0.500   3.915
  573SOL    HW1 2615   0.534   0.580   3.919
  573SOL    HW2 2616   0.378   0.531   3.922
  574SOL     OW 2617   0.159   1.137   5.190
  574SOL    HW1 2618   0.181   1.076   5.266
  574SOL    HW2 2619   0.169   1.088   5.104
  575SOL     OW 2620   1.347   1.059   4.958
  575SOL    HW1 2621   1.371   0.996   4.884
  575SOL    HW2 2622   1.257   1.099   4.940
  576SOL     OW 2623   1.302   0.855   4.033
  576SOL    HW1 2624   1.216   0.824   4.075
  576SOL    HW2 2625   1.298   0.841   3.934
  577SOL     OW 2626   1.759   1.747   4.878
  577SOL    HW1 2627   1.820   1.777   4.805
  577SOL    HW2 2628   1.721   1.658   4.856
  578SOL     OW 2629   1.252   1.731   4.852
  578SOL    HW1 2630   1.336   1.736   4.798
  578SOL    HW2 2631   1.229   1.635   4.870
  579SOL     OW 2632   0.083   1.258   4.746
  579SOL    HW1 2633   0.078   1.257   4.846
  579SOL    HW2 2634   0.000   1.217   4.708
  580SOL     OW 2635   0.688   1.662   5.440
  580SOL    HW1 2636   0.632   1.743   5.449
  580SOL    HW2 2637   0.740   1.666   5.354
  581SOL     OW 2638   1.726   0.135   4.247
  581SOL    HW1 2639   1.799   0.118   4.180
  581SOL    HW2 2640   1.695   0.048   4.285
  582SOL     OW 2641   1.388   1.573   4.201
  582SOL    HW1 2642   1.455   1.585   4.127
  582SOL    HW2 2643   1.348   1.662   4.224
  583SOL     OW 2644   0.130   1.794   5.575
  583SOL    HW1 2645   0.089   1.720   5.628
  583SOL    HW2 2646   0.194   1.845   5.633
  584SOL     OW 2647   1.280   0.927   4.396
  584SOL    HW1 2648   1.340   0.846   4.398
  584SOL    HW2 2649   1.320   0.996   4.336
  585SOL     OW 2650   0.830   1.273   5.146
  585SOL    HW1 2651   0.825   1.306   5.241
  585SOL    HW2 2652   0.744   1.292   5.100
  586SOL     OW 2653   0.672   1.616   3.878
  586SOL    HW1 2654   0.681   1.626   3.779
  586SOL    HW2 2655   0.632   1.527   3.899
  587SOL     OW 2656   1.650   1.720   5.118
  587SOL    HW1 2657   1.703   1.730   5.034
  587SOL    HW2 2658   1.623   1.810   5.152
  588SOL     OW 2659   1.841   0.175   4.687
  588SOL    HW1 2660   1.880   0.090   4.651
  588SOL    HW2 2661   1.743   0.177   4.668
  589SOL     OW 2662   0.263   0.326   4.444
  589SOL    HW1 2663   0.184   0.377   4.410
  589SOL    HW2 2664   0.254   0.311   4.542
  590SOL     OW 2665   1.194   1.612   3.755
  590SOL    HW1 2666   1.200   1.519   3.792
  590SOL    HW2 2667   1.135   1.612   3.675
  591SOL     OW 2668   0.822   1.002   5.096
  591SOL    HW1 2669   0.862   1.001   5.004
  591SOL    HW2 2670   0.832   1.094   5.136
  592SOL     OW 2671   0.916   0.910   4.015
  592SOL    HW1 2672   0.979   0.948   3.947
  592SOL    HW2 2673   0.956   0.827   4.054
  593SOL     OW 2674   1.504   1.607   3.768
  593SOL    HW1 2675   1.412   1.644   3.775
  593SOL    HW2 2676   1.542   1.627   3.678
  594SOL     OW 2677   0.372   1.288   5.214
  594SOL    HW1 2678   0.359   1.381   5.180
  594SOL    HW2 2679   0.288   1.236   5.201
  595SOL     OW 2680   1.614   1.292   5.013
  595SOL    HW1 2681   1.674   1.295   5.093
  595SOL    HW2 2682   1.539   1.356   5.026
  596SOL     OW 2683   1.039   1.098   4.420
  596SOL    HW1 2684   0.969   1.051   4.474
  596SOL    HW2 2685   1.098   1.030   4.377
  597SOL     OW 2686   1.014   0.236   4.695
  597SOL    HW1 2687   1.006   0.200   4.602
  597SOL    HW2 2688   1.012   0.160   4.760
  598SOL     OW 2689   0.590   1.487   4.215
  598SOL    HW1 2690   0.632   1.429   4.145
  598SOL    HW2 2691   0.546   1.566   4.171
  599SOL     OW 2692   1.709   0.385   5.105
  599SOL    HW1 2693   1.782   0.454   5.109
  599SOL    HW2 2694   1.737   0.310   5.046
  600SOL     OW 2695   0.255   1.348   4.014
  600SOL    HW1 2696   0.159   1.349   3.987
  600SOL    HW2 2697   0.267   1.401   4.098
  601SOL     OW 2698   0.105   1.013   5.450
  601SOL    HW1 2699   0.028   0.980   5.504
  601SOL    HW2 2700   0.190   0.983   5.492
  602SOL     OW 2701   0.672   0.203   5.213
  602SOL    HW1 2702   0.762   0.187   5.173
  602SOL    HW2 2703   0.680   0.208   5.312
  603SOL     OW 2704   0.075   0.345   3.757
  603SOL    HW1 2705  -0.017   0.317   3.728
  603SOL    HW2 2706   0.106   0.422   3.701
  604SOL     OW 2707   1.440   0.856   5.122
  604SOL    HW1 2708   1.383   0.908   5.059
  604SOL    HW2 2709   1.536   0.868   5.098
  605SOL     OW 2710   0.072   0.166   4.042
  605SOL    HW1 2711   0.055   0.249   3.988
  605SOL    HW2 2712   0.162   0.129   4.020
  606SOL     OW 2713   1.183   1.335   3.843
  606SOL    HW1 2714   1.084   1.324   3.845
  606SOL    HW2 2715   1.217   1.350   3.936
  607SOL     OW 2716   0.613   0.842   5.155
  607SOL    HW1 2717   0.669   0.923   5.138
  607SOL    HW2 2718   0.672   0.762   5.158
  608SOL     OW 2719   1.493   1.767   4.683
  608SOL    HW1 2720   1.526   1.831   4.614
  608SOL    HW2 2721   1.559   1.761   4.758
  609SOL     OW 2722   0.716   0.565   5.432
  609SOL    HW1 2723   0.735   0.630   5.506
  609SOL    HW2 2724   0.776   0.485   5.441
  610SOL     OW 2725   1.450   1.220   5.357
  610SOL    HW1 2726   1.441   1.210   5.456
  610SOL    HW2 2727   1.546   1.213   5.331
  611SOL     OW 2728   0.390   1.741   5.284
  611SOL    HW1 2729   0.299   1.782   5.282
  611SOL    HW2 2730   0.383   1.647   5.316
  612SOL     OW 2731   1.674   0.883   4.978
  612SOL    HW1 2732   1.647   0.794   4.941
  612SOL    HW2 2733   1.675   0.951   4.905
  613SOL     OW 2734   1.225   0.325   4.173
  613SOL    HW1 2735   1.290   0.251   4.162
  613SOL    HW2 2736   1.245   0.375   4.257
  614SOL     OW 2737   0.594   0.745   4.376
  614SOL    HW1 2738   0.644   0.830   4.357
  614SOL    HW2 2739   0.506   0.747   4.328
  615SOL     OW 2740   1.777   0.342   5.366
  615SOL    HW1 2741   1.760   0.373   5.272
  615SOL    HW2 2742   1.693   0.305   5.404
  616SOL     OW 2743   1.730   0.934   5.241
  616SOL    HW1 2744   1.768   1.025   5.256
  616SOL    HW2 2745   1.722   0.917   5.142
  617SOL     OW 2746   0.859   1.374   3.740
  617SOL    HW1 2747   0.813   1.389   3.828
  617SOL    HW2 2748   0.903   1.459   3.710
  618SOL     OW 2749   0.661   1.790   4.677
  618SOL    HW1 2750   0.615   1.878   4.664
  618SOL    HW2 2751   0.760   1.802   4.670
  619SOL     OW 2752   0.859   0.956   4.585
  619SOL    HW1 2753   0.913   0.887   4.633
  619SOL    HW2 2754   0.827   1.025   4.651
  620SOL     OW 2755   1.083   0.984   3.811
  620SOL    HW1 2756   1.060   1.037   3.729
  620SOL    HW2 2757   1.164   0.928   3.792
  621SOL     OW 2758   1.861   1.569   4.575
  621SOL    HW1 2759   1.790   1.557   4.505
  621SOL    HW2 2760   1.862   1.490   4.635
  622SOL     OW 2761   0.221   1.314   5.568
  622SOL    HW1 2762   0.156   1.241   5.547
  622SOL    HW2 2763   0.225   1.328   5.666
  623SOL     OW 2764   0.079   1.240   4.377
  623SOL    HW1 2765   0.078   1.193   4.465
  623SOL    HW2 2766   0.161   1.212   4.326
  624SOL     OW 2767   0.672   1.391   5.348
  624SOL    HW1 2768   0.594   1.341   5.386
  624SOL    HW2 2769   0.669   1.486   5.379
  625SOL     OW 2770   1.824   0.192   4.951
  625SOL    HW1 2771   1.820   0.102   4.995
  625SOL    HW2 2772   1.827   0.181   4.852
  626SOL     OW 2773   0.428   0.424   4.244
  626SOL    HW1 2774   0.458   0.352   4.182
  626SOL    HW2 2775   0.389   0.384   4.327
  627SOL     OW 2776   1.705   1.487   4.828
  627SOL    HW1 2777   1.612   1.462   4.801
  627SOL    HW2 2778   1.731   1.437   4.910
  628SOL     OW 2779   0.317   0.547   5.004
  628SOL    HW1 2780   0.355   0.488   5.076
  628SOL    HW2 2781   0.357   0.521   4.916
  629SOL     OW 2782   0.812   1.586   4.411
  629SOL    HW1 2783   0.844   1.596   4.317
  629SOL    HW2 2784   0.733   1.524   4.413
  630SOL     OW 2785   1.424   0.214   4.836
  630SOL    HW1 2786   1.476   0.149   4.891
  630SOL    HW2 2787   1.375   0.277   4.897
  631SOL     OW 2788   1.001   0.034   4.878
  631SOL    HW1 2789   0.938  -0.038   4.847
  631SOL    HW2 2790   1.094  -0.002   4.878
  632SOL     OW 2791   0.770   1.330   4.025
  632SOL    HW1 2792   0.724   1.243   4.042
  632SOL    HW2 2793   0.861   1.327   4.066
  633SOL     OW 2794   0.618   1.567   5.008
  633SOL    HW1 2795   0.613   1.649   5.065
  633SOL    HW2 2796   0.707   1.564   4.963
  634SOL     OW 2797   1.352   0.052   3.892
  634SOL    HW1 2798   1.387   0.011   3.808
  634SOL    HW2 2799   1.262   0.014   3.912
  635SOL     OW 2800   1.300   0.453   4.415
  635SOL    HW1 2801   1.241   0.533   4.419
  635SOL    HW2 2802   1.315   0.418   4.508
  636SOL     OW 2803   1.593   0.221   4.606
  636SOL    HW1 2804   1.509   0.220   4.660
  636SOL    HW2 2805   1.595   0.304   4.550
  637SOL     OW 2806   0.039   1.077   4.024
  637SOL    HW1 2807   0.138   1.066   4.015
  637SOL    HW2 2808  -0.001   0.991   4.056
  638SOL     OW 2809   0.875   1.646   4.061
  638SOL    HW1 2810   0.798   1.611   4.007
  638SOL    HW2 2811   0.843   1.717   4.123
  639SOL     OW 2812   0.230   0.628   5.699
  639SOL    HW1 2813   0.137   0.626   5.736
  639SOL    HW2 2814   0.231   0.589   5.607
  640SOL     OW 2815   0.225   0.275   6.582
  640SOL    HW1 2816   0.260   0.258   6.674
  640SOL    HW2 2817   0.137   0.230   6.570
  641SOL     OW 2818   0.019   0.368   6.233
  641SOL    HW1 2819  -0.063   0.411   6.272
  641SOL    HW2 2820  -0.009   0.295   6.170
  642SOL     OW 2821   0.569   1.275   6.751
  642SOL    HW1 2822   0.476   1.268   6.714
  642SOL    HW2 2823   0.580   1.364   6.795
  643SOL     OW 2824   1.555   1.511   6.289
  643SOL    HW1 2825   1.498   1.495   6.370
  643SOL    HW2 2826   1.496   1.521   6.209
  644SOL     OW 2827   1.135   0.703   6.303
  644SOL    HW1 2828   1.192   0.781   6.278
  644SOL    HW2 2829   1.075   0.729   6.379
  645SOL     OW 2830   1.755   0.607   5.817
  645SOL    HW1 2831   1.743   0.594   5.718
  645SOL    HW2 2832   1.725   0.526   5.866
  646SOL     OW 2833   0.768   1.144   6.609
  646SOL    HW1 2834   0.690   1.161   6.669
  646SOL    HW2 2835   0.802   1.231   6.573
  647SOL     OW 2836   0.850   0.798   7.409
  647SOL    HW1 2837   0.846   0.874   7.474
  647SOL    HW2 2838   0.872   0.834   7.318
  648SOL     OW 2839   0.685   1.012   6.251
  648SOL    HW1 2840   0.754   0.996   6.321
  648SOL    HW2 2841   0.612   1.069   6.289
  649SOL     OW 2842   0.686   1.161   7.389
  649SOL    HW1 2843   0.746   1.240   7.403
  649SOL    HW2 2844   0.600   1.192   7.348
  650SOL     OW 2845   0.335   1.435   6.647
  650SOL    HW1 2846   0.257   1.404   6.594
  650SOL    HW2 2847   0.393   1.493   6.590
  651SOL     OW 2848   1.460   1.505   6.925
  651SOL    HW1 2849   1.484   1.599   6.951
  651SOL    HW2 2850   1.444   1.451   7.007
  652SOL     OW 2851   0.438   0.392   7.085
  652SOL    HW1 2852   0.520   0.336   7.094
  652SOL    HW2 2853   0.357   0.334   7.089
  653SOL     OW 2854   1.603   0.447   6.323
  653SOL    HW1 2855   1.529   0.493   6.273
  653SOL    HW2 2856   1.654   0.515   6.376
  654SOL     OW 2857   0.231   1.713   6.069
  654SOL    HW1 2858   0.265   1.790   6.123
  654SOL    HW2 2859   0.275   1.713   5.979
  655SOL     OW 2860   1.127   1.341   7.276
  655SOL    HW1 2861   1.174   1.341   7.364
  655SOL    HW2 2862   1.079   1.254   7.265
  656SOL     OW 2863   0.230   1.434   6.124
  656SOL    HW1 2864   0.204   1.530   6.124
  656SOL    HW2 2865   0.159   1.380   6.169
  657SOL     OW 2866   0.240   1.091   6.472
  657SOL    HW1 2867   0.254   1.007   6.524
  657SOL    HW2 2868   0.185   1.155   6.527
  658SOL     OW 2869   0.620   1.786   7.025
  658SOL    HW1 2870   0.528   1.769   7.060
  658SOL    HW2 2871   0.648   1.878   7.051
  659SOL     OW 2872   0.606   0.964   5.709
  659SOL    HW1 2873   0.613   1.048   5.655
  659SOL    HW2 2874   0.652   0.977   5.797
  660SOL     OW 2875   1.594   0.114   7.066
  660SOL    HW1 2876   1.576   0.181   6.994
  660SOL    HW2 2877   1.591   0.160   7.155
  661SOL     OW 2878   0.122   0.643   6.149
  661SOL    HW1 2879   0.077   0.555   6.166
  661SOL    HW2 2880   0.121   0.697   6.233
  662SOL     OW 2881   1.842   1.767   5.945
  662SOL    HW1 2882   1.896   1.738   6.025
  662SOL    HW2 2883   1.872   1.857   5.916
  663SOL     OW 2884   0.027   1.596   5.703
  663SOL    HW1 2885   0.008   1.500   5.724
  663SOL    HW2 2886  -0.006   1.654   5.778
  664SOL     OW 2887   1.689   0.922   6.198
  664SOL    HW1 2888   1.784   0.893   6.206
  664SOL    HW2 2889   1.681   0.987   6.123
  665SOL     OW 2890   1.641   1.108   6.018
  665SOL    HW1 2891   1.727   1.110   5.966
  665SOL    HW2 2892   1.655   1.155   6.106
  666SOL     OW 2893   0.113   0.737   7.183
  666SOL    HW1 2894   0.201   0.724   7.228
  666SOL    HW2 2895   0.100   0.834   7.161
  667SOL     OW 2896   0.613   1.365   6.312
  667SOL    HW1 2897   0.564   1.278   6.321
  667SOL    HW2 2898   0.590   1.408   6.225
  668SOL     OW 2899   1.293   1.228   7.009
  668SOL    HW1 2900   1.330   1.155   6.951
  668SOL    HW2 2901   1.345   1.233   7.094
  669SOL     OW 2902   0.809   0.004   6.088
  669SOL    HW1 2903   0.849   0.095   6.079
  669SOL    HW2 2904   0.709   0.012   6.094
  670SOL     OW 2905   0.197   0.976   6.850
  670SOL    HW1 2906   0.286   0.931   6.836
  670SOL    HW2 2907   0.124   0.911   6.831
  671SOL     OW 2908   1.525   0.999   5.776
  671SOL    HW1 2909   1.462   0.923   5.789
  671SOL    HW2 2910   1.573   1.017   5.862
  672SOL     OW 2911   1.187   1.792   7.202
  672SOL    HW1 2912   1.211   1.852   7.126
  672SOL    HW2 2913   1.194   1.697   7.172
  673SOL     OW 2914   0.317   0.251   7.387
  673SOL    HW1 2915   0.388   0.322   7.393
  673SOL    HW2 2916   0.229   0.290   7.415
  674SOL     OW 2917   1.466   1.417   6.539
  674SOL    HW1 2918   1.407   1.423   6.619
  674SOL    HW2 2919   1.451   1.329   6.493
  675SOL     OW 2920   1.667   1.714   6.158
  675SOL    HW1 2921   1.626   1.691   6.070
  675SOL    HW2 2922   1.649   1.640   6.223
  676SOL     OW 2923   0.598   0.729   5.856
  676SOL    HW1 2924   0.622   0.798   5.788
  676SOL    HW2 2925   0.520   0.762   5.910
  677SOL     OW 2926   1.281   0.345   6.530
  677SOL    HW1 2927   1.195   0.295   6.517
  677SOL    HW2 2928   1.343   0.291   6.586
  678SOL     OW 2929   1.576   1.662   5.893
  678SOL    HW1 2930   1.665   1.708   5.896
  678SOL    HW2 2931   1.555   1.638   5.798
  679SOL     OW 2932   0.807   0.605   7.051
  679SOL    HW1 2933   0.760   0.602   7.140
  679SOL    HW2 2934   0.756   0.550   6.985
  680SOL     OW 2935   1.394   0.469   7.260
  680SOL    HW1 2936   1.374   0.512   7.348
  680SOL    HW2 2937   1.472   0.407   7.269
  681SOL     OW 2938   0.973   0.890   7.158
  681SOL    HW1 2939   1.019   0.806   7.129
  681SOL    HW2 2940   0.917   0.924   7.083
  682SOL     OW 2941   0.991   0.410   6.828
  682SOL    HW1 2942   0.914   0.444   6.882
  682SOL    HW2 2943   0.957   0.359   6.749
  683SOL     OW 2944   1.041   0.701   6.015
  683SOL    HW1 2945   1.067   0.697   6.111
  683SOL    HW2 2946   0.956   0.650   6.001
  684SOL     OW 2947   0.076   0.811   6.375
  684SOL    HW1 2948   0.175   0.799   6.384
  684SOL    HW2 2949   0.052   0.906   6.396
  685SOL     OW 2950   0.130   1.821   7.157
  685SOL    HW1 2951   0.120   1.806   7.256
  685SOL    HW2 2952   0.044   1.857   7.121
  686SOL     OW 2953   0.865   0.348   5.781
  686SOL    HW1 2954   0.924   0.411   5.732
  686SOL    HW2 2955   0.884   0.254   5.752
  687SOL     OW 2956   1.719   0.585   7.417
  687SOL    HW1 2957   1.693   0.674   7.381
  687SOL    HW2 2958   1.717   0.517   7.344
  688SOL     OW 2959   1.362   1.144   6.131
  688SOL    HW1 2960   1.445   1.115   6.083
  688SOL    HW2 2961   1.313   1.211   6.075
  689SOL     OW 2962   0.550   0.196   6.471
  689SOL    HW1 2963   0.545   0.191   6.571
  689SOL    HW2 2964   0.552   0.292   6.442
  690SOL     OW 2965   1.008   1.456   6.063
  690SOL    HW1 2966   0.962   1.528   6.011
  690SOL    HW2 2967   1.004   1.476   6.161
  691SOL     OW 2968   0.351   1.801   6.439
  691SOL    HW1 2969   0.401   1.715   6.445
  691SOL    HW2 2970   0.416   1.878   6.436
  692SOL     OW 2971   1.795   1.066   6.459
  692SOL    HW1 2972   1.733   1.051   6.383
  692SOL    HW2 2973   1.743   1.077   6.544
  693SOL     OW 2974   1.227   1.550   7.092
  693SOL    HW1 2975   1.233   1.473   7.156
  693SOL    HW2 2976   1.175   1.524   7.012
  694SOL     OW 2977   0.321   0.943   5.828
  694SOL    HW1 2978   0.403   0.982   5.786
  694SOL    HW2 2979   0.294   0.861   5.779
  695SOL     OW 2980   1.458   0.735   6.314
  695SOL    HW1 2981   1.453   0.670   6.389
  695SOL    HW2 2982   1.538   0.794   6.327
  696SOL     OW 2983   0.461   1.266   7.313
  696SOL    HW1 2984   0.411   1.267   7.227
  696SOL    HW2 2985   0.398   1.248   7.389
  697SOL     OW 2986   1.111   1.776   5.823
  697SOL    HW1 2987   1.051   1.714   5.873
  697SOL    HW2 2988   1.142   1.732   5.738
  698SOL     OW 2989   0.202   0.285   7.084
  698SOL    HW1 2990   0.122   0.345   7.071
  698SOL    HW2 2991   0.192   0.236   7.170
  699SOL     OW 2992   1.632   1.377   5.667
  699SOL    HW1 2993   1.600   1.471   5.657
  699SOL    HW2 2994   1.556   1.314   5.655
  700SOL     OW 2995   0.464   1.743   5.909
  700SOL    HW1 2996   0.497   1.782   5.995
  700SOL    HW2 2997   0.540   1.736   5.844
  701SOL     OW 2998   1.400   0.107   6.012
  701SOL    HW1 2999   1.376   0.070   5.922
  701SOL    HW2 3000   1.499   0.123   6.016
  702SOL     OW 3001   0.249   1.785   6.827
  702SOL    HW1 3002   0.306   1.720   6.877
  702SOL    HW2 3003   0.233   1.752   6.734
  703SOL     OW 3004   0.940   1.698   6.490
  703SOL    HW1 3005   1.020   1.641   6.511
  703SOL    HW2 3006   0.891   1.658   6.413
  704SOL     OW 3007   0.382   0.700   6.066
  704SOL    HW1 3008   0.427   0.610   6.063
  704SOL    HW2 3009   0.288   0.689   6.099
  705SOL     OW 3010   1.547   0.222   7.315
  705SOL    HW1 3011   1.542   0.259   7.407
  705SOL    HW2 3012   1.475   0.153   7.303
  706SOL     OW 3013   0.614   0.122   5.703
  706SOL    HW1 3014   0.712   0.100   5.710
  706SOL    HW2 3015   0.583   0.105   5.610
  707SOL     OW 3016   0.781   0.264   7.335
  707SOL    HW1 3017   0.848   0.203   7.378
  707SOL    HW2 3018   0.708   0.283   7.400
  708SOL     OW 3019   0.888   1.514   6.781
  708SOL    HW1 3020   0.865   1.489   6.687
  708SOL    HW2 3021   0.949   1.445   6.820
  709SOL     OW 3022   1.351   0.590   7.019
  709SOL    HW1 3023   1.379   0.547   7.104
  709SOL    HW2 3024   1.376   0.686   7.020
  710SOL     OW 3025   0.803   1.402   6.510
  710SOL    HW1 3026   0.893   1.416   6.468
  710SOL    HW2 3027   0.732   1.404   6.439
  711SOL     OW 3028   0.922   0.503   6.485
  711SOL    HW1 3029   0.897   0.494   6.389
  711SOL    HW2 3030   0.970   0.421   6.516
  712SOL     OW 3031   0.539   0.064   6.098
  712SOL    HW1 3032   0.458   0.065   6.156
  712SOL    HW2 3033   0.542   0.147   6.043
  713SOL     OW 3034   1.434   1.188   5.627
  713SOL    HW1 3035   1.466   1.112   5.684
  713SOL    HW2 3036   1.342   1.215   5.657
  714SOL     OW 3037   0.297   0.035   5.757
  714SOL    HW1 3038   0.346   0.119   5.736
  714SOL    HW2 3039   0.359  -0.030   5.802
  715SOL     OW 3040   0.935   0.236   6.066
  715SOL    HW1 3041   0.887   0.277   5.988
  715SOL    HW2 3042   1.034   0.234   6.047
  716SOL     OW 3043   1.076   0.683   7.050
  716SOL    HW1 3044   0.996   0.622   7.053
  716SOL    HW2 3045   1.157   0.630   7.026
  717SOL     OW 3046   1.227   1.570   6.379
  717SOL    HW1 3047   1.248   1.644   6.314
  717SOL    HW2 3048   1.295   1.570   6.452
  718SOL     OW 3049   0.459   1.152   6.327
  718SOL    HW1 3050   0.388   1.125   6.392
  718SOL    HW2 3051   0.433   1.124   6.234
  719SOL     OW 3052   1.271   1.797   6.177
  719SOL    HW1 3053   1.315   1.861   6.113
  719SOL    HW2 3054   1.221   1.849   6.247
  720SOL     OW 3055   1.032   0.549   5.602
  720SOL    HW1 3056   0.991   0.631   5.563
  720SOL    HW2 3057   1.096   0.575   5.675
  721SOL     OW 3058   0.078   0.556   6.972
  721SOL    HW1 3059   0.170   0.555   6.931
  721SOL    HW2 3060   0.072   0.630   7.039
  722SOL     OW 3061   0.561   0.222   6.733
  722SOL    HW1 3062   0.599   0.138   6.770
  722SOL    HW2 3063   0.473   0.241   6.777
  723SOL     OW 3064   0.866   0.454   6.228
  723SOL    HW1 3065   0.834   0.526   6.166
  723SOL    HW2 3066   0.890   0.373   6.175
  724SOL     OW 3067   1.017   0.039   6.339
  724SOL    HW1 3068   0.945   0.044   6.270
  724SOL    HW2 3069   0.993  -0.030   6.408
  725SOL     OW 3070   1.429   1.173   6.453
  725SOL    HW1 3071   1.374   1.089   6.446
  725SOL    HW2 3072   1.455   1.202   6.361
  726SOL     OW 3073   1.466   0.590   6.578
  726SOL    HW1 3074   1.436   0.495   6.585
  726SOL    HW2 3075   1.539   0.606   6.644
  727SOL     OW 3076   1.857   0.833   5.963
  727SOL    HW1 3077   1.899   0.769   6.027
  727SOL    HW2 3078   1.819   0.782   5.885
  728SOL     OW 3079   0.488   1.385   5.760
  728SOL    HW1 3080   0.401   1.370   5.807
  728SOL    HW2 3081   0.471   1.411   5.665
  729SOL     OW 3082   1.664   1.280   6.243
  729SOL    HW1 3083   1.763   1.288   6.257
  729SOL    HW2 3084   1.619   1.364   6.274
  730SOL     OW 3085   1.390   0.575   5.664
  730SOL    HW1 3086   1.336   0.554   5.745
  730SOL    HW2 3087   1.481   0.534   5.673
  731SOL     OW 3088   0.527   0.256   5.914
  731SOL    HW1 3089   0.554   0.197   5.839
  731SOL    HW2 3090   0.527   0.351   5.883
  732SOL     OW 3091   1.754   1.223   7.174
  732SOL    HW1 3092   1.845   1.184   7.161
  732SOL    HW2 3093   1.762   1.319   7.198
  733SOL     OW 3094   1.064   1.347   6.926
  733SOL    HW1 3095   0.984   1.324   6.981
  733SOL    HW2 3096   1.147   1.321   6.975
  734SOL     OW 3097   1.592   1.629   7.211
  734SOL    HW1 3098   1.619   1.663   7.121
  734SOL    HW2 3099   1.671   1.591   7.257
  735SOL     OW 3100   1.111   1.195   6.686
  735SOL    HW1 3101   1.071   1.239   6.767
  735SOL    HW2 3102   1.070   1.232   6.603
  736SOL     OW 3103   1.638   1.099   6.665
  736SOL    HW1 3104   1.643   1.180   6.724
  736SOL    HW2 3105   1.552   1.101   6.614
  737SOL     OW 3106   0.915   0.089   6.988
  737SOL    HW1 3107   0.940   0.069   6.893
  737SOL    HW2 3108   0.987   0.145   7.030
  738SOL     OW 3109   0.980   1.116   7.305
  738SOL    HW1 3110   0.881   1.122   7.315
  738SOL    HW2 3111   1.003   1.036   7.249
  739SOL     OW 3112   0.705   1.050   5.954
  739SOL    HW1 3113   0.691   1.057   6.053
  739SOL    HW2 3114   0.789   0.999   5.936
  740SOL     OW 3115   0.410   0.813   6.837
  740SOL    HW1 3116   0.496   0.825   6.887
  740SOL    HW2 3117   0.368   0.726   6.864
  741SOL     OW 3118   1.274   0.386   6.848
  741SOL    HW1 3119   1.295   0.460   6.912
  741SOL    HW2 3120   1.185   0.403   6.805
  742SOL     OW 3121   0.064   1.564   6.917
  742SOL    HW1 3122   0.018   1.646   6.883
  742SOL    HW2 3123   0.162   1.583   6.926
  743SOL     OW 3124   0.367   1.100   6.087
  743SOL    HW1 3125   0.360   1.183   6.031
  743SOL    HW2 3126   0.371   1.020   6.027
  744SOL     OW 3127   0.566   0.537   6.451
  744SOL    HW1 3128   0.578   0.603   6.377
  744SOL    HW2 3129   0.612   0.571   6.534
  745SOL     OW 3130   1.252   1.348   5.974
  745SOL    HW1 3131   1.302   1.425   6.014
  745SOL    HW2 3132   1.157   1.350   6.006
  746SOL     OW 3133   1.272   1.445   6.728
  746SOL    HW1 3134   1.319   1.458   6.815
  746SOL    HW2 3135   1.206   1.371   6.737
  747SOL     OW 3136   1.582   0.639   6.058
  747SOL    HW1 3137   1.551   0.700   6.131
  747SOL    HW2 3138   1.632   0.691   5.989
  748SOL     OW 3139   0.354   1.510   6.915
  748SOL    HW1 3140   0.333   1.466   6.828
  748SOL    HW2 3141   0.451   1.536   6.918
  749SOL     OW 3142   0.402   0.751   7.184
  749SOL    HW1 3143   0.470   0.806   7.137
  749SOL    HW2 3144   0.442   0.663   7.211
  750SOL     OW 3145   1.587   0.779   7.256
  750SOL    HW1 3146   1.495   0.817   7.251
  750SOL    HW2 3147   1.647   0.826   7.191
  751SOL     OW 3148   1.013   0.105   7.356
  751SOL    HW1 3149   1.019   0.190   7.304
  751SOL    HW2 3150   1.045   0.029   7.299
  752SOL     OW 3151   0.504   0.050   7.326
  752SOL    HW1 3152   0.462  -0.007   7.256
  752SOL    HW2 3153   0.438   0.119   7.358
  753SOL     OW 3154   0.573   0.870   6.615
  753SOL    HW1 3155   0.617   0.959   6.606
  753SOL    HW2 3156   0.510   0.870   6.692
  754SOL     OW 3157   1.360   0.862   6.631
  754SOL    HW1 3158   1.285   0.862   6.565
  754SOL    HW2 3159   1.397   0.770   6.640
  755SOL     OW 3160   1.209   0.525   5.861
  755SOL    HW1 3161   1.222   0.441   5.915
  755SOL    HW2 3162   1.180   0.599   5.921
  756SOL     OW 3163   0.307   0.213   6.817
  756SOL    HW1 3164   0.284   0.250   6.907
  756SOL    HW2 3165   0.277   0.118   6.811
  757SOL     OW 3166   0.037   1.310   6.868
  757SOL    HW1 3167   0.090   1.261   6.936
  757SOL    HW2 3168   0.059   1.408   6.873
  758SOL     OW 3169   0.732   0.634   6.650
  758SOL    HW1 3170   0.791   0.608   6.574
  758SOL    HW2 3171   0.704   0.730   6.639
  759SOL     OW 3172   1.728   0.935   7.440
  759SOL    HW1 3173   1.682   0.928   7.351
  759SOL    HW2 3174   1.666   0.979   7.506
  760SOL     OW 3175   0.307   0.063   6.204
  760SOL    HW1 3176   0.296   0.157   6.237
  760SOL    HW2 3177   0.302   0.000   6.281
  761SOL     OW 3178   1.622   0.367   5.960
  761SOL    HW1 3179   1.624   0.291   6.024
  761SOL    HW2 3180   1.574   0.444   6.000
  762SOL     OW 3181   1.023   0.766   6.552
  762SOL    HW1 3182   1.038   0.787   6.648
  762SOL    HW2 3183   0.993   0.671   6.543
  763SOL     OW 3184   0.980   1.573   7.286
  763SOL    HW1 3185   0.960   1.617   7.198
  763SOL    HW2 3186   1.019   1.482   7.270
  764SOL     OW 3187   1.859   1.518   7.191
  764SOL    HW1 3188   1.873   1.545   7.096
  764SOL    HW2 3189   1.942   1.540   7.244
  765SOL     OW 3190   0.350   0.898   7.390
  765SOL    HW1 3191   0.426   0.942   7.438
  765SOL    HW2 3192   0.385   0.851   7.308
  766SOL     OW 3193   1.540   0.274   5.711
  766SOL    HW1 3194   1.479   0.199   5.734
  766SOL    HW2 3195   1.562   0.326   5.794
  767SOL     OW 3196   1.303   0.838   5.628
  767SOL    HW1 3197   1.337   0.745   5.643
  767SOL    HW2 3198   1.321   0.865   5.533
  768SOL     OW 3199   1.068   1.333   6.435
  768SOL    HW1 3200   1.075   1.249   6.380
  768SOL    HW2 3201   1.130   1.402   6.399
  769SOL     OW 3202   0.319   0.810   6.535
  769SOL    HW1 3203   0.412   0.846   6.540
  769SOL    HW2 3204   0.313   0.725   6.587
  770SOL     OW 3205   0.339   0.509   6.592
  770SOL    HW1 3206   0.287   0.426   6.575
  770SOL    HW2 3207   0.416   0.514   6.528
  771SOL     OW 3208   1.138   0.380   7.264
  771SOL    HW1 3209   1.093   0.443   7.328
  771SOL    HW2 3210   1.231   0.411   7.247
  772SOL     OW 3211   1.160   0.207   7.063
  772SOL    HW1 3212   1.160   0.271   7.140
  772SOL    HW2 3213   1.188   0.255   6.980
  773SOL     OW 3214   0.008   1.326   5.786
  773SOL    HW1 3215  -0.085   1.347   5.755
  773SOL    HW2 3216   0.018   1.227   5.799
  774SOL     OW 3217   0.088   1.801   6.513
  774SOL    HW1 3218   0.046   1.715   6.486
  774SOL    HW2 3219   0.182   1.804   6.479
  775SOL     OW 3220   0.504   1.568   6.496
  775SOL    HW1 3221   0.570   1.642   6.505
  775SOL    HW2 3222   0.548   1.489   6.454
  776SOL     OW 3223   1.002   0.796   6.824
  776SOL    HW1 3224   1.043   0.764   6.910
  776SOL    HW2 3225   0.906   0.769   6.821
  777SOL     OW 3226   0.040   0.544   6.700
  777SOL    HW1 3227   0.125   0.511   6.659
  777SOL    HW2 3228   0.053   0.559   6.798
  778SOL     OW 3229   0.189   0.520   7.308
  778SOL    HW1 3230   0.248   0.480   7.238
  778SOL    HW2 3231   0.131   0.591   7.267
  779SOL     OW 3232   1.369   0.950   7.246
  779SOL    HW1 3233   1.408   1.039   7.266
  779SOL    HW2 3234   1.379   0.930   7.149
  780SOL     OW 3235   0.815   0.572   5.911
  780SOL    HW1 3236   0.822   0.483   5.865
  780SOL    HW2 3237   0.721   0.606   5.903
  781SOL     OW 3238   1.657   0.604   6.792
  781SOL    HW1 3239   1.619   0.535   6.854
  781SOL    HW2 3240   1.739   0.568   6.748
  782SOL     OW 3241   0.252   1.564   7.330
  782SOL    HW1 3242   0.222   1.621   7.406
  782SOL    HW2 3243   0.245   1.467   7.356
  783SOL     OW 3244   0.671   0.464   6.855
  783SOL    HW1 3245   0.637   0.375   6.825
  783SOL    HW2 3246   0.697   0.518   6.775
  784SOL     OW 3247   0.930   1.678   7.051
  784SOL    HW1 3248   0.906   1.660   6.956
  784SOL    HW2 3249   0.960   1.772   7.061
  785SOL     OW 3250   0.473   0.500   5.777
  785SOL    HW1 3251   0.534   0.580   5.781
  785SOL    HW2 3252   0.378   0.531   5.784
  786SOL     OW 3253   0.159   1.137   7.052
  786SOL    HW1 3254   0.181   1.076   7.128
  786SOL    HW2 3255   0.169   1.088   6.966
  787SOL     OW 3256   1.347   1.059   6.820
  787SOL    HW1 3257   1.371   0.996   6.746
  787SOL    HW2 3258   1.257   1.099   6.802
  788SOL     OW 3259   1.302   0.855   5.895
  788SOL    HW1 3260   1.216   0.824   5.937
  788SOL    HW2 3261   1.298   0.841   5.796
  789SOL     OW 3262   1.759   1.747   6.740
  789SOL    HW1 3263   1.820   1.777   6.667
  789SOL    HW2 3264   1.721   1.658   6.718
  790SOL     OW 3265   1.252   1.731   6.714
  790SOL    HW1 3266   1.336   1.736   6.660
  790SOL    HW2 3267   1.229   1.635   6.732
  791SOL     OW 3268   0.083   1.258   6.608
  791SOL    HW1 3269   0.078   1.257   6.708
  791SOL    HW2 3270   0.000   1.217   6.570
  792SOL     OW 3271   0.688   1.662   7.302
  792SOL    HW1 3272   0.632   1.743   7.311
  792SOL    HW2 3273   0.740   1.666   7.216
  793SOL     OW 3274   1.726   0.135   6.109
  793SOL    HW1 3275   1.799   0.118   6.042
  793SOL    HW2 3276   1.695   0.048   6.147
  794SOL     OW 3277   1.388   1.573   6.063
  794SOL    HW1 3278   1.455   1.585   5.989
  794SOL    HW2 3279   1.348   1.662   6.086
  795SOL     OW 3280   0.130   1.794   7.437
  795SOL    HW1 3281   0.089   1.720   7.490
  795SOL    HW2 3282   0.194   1.845   7.495
  796SOL     OW 3283   1.280   0.927   6.258
  796SOL    HW1 3284   1.340   0.846   6.260
  796SOL    HW2 3285   1.320   0.996   6.198
  797SOL     OW 3286   0.830   1.273   7.008
  797SOL    HW1 3287   0.825   1.306   7.103
  797SOL    HW2 3288   0.744   1.292   6.962
  798SOL     OW 3289   0.672   1.616   5.740
  798SOL    HW1 3290   0.681   1.626   5.641
  798SOL    HW2 3291   0.632   1.527   5.761
  799SOL     OW 3292   1.650   1.720   6.980
  799SOL    HW1 3293   1.703   1.730   6.896
  799SOL    HW2 3294   1.623   1.810   7.014
  800SOL     OW 3295   1.841   0.175   6.549
  800SOL    HW1 3296   1.880   0.090   6.513
  800SOL    HW2 3297   1.743   0.177   6.530
  801SOL     OW 3298   0.263   0.326   6.306
  801SOL    HW1 3299   0.184   0.377   6.272
  801SOL    HW2 3300   0.254   0.311   6.404
  802SOL     OW 3301   1.194   1.612   5.617
  802SOL    HW1 3302   1.200   1.519   5.654
  802SOL    HW2 3303   1.135   1.612   5.537
  803SOL     OW 3304   0.822   1.002   6.958
  803SOL    HW1 3305   0.862   1.001   6.866
  803SOL    HW2 3306   0.832   1.094   6.998
  804SOL     OW 3307   0.916   0.910   5.877
  804SOL    HW1 3308   0.979   0.948   5.809
  804SOL    HW2 3309   0.956   0.827   5.916
  805SOL     OW 3310   1.504   1.607   5.630
  805SOL    HW1 3311   1.412   1.644   5.637
  805SOL    HW2 3312   1.542   1.627   5.540
  806SOL     OW 3313   0.372   1.288   7.076
  806SOL    HW1 3314   0.359   1.381   7.042
  806SOL    HW2 3315   0.288   1.236   7.063
  807SOL     OW 3316   1.614   1.292   6.875
  807SOL    HW1 3317   1.674   1.295   6.955
  807SOL    HW2 3318   1.539   1.356   6.888
  808SOL     OW 3319   1.039   1.098   6.282
  808SOL    HW1 3320   0.969   1.051   6.336
  808SOL    HW2 3321   1.098   1.030   6.239
  809SOL     OW 3322   1.014   0.236   6.557
  809SOL    HW1 3323   1.006   0.200   6.464
  809SOL    HW2 3324   1.012   0.160   6.622
  810SOL     OW 3325   0.590   1.487   6.077
  810SOL    HW1 3326   0.632   1.429   6.007
  810SOL    HW2 3327   0.546   1.566   6.033
  811SOL     OW 3328   1.709   0.385   6.967
  811SOL    HW1 3329   1.782   0.454   6.971
  811SOL    HW2 3330   1.737   0.310   6.908
  812SOL     OW 3331   0.255   1.348   5.876
  812SOL    HW1 3332   0.159   1.349   5.849
  812SOL    HW2 3333   0.267   1.401   5.960
  813SOL     OW 3334   0.105   1.013   7.312
  813SOL    HW1 3335   0.028   0.980   7.366
  813SOL    HW2 3336   0.190   0.983   7.354
  814SOL     OW 3337   0.672   0.203   7.075
  814SOL    HW1 3338   0.762   0.187   7.035
  814SOL    HW2 3339   0.680   0.208   7.174
  815SOL     OW 3340   0.075   0.345   5.619
  815SOL    HW1 3341  -0.017   0.317   5.590
  815SOL    HW2 3342   0.106   0.422   5.563
  816SOL     OW 3343   1.440   0.856   6.984
  816SOL    HW1 3344   1.383   0.908   6.921
  816SOL    HW2 3345   1.536   0.868   6.960
  817SOL     OW 3346   0.072   0.166   5.904
  817SOL    HW1 3347   0.055   0.249   5.850
  817SOL    HW2 3348   0.162   0.129   5.882
  818SOL     OW 3349   1.183   1.335   5.705
  818SOL    HW1 3350   1.084   1.324   5.707
  818SOL    HW2 3351   1.217   1.350   5.798
  819SOL     OW 3352   0.613   0.842   7.017
  819SOL    HW1 3353   0.669   0.923   7.000
  819SOL    HW2 3354   0.672   0.762   7.020
  820SOL     OW 3355   1.493   1.767   6.545
  820SOL    HW1 3356   1.526   1.831   6.476
  820SOL    HW2 3357   1.559   1.761   6.620
  821SOL     OW 3358   0.716   0.565   7.294
  821SOL    HW1 3359   0.735   0.630   7.368
  821SOL    HW2 3360   0.776   0.485   7.303
  822SOL     OW 3361   1.450   1.220   7.219
  822SOL    HW1 3362   1.441   1.210   7.318
  822SOL    HW2 3363   1.546   1.213   7.193
  823SOL     OW 3364   0.390   1.741   7.146
  823SOL    HW1 3365   0.299   1.782   7.144
  823SOL    HW2 3366   0.383   1.647   7.178
  824SOL     OW 3367   1.674   0.883   6.840
  824SOL    HW1 3368   1.647   0.794   6.803
  824SOL    HW2 3369   1.675   0.951   6.767
  825SOL     OW 3370   1.225   0.325   6.035
  825SOL    HW1 3371   1.290   0.251   6.024
  825SOL    HW2 3372   1.245   0.375   6.119
  826SOL     OW 3373   0.594   0.745   6.238
  826SOL    HW1 3374   0.644   0.830   6.219
  826SOL    HW2 3375   0.506   0.747   6.190
  827SOL     OW 3376   1.777   0.342   7.228
  827SOL    HW1 3377   1.760   0.373   7.134
  827SOL    HW2 3378   1.693   0.305   7.266
  828SOL     OW 3379   1.730   0.934   7.103
  828SOL    HW1 3380   1.768   1.025   7.118
  828SOL    HW2 3381   1.722   0.917   7.004
  829SOL     OW 3382   0.859   1.374   5.602
  829SOL    HW1 3383   0.813   1.389   5.690
  829SOL    HW2 3384   0.903   1.459   5.572
  830SOL     OW 3385   0.661   1.790   6.539
  830SOL    HW1 3386   0.615   1.878   6.526
  830SOL    HW2 3387   0.760   1.802   6.532
  831SOL     OW 3388   0.859   0.956   6.447
  831SOL    HW1 3389   0.913   0.887   6.495
  831SOL    HW2 3390   0.827   1.025   6.513
  832SOL     OW 3391   1.083   0.984   5.673
  832SOL    HW1 3392   1.060   1.037   5.591
  832SOL    HW2 3393   1.164   0.928   5.654
  833SOL     OW 3394   1.861   1.569   6.437
  833SOL    HW1 3395   1.790   1.557   6.367
  833SOL    HW2 3396   1.862   1.490   6.497
  834SOL     OW 3397   0.221   1.314   7.430
  834SOL    HW1 3398   0.156   1.241   7.409
  834SOL    HW2 3399   0.225   1.328   7.528
  835SOL     OW 3400   0.079   1.240   6.239
  835SOL    HW1 3401   0.078   1.193   6.327
  835SOL    HW2 3402   0.161   1.212   6.188
  836SOL     OW 3403   0.672   1.391   7.210
  836SOL    HW1 3404   0.594   1.341   7.248
  836SOL    HW2 3405   0.669   1.486   7.241
  837SOL     OW 3406   1.824   0.192   6.813
  837SOL    HW1 3407   1.820   0.102   6.857
  837SOL    HW2 3408   1.827   0.181   6.714
  838SOL     OW 3409   0.428   0.424   6.106
  838SOL    HW1 3410   0.458   0.352   6.044
  838SOL    HW2 3411   0.389   0.384   6.189
  839SOL     OW 3412   1.705   1.487   6.690
  839SOL    HW1 3413   1.612   1.462   6.663
  839SOL    HW2 3414   1.731   1.437   6.772
  840SOL     OW 3415   0.317   0.547   6.866
  840SOL    HW1 3416   0.355   0.488   6.938
  840SOL    HW2 3417   0.357   0.521   6.778
  841SOL     OW 3418   0.812   1.586   6.273
  841SOL    HW1 3419   0.844   1.596   6.179
  841SOL    HW2 3420   0.733   1.524   6.275
  842SOL     OW 3421   1.424   0.214   6.698
  842SOL    HW1 3422   1.476   0.149   6.753
  842SOL    HW2 3423   1.375   0.277   6.759
  843SOL     OW 3424   1.001   0.034   6.740
  843SOL    HW1 3425   0.938  -0.038   6.709
  843SOL    HW2 3426   1.094  -0.002   6.740
  844SOL     OW 3427   0.770   1.330   5.887
  844SOL    HW1 3428   0.724   1.243   5.904
  844SOL    HW2 3429   0.861   1.327   5.928
  845SOL     OW 3430   0.618   1.567   6.870
  845SOL    HW1 3431   0.613   1.649   6.927
  845SOL    HW2 3432   0.707   1.564   6.825
  846SOL     OW 3433   1.352   0.052   5.754
  846SOL    HW1 3434   1.387   0.011   5.670
  846SOL    HW2 3435   1.262   0.014   5.774
  847SOL     OW 3436   1.300   0.453   6.277
  847SOL    HW1 3437   1.241   0.533   6.281
  847SOL    HW2 3438   1.315   0.418   6.370
  848SOL     OW 3439   1.593   0.221   6.468
  848SOL    HW1 3440   1.509   0.220   6.522
  848SOL    HW2 3441   1.595   0.304   6.412
  849SOL     OW 3442   0.039   1.077   5.886
  849SOL    HW1 3443   0.138   1.066   5.877
  849SOL    HW2 3444  -0.001   0.991   5.918
  850SOL     OW 3445   0.875   1.646   5.923
  850SOL    HW1 3446   0.798   1.611   5.869
  850SOL    HW2 3447   0.843   1.717   5.985
  851SOL     OW 3448   0.230   0.628   7.561
  851SOL    HW1 3449   0.137   0.626   7.598
  851SOL    HW2 3450   0.231   0.589   7.469
  852SOL     OW 3451   1.755   0.607   7.679
  852SOL    HW1 3452   1.743   0.594   7.580
  852SOL    HW2 3453   1.725   0.526   7.728
  853SOL     OW 3454   0.231   1.713   7.931
  853SOL    HW1 3455   0.265   1.790   7.985
  853SOL    HW2 3456   0.275   1.713   7.841
  854SOL     OW 3457   0.230   1.434   7.986
  854SOL    HW1 3458   0.204   1.530   7.986
  854SOL    HW2 3459   0.159   1.380   8.031
  855SOL     OW 3460   0.606   0.964   7.571
  855SOL    HW1 3461   0.613   1.048   7.517
  855SOL    HW2 3462   0.652   0.977   7.659
  856SOL     OW 3463   1.842   1.767   7.807
  856SOL    HW1 3464   1.896   1.738   7.887
  856SOL    HW2 3465   1.872   1.857   7.778
  857SOL     OW 3466   0.027   1.596   7.565
  857SOL    HW1 3467   0.008   1.500   7.586
  857SOL    HW2 3468  -0.006   1.654   7.640
  858SOL     OW 3469   1.689   0.922   8.060
  858SOL    HW1 3470   1.784   0.893   8.068
  858SOL    HW2 3471   1.681   0.987   7.985
  859SOL     OW 3472   1.641   1.108   7.880
  859SOL    HW1 3473   1.727   1.110   7.828
  859SOL    HW2 3474   1.655   1.155   7.968
  860SOL     OW 3475   0.809   0.004   7.950
  860SOL    HW1 3476   0.849   0.095   7.941
  860SOL    HW2 3477   0.709   0.012   7.956
  861SOL     OW 3478   1.525   0.999   7.638
  861SOL    HW1 3479   1.462   0.923   7.651
  861SOL    HW2 3480   1.573   1.017   7.724
  862SOL     OW 3481   0.598   0.729   7.718
  862SOL    HW1 3482   0.622   0.798   7.650
  862SOL    HW2 3483   0.520   0.762   7.772
  863SOL     OW 3484   1.576   1.662   7.755
  863SOL    HW1 3485   1.665   1.708   7.758
  863SOL    HW2 3486   1.555   1.638   7.660
  864SOL     OW 3487   0.076   0.811   8.237
  864SOL    HW1 3488   0.175   0.799   8.246
  864SOL    HW2 3489   0.052   0.906   8.258
  865SOL     OW 3490   0.865   0.348   7.643
  865SOL    HW1 3491   0.924   0.411   7.594
  865SOL    HW2 3492   0.884   0.254   7.614
  866SOL     OW 3493   0.321   0.943   7.690
  866SOL    HW1 3494   0.403   0.982   7.648
  866SOL    HW2 3495   0.294   0.861   7.641
  867SOL     OW 3496   1.111   1.776   7.685
  867SOL    HW1 3497   1.051   1.714   7.735
  867SOL    HW2 3498   1.142   1.732   7.600
  868SOL     OW 3499   1.632   1.377   7.529
  868SOL    HW1 3500   1.600   1.471   7.519
  868SOL    HW2 3501   1.556   1.314   7.517
  869SOL     OW 3502   0.464   1.743   7.771
  869SOL    HW1 3503   0.497   1.782   7.857
  869SOL    HW2 3504   0.540   1.736   7.706
  870SOL     OW 3505   1.400   0.107   7.874
  870SOL    HW1 3506   1.376   0.070   7.784
  870SOL    HW2 3507   1.499   0.123   7.878
  871SOL     OW 3508   0.382   0.700   7.928
  871SOL    HW1 3509   0.427   0.610   7.925
  871SOL    HW2 3510   0.288   0.689   7.961
  872SOL     OW 3511   0.614   0.122   7.565
  872SOL    HW1 3512   0.712   0.100   7.572
  872SOL    HW2 3513   0.583   0.105   7.472
  873SOL     OW 3514   0.539   0.064   7.960
  873SOL    HW1 3515   0.458   0.065   8.018
  873SOL    HW2 3516   0.542   0.147   7.905
  874SOL     OW 3517   1.434   1.188   7.489
  874SOL    HW1 3518   1.466   1.112   7.546
  874SOL    HW2 3519   1.342   1.215   7.519
  875SOL     OW 3520   0.297   0.035   7.619
  875SOL    HW1 3521   0.346   0.119   7.598
  875SOL    HW2 3522   0.359  -0.030   7.664
  876SOL     OW 3523   0.935   0.236   7.928
  876SOL    HW1 3524   0.887   0.277   7.850
  876SOL    HW2 3525   1.034   0.234   7.909
  877SOL     OW 3526   0.459   1.152   8.189
  877SOL    HW1 3527   0.388   1.125   8.254
  877SOL    HW2 3528   0.433   1.124   8.096
  878SOL     OW 3529   1.271   1.797   8.039
  878SOL    HW1 3530   1.315   1.861   7.975
  878SOL    HW2 3531   1.221   1.849   8.109
  879SOL     OW 3532   1.032   0.549   7.464
  879SOL    HW1 3533   0.991   0.631   7.425
  879SOL    HW2 3534   1.096   0.575   7.537
  880SOL     OW 3535   1.857   0.833   7.825
  880SOL    HW1 3536   1.899   0.769   7.889
  880SOL    HW2 3537   1.819   0.782   7.747
  881SOL     OW 3538   0.488   1.385   7.622
  881SOL    HW1 3539   0.401   1.370   7.669
  881SOL    HW2 3540   0.471   1.411   7.527
  882SOL     OW 3541   1.390   0.575   7.526
  882SOL    HW1 3542   1.336   0.554   7.607
  882SOL    HW2 3543   1.481   0.534   7.535
  883SOL     OW 3544   0.527   0.256   7.776
  883SOL    HW1 3545   0.554   0.197   7.701
  883SOL    HW2 3546   0.527   0.351   7.745
  884SOL     OW 3547   0.705   1.050   7.816
  884SOL    HW1 3548   0.691   1.057   7.915
  884SOL    HW2 3549   0.789   0.999   7.798
  885SOL     OW 3550   0.367   1.100   7.949
  885SOL    HW1 3551   0.360   1.183   7.893
  885SOL    HW2 3552   0.371   1.020   7.889
  886SOL     OW 3553   1.252   1.348   7.836
  886SOL    HW1 3554   1.302   1.425   7.876
  886SOL    HW2 3555   1.157   1.350   7.868
  887SOL     OW 3556   1.582   0.639   7.920
  887SOL    HW1 3557   1.551   0.700   7.993
  887SOL    HW2 3558   1.632   0.691   7.851
  888SOL     OW 3559   1.209   0.525   7.723
  888SOL    HW1 3560   1.222   0.441   7.777
  888SOL    HW2 3561   1.180   0.599   7.783
  889SOL     OW 3562   1.622   0.367   7.822
  889SOL    HW1 3563   1.624   0.291   7.886
  889SOL    HW2 3564   1.574   0.444   7.862
  890SOL     OW 3565   1.540   0.274   7.573
  890SOL    HW1 3566   1.479   0.199   7.596
  890SOL    HW2 3567   1.562   0.326   7.656
  891SOL     OW 3568   1.303   0.838   7.490
  891SOL    HW1 3569   1.337   0.745   7.505
  891SOL    HW2 3570   1.321   0.865   7.395
  892SOL     OW 3571   0.008   1.326   7.648
  892SOL    HW1 3572  -0.085   1.347   7.617
  892SOL    HW2 3573   0.018   1.227   7.661
  893SOL     OW 3574   0.815   0.572   7.773
  893SOL    HW1 3575   0.822   0.483   7.727
  893SOL    HW2 3576   0.721   0.606   7.765
  894SOL     OW 3577   0.473   0.500   7.639
  894SOL    HW1 3578   0.534   0.580   7.643
  894SOL    HW2 3579   0.378   0.531   7.646
  895SOL     OW 3580   1.302   0.855   7.757
  895SOL    HW1 3581   1.216   0.824   7.799
  895SOL    HW2 3582   1.298   0.841   7.658
  896SOL     OW 3583   1.726   0.135   7.971
  896SOL    HW1 3584   1.799   0.118   7.904
  896SOL    HW2 3585   1.695   0.048   8.009
  897SOL     OW 3586   1.388   1.573   7.925
  897SOL    HW1 3587   1.455   1.585   7.851
  897SOL    HW2 3588   1.348   1.662   7.948
  898SOL     OW 3589   0.672   1.616   7.602
  898SOL    HW1 3590   0.681   1.626   7.503
  898SOL    HW2 3591   0.632   1.527   7.623
  899SOL     OW 3592   1.194   1.612   7.479
  899SOL    HW1 3593   1.200   1.519   7.516
  899SOL    HW2 3594   1.135   1.612   7.399
  900SOL     OW 3595   0.916   0.910   7.739
  900SOL    HW1 3596   0.979   0.948   7.671
  900SOL    HW2 3597   0.956   0.827   7.778
  901SOL     OW 3598   1.504   1.607   7.492
  901SOL    HW1 3599   1.412   1.644   7.499
  901SOL    HW2 3600   1.542   1.627   7.402
  902SOL     OW 3601   0.590   1.487   7.939
  902SOL    HW1 3602   0.632   1.429   7.869
  902SOL    HW2 3603   0.546   1.566   7.895
  903SOL     OW 3604   0.255   1.348   7.738
  903SOL    HW1 3605   0.159   1.349   7.711
  903SOL    HW2 3606   0.267   1.401   7.822
  904SOL     OW 3607   0.075   0.345   7.481
  904SOL    HW1 3608  -0.017   0.317   7.452
  904SOL    HW2 3609   0.106   0.422   7.425
  905SOL     OW 3610   0.072   0.166   7.766
  905SOL    HW1 3611   0.055   0.249   7.712
  905SOL    HW2 3612   0.162   0.129   7.744
  906SOL     OW 3613   1.183   1.335   7.567
  906SOL    HW1 3614   1.084   1.324   7.569
  906SOL    HW2 3615   1.217   1.350   7.660
  907SOL     OW 3616   1.225   0.325   7.897
  907SOL    HW1 3617   1.290   0.251   7.886
  907SOL    HW2 3618   1.245   0.375   7.981
  908SOL     OW 3619   0.594   0.745   8.100
  908SOL    HW1 3620   0.644   0.830   8.081
  908SOL    HW2 3621   0.506   0.747   8.052
  909SOL     OW 3622   0.859   1.374   7.464
  909SOL    HW1 3623   0.813   1.389   7.552
  909SOL    HW2 3624   0.903   1.459   7.434
  910SOL     OW 3625   1.083   0.984   7.535
  910SOL    HW1 3626   1.060   1.037   7.453
  910SOL    HW2 3627   1.164   0.928   7.516
  911SOL     OW 3628   0.428   0.424   7.968
  911SOL    HW1 3629   0.458   0.352   7.906
  911SOL    HW2 3630   0.389   0.384   8.051
  912SOL     OW 3631   0.770   1.330   7.749
  912SOL    HW1 3632   0.724   1.243   7.766
  912SOL    HW2 3633   0.861   1.327   7.790
  913SOL     OW 3634   1.352   0.052   7.616
  913SOL    HW1 3635   1.387   0.011   7.532
  913SOL    HW2 3636   1.262   0.014   7.636
  914SOL     OW 3637   0.039   1.077   7.748
  914SOL    HW1 3638   0.138   1.066   7.739
  914SOL    HW2 3639  -0.001   0.991   7.780
  915SOL     OW 3640   0.875   1.646   7.785
  915SOL    HW1 3641   0.798   1.611   7.731
  915SOL    HW2 3642   0.843   1.717   7.847
  916SOL     OW 3643   0.230   2.490   0.113
  916SOL    HW1 3644   0.137   2.488   0.150
  916SOL    HW2 3645   0.231   2.451   0.021
  917SOL     OW 3646   0.225   2.137   0.996
  917SOL    HW1 3647   0.260   2.120   1.088
  917SOL    HW2 3648   0.137   2.092   0.984
  918SOL     OW 3649   0.019   2.230   0.647
  918SOL    HW1 3650  -0.063   2.273   0.686
  918SOL    HW2 3651  -0.009   2.157   0.584
  919SOL     OW 3652   0.569   3.137   1.165
  919SOL    HW1 3653   0.476   3.130   1.128
  919SOL    HW2 3654   0.580   3.226   1.209
  920SOL     OW 3655   1.555   3.373   0.703
  920SOL    HW1 3656   1.498   3.357   0.784
  920SOL    HW2 3657   1.496   3.383   0.623
  921SOL     OW 3658   1.135   2.565   0.717
  921SOL    HW1 3659   1.192   2.643   0.692
  921SOL    HW2 3660   1.075   2.591   0.793
  922SOL     OW 3661   1.755   2.469   0.231
  922SOL    HW1 3662   1.743   2.456   0.132
  922SOL    HW2 3663   1.725   2.388   0.280
  923SOL     OW 3664   0.768   3.006   1.023
  923SOL    HW1 3665   0.690   3.023   1.083
  923SOL    HW2 3666   0.802   3.093   0.987
  924SOL     OW 3667   0.850   2.660   1.823
  924SOL    HW1 3668   0.846   2.736   1.888
  924SOL    HW2 3669   0.872   2.696   1.732
  925SOL     OW 3670   0.685   2.874   0.665
  925SOL    HW1 3671   0.754   2.858   0.735
  925SOL    HW2 3672   0.612   2.931   0.703
  926SOL     OW 3673   0.686   3.023   1.803
  926SOL    HW1 3674   0.746   3.102   1.817
  926SOL    HW2 3675   0.600   3.054   1.762
  927SOL     OW 3676   0.335   3.297   1.061
  927SOL    HW1 3677   0.257   3.266   1.008
  927SOL    HW2 3678   0.393   3.355   1.004
  928SOL     OW 3679   1.460   3.367   1.339
  928SOL    HW1 3680   1.484   3.461   1.365
  928SOL    HW2 3681   1.444   3.313   1.421
  929SOL     OW 3682   0.438   2.254   1.499
  929SOL    HW1 3683   0.520   2.198   1.508
  929SOL    HW2 3684   0.357   2.196   1.503
  930SOL     OW 3685   1.603   2.309   0.737
  930SOL    HW1 3686   1.529   2.355   0.687
  930SOL    HW2 3687   1.654   2.377   0.790
  931SOL     OW 3688   0.231   3.575   0.483
  931SOL    HW1 3689   0.265   3.652   0.537
  931SOL    HW2 3690   0.275   3.575   0.393
  932SOL     OW 3691   1.127   3.203   1.690
  932SOL    HW1 3692   1.174   3.203   1.778
  932SOL    HW2 3693   1.079   3.116   1.679
  933SOL     OW 3694   0.230   3.296   0.538
  933SOL    HW1 3695   0.204   3.392   0.538
  933SOL    HW2 3696   0.159   3.242   0.583
  934SOL     OW 3697   0.240   2.953   0.886
  934SOL    HW1 3698   0.254   2.869   0.938
  934SOL    HW2 3699   0.185   3.017   0.941
  935SOL     OW 3700   0.620   3.648   1.439
  935SOL    HW1 3701   0.528   3.631   1.474
  935SOL    HW2 3702   0.648   3.740   1.465
  936SOL     OW 3703   0.606   2.826   0.123
  936SOL    HW1 3704   0.613   2.910   0.069
  936SOL    HW2 3705   0.652   2.839   0.211
  937SOL     OW 3706   1.594   1.976   1.480
  937SOL    HW1 3707   1.576   2.043   1.408
  937SOL    HW2 3708   1.591   2.022   1.569
  938SOL     OW 3709   0.122   2.505   0.563
  938SOL    HW1 3710   0.077   2.417   0.580
  938SOL    HW2 3711   0.121   2.559   0.647
  939SOL     OW 3712   1.842   3.629   0.359
  939SOL    HW1 3713   1.896   3.600   0.439
  939SOL    HW2 3714   1.872   3.719   0.330
  940SOL     OW 3715   0.027   3.458   0.117
  940SOL    HW1 3716   0.008   3.362   0.138
  940SOL    HW2 3717  -0.006   3.516   0.192
  941SOL     OW 3718   1.689   2.784   0.612
  941SOL    HW1 3719   1.784   2.755   0.620
  941SOL    HW2 3720   1.681   2.849   0.537
  942SOL     OW 3721   1.641   2.970   0.432
  942SOL    HW1 3722   1.727   2.972   0.380
  942SOL    HW2 3723   1.655   3.017   0.520
  943SOL     OW 3724   0.113   2.599   1.597
  943SOL    HW1 3725   0.201   2.586   1.642
  943SOL    HW2 3726   0.100   2.696   1.575
  944SOL     OW 3727   0.613   3.227   0.726
  944SOL    HW1 3728   0.564   3.140   0.735
  944SOL    HW2 3729   0.590   3.270   0.639
  945SOL     OW 3730   1.293   3.090   1.423
  945SOL    HW1 3731   1.330   3.017   1.365
  945SOL    HW2 3732   1.345   3.095   1.508
  946SOL     OW 3733   0.809   1.866   0.502
  946SOL    HW1 3734   0.849   1.957   0.493
  946SOL    HW2 3735   0.709   1.874   0.508
  947SOL     OW 3736   0.197   2.838   1.264
  947SOL    HW1 3737   0.286   2.793   1.250
  947SOL    HW2 3738   0.124   2.773   1.245
  948SOL     OW 3739   1.525   2.861   0.190
  948SOL    HW1 3740   1.462   2.785   0.203
  948SOL    HW2 3741   1.573   2.879   0.276
  949SOL     OW 3742   1.187   3.654   1.616
  949SOL    HW1 3743   1.211   3.714   1.540
  949SOL    HW2 3744   1.194   3.559   1.586
  950SOL     OW 3745   0.317   2.113   1.801
  950SOL    HW1 3746   0.388   2.184   1.807
  950SOL    HW2 3747   0.229   2.152   1.829
  951SOL     OW 3748   1.466   3.279   0.953
  951SOL    HW1 3749   1.407   3.285   1.033
  951SOL    HW2 3750   1.451   3.191   0.907
  952SOL     OW 3751   1.667   3.576   0.572
  952SOL    HW1 3752   1.626   3.553   0.484
  952SOL    HW2 3753   1.649   3.502   0.637
  953SOL     OW 3754   0.598   2.591   0.270
  953SOL    HW1 3755   0.622   2.660   0.202
  953SOL    HW2 3756   0.520   2.624   0.324
  954SOL     OW 3757   1.281   2.207   0.944
  954SOL    HW1 3758   1.195   2.157   0.931
  954SOL    HW2 3759   1.343   2.153   1.000
  955SOL     OW 3760   1.576   3.524   0.307
  955SOL    HW1 3761   1.665   3.570   0.310
  955SOL    HW2 3762   1.555   3.500   0.212
  956SOL     OW 3763   0.807   2.467   1.465
  956SOL    HW1 3764   0.760   2.464   1.554
  956SOL    HW2 3765   0.756   2.412   1.399
  957SOL     OW 3766   1.394   2.331   1.674
  957SOL    HW1 3767   1.374   2.374   1.762
  957SOL    HW2 3768   1.472   2.269   1.683
  958SOL     OW 3769   0.973   2.752   1.572
  958SOL    HW1 3770   1.019   2.668   1.543
  958SOL    HW2 3771   0.917   2.786   1.497
  959SOL     OW 3772   0.991   2.272   1.242
  959SOL    HW1 3773   0.914   2.306   1.296
  959SOL    HW2 3774   0.957   2.221   1.163
  960SOL     OW 3775   1.041   2.563   0.429
  960SOL    HW1 3776   1.067   2.559   0.525
  960SOL    HW2 3777   0.956   2.512   0.415
  961SOL     OW 3778   0.076   2.673   0.789
  961SOL    HW1 3779   0.175   2.661   0.798
  961SOL    HW2 3780   0.052   2.768   0.810
  962SOL     OW 3781   0.130   3.683   1.571
  962SOL    HW1 3782   0.120   3.668   1.670
  962SOL    HW2 3783   0.044   3.719   1.535
  963SOL     OW 3784   0.865   2.210   0.195
  963SOL    HW1 3785   0.924   2.273   0.146
  963SOL    HW2 3786   0.884   2.116   0.166
  964SOL     OW 3787   1.719   2.447   1.831
  964SOL    HW1 3788   1.693   2.536   1.795
  964SOL    HW2 3789   1.717   2.379   1.758
  965SOL     OW 3790   1.362   3.006   0.545
  965SOL    HW1 3791   1.445   2.977   0.497
  965SOL    HW2 3792   1.313   3.073   0.489
  966SOL     OW 3793   0.550   2.058   0.885
  966SOL    HW1 3794   0.545   2.053   0.985
  966SOL    HW2 3795   0.552   2.154   0.856
  967SOL     OW 3796   1.008   3.318   0.477
  967SOL    HW1 3797   0.962   3.390   0.425
  967SOL    HW2 3798   1.004   3.338   0.575
  968SOL     OW 3799   0.351   3.663   0.853
  968SOL    HW1 3800   0.401   3.577   0.859
  968SOL    HW2 3801   0.416   3.740   0.850
  969SOL     OW 3802   1.795   2.928   0.873
  969SOL    HW1 3803   1.733   2.913   0.797
  969SOL    HW2 3804   1.743   2.939   0.958
  970SOL     OW 3805   1.227   3.412   1.506
  970SOL    HW1 3806   1.233   3.335   1.570
  970SOL    HW2 3807   1.175   3.386   1.426
  971SOL     OW 3808   0.321   2.805   0.242
  971SOL    HW1 3809   0.403   2.844   0.200
  971SOL    HW2 3810   0.294   2.723   0.193
  972SOL     OW 3811   1.458   2.597   0.728
  972SOL    HW1 3812   1.453   2.532   0.803
  972SOL    HW2 3813   1.538   2.656   0.741
  973SOL     OW 3814   0.461   3.128   1.727
  973SOL    HW1 3815   0.411   3.129   1.641
  973SOL    HW2 3816   0.398   3.110   1.803
  974SOL     OW 3817   1.111   3.638   0.237
  974SOL    HW1 3818   1.051   3.576   0.287
  974SOL    HW2 3819   1.142   3.594   0.152
  975SOL     OW 3820   0.202   2.147   1.498
  975SOL    HW1 3821   0.122   2.207   1.485
  975SOL    HW2 3822   0.192   2.098   1.584
  976SOL     OW 3823   1.632   3.239   0.081
  976SOL    HW1 3824   1.600   3.333   0.071
  976SOL    HW2 3825   1.556   3.176   0.069
  977SOL     OW 3826   0.464   3.605   0.323
  977SOL    HW1 3827   0.497   3.644   0.409
  977SOL    HW2 3828   0.540   3.598   0.258
  978SOL     OW 3829   1.400   1.969   0.426
  978SOL    HW1 3830   1.376   1.932   0.336
  978SOL    HW2 3831   1.499   1.985   0.430
  979SOL     OW 3832   0.249   3.647   1.241
  979SOL    HW1 3833   0.306   3.582   1.291
  979SOL    HW2 3834   0.233   3.614   1.148
  980SOL     OW 3835   0.940   3.560   0.904
  980SOL    HW1 3836   1.020   3.503   0.925
  980SOL    HW2 3837   0.891   3.520   0.827
  981SOL     OW 3838   0.382   2.562   0.480
  981SOL    HW1 3839   0.427   2.472   0.477
  981SOL    HW2 3840   0.288   2.551   0.513
  982SOL     OW 3841   1.547   2.084   1.729
  982SOL    HW1 3842   1.542   2.121   1.821
  982SOL    HW2 3843   1.475   2.015   1.717
  983SOL     OW 3844   0.614   1.984   0.117
  983SOL    HW1 3845   0.712   1.962   0.124
  983SOL    HW2 3846   0.583   1.967   0.024
  984SOL     OW 3847   0.781   2.126   1.749
  984SOL    HW1 3848   0.848   2.065   1.792
  984SOL    HW2 3849   0.708   2.145   1.814
  985SOL     OW 3850   0.888   3.376   1.195
  985SOL    HW1 3851   0.865   3.351   1.101
  985SOL    HW2 3852   0.949   3.307   1.234
  986SOL     OW 3853   1.351   2.452   1.433
  986SOL    HW1 3854   1.379   2.409   1.518
  986SOL    HW2 3855   1.376   2.548   1.434
  987SOL     OW 3856   0.803   3.264   0.924
  987SOL    HW1 3857   0.893   3.278   0.882
  987SOL    HW2 3858   0.732   3.266   0.853
  988SOL     OW 3859   0.922   2.365   0.899
  988SOL    HW1 3860   0.897   2.356   0.803
  988SOL    HW2 3861   0.970   2.283   0.930
  989SOL     OW 3862   0.539   1.926   0.512
  989SOL    HW1 3863   0.458   1.927   0.570
  989SOL    HW2 3864   0.542   2.009   0.457
  990SOL     OW 3865   1.434   3.050   0.041
  990SOL    HW1 3866   1.466   2.974   0.098
  990SOL    HW2 3867   1.342   3.077   0.071
  991SOL     OW 3868   0.297   1.897   0.171
  991SOL    HW1 3869   0.346   1.981   0.150
  991SOL    HW2 3870   0.359   1.832   0.216
  992SOL     OW 3871   0.935   2.098   0.480
  992SOL    HW1 3872   0.887   2.139   0.402
  992SOL    HW2 3873   1.034   2.096   0.461
  993SOL     OW 3874   1.076   2.545   1.464
  993SOL    HW1 3875   0.996   2.484   1.467
  993SOL    HW2 3876   1.157   2.492   1.440
  994SOL     OW 3877   1.227   3.432   0.793
  994SOL    HW1 3878   1.248   3.506   0.728
  994SOL    HW2 3879   1.295   3.432   0.866
  995SOL     OW 3880   0.459   3.014   0.741
  995SOL    HW1 3881   0.388   2.987   0.806
  995SOL    HW2 3882   0.433   2.986   0.648
  996SOL     OW 3883   1.271   3.659   0.591
  996SOL    HW1 3884   1.315   3.723   0.527
  996SOL    HW2 3885   1.221   3.711   0.661
  997SOL     OW 3886   1.032   2.411   0.016
  997SOL    HW1 3887   0.991   2.493  -0.023
  997SOL    HW2 3888   1.096   2.437   0.089
  998SOL     OW 3889   0.078   2.418   1.386
  998SOL    HW1 3890   0.170   2.417   1.345
  998SOL    HW2 3891   0.072   2.492   1.453
  999SOL     OW 3892   0.561   2.084   1.147
  999SOL    HW1 3893   0.599   2.000   1.184
  999SOL    HW2 3894   0.473   2.103   1.191
 1000SOL     OW 3895   0.866   2.316   0.642
 1000SOL    HW1 3896   0.834   2.388   0.580
 1000SOL    HW2 3897   0.890   2.235   0.589
 1001SOL     OW 3898   1.017   1.901   0.753
 1001SOL    HW1 3899   0.945   1.906   0.684
 1001SOL    HW2 3900   0.993   1.832   0.822
 1002SOL     OW 3901   1.429   3.035   0.867
 1002SOL    HW1 3902   1.374   2.951   0.860
 1002SOL    HW2 3903   1.455   3.064   0.775
 1003SOL     OW 3904   1.466   2.452   0.992
 1003SOL    HW1 3905   1.436   2.357   0.999
 1003SOL    HW2 3906   1.539   2.468   1.058
 1004SOL     OW 3907   1.857   2.695   0.377
 1004SOL    HW1 3908   1.899   2.631   0.441
 1004SOL    HW2 3909   1.819   2.644   0.299
 1005SOL     OW 3910   0.488   3.247   0.174
 1005SOL    HW1 3911   0.401   3.232   0.221
 1005SOL    HW2 3912   0.471   3.273   0.079
 1006SOL     OW 3913   1.664   3.142   0.657
 1006SOL    HW1 3914   1.763   3.150   0.671
 1006SOL    HW2 3915   1.619   3.226   0.688
 1007SOL     OW 3916   1.390   2.437   0.078
 1007SOL    HW1 3917   1.336   2.416   0.159
 1007SOL    HW2 3918   1.481   2.396   0.087
 1008SOL     OW 3919   0.527   2.118   0.328
 1008SOL    HW1 3920   0.554   2.059   0.253
 1008SOL    HW2 3921   0.527   2.213   0.297
 1009SOL     OW 3922   1.754   3.085   1.588
 1009SOL    HW1 3923   1.845   3.046   1.575
 1009SOL    HW2 3924   1.762   3.181   1.612
 1010SOL     OW 3925   1.064   3.209   1.340
 1010SOL    HW1 3926   0.984   3.186   1.395
 1010SOL    HW2 3927   1.147   3.183   1.389
 1011SOL     OW 3928   1.592   3.491   1.625
 1011SOL    HW1 3929   1.619   3.525   1.535
 1011SOL    HW2 3930   1.671   3.453   1.671
 1012SOL     OW 3931   1.111   3.057   1.100
 1012SOL    HW1 3932   1.071   3.101   1.181
 1012SOL    HW2 3933   1.070   3.094   1.017
 1013SOL     OW 3934   1.638   2.961   1.079
 1013SOL    HW1 3935   1.643   3.042   1.138
 1013SOL    HW2 3936   1.552   2.963   1.028
 1014SOL     OW 3937   0.915   1.951   1.402
 1014SOL    HW1 3938   0.940   1.931   1.307
 1014SOL    HW2 3939   0.987   2.007   1.444
 1015SOL     OW 3940   0.980   2.978   1.719
 1015SOL    HW1 3941   0.881   2.984   1.729
 1015SOL    HW2 3942   1.003   2.898   1.663
 1016SOL     OW 3943   0.705   2.912   0.368
 1016SOL    HW1 3944   0.691   2.919   0.467
 1016SOL    HW2 3945   0.789   2.861   0.350
 1017SOL     OW 3946   0.410   2.675   1.251
 1017SOL    HW1 3947   0.496   2.687   1.301
 1017SOL    HW2 3948   0.368   2.588   1.278
 1018SOL     OW 3949   1.274   2.248   1.262
 1018SOL    HW1 3950   1.295   2.322   1.326
 1018SOL    HW2 3951   1.185   2.265   1.219
 1019SOL     OW 3952   0.064   3.426   1.331
 1019SOL    HW1 3953   0.018   3.508   1.297
 1019SOL    HW2 3954   0.162   3.445   1.340
 1020SOL     OW 3955   0.367   2.962   0.501
 1020SOL    HW1 3956   0.360   3.045   0.445
 1020SOL    HW2 3957   0.371   2.882   0.441
 1021SOL     OW 3958   0.566   2.399   0.865
 1021SOL    HW1 3959   0.578   2.465   0.791
 1021SOL    HW2 3960   0.612   2.433   0.948
 1022SOL     OW 3961   1.252   3.210   0.388
 1022SOL    HW1 3962   1.302   3.287   0.428
 1022SOL    HW2 3963   1.157   3.212   0.420
 1023SOL     OW 3964   1.272   3.307   1.142
 1023SOL    HW1 3965   1.319   3.320   1.229
 1023SOL    HW2 3966   1.206   3.233   1.151
 1024SOL     OW 3967   1.582   2.501   0.472
 1024SOL    HW1 3968   1.551   2.562   0.545
 1024SOL    HW2 3969   1.632   2.553   0.403
 1025SOL     OW 3970   0.354   3.372   1.329
 1025SOL    HW1 3971   0.333   3.328   1.242
 1025SOL    HW2 3972   0.451   3.398   1.332
 1026SOL     OW 3973   0.402   2.613   1.598
 1026SOL    HW1 3974   0.470   2.668   1.551
 1026SOL    HW2 3975   0.442   2.525   1.625
 1027SOL     OW 3976   1.587   2.641   1.670
 1027SOL    HW1 3977   1.495   2.679   1.665
 1027SOL    HW2 3978   1.647   2.688   1.605
 1028SOL     OW 3979   1.013   1.967   1.770
 1028SOL    HW1 3980   1.019   2.052   1.718
 1028SOL    HW2 3981   1.045   1.891   1.713
 1029SOL     OW 3982   0.504   1.912   1.740
 1029SOL    HW1 3983   0.462   1.855   1.670
 1029SOL    HW2 3984   0.438   1.981   1.772
 1030SOL     OW 3985   0.573   2.732   1.029
 1030SOL    HW1 3986   0.617   2.821   1.020
 1030SOL    HW2 3987   0.510   2.732   1.106
 1031SOL     OW 3988   1.360   2.724   1.045
 1031SOL    HW1 3989   1.285   2.724   0.979
 1031SOL    HW2 3990   1.397   2.632   1.054
 1032SOL     OW 3991   1.209   2.387   0.275
 1032SOL    HW1 3992   1.222   2.303   0.329
 1032SOL    HW2 3993   1.180   2.461   0.335
 1033SOL     OW 3994   0.307   2.075   1.231
 1033SOL    HW1 3995   0.284   2.112   1.321
 1033SOL    HW2 3996   0.277   1.980   1.225
 1034SOL     OW 3997   0.037   3.172   1.282
 1034SOL    HW1 3998   0.090   3.123   1.350
 1034SOL    HW2 3999   0.059   3.270   1.287
 1035SOL     OW 4000   0.732   2.496   1.064
 1035SOL    HW1 4001   0.791   2.470   0.988
 1035SOL    HW2 4002   0.704   2.592   1.053
 1036SOL     OW 4003   1.728   2.797   1.854
 1036SOL    HW1 4004   1.682   2.790   1.765
 1036SOL    HW2 4005   1.666   2.841   1.920
 1037SOL     OW 4006   0.307   1.925   0.618
 1037SOL    HW1 4007   0.296   2.019   0.651
 1037SOL    HW2 4008   0.302   1.862   0.695
 1038SOL     OW 4009   1.622   2.229   0.374
 1038SOL    HW1 4010   1.624   2.153   0.438
 1038SOL    HW2 4011   1.574   2.306   0.414
 1039SOL     OW 4012   1.023   2.628   0.966
 1039SOL    HW1 4013   1.038   2.649   1.062
 1039SOL    HW2 4014   0.993   2.533   0.957
 1040SOL     OW 4015   0.980   3.435   1.700
 1040SOL    HW1 4016   0.960   3.479   1.612
 1040SOL    HW2 4017   1.019   3.344   1.684
 1041SOL     OW 4018   1.859   3.380   1.605
 1041SOL    HW1 4019   1.873   3.407   1.510
 1041SOL    HW2 4020   1.942   3.402   1.658
 1042SOL     OW 4021   0.350   2.760   1.804
 1042SOL    HW1 4022   0.426   2.804   1.852
 1042SOL    HW2 4023   0.385   2.713   1.722
 1043SOL     OW 4024   1.540   2.136   0.125
 1043SOL    HW1 4025   1.479   2.061   0.148
 1043SOL    HW2 4026   1.562   2.188   0.208
 1044SOL     OW 4027   1.303   2.700   0.042
 1044SOL    HW1 4028   1.337   2.607   0.057
 1044SOL    HW2 4029   1.321   2.727  -0.053
 1045SOL     OW 4030   1.068   3.195   0.849
 1045SOL    HW1 4031   1.075   3.111   0.794
 1045SOL    HW2 4032   1.130   3.264   0.813
 1046SOL     OW 4033   0.319   2.672   0.949
 1046SOL    HW1 4034   0.412   2.708   0.954
 1046SOL    HW2 4035   0.313   2.587   1.001
 1047SOL     OW 4036   0.339   2.371   1.006
 1047SOL    HW1 4037   0.287   2.288   0.989
 1047SOL    HW2 4038   0.416   2.376   0.942
 1048SOL     OW 4039   1.138   2.242   1.678
 1048SOL    HW1 4040   1.093   2.305   1.742
 1048SOL    HW2 4041   1.231   2.273   1.661
 1049SOL     OW 4042   1.160   2.069   1.477
 1049SOL    HW1 4043   1.160   2.133   1.554
 1049SOL    HW2 4044   1.188   2.117   1.394
 1050SOL     OW 4045   0.008   3.188   0.200
 1050SOL    HW1 4046  -0.085   3.209   0.169
 1050SOL    HW2 4047   0.018   3.089   0.213
 1051SOL     OW 4048   0.088   3.663   0.927
 1051SOL    HW1 4049   0.046   3.577   0.900
 1051SOL    HW2 4050   0.182   3.666   0.893
 1052SOL     OW 4051   0.504   3.430   0.910
 1052SOL    HW1 4052   0.570   3.504   0.919
 1052SOL    HW2 4053   0.548   3.351   0.868
 1053SOL     OW 4054   1.002   2.658   1.238
 1053SOL    HW1 4055   1.043   2.626   1.324
 1053SOL    HW2 4056   0.906   2.631   1.235
 1054SOL     OW 4057   0.040   2.406   1.114
 1054SOL    HW1 4058   0.125   2.373   1.073
 1054SOL    HW2 4059   0.053   2.421   1.212
 1055SOL     OW 4060   0.189   2.382   1.722
 1055SOL    HW1 4061   0.248   2.342   1.652
 1055SOL    HW2 4062   0.131   2.453   1.681
 1056SOL     OW 4063   1.369   2.812   1.660
 1056SOL    HW1 4064   1.408   2.901   1.680
 1056SOL    HW2 4065   1.379   2.792   1.563
 1057SOL     OW 4066   0.815   2.434   0.325
 1057SOL    HW1 4067   0.822   2.345   0.279
 1057SOL    HW2 4068   0.721   2.468   0.317
 1058SOL     OW 4069   1.657   2.466   1.206
 1058SOL    HW1 4070   1.619   2.397   1.268
 1058SOL    HW2 4071   1.739   2.430   1.162
 1059SOL     OW 4072   0.252   3.426   1.744
 1059SOL    HW1 4073   0.222   3.483   1.820
 1059SOL    HW2 4074   0.245   3.329   1.770
 1060SOL     OW 4075   0.671   2.326   1.269
 1060SOL    HW1 4076   0.637   2.237   1.239
 1060SOL    HW2 4077   0.697   2.380   1.189
 1061SOL     OW 4078   0.930   3.540   1.465
 1061SOL    HW1 4079   0.906   3.522   1.370
 1061SOL    HW2 4080   0.960   3.634   1.475
 1062SOL     OW 4081   0.473   2.362   0.191
 1062SOL    HW1 4082   0.534   2.442   0.195
 1062SOL    HW2 4083   0.378   2.393   0.198
 1063SOL     OW 4084   0.159   2.999   1.466
 1063SOL    HW1 4085   0.181   2.938   1.542
 1063SOL    HW2 4086   0.169   2.950   1.380
 1064SOL     OW 4087   1.347   2.921   1.234
 1064SOL    HW1 4088   1.371   2.858   1.160
 1064SOL    HW2 4089   1.257   2.961   1.216
 1065SOL     OW 4090   1.302   2.717   0.309
 1065SOL    HW1 4091   1.216   2.686   0.351
 1065SOL    HW2 4092   1.298   2.703   0.210
 1066SOL     OW 4093   1.759   3.609   1.154
 1066SOL    HW1 4094   1.820   3.639   1.081
 1066SOL    HW2 4095   1.721   3.520   1.132
 1067SOL     OW 4096   1.252   3.593   1.128
 1067SOL    HW1 4097   1.336   3.598   1.074
 1067SOL    HW2 4098   1.229   3.497   1.146
 1068SOL     OW 4099   0.083   3.120   1.022
 1068SOL    HW1 4100   0.078   3.119   1.122
 1068SOL    HW2 4101   0.000   3.079   0.984
 1069SOL     OW 4102   0.688   3.524   1.716
 1069SOL    HW1 4103   0.632   3.605   1.725
 1069SOL    HW2 4104   0.740   3.528   1.630
 1070SOL     OW 4105   0.903   1.948   0.133
 1070SOL    HW1 4106   0.954   1.949   0.047
 1070SOL    HW2 4107   0.959   1.906   0.204
 1071SOL     OW 4108   1.726   1.997   0.523
 1071SOL    HW1 4109   1.799   1.980   0.456
 1071SOL    HW2 4110   1.695   1.910   0.561
 1072SOL     OW 4111   1.388   3.435   0.477
 1072SOL    HW1 4112   1.455   3.447   0.403
 1072SOL    HW2 4113   1.348   3.524   0.500
 1073SOL     OW 4114   0.130   3.656   1.851
 1073SOL    HW1 4115   0.089   3.582   1.904
 1073SOL    HW2 4116   0.194   3.707   1.909
 1074SOL     OW 4117   1.280   2.789   0.672
 1074SOL    HW1 4118   1.340   2.708   0.674
 1074SOL    HW2 4119   1.320   2.858   0.612
 1075SOL     OW 4120   0.830   3.135   1.422
 1075SOL    HW1 4121   0.825   3.168   1.517
 1075SOL    HW2 4122   0.744   3.154   1.376
 1076SOL     OW 4123   0.672   3.478   0.154
 1076SOL    HW1 4124   0.681   3.488   0.055
 1076SOL    HW2 4125   0.632   3.389   0.175
 1077SOL     OW 4126   1.650   3.582   1.394
 1077SOL    HW1 4127   1.703   3.592   1.310
 1077SOL    HW2 4128   1.623   3.672   1.428
 1078SOL     OW 4129   1.841   2.037   0.963
 1078SOL    HW1 4130   1.880   1.952   0.927
 1078SOL    HW2 4131   1.743   2.039   0.944
 1079SOL     OW 4132   0.263   2.188   0.720
 1079SOL    HW1 4133   0.184   2.239   0.686
 1079SOL    HW2 4134   0.254   2.173   0.818
 1080SOL     OW 4135   1.194   3.474   0.031
 1080SOL    HW1 4136   1.200   3.381   0.068
 1080SOL    HW2 4137   1.135   3.474  -0.049
 1081SOL     OW 4138   0.822   2.864   1.372
 1081SOL    HW1 4139   0.862   2.863   1.280
 1081SOL    HW2 4140   0.832   2.956   1.412
 1082SOL     OW 4141   0.916   2.772   0.291
 1082SOL    HW1 4142   0.979   2.810   0.223
 1082SOL    HW2 4143   0.956   2.689   0.330
 1083SOL     OW 4144   1.504   3.469   0.044
 1083SOL    HW1 4145   1.412   3.506   0.051
 1083SOL    HW2 4146   1.542   3.489  -0.046
 1084SOL     OW 4147   0.372   3.150   1.490
 1084SOL    HW1 4148   0.359   3.243   1.456
 1084SOL    HW2 4149   0.288   3.098   1.477
 1085SOL     OW 4150   1.614   3.154   1.289
 1085SOL    HW1 4151   1.674   3.157   1.369
 1085SOL    HW2 4152   1.539   3.218   1.302
 1086SOL     OW 4153   1.039   2.960   0.696
 1086SOL    HW1 4154   0.969   2.913   0.750
 1086SOL    HW2 4155   1.098   2.892   0.653
 1087SOL     OW 4156   1.014   2.098   0.971
 1087SOL    HW1 4157   1.006   2.062   0.878
 1087SOL    HW2 4158   1.012   2.022   1.036
 1088SOL     OW 4159   0.590   3.349   0.491
 1088SOL    HW1 4160   0.632   3.291   0.421
 1088SOL    HW2 4161   0.546   3.428   0.447
 1089SOL     OW 4162   1.709   2.247   1.381
 1089SOL    HW1 4163   1.782   2.316   1.385
 1089SOL    HW2 4164   1.737   2.172   1.322
 1090SOL     OW 4165   0.255   3.210   0.290
 1090SOL    HW1 4166   0.159   3.211   0.263
 1090SOL    HW2 4167   0.267   3.263   0.374
 1091SOL     OW 4168   0.105   2.875   1.726
 1091SOL    HW1 4169   0.028   2.842   1.780
 1091SOL    HW2 4170   0.190   2.845   1.768
 1092SOL     OW 4171   0.672   2.065   1.489
 1092SOL    HW1 4172   0.762   2.049   1.449
 1092SOL    HW2 4173   0.680   2.070   1.588
 1093SOL     OW 4174   0.075   2.207   0.033
 1093SOL    HW1 4175  -0.017   2.179   0.004
 1093SOL    HW2 4176   0.106   2.284  -0.023
 1094SOL     OW 4177   1.440   2.718   1.398
 1094SOL    HW1 4178   1.383   2.770   1.335
 1094SOL    HW2 4179   1.536   2.730   1.374
 1095SOL     OW 4180   0.072   2.028   0.318
 1095SOL    HW1 4181   0.055   2.111   0.264
 1095SOL    HW2 4182   0.162   1.991   0.296
 1096SOL     OW 4183   1.183   3.197   0.119
 1096SOL    HW1 4184   1.084   3.186   0.121
 1096SOL    HW2 4185   1.217   3.212   0.212
 1097SOL     OW 4186   0.613   2.704   1.431
 1097SOL    HW1 4187   0.669   2.785   1.414
 1097SOL    HW2 4188   0.672   2.624   1.434
 1098SOL     OW 4189   1.493   3.629   0.959
 1098SOL    HW1 4190   1.526   3.693   0.890
 1098SOL    HW2 4191   1.559   3.623   1.034
 1099SOL     OW 4192   0.716   2.427   1.708
 1099SOL    HW1 4193   0.735   2.492   1.782
 1099SOL    HW2 4194   0.776   2.347   1.717
 1100SOL     OW 4195   1.450   3.082   1.633
 1100SOL    HW1 4196   1.441   3.072   1.732
 1100SOL    HW2 4197   1.546   3.075   1.607
 1101SOL     OW 4198   0.390   3.603   1.560
 1101SOL    HW1 4199   0.299   3.644   1.558
 1101SOL    HW2 4200   0.383   3.509   1.592
 1102SOL     OW 4201   1.674   2.745   1.254
 1102SOL    HW1 4202   1.647   2.656   1.217
 1102SOL    HW2 4203   1.675   2.813   1.181
 1103SOL     OW 4204   1.225   2.187   0.449
 1103SOL    HW1 4205   1.290   2.113   0.438
 1103SOL    HW2 4206   1.245   2.237   0.533
 1104SOL     OW 4207   0.594   2.607   0.652
 1104SOL    HW1 4208   0.644   2.692   0.633
 1104SOL    HW2 4209   0.506   2.609   0.604
 1105SOL     OW 4210   1.777   2.204   1.642
 1105SOL    HW1 4211   1.760   2.235   1.548
 1105SOL    HW2 4212   1.693   2.167   1.680
 1106SOL     OW 4213   1.730   2.796   1.517
 1106SOL    HW1 4214   1.768   2.887   1.532
 1106SOL    HW2 4215   1.722   2.779   1.418
 1107SOL     OW 4216   0.859   3.236   0.016
 1107SOL    HW1 4217   0.813   3.251   0.104
 1107SOL    HW2 4218   0.903   3.321  -0.014
 1108SOL     OW 4219   0.661   3.652   0.953
 1108SOL    HW1 4220   0.615   3.740   0.940
 1108SOL    HW2 4221   0.760   3.664   0.946
 1109SOL     OW 4222   0.859   2.818   0.861
 1109SOL    HW1 4223   0.913   2.749   0.909
 1109SOL    HW2 4224   0.827   2.887   0.927
 1110SOL     OW 4225   1.083   2.846   0.087
 1110SOL    HW1 4226   1.060   2.899   0.005
 1110SOL    HW2 4227   1.164   2.790   0.068
 1111SOL     OW 4228   1.861   3.431   0.851
 1111SOL    HW1 4229   1.790   3.419   0.781
 1111SOL    HW2 4230   1.862   3.352   0.911
 1112SOL     OW 4231   0.221   3.176   1.844
 1112SOL    HW1 4232   0.156   3.103   1.823
 1112SOL    HW2 4233   0.225   3.190   1.942
 1113SOL     OW 4234   0.079   3.102   0.653
 1113SOL    HW1 4235   0.078   3.055   0.741
 1113SOL    HW2 4236   0.161   3.074   0.602
 1114SOL     OW 4237   0.672   3.253   1.624
 1114SOL    HW1 4238   0.594   3.203   1.662
 1114SOL    HW2 4239   0.669   3.348   1.655
 1115SOL     OW 4240   1.824   2.054   1.227
 1115SOL    HW1 4241   1.820   1.964   1.271
 1115SOL    HW2 4242   1.827   2.043   1.128
 1116SOL     OW 4243   0.428   2.286   0.520
 1116SOL    HW1 4244   0.458   2.214   0.458
 1116SOL    HW2 4245   0.389   2.246   0.603
 1117SOL     OW 4246   1.705   3.349   1.104
 1117SOL    HW1 4247   1.612   3.324   1.077
 1117SOL    HW2 4248   1.731   3.299   1.186
 1118SOL     OW 4249   0.317   2.409   1.280
 1118SOL    HW1 4250   0.355   2.350   1.352
 1118SOL    HW2 4251   0.357   2.383   1.192
 1119SOL     OW 4252   0.812   3.448   0.687
 1119SOL    HW1 4253   0.844   3.458   0.593
 1119SOL    HW2 4254   0.733   3.386   0.689
 1120SOL     OW 4255   1.424   2.076   1.112
 1120SOL    HW1 4256   1.476   2.011   1.167
 1120SOL    HW2 4257   1.375   2.139   1.173
 1121SOL     OW 4258   1.001   1.896   1.154
 1121SOL    HW1 4259   0.938   1.824   1.123
 1121SOL    HW2 4260   1.094   1.860   1.154
 1122SOL     OW 4261   0.770   3.192   0.301
 1122SOL    HW1 4262   0.724   3.105   0.318
 1122SOL    HW2 4263   0.861   3.189   0.342
 1123SOL     OW 4264   0.618   3.429   1.284
 1123SOL    HW1 4265   0.613   3.511   1.341
 1123SOL    HW2 4266   0.707   3.426   1.239
 1124SOL     OW 4267   1.352   1.914   0.168
 1124SOL    HW1 4268   1.387   1.873   0.084
 1124SOL    HW2 4269   1.262   1.876   0.188
 1125SOL     OW 4270   1.300   2.315   0.691
 1125SOL    HW1 4271   1.241   2.395   0.695
 1125SOL    HW2 4272   1.315   2.280   0.784
 1126SOL     OW 4273   1.593   2.083   0.882
 1126SOL    HW1 4274   1.509   2.082   0.936
 1126SOL    HW2 4275   1.595   2.166   0.826
 1127SOL     OW 4276   0.039   2.939   0.300
 1127SOL    HW1 4277   0.138   2.928   0.291
 1127SOL    HW2 4278  -0.001   2.853   0.332
 1128SOL     OW 4279   0.875   3.508   0.337
 1128SOL    HW1 4280   0.798   3.473   0.283
 1128SOL    HW2 4281   0.843   3.579   0.399
 1129SOL     OW 4282   0.230   2.490   1.975
 1129SOL    HW1 4283   0.137   2.488   2.012
 1129SOL    HW2 4284   0.231   2.451   1.883
 1130SOL     OW 4285   0.225   2.137   2.858
 1130SOL    HW1 4286   0.260   2.120   2.950
 1130SOL    HW2 4287   0.137   2.092   2.846
 1131SOL     OW 4288   0.019   2.230   2.509
 1131SOL    HW1 4289  -0.063   2.273   2.548
 1131SOL    HW2 4290  -0.009   2.157   2.446
 1132SOL     OW 4291   0.569   3.137   3.027
 1132SOL    HW1 4292   0.476   3.130   2.990
 1132SOL    HW2 4293   0.580   3.226   3.071
 1133SOL     OW 4294   1.555   3.373   2.565
 1133SOL    HW1 4295   1.498   3.357   2.646
 1133SOL    HW2 4296   1.496   3.383   2.485
 1134SOL     OW 4297   1.135   2.565   2.579
 1134SOL    HW1 4298   1.192   2.643   2.554
 1134SOL    HW2 4299   1.075   2.591   2.655
 1135SOL     OW 4300   1.755   2.469   2.093
 1135SOL    HW1 4301   1.743   2.456   1.994
 1135SOL    HW2 4302   1.725   2.388   2.142
 1136SOL     OW 4303   0.768   3.006   2.885
 1136SOL    HW1 4304   0.690   3.023   2.945
 1136SOL    HW2 4305   0.802   3.093   2.849
 1137SOL     OW 4306   0.850   2.660   3.685
 1137SOL    HW1 4307   0.846   2.736   3.750
 1137SOL    HW2 4308   0.872   2.696   3.594
 1138SOL     OW 4309   0.685   2.874   2.527
 1138SOL    HW1 4310   0.754   2.858   2.597
 1138SOL    HW2 4311   0.612   2.931   2.565
 1139SOL     OW 4312   0.686   3.023   3.665
 1139SOL    HW1 4313   0.746   3.102   3.679
 1139SOL    HW2 4314   0.600   3.054   3.624
 1140SOL     OW 4315   0.335   3.297   2.923
 1140SOL    HW1 4316   0.257   3.266   2.870
 1140SOL    HW2 4317   0.393   3.355   2.866
 1141SOL     OW 4318   1.460   3.367   3.201
 1141SOL    HW1 4319   1.484   3.461   3.227
 1141SOL    HW2 4320   1.444   3.313   3.283
 1142SOL     OW 4321   0.438   2.254   3.361
 1142SOL    HW1 4322   0.520   2.198   3.370
 1142SOL    HW2 4323   0.357   2.196   3.365
 1143SOL     OW 4324   1.603   2.309   2.599
 1143SOL    HW1 4325   1.529   2.355   2.549
 1143SOL    HW2 4326   1.654   2.377   2.652
 1144SOL     OW 4327   0.231   3.575   2.345
 1144SOL    HW1 4328   0.265   3.652   2.399
 1144SOL    HW2 4329   0.275   3.575   2.255
 1145SOL     OW 4330   1.127   3.203   3.552
 1145SOL    HW1 4331   1.174   3.203   3.640
 1145SOL    HW2 4332   1.079   3.116   3.541
 1146SOL     OW 4333   0.230   3.296   2.400
 1146SOL    HW1 4334   0.204   3.392   2.400
 1146SOL    HW2 4335   0.159   3.242   2.445
 1147SOL     OW 4336   0.240   2.953   2.748
 1147SOL    HW1 4337   0.254   2.869   2.800
 1147SOL    HW2 4338   0.185   3.017   2.803
 1148SOL     OW 4339   0.620   3.648   3.301
 1148SOL    HW1 4340   0.528   3.631   3.336
 1148SOL    HW2 4341   0.648   3.740   3.327
 1149SOL     OW 4342   0.606   2.826   1.985
 1149SOL    HW1 4343   0.613   2.910   1.931
 1149SOL    HW2 4344   0.652   2.839   2.073
 1150SOL     OW 4345   1.594   1.976   3.342
 1150SOL    HW1 4346   1.576   2.043   3.270
 1150SOL    HW2 4347   1.591   2.022   3.431
 1151SOL     OW 4348   0.122   2.505   2.425
 1151SOL    HW1 4349   0.077   2.417   2.442
 1151SOL    HW2 4350   0.121   2.559   2.509
 1152SOL     OW 4351   1.842   3.629   2.221
 1152SOL    HW1 4352   1.896   3.600   2.301
 1152SOL    HW2 4353   1.872   3.719   2.192
 1153SOL     OW 4354   0.027   3.458   1.979
 1153SOL    HW1 4355   0.008   3.362   2.000
 1153SOL    HW2 4356  -0.006   3.516   2.054
 1154SOL     OW 4357   1.689   2.784   2.474
 1154SOL    HW1 4358   1.784   2.755   2.482
 1154SOL    HW2 4359   1.681   2.849   2.399
 1155SOL     OW 4360   1.641   2.970   2.294
 1155SOL    HW1 4361   1.727   2.972   2.242
 1155SOL    HW2 4362   1.655   3.017   2.382
 1156SOL     OW 4363   0.113   2.599   3.459
 1156SOL    HW1 4364   0.201   2.586   3.504
 1156SOL    HW2 4365   0.100   2.696   3.437
 1157SOL     OW 4366   0.613   3.227   2.588
 1157SOL    HW1 4367   0.564   3.140   2.597
 1157SOL    HW2 4368   0.590   3.270   2.501
 1158SOL     OW 4369   1.293   3.090   3.285
 1158SOL    HW1 4370   1.330   3.017   3.227
 1158SOL    HW2 4371   1.345   3.095   3.370
 1159SOL     OW 4372   0.809   1.866   2.364
 1159SOL    HW1 4373   0.849   1.957   2.355
 1159SOL    HW2 4374   0.709   1.874   2.370
 1160SOL     OW 4375   0.197   2.838   3.126
 1160SOL    HW1 4376   0.286   2.793   3.112
 1160SOL    HW2 4377   0.124   2.773   3.107
 1161SOL     OW 4378   1.525   2.861   2.052
 1161SOL    HW1 4379   1.462   2.785   2.065
 1161SOL    HW2 4380   1.573   2.879   2.138
 1162SOL     OW 4381   1.187   3.654   3.478
 1162SOL    HW1 4382   1.211   3.714   3.402
 1162SOL    HW2 4383   1.194   3.559   3.448
 1163SOL     OW 4384   0.317   2.113   3.663
 1163SOL    HW1 4385   0.388   2.184   3.669
 1163SOL    HW2 4386   0.229   2.152   3.691
 1164SOL     OW 4387   1.466   3.279   2.815
 1164SOL    HW1 4388   1.407   3.285   2.895
 1164SOL    HW2 4389   1.451   3.191   2.769
 1165SOL     OW 4390   1.667   3.576   2.434
 1165SOL    HW1 4391   1.626   3.553   2.346
 1165SOL    HW2 4392   1.649   3.502   2.499
 1166SOL     OW 4393   0.598   2.591   2.132
 1166SOL    HW1 4394   0.622   2.660   2.064
 1166SOL    HW2 4395   0.520   2.624   2.186
 1167SOL     OW 4396   1.281   2.207   2.806
 1167SOL    HW1 4397   1.195   2.157   2.793
 1167SOL    HW2 4398   1.343   2.153   2.862
 1168SOL     OW 4399   1.576   3.524   2.169
 1168SOL    HW1 4400   1.665   3.570   2.172
 1168SOL    HW2 4401   1.555   3.500   2.074
 1169SOL     OW 4402   0.807   2.467   3.327
 1169SOL    HW1 4403   0.760   2.464   3.416
 1169SOL    HW2 4404   0.756   2.412   3.261
 1170SOL     OW 4405   1.394   2.331   3.536
 1170SOL    HW1 4406   1.374   2.374   3.624
 1170SOL    HW2 4407   1.472   2.269   3.545
 1171SOL     OW 4408   0.973   2.752   3.434
 1171SOL    HW1 4409   1.019   2.668   3.405
 1171SOL    HW2 4410   0.917   2.786   3.359
 1172SOL     OW 4411   0.991   2.272   3.104
 1172SOL    HW1 4412   0.914   2.306   3.158
 1172SOL    HW2 4413   0.957   2.221   3.025
 1173SOL     OW 4414   1.041   2.563   2.291
 1173SOL    HW1 4415   1.067   2.559   2.387
 1173SOL    HW2 4416   0.956   2.512   2.277
 1174SOL     OW 4417   0.076   2.673   2.651
 1174SOL    HW1 4418   0.175   2.661   2.660
 1174SOL    HW2 4419   0.052   2.768   2.672
 1175SOL     OW 4420   0.130   3.683   3.433
 1175SOL    HW1 4421   0.120   3.668   3.532
 1175SOL    HW2 4422   0.044   3.719   3.397
 1176SOL     OW 4423   0.865   2.210   2.057
 1176SOL    HW1 4424   0.924   2.273   2.008
 1176SOL    HW2 4425   0.884   2.116   2.028
 1177SOL     OW 4426   1.719   2.447   3.693
 1177SOL    HW1 4427   1.693   2.536   3.657
 1177SOL    HW2 4428   1.717   2.379   3.620
 1178SOL     OW 4429   1.362   3.006   2.407
 1178SOL    HW1 4430   1.445   2.977   2.359
 1178SOL    HW2 4431   1.313   3.073   2.351
 1179SOL     OW 4432   0.550   2.058   2.747
 1179SOL    HW1 4433   0.545   2.053   2.847
 1179SOL    HW2 4434   0.552   2.154   2.718
 1180SOL     OW 4435   1.008   3.318   2.339
 1180SOL    HW1 4436   0.962   3.390   2.287
 1180SOL    HW2 4437   1.004   3.338   2.437
 1181SOL     OW 4438   0.351   3.663   2.715
 1181SOL    HW1 4439   0.401   3.577   2.721
 1181SOL    HW2 4440   0.416   3.740   2.712
 1182SOL     OW 4441   1.795   2.928   2.735
 1182SOL    HW1 4442   1.733   2.913   2.659
 1182SOL    HW2 4443   1.743   2.939   2.820
 1183SOL     OW 4444   1.227   3.412   3.368
 1183SOL    HW1 4445   1.233   3.335   3.432
 1183SOL    HW2 4446   1.175   3.386   3.288
 1184SOL     OW 4447   0.321   2.805   2.104
 1184SOL    HW1 4448   0.403   2.844   2.062
 1184SOL    HW2 4449   0.294   2.723   2.055
 1185SOL     OW 4450   1.458   2.597   2.590
 1185SOL    HW1 4451   1.453   2.532   2.665
 1185SOL    HW2 4452   1.538   2.656   2.603
 1186SOL     OW 4453   0.461   3.128   3.589
 1186SOL    HW1 4454   0.411   3.129   3.503
 1186SOL    HW2 4455   0.398   3.110   3.665
 1187SOL     OW 4456   1.111   3.638   2.099
 1187SOL    HW1 4457   1.051   3.576   2.149
 1187SOL    HW2 4458   1.142   3.594   2.014
 1188SOL     OW 4459   0.202   2.147   3.360
 1188SOL    HW1 4460   0.122   2.207   3.347
 1188SOL    HW2 4461   0.192   2.098   3.446
 1189SOL     OW 4462   1.632   3.239   1.943
 1189SOL    HW1 4463   1.600   3.333   1.933
 1189SOL    HW2 4464   1.556   3.176   1.931
 1190SOL     OW 4465   0.464   3.605   2.185
 1190SOL    HW1 4466   0.497   3.644   2.271
 1190SOL    HW2 4467   0.540   3.598   2.120
 1191SOL     OW 4468   1.400   1.969   2.288
 1191SOL    HW1 4469   1.376   1.932   2.198
 1191SOL    HW2 4470   1.499   1.985   2.292
 1192SOL     OW 4471   0.249   3.647   3.103
 1192SOL    HW1 4472   0.306   3.582   3.153
 1192SOL    HW2 4473   0.233   3.614   3.010
 1193SOL     OW 4474   0.940   3.560   2.766
 1193SOL    HW1 4475   1.020   3.503   2.787
 1193SOL    HW2 4476   0.891   3.520   2.689
 1194SOL     OW 4477   0.382   2.562   2.342
 1194SOL    HW1 4478   0.427   2.472   2.339
 1194SOL    HW2 4479   0.288   2.551   2.375
 1195SOL     OW 4480   1.547   2.084   3.591
 1195SOL    HW1 4481   1.542   2.121   3.683
 1195SOL    HW2 4482   1.475   2.015   3.579
 1196SOL     OW 4483   0.614   1.984   1.979
 1196SOL    HW1 4484   0.712   1.962   1.986
 1196SOL    HW2 4485   0.583   1.967   1.886
 1197SOL     OW 4486   0.781   2.126   3.611
 1197SOL    HW1 4487   0.848   2.065   3.654
 1197SOL    HW2 4488   0.708   2.145   3.676
 1198SOL     OW 4489   0.888   3.376   3.057
 1198SOL    HW1 4490   0.865   3.351   2.963
 1198SOL    HW2 4491   0.949   3.307   3.096
 1199SOL     OW 4492   1.351   2.452   3.295
 1199SOL    HW1 4493   1.379   2.409   3.380
 1199SOL    HW2 4494   1.376   2.548   3.296
 1200SOL     OW 4495   0.803   3.264   2.786
 1200SOL    HW1 4496   0.893   3.278   2.744
 1200SOL    HW2 4497   0.732   3.266   2.715
 1201SOL     OW 4498   0.922   2.365   2.761
 1201SOL    HW1 4499   0.897   2.356   2.665
 1201SOL    HW2 4500   0.970   2.283   2.792
 1202SOL     OW 4501   0.539   1.926   2.374
 1202SOL    HW1 4502   0.458   1.927   2.432
 1202SOL    HW2 4503   0.542   2.009   2.319
 1203SOL     OW 4504   1.434   3.050   1.903
 1203SOL    HW1 4505   1.466   2.974   1.960
 1203SOL    HW2 4506   1.342   3.077   1.933
 1204SOL     OW 4507   0.297   1.897   2.033
 1204SOL    HW1 4508   0.346   1.981   2.012
 1204SOL    HW2 4509   0.359   1.832   2.078
 1205SOL     OW 4510   0.935   2.098   2.342
 1205SOL    HW1 4511   0.887   2.139   2.264
 1205SOL    HW2 4512   1.034   2.096   2.323
 1206SOL     OW 4513   1.076   2.545   3.326
 1206SOL    HW1 4514   0.996   2.484   3.329
 1206SOL    HW2 4515   1.157   2.492   3.302
 1207SOL     OW 4516   1.227   3.432   2.655
 1207SOL    HW1 4517   1.248   3.506   2.590
 1207SOL    HW2 4518   1.295   3.432   2.728
 1208SOL     OW 4519   0.459   3.014   2.603
 1208SOL    HW1 4520   0.388   2.987   2.668
 1208SOL    HW2 4521   0.433   2.986   2.510
 1209SOL     OW 4522   1.271   3.659   2.453
 1209SOL    HW1 4523   1.315   3.723   2.389
 1209SOL    HW2 4524   1.221   3.711   2.523
 1210SOL     OW 4525   1.032   2.411   1.878
 1210SOL    HW1 4526   0.991   2.493   1.839
 1210SOL    HW2 4527   1.096   2.437   1.951
 1211SOL     OW 4528   0.078   2.418   3.248
 1211SOL    HW1 4529   0.170   2.417   3.207
 1211SOL    HW2 4530   0.072   2.492   3.315
 1212SOL     OW 4531   0.561   2.084   3.009
 1212SOL    HW1 4532   0.599   2.000   3.046
 1212SOL    HW2 4533   0.473   2.103   3.053
 1213SOL     OW 4534   0.866   2.316   2.504
 1213SOL    HW1 4535   0.834   2.388   2.442
 1213SOL    HW2 4536   0.890   2.235   2.451
 1214SOL     OW 4537   1.017   1.901   2.615
 1214SOL    HW1 4538   0.945   1.906   2.546
 1214SOL    HW2 4539   0.993   1.832   2.684
 1215SOL     OW 4540   1.429   3.035   2.729
 1215SOL    HW1 4541   1.374   2.951   2.722
 1215SOL    HW2 4542   1.455   3.064   2.637
 1216SOL     OW 4543   1.466   2.452   2.854
 1216SOL    HW1 4544   1.436   2.357   2.861
 1216SOL    HW2 4545   1.539   2.468   2.920
 1217SOL     OW 4546   1.857   2.695   2.239
 1217SOL    HW1 4547   1.899   2.631   2.303
 1217SOL    HW2 4548   1.819   2.644   2.161
 1218SOL     OW 4549   0.488   3.247   2.036
 1218SOL    HW1 4550   0.401   3.232   2.083
 1218SOL    HW2 4551   0.471   3.273   1.941
 1219SOL     OW 4552   1.664   3.142   2.519
 1219SOL    HW1 4553   1.763   3.150   2.533
 1219SOL    HW2 4554   1.619   3.226   2.550
 1220SOL     OW 4555   1.390   2.437   1.940
 1220SOL    HW1 4556   1.336   2.416   2.021
 1220SOL    HW2 4557   1.481   2.396   1.949
 1221SOL     OW 4558   0.527   2.118   2.190
 1221SOL    HW1 4559   0.554   2.059   2.115
 1221SOL    HW2 4560   0.527   2.213   2.159
 1222SOL     OW 4561   1.064   3.209   3.202
 1222SOL    HW1 4562   0.984   3.186   3.257
 1222SOL    HW2 4563   1.147   3.183   3.251
 1223SOL     OW 4564   1.592   3.491   3.487
 1223SOL    HW1 4565   1.619   3.525   3.397
 1223SOL    HW2 4566   1.671   3.453   3.533
 1224SOL     OW 4567   1.111   3.057   2.962
 1224SOL    HW1 4568   1.071   3.101   3.043
 1224SOL    HW2 4569   1.070   3.094   2.879
 1225SOL     OW 4570   1.638   2.961   2.941
 1225SOL    HW1 4571   1.643   3.042   3.000
 1225SOL    HW2 4572   1.552   2.963   2.890
 1226SOL     OW 4573   0.915   1.951   3.264
 1226SOL    HW1 4574   0.940   1.931   3.169
 1226SOL    HW2 4575   0.987   2.007   3.306
 1227SOL     OW 4576   0.980   2.978   3.581
 1227SOL    HW1 4577   0.881   2.984   3.591
 1227SOL    HW2 4578   1.003   2.898   3.525
 1228SOL     OW 4579   0.705   2.912   2.230
 1228SOL    HW1 4580   0.691   2.919   2.329
 1228SOL    HW2 4581   0.789   2.861   2.212
 1229SOL     OW 4582   0.410   2.675   3.113
 1229SOL    HW1 4583   0.496   2.687   3.163
 1229SOL    HW2 4584   0.368   2.588   3.140
 1230SOL     OW 4585   1.274   2.248   3.124
 1230SOL    HW1 4586   1.295   2.322   3.188
 1230SOL    HW2 4587   1.185   2.265   3.081
 1231SOL     OW 4588   0.064   3.426   3.193
 1231SOL    HW1 4589   0.018   3.508   3.159
 1231SOL    HW2 4590   0.162   3.445   3.202
 1232SOL     OW 4591   0.367   2.962   2.363
 1232SOL    HW1 4592   0.360   3.045   2.307
 1232SOL    HW2 4593   0.371   2.882   2.303
 1233SOL     OW 4594   0.566   2.399   2.727
 1233SOL    HW1 4595   0.578   2.465   2.653
 1233SOL    HW2 4596   0.612   2.433   2.810
 1234SOL     OW 4597   1.252   3.210   2.250
 1234SOL    HW1 4598   1.302   3.287   2.290
 1234SOL    HW2 4599   1.157   3.212   2.282
 1235SOL     OW 4600   1.272   3.307   3.004
 1235SOL    HW1 4601   1.319   3.320   3.091
 1235SOL    HW2 4602   1.206   3.233   3.013
 1236SOL     OW 4603   1.582   2.501   2.334
 1236SOL    HW1 4604   1.551   2.562   2.407
 1236SOL    HW2 4605   1.632   2.553   2.265
 1237SOL     OW 4606   0.354   3.372   3.191
 1237SOL    HW1 4607   0.333   3.328   3.104
 1237SOL    HW2 4608   0.451   3.398   3.194
 1238SOL     OW 4609   0.402   2.613   3.460
 1238SOL    HW1 4610   0.470   2.668   3.413
 1238SOL    HW2 4611   0.442   2.525   3.487
 1239SOL     OW 4612   1.013   1.967   3.632
 1239SOL    HW1 4613   1.019   2.052   3.580
 1239SOL    HW2 4614   1.045   1.891   3.575
 1240SOL     OW 4615   0.504   1.912   3.602
 1240SOL    HW1 4616   0.462   1.855   3.532
 1240SOL    HW2 4617   0.438   1.981   3.634
 1241SOL     OW 4618   0.573   2.732   2.891
 1241SOL    HW1 4619   0.617   2.821   2.882
 1241SOL    HW2 4620   0.510   2.732   2.968
 1242SOL     OW 4621   1.360   2.724   2.907
 1242SOL    HW1 4622   1.285   2.724   2.841
 1242SOL    HW2 4623   1.397   2.632   2.916
 1243SOL     OW 4624   1.209   2.387   2.137
 1243SOL    HW1 4625   1.222   2.303   2.191
 1243SOL    HW2 4626   1.180   2.461   2.197
 1244SOL     OW 4627   0.307   2.075   3.093
 1244SOL    HW1 4628   0.284   2.112   3.183
 1244SOL    HW2 4629   0.277   1.980   3.087
 1245SOL     OW 4630   0.037   3.172   3.144
 1245SOL    HW1 4631   0.090   3.123   3.212
 1245SOL    HW2 4632   0.059   3.270   3.149
 1246SOL     OW 4633   0.732   2.496   2.926
 1246SOL    HW1 4634   0.791   2.470   2.850
 1246SOL    HW2 4635   0.704   2.592   2.915
 1247SOL     OW 4636   1.728   2.797   3.716
 1247SOL    HW1 4637   1.682   2.790   3.627
 1247SOL    HW2 4638   1.666   2.841   3.782
 1248SOL     OW 4639   0.307   1.925   2.480
 1248SOL    HW1 4640   0.296   2.019   2.513
 1248SOL    HW2 4641   0.302   1.862   2.557
 1249SOL     OW 4642   1.622   2.229   2.236
 1249SOL    HW1 4643   1.624   2.153   2.300
 1249SOL    HW2 4644   1.574   2.306   2.276
 1250SOL     OW 4645   1.023   2.628   2.828
 1250SOL    HW1 4646   1.038   2.649   2.924
 1250SOL    HW2 4647   0.993   2.533   2.819
 1251SOL     OW 4648   0.980   3.435   3.562
 1251SOL    HW1 4649   0.960   3.479   3.474
 1251SOL    HW2 4650   1.019   3.344   3.546
 1252SOL     OW 4651   0.350   2.760   3.666
 1252SOL    HW1 4652   0.426   2.804   3.714
 1252SOL    HW2 4653   0.385   2.713   3.584
 1253SOL     OW 4654   1.540   2.136   1.987
 1253SOL    HW1 4655   1.479   2.061   2.010
 1253SOL    HW2 4656   1.562   2.188   2.070
 1254SOL     OW 4657   1.303   2.700   1.904
 1254SOL    HW1 4658   1.337   2.607   1.919
 1254SOL    HW2 4659   1.321   2.727   1.809
 1255SOL     OW 4660   1.068   3.195   2.711
 1255SOL    HW1 4661   1.075   3.111   2.656
 1255SOL    HW2 4662   1.130   3.264   2.675
 1256SOL     OW 4663   0.319   2.672   2.811
 1256SOL    HW1 4664   0.412   2.708   2.816
 1256SOL    HW2 4665   0.313   2.587   2.863
 1257SOL     OW 4666   0.339   2.371   2.868
 1257SOL    HW1 4667   0.287   2.288   2.851
 1257SOL    HW2 4668   0.416   2.376   2.804
 1258SOL     OW 4669   1.138   2.242   3.540
 1258SOL    HW1 4670   1.093   2.305   3.604
 1258SOL    HW2 4671   1.231   2.273   3.523
 1259SOL     OW 4672   1.160   2.069   3.339
 1259SOL    HW1 4673   1.160   2.133   3.416
 1259SOL    HW2 4674   1.188   2.117   3.256
 1260SOL     OW 4675   0.008   3.188   2.062
 1260SOL    HW1 4676  -0.085   3.209   2.031
 1260SOL    HW2 4677   0.018   3.089   2.075
 1261SOL     OW 4678   0.088   3.663   2.789
 1261SOL    HW1 4679   0.046   3.577   2.762
 1261SOL    HW2 4680   0.182   3.666   2.755
 1262SOL     OW 4681   0.504   3.430   2.772
 1262SOL    HW1 4682   0.570   3.504   2.781
 1262SOL    HW2 4683   0.548   3.351   2.730
 1263SOL     OW 4684   1.002   2.658   3.100
 1263SOL    HW1 4685   1.043   2.626   3.186
 1263SOL    HW2 4686   0.906   2.631   3.097
 1264SOL     OW 4687   0.040   2.406   2.976
 1264SOL    HW1 4688   0.125   2.373   2.935
 1264SOL    HW2 4689   0.053   2.421   3.074
 1265SOL     OW 4690   0.189   2.382   3.584
 1265SOL    HW1 4691   0.248   2.342   3.514
 1265SOL    HW2 4692   0.131   2.453   3.543
 1266SOL     OW 4693   1.369   2.812   3.522
 1266SOL    HW1 4694   1.408   2.901   3.542
 1266SOL    HW2 4695   1.379   2.792   3.425
 1267SOL     OW 4696   0.815   2.434   2.187
 1267SOL    HW1 4697   0.822   2.345   2.141
 1267SOL    HW2 4698   0.721   2.468   2.179
 1268SOL     OW 4699   1.657   2.466   3.068
 1268SOL    HW1 4700   1.619   2.397   3.130
 1268SOL    HW2 4701   1.739   2.430   3.024
 1269SOL     OW 4702   0.252   3.426   3.606
 1269SOL    HW1 4703   0.222   3.483   3.682
 1269SOL    HW2 4704   0.245   3.329   3.632
 1270SOL     OW 4705   0.671   2.326   3.131
 1270SOL    HW1 4706   0.637   2.237   3.101
 1270SOL    HW2 4707   0.697   2.380   3.051
 1271SOL     OW 4708   0.930   3.540   3.327
 1271SOL    HW1 4709   0.906   3.522   3.232
 1271SOL    HW2 4710   0.960   3.634   3.337
 1272SOL     OW 4711   0.473   2.362   2.053
 1272SOL    HW1 4712   0.534   2.442   2.057
 1272SOL    HW2 4713   0.378   2.393   2.060
 1273SOL     OW 4714   0.159   2.999   3.328
 1273SOL    HW1 4715   0.181   2.938   3.404
 1273SOL    HW2 4716   0.169   2.950   3.242
 1274SOL     OW 4717   1.347   2.921   3.096
 1274SOL    HW1 4718   1.371   2.858   3.022
 1274SOL    HW2 4719   1.257   2.961   3.078
 1275SOL     OW 4720   1.302   2.717   2.171
 1275SOL    HW1 4721   1.216   2.686   2.213
 1275SOL    HW2 4722   1.298   2.703   2.072
 1276SOL     OW 4723   1.759   3.609   3.016
 1276SOL    HW1 4724   1.820   3.639   2.943
 1276SOL    HW2 4725   1.721   3.520   2.994
 1277SOL     OW 4726   1.252   3.593   2.990
 1277SOL    HW1 4727   1.336   3.598   2.936
 1277SOL    HW2 4728   1.229   3.497   3.008
 1278SOL     OW 4729   0.083   3.120   2.884
 1278SOL    HW1 4730   0.078   3.119   2.984
 1278SOL    HW2 4731   0.000   3.079   2.846
 1279SOL     OW 4732   0.688   3.524   3.578
 1279SOL    HW1 4733   0.632   3.605   3.587
 1279SOL    HW2 4734   0.740   3.528   3.492
 1280SOL     OW 4735   1.726   1.997   2.385
 1280SOL    HW1 4736   1.799   1.980   2.318
 1280SOL    HW2 4737   1.695   1.910   2.423
 1281SOL     OW 4738   1.388   3.435   2.339
 1281SOL    HW1 4739   1.455   3.447   2.265
 1281SOL    HW2 4740   1.348   3.524   2.362
 1282SOL     OW 4741   0.130   3.656   3.713
 1282SOL    HW1 4742   0.089   3.582   3.766
 1282SOL    HW2 4743   0.194   3.707   3.771
 1283SOL     OW 4744   1.280   2.789   2.534
 1283SOL    HW1 4745   1.340   2.708   2.536
 1283SOL    HW2 4746   1.320   2.858   2.474
 1284SOL     OW 4747   0.830   3.135   3.284
 1284SOL    HW1 4748   0.825   3.168   3.379
 1284SOL    HW2 4749   0.744   3.154   3.238
 1285SOL     OW 4750   0.672   3.478   2.016
 1285SOL    HW1 4751   0.681   3.488   1.917
 1285SOL    HW2 4752   0.632   3.389   2.037
 1286SOL     OW 4753   1.650   3.582   3.256
 1286SOL    HW1 4754   1.703   3.592   3.172
 1286SOL    HW2 4755   1.623   3.672   3.290
 1287SOL     OW 4756   1.841   2.037   2.825
 1287SOL    HW1 4757   1.880   1.952   2.789
 1287SOL    HW2 4758   1.743   2.039   2.806
 1288SOL     OW 4759   0.263   2.188   2.582
 1288SOL    HW1 4760   0.184   2.239   2.548
 1288SOL    HW2 4761   0.254   2.173   2.680
 1289SOL     OW 4762   1.194   3.474   1.893
 1289SOL    HW1 4763   1.200   3.381   1.930
 1289SOL    HW2 4764   1.135   3.474   1.813
 1290SOL     OW 4765   0.822   2.864   3.234
 1290SOL    HW1 4766   0.862   2.863   3.142
 1290SOL    HW2 4767   0.832   2.956   3.274
 1291SOL     OW 4768   0.916   2.772   2.153
 1291SOL    HW1 4769   0.979   2.810   2.085
 1291SOL    HW2 4770   0.956   2.689   2.192
 1292SOL     OW 4771   1.504   3.469   1.906
 1292SOL    HW1 4772   1.412   3.506   1.913
 1292SOL    HW2 4773   1.542   3.489   1.816
 1293SOL     OW 4774   0.372   3.150   3.352
 1293SOL    HW1 4775   0.359   3.243   3.318
 1293SOL    HW2 4776   0.288   3.098   3.339
 1294SOL     OW 4777   1.614   3.154   3.151
 1294SOL    HW1 4778   1.674   3.157   3.231
 1294SOL    HW2 4779   1.539   3.218   3.164
 1295SOL     OW 4780   1.039   2.960   2.558
 1295SOL    HW1 4781   0.969   2.913   2.612
 1295SOL    HW2 4782   1.098   2.892   2.515
 1296SOL     OW 4783   1.014   2.098   2.833
 1296SOL    HW1 4784   1.006   2.062   2.740
 1296SOL    HW2 4785   1.012   2.022   2.898
 1297SOL     OW 4786   0.590   3.349   2.353
 1297SOL    HW1 4787   0.632   3.291   2.283
 1297SOL    HW2 4788   0.546   3.428   2.309
 1298SOL     OW 4789   1.709   2.247   3.243
 1298SOL    HW1 4790   1.782   2.316   3.247
 1298SOL    HW2 4791   1.737   2.172   3.184
 1299SOL     OW 4792   0.255   3.210   2.152
 1299SOL    HW1 4793   0.159   3.211   2.125
 1299SOL    HW2 4794   0.267   3.263   2.236
 1300SOL     OW 4795   0.105   2.875   3.588
 1300SOL    HW1 4796   0.028   2.842   3.642
 1300SOL    HW2 4797   0.190   2.845   3.630
 1301SOL     OW 4798   0.672   2.065   3.351
 1301SOL    HW1 4799   0.762   2.049   3.311
 1301SOL    HW2 4800   0.680   2.070   3.450
 1302SOL     OW 4801   0.075   2.207   1.895
 1302SOL    HW1 4802  -0.017   2.179   1.866
 1302SOL    HW2 4803   0.106   2.284   1.839
 1303SOL     OW 4804   0.072   2.028   2.180
 1303SOL    HW1 4805   0.055   2.111   2.126
 1303SOL    HW2 4806   0.162   1.991   2.158
 1304SOL     OW 4807   1.183   3.197   1.981
 1304SOL    HW1 4808   1.084   3.186   1.983
 1304SOL    HW2 4809   1.217   3.212   2.074
 1305SOL     OW 4810   0.613   2.704   3.293
 1305SOL    HW1 4811   0.669   2.785   3.276
 1305SOL    HW2 4812   0.672   2.624   3.296
 1306SOL     OW 4813   1.493   3.629   2.821
 1306SOL    HW1 4814   1.526   3.693   2.752
 1306SOL    HW2 4815   1.559   3.623   2.896
 1307SOL     OW 4816   0.716   2.427   3.570
 1307SOL    HW1 4817   0.735   2.492   3.644
 1307SOL    HW2 4818   0.776   2.347   3.579
 1308SOL     OW 4819   1.450   3.082   3.495
 1308SOL    HW1 4820   1.441   3.072   3.594
 1308SOL    HW2 4821   1.546   3.075   3.469
 1309SOL     OW 4822   0.390   3.603   3.422
 1309SOL    HW1 4823   0.299   3.644   3.420
 1309SOL    HW2 4824   0.383   3.509   3.454
 1310SOL     OW 4825   1.674   2.745   3.116
 1310SOL    HW1 4826   1.647   2.656   3.079
 1310SOL    HW2 4827   1.675   2.813   3.043
 1311SOL     OW 4828   1.225   2.187   2.311
 1311SOL    HW1 4829   1.290   2.113   2.300
 1311SOL    HW2 4830   1.245   2.237   2.395
 1312SOL     OW 4831   0.594   2.607   2.514
 1312SOL    HW1 4832   0.644   2.692   2.495
 1312SOL    HW2 4833   0.506   2.609   2.466
 1313SOL     OW 4834   1.777   2.204   3.504
 1313SOL    HW1 4835   1.760   2.235   3.410
 1313SOL    HW2 4836   1.693   2.167   3.542
 1314SOL     OW 4837   0.859   3.236   1.878
 1314SOL    HW1 4838   0.813   3.251   1.966
 1314SOL    HW2 4839   0.903   3.321   1.848
 1315SOL     OW 4840   0.661   3.652   2.815
 1315SOL    HW1 4841   0.615   3.740   2.802
 1315SOL    HW2 4842   0.760   3.664   2.808
 1316SOL     OW 4843   0.859   2.818   2.723
 1316SOL    HW1 4844   0.913   2.749   2.771
 1316SOL    HW2 4845   0.827   2.887   2.789
 1317SOL     OW 4846   1.083   2.846   1.949
 1317SOL    HW1 4847   1.060   2.899   1.867
 1317SOL    HW2 4848   1.164   2.790   1.930
 1318SOL     OW 4849   1.861   3.431   2.713
 1318SOL    HW1 4850   1.790   3.419   2.643
 1318SOL    HW2 4851   1.862   3.352   2.773
 1319SOL     OW 4852   0.221   3.176   3.706
 1319SOL    HW1 4853   0.156   3.103   3.685
 1319SOL    HW2 4854   0.225   3.190   3.804
 1320SOL     OW 4855   0.079   3.102   2.515
 1320SOL    HW1 4856   0.078   3.055   2.603
 1320SOL    HW2 4857   0.161   3.074   2.464
 1321SOL     OW 4858   0.672   3.253   3.486
 1321SOL    HW1 4859   0.594   3.203   3.524
 1321SOL    HW2 4860   0.669   3.348   3.517
 1322SOL     OW 4861   0.428   2.286   2.382
 1322SOL    HW1 4862   0.458   2.214   2.320
 1322SOL    HW2 4863   0.389   2.246   2.465
 1323SOL     OW 4864   1.705   3.349   2.966
 1323SOL    HW1 4865   1.612   3.324   2.939
 1323SOL    HW2 4866   1.731   3.299   3.048
 1324SOL     OW 4867   0.317   2.409   3.142
 1324SOL    HW1 4868   0.355   2.350   3.214
 1324SOL    HW2 4869   0.357   2.383   3.054
 1325SOL     OW 4870   0.812   3.448   2.549
 1325SOL    HW1 4871   0.844   3.458   2.455
 1325SOL    HW2 4872   0.733   3.386   2.551
 1326SOL     OW 4873   1.424   2.076   2.974
 1326SOL    HW1 4874   1.476   2.011   3.029
 1326SOL    HW2 4875   1.375   2.139   3.035
 1327SOL     OW 4876   1.001   1.896   3.016
 1327SOL    HW1 4877   0.938   1.824   2.985
 1327SOL    HW2 4878   1.094   1.860   3.016
 1328SOL     OW 4879   0.770   3.192   2.163
 1328SOL    HW1 4880   0.724   3.105   2.180
 1328SOL    HW2 4881   0.861   3.189   2.204
 1329SOL     OW 4882   0.618   3.429   3.146
 1329SOL    HW1 4883   0.613   3.511   3.203
 1329SOL    HW2 4884   0.707   3.426   3.101
 1330SOL     OW 4885   1.352   1.914   2.030
 1330SOL    HW1 4886   1.387   1.873   1.946
 1330SOL    HW2 4887   1.262   1.876   2.050
 1331SOL     OW 4888   1.300   2.315   2.553
 1331SOL    HW1 4889   1.241   2.395   2.557
 1331SOL    HW2 4890   1.315   2.280   2.646
 1332SOL     OW 4891   1.593   2.083   2.744
 1332SOL    HW1 4892   1.509   2.082   2.798
 1332SOL    HW2 4893   1.595   2.166   2.688
 1333SOL     OW 4894   0.039   2.939   2.162
 1333SOL    HW1 4895   0.138   2.928   2.153
 1333SOL    HW2 4896  -0.001   2.853   2.194
 1334SOL     OW 4897   0.875   3.508   2.199
 1334SOL    HW1 4898   0.798   3.473   2.145
 1334SOL    HW2 4899   0.843   3.579   2.261
 1335SOL     OW 4900   0.230   2.490   3.837
 1335SOL    HW1 4901   0.137   2.488   3.874
 1335SOL    HW2 4902   0.231   2.451   3.745
 1336SOL     OW 4903   0.225   2.137   4.720
 1336SOL    HW1 4904   0.260   2.120   4.812
 1336SOL    HW2 4905   0.137   2.092   4.708
 1337SOL     OW 4906   0.019   2.230   4.371
 1337SOL    HW1 4907  -0.063   2.273   4.410
 1337SOL    HW2 4908  -0.009   2.157   4.308
 1338SOL     OW 4909   0.569   3.137   4.889
 1338SOL    HW1 4910   0.476   3.130   4.852
 1338SOL    HW2 4911   0.580   3.226   4.933
 1339SOL     OW 4912   1.555   3.373   4.427
 1339SOL    HW1 4913   1.498   3.357   4.508
 1339SOL    HW2 4914   1.496   3.383   4.347
 1340SOL     OW 4915   1.135   2.565   4.441
 1340SOL    HW1 4916   1.192   2.643   4.416
 1340SOL    HW2 4917   1.075   2.591   4.517
 1341SOL     OW 4918   0.768   3.006   4.747
 1341SOL    HW1 4919   0.690   3.023   4.807
 1341SOL    HW2 4920   0.802   3.093   4.711
 1342SOL     OW 4921   0.850   2.660   5.547
 1342SOL    HW1 4922   0.846   2.736   5.612
 1342SOL    HW2 4923   0.872   2.696   5.456
 1343SOL     OW 4924   0.685   2.874   4.389
 1343SOL    HW1 4925   0.754   2.858   4.459
 1343SOL    HW2 4926   0.612   2.931   4.427
 1344SOL     OW 4927   0.686   3.023   5.527
 1344SOL    HW1 4928   0.746   3.102   5.541
 1344SOL    HW2 4929   0.600   3.054   5.486
 1345SOL     OW 4930   0.335   3.297   4.785
 1345SOL    HW1 4931   0.257   3.266   4.732
 1345SOL    HW2 4932   0.393   3.355   4.728
 1346SOL     OW 4933   1.460   3.367   5.063
 1346SOL    HW1 4934   1.484   3.461   5.089
 1346SOL    HW2 4935   1.444   3.313   5.145
 1347SOL     OW 4936   0.438   2.254   5.223
 1347SOL    HW1 4937   0.520   2.198   5.232
 1347SOL    HW2 4938   0.357   2.196   5.227
 1348SOL     OW 4939   1.603   2.309   4.461
 1348SOL    HW1 4940   1.529   2.355   4.411
 1348SOL    HW2 4941   1.654   2.377   4.514
 1349SOL     OW 4942   0.231   3.575   4.207
 1349SOL    HW1 4943   0.265   3.652   4.261
 1349SOL    HW2 4944   0.275   3.575   4.117
 1350SOL     OW 4945   1.127   3.203   5.414
 1350SOL    HW1 4946   1.174   3.203   5.502
 1350SOL    HW2 4947   1.079   3.116   5.403
 1351SOL     OW 4948   0.230   3.296   4.262
 1351SOL    HW1 4949   0.204   3.392   4.262
 1351SOL    HW2 4950   0.159   3.242   4.307
 1352SOL     OW 4951   0.240   2.953   4.610
 1352SOL    HW1 4952   0.254   2.869   4.662
 1352SOL    HW2 4953   0.185   3.017   4.665
 1353SOL     OW 4954   0.620   3.648   5.163
 1353SOL    HW1 4955   0.528   3.631   5.198
 1353SOL    HW2 4956   0.648   3.740   5.189
 1354SOL     OW 4957   0.606   2.826   3.847
 1354SOL    HW1 4958   0.613   2.910   3.793
 1354SOL    HW2 4959   0.652   2.839   3.935
 1355SOL     OW 4960   1.594   1.976   5.204
 1355SOL    HW1 4961   1.576   2.043   5.132
 1355SOL    HW2 4962   1.591   2.022   5.293
 1356SOL     OW 4963   0.122   2.505   4.287
 1356SOL    HW1 4964   0.077   2.417   4.304
 1356SOL    HW2 4965   0.121   2.559   4.371
 1357SOL     OW 4966   1.842   3.629   4.083
 1357SOL    HW1 4967   1.896   3.600   4.163
 1357SOL    HW2 4968   1.872   3.719   4.054
 1358SOL     OW 4969   0.027   3.458   3.841
 1358SOL    HW1 4970   0.008   3.362   3.862
 1358SOL    HW2 4971  -0.006   3.516   3.916
 1359SOL     OW 4972   1.641   2.970   4.156
 1359SOL    HW1 4973   1.727   2.972   4.104
 1359SOL    HW2 4974   1.655   3.017   4.244
 1360SOL     OW 4975   0.113   2.599   5.321
 1360SOL    HW1 4976   0.201   2.586   5.366
 1360SOL    HW2 4977   0.100   2.696   5.299
 1361SOL     OW 4978   0.613   3.227   4.450
 1361SOL    HW1 4979   0.564   3.140   4.459
 1361SOL    HW2 4980   0.590   3.270   4.363
 1362SOL     OW 4981   1.293   3.090   5.147
 1362SOL    HW1 4982   1.330   3.017   5.089
 1362SOL    HW2 4983   1.345   3.095   5.232
 1363SOL     OW 4984   0.809   1.866   4.226
 1363SOL    HW1 4985   0.849   1.957   4.217
 1363SOL    HW2 4986   0.709   1.874   4.232
 1364SOL     OW 4987   0.197   2.838   4.988
 1364SOL    HW1 4988   0.286   2.793   4.974
 1364SOL    HW2 4989   0.124   2.773   4.969
 1365SOL     OW 4990   1.525   2.861   3.914
 1365SOL    HW1 4991   1.462   2.785   3.927
 1365SOL    HW2 4992   1.573   2.879   4.000
 1366SOL     OW 4993   1.187   3.654   5.340
 1366SOL    HW1 4994   1.211   3.714   5.264
 1366SOL    HW2 4995   1.194   3.559   5.310
 1367SOL     OW 4996   0.317   2.113   5.525
 1367SOL    HW1 4997   0.388   2.184   5.531
 1367SOL    HW2 4998   0.229   2.152   5.553
 1368SOL     OW 4999   1.466   3.279   4.677
 1368SOL    HW1 5000   1.407   3.285   4.757
 1368SOL    HW2 5001   1.451   3.191   4.631
 1369SOL     OW 5002   1.667   3.576   4.296
 1369SOL    HW1 5003   1.626   3.553   4.208
 1369SOL    HW2 5004   1.649   3.502   4.361
 1370SOL     OW 5005   0.598   2.591   3.994
 1370SOL    HW1 5006   0.622   2.660   3.926
 1370SOL    HW2 5007   0.520   2.624   4.048
 1371SOL     OW 5008   1.281   2.207   4.668
 1371SOL    HW1 5009   1.195   2.157   4.655
 1371SOL    HW2 5010   1.343   2.153   4.724
 1372SOL     OW 5011   1.576   3.524   4.031
 1372SOL    HW1 5012   1.665   3.570   4.034
 1372SOL    HW2 5013   1.555   3.500   3.936
 1373SOL     OW 5014   0.807   2.467   5.189
 1373SOL    HW1 5015   0.760   2.464   5.278
 1373SOL    HW2 5016   0.756   2.412   5.123
 1374SOL     OW 5017   1.394   2.331   5.398
 1374SOL    HW1 5018   1.374   2.374   5.486
 1374SOL    HW2 5019   1.472   2.269   5.407
 1375SOL     OW 5020   0.973   2.752   5.296
 1375SOL    HW1 5021   1.019   2.668   5.267
 1375SOL    HW2 5022   0.917   2.786   5.221
 1376SOL     OW 5023   0.991   2.272   4.966
 1376SOL    HW1 5024   0.914   2.306   5.020
 1376SOL    HW2 5025   0.957   2.221   4.887
 1377SOL     OW 5026   1.041   2.563   4.153
 1377SOL    HW1 5027   1.067   2.559   4.249
 1377SOL    HW2 5028   0.956   2.512   4.139
 1378SOL     OW 5029   0.076   2.673   4.513
 1378SOL    HW1 5030   0.175   2.661   4.522
 1378SOL    HW2 5031   0.052   2.768   4.534
 1379SOL     OW 5032   0.130   3.683   5.295
 1379SOL    HW1 5033   0.120   3.668   5.394
 1379SOL    HW2 5034   0.044   3.719   5.259
 1380SOL     OW 5035   0.865   2.210   3.919
 1380SOL    HW1 5036   0.924   2.273   3.870
 1380SOL    HW2 5037   0.884   2.116   3.890
 1381SOL     OW 5038   1.719   2.447   5.555
 1381SOL    HW1 5039   1.693   2.536   5.519
 1381SOL    HW2 5040   1.717   2.379   5.482
 1382SOL     OW 5041   1.362   3.006   4.269
 1382SOL    HW1 5042   1.445   2.977   4.221
 1382SOL    HW2 5043   1.313   3.073   4.213
 1383SOL     OW 5044   0.550   2.058   4.609
 1383SOL    HW1 5045   0.545   2.053   4.709
 1383SOL    HW2 5046   0.552   2.154   4.580
 1384SOL     OW 5047   1.008   3.318   4.201
 1384SOL    HW1 5048   0.962   3.390   4.149
 1384SOL    HW2 5049   1.004   3.338   4.299
 1385SOL     OW 5050   0.351   3.663   4.577
 1385SOL    HW1 5051   0.401   3.577   4.583
 1385SOL    HW2 5052   0.416   3.740   4.574
 1386SOL     OW 5053   1.227   3.412   5.230
 1386SOL    HW1 5054   1.233   3.335   5.294
 1386SOL    HW2 5055   1.175   3.386   5.150
 1387SOL     OW 5056   0.321   2.805   3.966
 1387SOL    HW1 5057   0.403   2.844   3.924
 1387SOL    HW2 5058   0.294   2.723   3.917
 1388SOL     OW 5059   1.458   2.597   4.452
 1388SOL    HW1 5060   1.453   2.532   4.527
 1388SOL    HW2 5061   1.538   2.656   4.465
 1389SOL     OW 5062   0.461   3.128   5.451
 1389SOL    HW1 5063   0.411   3.129   5.365
 1389SOL    HW2 5064   0.398   3.110   5.527
 1390SOL     OW 5065   1.111   3.638   3.961
 1390SOL    HW1 5066   1.051   3.576   4.011
 1390SOL    HW2 5067   1.142   3.594   3.876
 1391SOL     OW 5068   0.202   2.147   5.222
 1391SOL    HW1 5069   0.122   2.207   5.209
 1391SOL    HW2 5070   0.192   2.098   5.308
 1392SOL     OW 5071   1.632   3.239   3.805
 1392SOL    HW1 5072   1.600   3.333   3.795
 1392SOL    HW2 5073   1.556   3.176   3.793
 1393SOL     OW 5074   0.464   3.605   4.047
 1393SOL    HW1 5075   0.497   3.644   4.133
 1393SOL    HW2 5076   0.540   3.598   3.982
 1394SOL     OW 5077   1.400   1.969   4.150
 1394SOL    HW1 5078   1.376   1.932   4.060
 1394SOL    HW2 5079   1.499   1.985   4.154
 1395SOL     OW 5080   0.249   3.647   4.965
 1395SOL    HW1 5081   0.306   3.582   5.015
 1395SOL    HW2 5082   0.233   3.614   4.872
 1396SOL     OW 5083   0.940   3.560   4.628
 1396SOL    HW1 5084   1.020   3.503   4.649
 1396SOL    HW2 5085   0.891   3.520   4.551
 1397SOL     OW 5086   0.382   2.562   4.204
 1397SOL    HW1 5087   0.427   2.472   4.201
 1397SOL    HW2 5088   0.288   2.551   4.237
 1398SOL     OW 5089   1.547   2.084   5.453
 1398SOL    HW1 5090   1.542   2.121   5.545
 1398SOL    HW2 5091   1.475   2.015   5.441
 1399SOL     OW 5092   0.614   1.984   3.841
 1399SOL    HW1 5093   0.712   1.962   3.848
 1399SOL    HW2 5094   0.583   1.967   3.748
 1400SOL     OW 5095   0.781   2.126   5.473
 1400SOL    HW1 5096   0.848   2.065   5.516
 1400SOL    HW2 5097   0.708   2.145   5.538
 1401SOL     OW 5098   0.888   3.376   4.919
 1401SOL    HW1 5099   0.865   3.351   4.825
 1401SOL    HW2 5100   0.949   3.307   4.958
 1402SOL     OW 5101   1.351   2.452   5.157
 1402SOL    HW1 5102   1.379   2.409   5.242
 1402SOL    HW2 5103   1.376   2.548   5.158
 1403SOL     OW 5104   0.803   3.264   4.648
 1403SOL    HW1 5105   0.893   3.278   4.606
 1403SOL    HW2 5106   0.732   3.266   4.577
 1404SOL     OW 5107   0.922   2.365   4.623
 1404SOL    HW1 5108   0.897   2.356   4.527
 1404SOL    HW2 5109   0.970   2.283   4.654
 1405SOL     OW 5110   0.539   1.926   4.236
 1405SOL    HW1 5111   0.458   1.927   4.294
 1405SOL    HW2 5112   0.542   2.009   4.181
 1406SOL     OW 5113   1.434   3.050   3.765
 1406SOL    HW1 5114   1.466   2.974   3.822
 1406SOL    HW2 5115   1.342   3.077   3.795
 1407SOL     OW 5116   0.297   1.897   3.895
 1407SOL    HW1 5117   0.346   1.981   3.874
 1407SOL    HW2 5118   0.359   1.832   3.940
 1408SOL     OW 5119   0.935   2.098   4.204
 1408SOL    HW1 5120   0.887   2.139   4.126
 1408SOL    HW2 5121   1.034   2.096   4.185
 1409SOL     OW 5122   1.076   2.545   5.188
 1409SOL    HW1 5123   0.996   2.484   5.191
 1409SOL    HW2 5124   1.157   2.492   5.164
 1410SOL     OW 5125   1.227   3.432   4.517
 1410SOL    HW1 5126   1.248   3.506   4.452
 1410SOL    HW2 5127   1.295   3.432   4.590
 1411SOL     OW 5128   0.459   3.014   4.465
 1411SOL    HW1 5129   0.388   2.987   4.530
 1411SOL    HW2 5130   0.433   2.986   4.372
 1412SOL     OW 5131   1.271   3.659   4.315
 1412SOL    HW1 5132   1.315   3.723   4.251
 1412SOL    HW2 5133   1.221   3.711   4.385
 1413SOL     OW 5134   1.032   2.411   3.740
 1413SOL    HW1 5135   0.991   2.493   3.701
 1413SOL    HW2 5136   1.096   2.437   3.813
 1414SOL     OW 5137   0.078   2.418   5.110
 1414SOL    HW1 5138   0.170   2.417   5.069
 1414SOL    HW2 5139   0.072   2.492   5.177
 1415SOL     OW 5140   0.561   2.084   4.871
 1415SOL    HW1 5141   0.599   2.000   4.908
 1415SOL    HW2 5142   0.473   2.103   4.915
 1416SOL     OW 5143   0.866   2.316   4.366
 1416SOL    HW1 5144   0.834   2.388   4.304
 1416SOL    HW2 5145   0.890   2.235   4.313
 1417SOL     OW 5146   1.017   1.901   4.477
 1417SOL    HW1 5147   0.945   1.906   4.408
 1417SOL    HW2 5148   0.993   1.832   4.546
 1418SOL     OW 5149   1.429   3.035   4.591
 1418SOL    HW1 5150   1.374   2.951   4.584
 1418SOL    HW2 5151   1.455   3.064   4.499
 1419SOL     OW 5152   1.466   2.452   4.716
 1419SOL    HW1 5153   1.436   2.357   4.723
 1419SOL    HW2 5154   1.539   2.468   4.782
 1420SOL     OW 5155   0.488   3.247   3.898
 1420SOL    HW1 5156   0.401   3.232   3.945
 1420SOL    HW2 5157   0.471   3.273   3.803
 1421SOL     OW 5158   1.390   2.437   3.802
 1421SOL    HW1 5159   1.336   2.416   3.883
 1421SOL    HW2 5160   1.481   2.396   3.811
 1422SOL     OW 5161   0.527   2.118   4.052
 1422SOL    HW1 5162   0.554   2.059   3.977
 1422SOL    HW2 5163   0.527   2.213   4.021
 1423SOL     OW 5164   1.754   3.085   5.312
 1423SOL    HW1 5165   1.845   3.046   5.299
 1423SOL    HW2 5166   1.762   3.181   5.336
 1424SOL     OW 5167   1.064   3.209   5.064
 1424SOL    HW1 5168   0.984   3.186   5.119
 1424SOL    HW2 5169   1.147   3.183   5.113
 1425SOL     OW 5170   1.592   3.491   5.349
 1425SOL    HW1 5171   1.619   3.525   5.259
 1425SOL    HW2 5172   1.671   3.453   5.395
 1426SOL     OW 5173   1.111   3.057   4.824
 1426SOL    HW1 5174   1.071   3.101   4.905
 1426SOL    HW2 5175   1.070   3.094   4.741
 1427SOL     OW 5176   1.638   2.961   4.803
 1427SOL    HW1 5177   1.643   3.042   4.862
 1427SOL    HW2 5178   1.552   2.963   4.752
 1428SOL     OW 5179   0.915   1.951   5.126
 1428SOL    HW1 5180   0.940   1.931   5.031
 1428SOL    HW2 5181   0.987   2.007   5.168
 1429SOL     OW 5182   0.980   2.978   5.443
 1429SOL    HW1 5183   0.881   2.984   5.453
 1429SOL    HW2 5184   1.003   2.898   5.387
 1430SOL     OW 5185   0.705   2.912   4.092
 1430SOL    HW1 5186   0.691   2.919   4.191
 1430SOL    HW2 5187   0.789   2.861   4.074
 1431SOL     OW 5188   0.410   2.675   4.975
 1431SOL    HW1 5189   0.496   2.687   5.025
 1431SOL    HW2 5190   0.368   2.588   5.002
 1432SOL     OW 5191   1.274   2.248   4.986
 1432SOL    HW1 5192   1.295   2.322   5.050
 1432SOL    HW2 5193   1.185   2.265   4.943
 1433SOL     OW 5194   0.064   3.426   5.055
 1433SOL    HW1 5195   0.018   3.508   5.021
 1433SOL    HW2 5196   0.162   3.445   5.064
 1434SOL     OW 5197   0.367   2.962   4.225
 1434SOL    HW1 5198   0.360   3.045   4.169
 1434SOL    HW2 5199   0.371   2.882   4.165
 1435SOL     OW 5200   0.566   2.399   4.589
 1435SOL    HW1 5201   0.578   2.465   4.515
 1435SOL    HW2 5202   0.612   2.433   4.672
 1436SOL     OW 5203   1.252   3.210   4.112
 1436SOL    HW1 5204   1.302   3.287   4.152
 1436SOL    HW2 5205   1.157   3.212   4.144
 1437SOL     OW 5206   1.272   3.307   4.866
 1437SOL    HW1 5207   1.319   3.320   4.953
 1437SOL    HW2 5208   1.206   3.233   4.875
 1438SOL     OW 5209   1.582   2.501   4.196
 1438SOL    HW1 5210   1.551   2.562   4.269
 1438SOL    HW2 5211   1.632   2.553   4.127
 1439SOL     OW 5212   0.354   3.372   5.053
 1439SOL    HW1 5213   0.333   3.328   4.966
 1439SOL    HW2 5214   0.451   3.398   5.056
 1440SOL     OW 5215   0.402   2.613   5.322
 1440SOL    HW1 5216   0.470   2.668   5.275
 1440SOL    HW2 5217   0.442   2.525   5.349
 1441SOL     OW 5218   1.587   2.641   5.394
 1441SOL    HW1 5219   1.495   2.679   5.389
 1441SOL    HW2 5220   1.647   2.688   5.329
 1442SOL     OW 5221   1.013   1.967   5.494
 1442SOL    HW1 5222   1.019   2.052   5.442
 1442SOL    HW2 5223   1.045   1.891   5.437
 1443SOL     OW 5224   0.504   1.912   5.464
 1443SOL    HW1 5225   0.462   1.855   5.394
 1443SOL    HW2 5226   0.438   1.981   5.496
 1444SOL     OW 5227   0.573   2.732   4.753
 1444SOL    HW1 5228   0.617   2.821   4.744
 1444SOL    HW2 5229   0.510   2.732   4.830
 1445SOL     OW 5230   1.360   2.724   4.769
 1445SOL    HW1 5231   1.285   2.724   4.703
 1445SOL    HW2 5232   1.397   2.632   4.778
 1446SOL     OW 5233   1.209   2.387   3.999
 1446SOL    HW1 5234   1.222   2.303   4.053
 1446SOL    HW2 5235   1.180   2.461   4.059
 1447SOL     OW 5236   0.307   2.075   4.955
 1447SOL    HW1 5237   0.284   2.112   5.045
 1447SOL    HW2 5238   0.277   1.980   4.949
 1448SOL     OW 5239   0.037   3.172   5.006
 1448SOL    HW1 5240   0.090   3.123   5.074
 1448SOL    HW2 5241   0.059   3.270   5.011
 1449SOL     OW 5242   0.732   2.496   4.788
 1449SOL    HW1 5243   0.791   2.470   4.712
 1449SOL    HW2 5244   0.704   2.592   4.777
 1450SOL     OW 5245   1.728   2.797   5.578
 1450SOL    HW1 5246   1.682   2.790   5.489
 1450SOL    HW2 5247   1.666   2.841   5.644
 1451SOL     OW 5248   0.307   1.925   4.342
 1451SOL    HW1 5249   0.296   2.019   4.375
 1451SOL    HW2 5250   0.302   1.862   4.419
 1452SOL     OW 5251   1.622   2.229   4.098
 1452SOL    HW1 5252   1.624   2.153   4.162
 1452SOL    HW2 5253   1.574   2.306   4.138
 1453SOL     OW 5254   1.023   2.628   4.690
 1453SOL    HW1 5255   1.038   2.649   4.786
 1453SOL    HW2 5256   0.993   2.533   4.681
 1454SOL     OW 5257   0.980   3.435   5.424
 1454SOL    HW1 5258   0.960   3.479   5.336
 1454SOL    HW2 5259   1.019   3.344   5.408
 1455SOL     OW 5260   1.859   3.380   5.329
 1455SOL    HW1 5261   1.873   3.407   5.234
 1455SOL    HW2 5262   1.942   3.402   5.382
 1456SOL     OW 5263   0.350   2.760   5.528
 1456SOL    HW1 5264   0.426   2.804   5.576
 1456SOL    HW2 5265   0.385   2.713   5.446
 1457SOL     OW 5266   1.540   2.136   3.849
 1457SOL    HW1 5267   1.479   2.061   3.872
 1457SOL    HW2 5268   1.562   2.188   3.932
 1458SOL     OW 5269   1.303   2.700   3.766
 1458SOL    HW1 5270   1.337   2.607   3.781
 1458SOL    HW2 5271   1.321   2.727   3.671
 1459SOL     OW 5272   1.068   3.195   4.573
 1459SOL    HW1 5273   1.075   3.111   4.518
 1459SOL    HW2 5274   1.130   3.264   4.537
 1460SOL     OW 5275   0.319   2.672   4.673
 1460SOL    HW1 5276   0.412   2.708   4.678
 1460SOL    HW2 5277   0.313   2.587   4.725
 1461SOL     OW 5278   0.339   2.371   4.730
 1461SOL    HW1 5279   0.287   2.288   4.713
 1461SOL    HW2 5280   0.416   2.376   4.666
 1462SOL     OW 5281   1.138   2.242   5.402
 1462SOL    HW1 5282   1.093   2.305   5.466
 1462SOL    HW2 5283   1.231   2.273   5.385
 1463SOL     OW 5284   1.160   2.069   5.201
 1463SOL    HW1 5285   1.160   2.133   5.278
 1463SOL    HW2 5286   1.188   2.117   5.118
 1464SOL     OW 5287   0.008   3.188   3.924
 1464SOL    HW1 5288  -0.085   3.209   3.893
 1464SOL    HW2 5289   0.018   3.089   3.937
 1465SOL     OW 5290   0.088   3.663   4.651
 1465SOL    HW1 5291   0.046   3.577   4.624
 1465SOL    HW2 5292   0.182   3.666   4.617
 1466SOL     OW 5293   0.504   3.430   4.634
 1466SOL    HW1 5294   0.570   3.504   4.643
 1466SOL    HW2 5295   0.548   3.351   4.592
 1467SOL     OW 5296   1.002   2.658   4.962
 1467SOL    HW1 5297   1.043   2.626   5.048
 1467SOL    HW2 5298   0.906   2.631   4.959
 1468SOL     OW 5299   0.040   2.406   4.838
 1468SOL    HW1 5300   0.125   2.373   4.797
 1468SOL    HW2 5301   0.053   2.421   4.936
 1469SOL     OW 5302   0.189   2.382   5.446
 1469SOL    HW1 5303   0.248   2.342   5.376
 1469SOL    HW2 5304   0.131   2.453   5.405
 1470SOL     OW 5305   1.369   2.812   5.384
 1470SOL    HW1 5306   1.408   2.901   5.404
 1470SOL    HW2 5307   1.379   2.792   5.287
 1471SOL     OW 5308   0.815   2.434   4.049
 1471SOL    HW1 5309   0.822   2.345   4.003
 1471SOL    HW2 5310   0.721   2.468   4.041
 1472SOL     OW 5311   0.252   3.426   5.468
 1472SOL    HW1 5312   0.222   3.483   5.544
 1472SOL    HW2 5313   0.245   3.329   5.494
 1473SOL     OW 5314   0.671   2.326   4.993
 1473SOL    HW1 5315   0.637   2.237   4.963
 1473SOL    HW2 5316   0.697   2.380   4.913
 1474SOL     OW 5317   0.930   3.540   5.189
 1474SOL    HW1 5318   0.906   3.522   5.094
 1474SOL    HW2 5319   0.960   3.634   5.199
 1475SOL     OW 5320   0.473   2.362   3.915
 1475SOL    HW1 5321   0.534   2.442   3.919
 1475SOL    HW2 5322   0.378   2.393   3.922
 1476SOL     OW 5323   0.159   2.999   5.190
 1476SOL    HW1 5324   0.181   2.938   5.266
 1476SOL    HW2 5325   0.169   2.950   5.104
 1477SOL     OW 5326   1.347   2.921   4.958
 1477SOL    HW1 5327   1.371   2.858   4.884
 1477SOL    HW2 5328   1.257   2.961   4.940
 1478SOL     OW 5329   1.302   2.717   4.033
 1478SOL    HW1 5330   1.216   2.686   4.075
 1478SOL    HW2 5331   1.298   2.703   3.934
 1479SOL     OW 5332   1.759   3.609   4.878
 1479SOL    HW1 5333   1.820   3.639   4.805
 1479SOL    HW2 5334   1.721   3.520   4.856
 1480SOL     OW 5335   1.252   3.593   4.852
 1480SOL    HW1 5336   1.336   3.598   4.798
 1480SOL    HW2 5337   1.229   3.497   4.870
 1481SOL     OW 5338   0.083   3.120   4.746
 1481SOL    HW1 5339   0.078   3.119   4.846
 1481SOL    HW2 5340   0.000   3.079   4.708
 1482SOL     OW 5341   0.688   3.524   5.440
 1482SOL    HW1 5342   0.632   3.605   5.449
 1482SOL    HW2 5343   0.740   3.528   5.354
 1483SOL     OW 5344   1.726   1.997   4.247
 1483SOL    HW1 5345   1.799   1.980   4.180
 1483SOL    HW2 5346   1.695   1.910   4.285
 1484SOL     OW 5347   1.388   3.435   4.201
 1484SOL    HW1 5348   1.455   3.447   4.127
 1484SOL    HW2 5349   1.348   3.524   4.224
 1485SOL     OW 5350   0.130   3.656   5.575
 1485SOL    HW1 5351   0.089   3.582   5.628
 1485SOL    HW2 5352   0.194   3.707   5.633
 1486SOL     OW 5353   1.280   2.789   4.396
 1486SOL    HW1 5354   1.340   2.708   4.398
 1486SOL    HW2 5355   1.320   2.858   4.336
 1487SOL     OW 5356   0.830   3.135   5.146
 1487SOL    HW1 5357   0.825   3.168   5.241
 1487SOL    HW2 5358   0.744   3.154   5.100
 1488SOL     OW 5359   0.672   3.478   3.878
 1488SOL    HW1 5360   0.681   3.488   3.779
 1488SOL    HW2 5361   0.632   3.389   3.899
 1489SOL     OW 5362   1.650   3.582   5.118
 1489SOL    HW1 5363   1.703   3.592   5.034
 1489SOL    HW2 5364   1.623   3.672   5.152
 1490SOL     OW 5365   1.841   2.037   4.687
 1490SOL    HW1 5366   1.880   1.952   4.651
 1490SOL    HW2 5367   1.743   2.039   4.668
 1491SOL     OW 5368   0.263   2.188   4.444
 1491SOL    HW1 5369   0.184   2.239   4.410
 1491SOL    HW2 5370   0.254   2.173   4.542
 1492SOL     OW 5371   1.194   3.474   3.755
 1492SOL    HW1 5372   1.200   3.381   3.792
 1492SOL    HW2 5373   1.135   3.474   3.675
 1493SOL     OW 5374   0.822   2.864   5.096
 1493SOL    HW1 5375   0.862   2.863   5.004
 1493SOL    HW2 5376   0.832   2.956   5.136
 1494SOL     OW 5377   0.916   2.772   4.015
 1494SOL    HW1 5378   0.979   2.810   3.947
 1494SOL    HW2 5379   0.956   2.689   4.054
 1495SOL     OW 5380   1.504   3.469   3.768
 1495SOL    HW1 5381   1.412   3.506   3.775
 1495SOL    HW2 5382   1.542   3.489   3.678
 1496SOL     OW 5383   0.372   3.150   5.214
 1496SOL    HW1 5384   0.359   3.243   5.180
 1496SOL    HW2 5385   0.288   3.098   5.201
 1497SOL     OW 5386   1.614   3.154   5.013
 1497SOL    HW1 5387   1.674   3.157   5.093
 1497SOL    HW2 5388   1.539   3.218   5.026
 1498SOL     OW 5389   1.039   2.960   4.420
 1498SOL    HW1 5390   0.969   2.913   4.474
 1498SOL    HW2 5391   1.098   2.892   4.377
 1499SOL     OW 5392   1.014   2.098   4.695
 1499SOL    HW1 5393   1.006   2.062   4.602
 1499SOL    HW2 5394   1.012   2.022   4.760
 1500SOL     OW 5395   0.590   3.349   4.215
 1500SOL    HW1 5396   0.632   3.291   4.145
 1500SOL    HW2 5397   0.546   3.428   4.171
 1501SOL     OW 5398   1.709   2.247   5.105
 1501SOL    HW1 5399   1.782   2.316   5.109
 1501SOL    HW2 5400   1.737   2.172   5.046
 1502SOL     OW 5401   0.255   3.210   4.014
 1502SOL    HW1 5402   0.159   3.211   3.987
 1502SOL    HW2 5403   0.267   3.263   4.098
 1503SOL     OW 5404   0.105   2.875   5.450
 1503SOL    HW1 5405   0.028   2.842   5.504
 1503SOL    HW2 5406   0.190   2.845   5.492
 1504SOL     OW 5407   0.672   2.065   5.213
 1504SOL    HW1 5408   0.762   2.049   5.173
 1504SOL    HW2 5409   0.680   2.070   5.312
 1505SOL     OW 5410   0.075   2.207   3.757
 1505SOL    HW1 5411  -0.017   2.179   3.728
 1505SOL    HW2 5412   0.106   2.284   3.701
 1506SOL     OW 5413   1.440   2.718   5.122
 1506SOL    HW1 5414   1.383   2.770   5.059
 1506SOL    HW2 5415   1.536   2.730   5.098
 1507SOL     OW 5416   0.072   2.028   4.042
 1507SOL    HW1 5417   0.055   2.111   3.988
 1507SOL    HW2 5418   0.162   1.991   4.020
 1508SOL     OW 5419   1.183   3.197   3.843
 1508SOL    HW1 5420   1.084   3.186   3.845
 1508SOL    HW2 5421   1.217   3.212   3.936
 1509SOL     OW 5422   0.613   2.704   5.155
 1509SOL    HW1 5423   0.669   2.785   5.138
 1509SOL    HW2 5424   0.672   2.624   5.158
 1510SOL     OW 5425   1.493   3.629   4.683
 1510SOL    HW1 5426   1.526   3.693   4.614
 1510SOL    HW2 5427   1.559   3.623   4.758
 1511SOL     OW 5428   0.716   2.427   5.432
 1511SOL    HW1 5429   0.735   2.492   5.506
 1511SOL    HW2 5430   0.776   2.347   5.441
 1512SOL     OW 5431   1.450   3.082   5.357
 1512SOL    HW1 5432   1.441   3.072   5.456
 1512SOL    HW2 5433   1.546   3.075   5.331
 1513SOL     OW 5434   0.390   3.603   5.284
 1513SOL    HW1 5435   0.299   3.644   5.282
 1513SOL    HW2 5436   0.383   3.509   5.316
 1514SOL     OW 5437   1.674   2.745   4.978
 1514SOL    HW1 5438   1.647   2.656   4.941
 1514SOL    HW2 5439   1.675   2.813   4.905
 1515SOL     OW 5440   1.225   2.187   4.173
 1515SOL    HW1 5441   1.290   2.113   4.162
 1515SOL    HW2 5442   1.245   2.237   4.257
 1516SOL     OW 5443   0.594   2.607   4.376
 1516SOL    HW1 5444   0.644   2.692   4.357
 1516SOL    HW2 5445   0.506   2.609   4.328
 1517SOL     OW 5446   1.777   2.204   5.366
 1517SOL    HW1 5447   1.760   2.235   5.272
 1517SOL    HW2 5448   1.693   2.167   5.404
 1518SOL     OW 5449   1.730   2.796   5.241
 1518SOL    HW1 5450   1.768   2.887   5.256
 1518SOL    HW2 5451   1.722   2.779   5.142
 1519SOL     OW 5452   0.859   3.236   3.740
 1519SOL    HW1 5453   0.813   3.251   3.828
 1519SOL    HW2 5454   0.903   3.321   3.710
 1520SOL     OW 5455   0.661   3.652   4.677
 1520SOL    HW1 5456   0.615   3.740   4.664
 1520SOL    HW2 5457   0.760   3.664   4.670
 1521SOL     OW 5458   0.859   2.818   4.585
 1521SOL    HW1 5459   0.913   2.749   4.633
 1521SOL    HW2 5460   0.827   2.887   4.651
 1522SOL     OW 5461   1.083   2.846   3.811
 1522SOL    HW1 5462   1.060   2.899   3.729
 1522SOL    HW2 5463   1.164   2.790   3.792
 1523SOL     OW 5464   0.221   3.176   5.568
 1523SOL    HW1 5465   0.156   3.103   5.547
 1523SOL    HW2 5466   0.225   3.190   5.666
 1524SOL     OW 5467   0.079   3.102   4.377
 1524SOL    HW1 5468   0.078   3.055   4.465
 1524SOL    HW2 5469   0.161   3.074   4.326
 1525SOL     OW 5470   0.672   3.253   5.348
 1525SOL    HW1 5471   0.594   3.203   5.386
 1525SOL    HW2 5472   0.669   3.348   5.379
 1526SOL     OW 5473   1.824   2.054   4.951
 1526SOL    HW1 5474   1.820   1.964   4.995
 1526SOL    HW2 5475   1.827   2.043   4.852
 1527SOL     OW 5476   0.428   2.286   4.244
 1527SOL    HW1 5477   0.458   2.214   4.182
 1527SOL    HW2 5478   0.389   2.246   4.327
 1528SOL     OW 5479   1.705   3.349   4.828
 1528SOL    HW1 5480   1.612   3.324   4.801
 1528SOL    HW2 5481   1.731   3.299   4.910
 1529SOL     OW 5482   0.317   2.409   5.004
 1529SOL    HW1 5483   0.355   2.350   5.076
 1529SOL    HW2 5484   0.357   2.383   4.916
 1530SOL     OW 5485   0.812   3.448   4.411
 1530SOL    HW1 5486   0.844   3.458   4.317
 1530SOL    HW2 5487   0.733   3.386   4.413
 1531SOL     OW 5488   1.424   2.076   4.836
 1531SOL    HW1 5489   1.476   2.011   4.891
 1531SOL    HW2 5490   1.375   2.139   4.897
 1532SOL     OW 5491   1.001   1.896   4.878
 1532SOL    HW1 5492   0.938   1.824   4.847
 1532SOL    HW2 5493   1.094   1.860   4.878
 1533SOL     OW 5494   0.770   3.192   4.025
 1533SOL    HW1 5495   0.724   3.105   4.042
 1533SOL    HW2 5496   0.861   3.189   4.066
 1534SOL     OW 5497   0.618   3.429   5.008
 1534SOL    HW1 5498   0.613   3.511   5.065
 1534SOL    HW2 5499   0.707   3.426   4.963
 1535SOL     OW 5500   1.352   1.914   3.892
 1535SOL    HW1 5501   1.387   1.873   3.808
 1535SOL    HW2 5502   1.262   1.876   3.912
 1536SOL     OW 5503   1.300   2.315   4.415
 1536SOL    HW1 5504   1.241   2.395   4.419
 1536SOL    HW2 5505   1.315   2.280   4.508
 1537SOL     OW 5506   1.593   2.083   4.606
 1537SOL    HW1 5507   1.509   2.082   4.660
 1537SOL    HW2 5508   1.595   2.166   4.550
 1538SOL     OW 5509   0.039   2.939   4.024
 1538SOL    HW1 5510   0.138   2.928   4.015
 1538SOL    HW2 5511  -0.001   2.853   4.056
 1539SOL     OW 5512   0.875   3.508   4.061
 1539SOL    HW1 5513   0.798   3.473   4.007
 1539SOL    HW2 5514   0.843   3.579   4.123
 1540SOL     OW 5515   0.230   2.490   5.699
 1540SOL    HW1 5516   0.137   2.488   5.736
 1540SOL    HW2 5517   0.231   2.451   5.607
 1541SOL     OW 5518   0.225   2.137   6.582
 1541SOL    HW1 5519   0.260   2.120   6.674
 1541SOL    HW2 5520   0.137   2.092   6.570
 1542SOL     OW 5521   0.019   2.230   6.233
 1542SOL    HW1 5522  -0.063   2.273   6.272
 1542SOL    HW2 5523  -0.009   2.157   6.170
 1543SOL     OW 5524   0.569   3.137   6.751
 1543SOL    HW1 5525   0.476   3.130   6.714
 1543SOL    HW2 5526   0.580   3.226   6.795
 1544SOL     OW 5527   1.555   3.373   6.289
 1544SOL    HW1 5528   1.498   3.357   6.370
 1544SOL    HW2 5529   1.496   3.383   6.209
 1545SOL     OW 5530   1.135   2.565   6.303
 1545SOL    HW1 5531   1.192   2.643   6.278
 1545SOL    HW2 5532   1.075   2.591   6.379
 1546SOL     OW 5533   1.755   2.469   5.817
 1546SOL    HW1 5534   1.743   2.456   5.718
 1546SOL    HW2 5535   1.725   2.388   5.866
 1547SOL     OW 5536   0.768   3.006   6.609
 1547SOL    HW1 5537   0.690   3.023   6.669
 1547SOL    HW2 5538   0.802   3.093   6.573
 1548SOL     OW 5539   0.850   2.660   7.409
 1548SOL    HW1 5540   0.846   2.736   7.474
 1548SOL    HW2 5541   0.872   2.696   7.318
 1549SOL     OW 5542   0.685   2.874   6.251
 1549SOL    HW1 5543   0.754   2.858   6.321
 1549SOL    HW2 5544   0.612   2.931   6.289
 1550SOL     OW 5545   0.686   3.023   7.389
 1550SOL    HW1 5546   0.746   3.102   7.403
 1550SOL    HW2 5547   0.600   3.054   7.348
 1551SOL     OW 5548   0.335   3.297   6.647
 1551SOL    HW1 5549   0.257   3.266   6.594
 1551SOL    HW2 5550   0.393   3.355   6.590
 1552SOL     OW 5551   1.460   3.367   6.925
 1552SOL    HW1 5552   1.484   3.461   6.951
 1552SOL    HW2 5553   1.444   3.313   7.007
 1553SOL     OW 5554   0.438   2.254   7.085
 1553SOL    HW1 5555   0.520   2.198   7.094
 1553SOL    HW2 5556   0.357   2.196   7.089
 1554SOL     OW 5557   1.603   2.309   6.323
 1554SOL    HW1 5558   1.529   2.355   6.273
 1554SOL    HW2 5559   1.654   2.377   6.376
 1555SOL     OW 5560   0.231   3.575   6.069
 1555SOL    HW1 5561   0.265   3.652   6.123
 1555SOL    HW2 5562   0.275   3.575   5.979
 1556SOL     OW 5563   1.127   3.203   7.276
 1556SOL    HW1 5564   1.174   3.203   7.364
 1556SOL    HW2 5565   1.079   3.116   7.265
 1557SOL     OW 5566   0.230   3.296   6.124
 1557SOL    HW1 5567   0.204   3.392   6.124
 1557SOL    HW2 5568   0.159   3.242   6.169
 1558SOL     OW 5569   0.240   2.953   6.472
 1558SOL    HW1 5570   0.254   2.869   6.524
 1558SOL    HW2 5571   0.185   3.017   6.527
 1559SOL     OW 5572   0.620   3.648   7.025
 1559SOL    HW1 5573   0.528   3.631   7.060
 1559SOL    HW2 5574   0.648   3.740   7.051
 1560SOL     OW 5575   0.606   2.826   5.709
 1560SOL    HW1 5576   0.613   2.910   5.655
 1560SOL    HW2 5577   0.652   2.839   5.797
 1561SOL     OW 5578   1.594   1.976   7.066
 1561SOL    HW1 5579   1.576   2.043   6.994
 1561SOL    HW2 5580   1.591   2.022   7.155
 1562SOL     OW 5581   0.122   2.505   6.149
 1562SOL    HW1 5582   0.077   2.417   6.166
 1562SOL    HW2 5583   0.121   2.559   6.233
 1563SOL     OW 5584   1.842   3.629   5.945
 1563SOL    HW1 5585   1.896   3.600   6.025
 1563SOL    HW2 5586   1.872   3.719   5.916
 1564SOL     OW 5587   0.027   3.458   5.703
 1564SOL    HW1 5588   0.008   3.362   5.724
 1564SOL    HW2 5589  -0.006   3.516   5.778
 1565SOL     OW 5590   1.689   2.784   6.198
 1565SOL    HW1 5591   1.784   2.755   6.206
 1565SOL    HW2 5592   1.681   2.849   6.123
 1566SOL     OW 5593   1.641   2.970   6.018
 1566SOL    HW1 5594   1.727   2.972   5.966
 1566SOL    HW2 5595   1.655   3.017   6.106
 1567SOL     OW 5596   0.113   2.599   7.183
 1567SOL    HW1 5597   0.201   2.586   7.228
 1567SOL    HW2 5598   0.100   2.696   7.161
 1568SOL     OW 5599   0.613   3.227   6.312
 1568SOL    HW1 5600   0.564   3.140   6.321
 1568SOL    HW2 5601   0.590   3.270   6.225
 1569SOL     OW 5602   1.293   3.090   7.009
 1569SOL    HW1 5603   1.330   3.017   6.951
 1569SOL    HW2 5604   1.345   3.095   7.094
 1570SOL     OW 5605   0.809   1.866   6.088
 1570SOL    HW1 5606   0.849   1.957   6.079
 1570SOL    HW2 5607   0.709   1.874   6.094
 1571SOL     OW 5608   0.197   2.838   6.850
 1571SOL    HW1 5609   0.286   2.793   6.836
 1571SOL    HW2 5610   0.124   2.773   6.831
 1572SOL     OW 5611   1.525   2.861   5.776
 1572SOL    HW1 5612   1.462   2.785   5.789
 1572SOL    HW2 5613   1.573   2.879   5.862
 1573SOL     OW 5614   1.187   3.654   7.202
 1573SOL    HW1 5615   1.211   3.714   7.126
 1573SOL    HW2 5616   1.194   3.559   7.172
 1574SOL     OW 5617   0.317   2.113   7.387
 1574SOL    HW1 5618   0.388   2.184   7.393
 1574SOL    HW2 5619   0.229   2.152   7.415
 1575SOL     OW 5620   1.466   3.279   6.539
 1575SOL    HW1 5621   1.407   3.285   6.619
 1575SOL    HW2 5622   1.451   3.191   6.493
 1576SOL     OW 5623   1.667   3.576   6.158
 1576SOL    HW1 5624   1.626   3.553   6.070
 1576SOL    HW2 5625   1.649   3.502   6.223
 1577SOL     OW 5626   0.598   2.591   5.856
 1577SOL    HW1 5627   0.622   2.660   5.788
 1577SOL    HW2 5628   0.520   2.624   5.910
 1578SOL     OW 5629   1.281   2.207   6.530
 1578SOL    HW1 5630   1.195   2.157   6.517
 1578SOL    HW2 5631   1.343   2.153   6.586
 1579SOL     OW 5632   1.576   3.524   5.893
 1579SOL    HW1 5633   1.665   3.570   5.896
 1579SOL    HW2 5634   1.555   3.500   5.798
 1580SOL     OW 5635   0.807   2.467   7.051
 1580SOL    HW1 5636   0.760   2.464   7.140
 1580SOL    HW2 5637   0.756   2.412   6.985
 1581SOL     OW 5638   1.394   2.331   7.260
 1581SOL    HW1 5639   1.374   2.374   7.348
 1581SOL    HW2 5640   1.472   2.269   7.269
 1582SOL     OW 5641   0.973   2.752   7.158
 1582SOL    HW1 5642   1.019   2.668   7.129
 1582SOL    HW2 5643   0.917   2.786   7.083
 1583SOL     OW 5644   0.991   2.272   6.828
 1583SOL    HW1 5645   0.914   2.306   6.882
 1583SOL    HW2 5646   0.957   2.221   6.749
 1584SOL     OW 5647   1.041   2.563   6.015
 1584SOL    HW1 5648   1.067   2.559   6.111
 1584SOL    HW2 5649   0.956   2.512   6.001
 1585SOL     OW 5650   0.076   2.673   6.375
 1585SOL    HW1 5651   0.175   2.661   6.384
 1585SOL    HW2 5652   0.052   2.768   6.396
 1586SOL     OW 5653   0.130   3.683   7.157
 1586SOL    HW1 5654   0.120   3.668   7.256
 1586SOL    HW2 5655   0.044   3.719   7.121
 1587SOL     OW 5656   0.865   2.210   5.781
 1587SOL    HW1 5657   0.924   2.273   5.732
 1587SOL    HW2 5658   0.884   2.116   5.752
 1588SOL     OW 5659   1.719   2.447   7.417
 1588SOL    HW1 5660   1.693   2.536   7.381
 1588SOL    HW2 5661   1.717   2.379   7.344
 1589SOL     OW 5662   1.362   3.006   6.131
 1589SOL    HW1 5663   1.445   2.977   6.083
 1589SOL    HW2 5664   1.313   3.073   6.075
 1590SOL     OW 5665   0.550   2.058   6.471
 1590SOL    HW1 5666   0.545   2.053   6.571
 1590SOL    HW2 5667   0.552   2.154   6.442
 1591SOL     OW 5668   1.008   3.318   6.063
 1591SOL    HW1 5669   0.962   3.390   6.011
 1591SOL    HW2 5670   1.004   3.338   6.161
 1592SOL     OW 5671   0.351   3.663   6.439
 1592SOL    HW1 5672   0.401   3.577   6.445
 1592SOL    HW2 5673   0.416   3.740   6.436
 1593SOL     OW 5674   1.795   2.928   6.459
 1593SOL    HW1 5675   1.733   2.913   6.383
 1593SOL    HW2 5676   1.743   2.939   6.544
 1594SOL     OW 5677   1.227   3.412   7.092
 1594SOL    HW1 5678   1.233   3.335   7.156
 1594SOL    HW2 5679   1.175   3.386   7.012
 1595SOL     OW 5680   0.321   2.805   5.828
 1595SOL    HW1 5681   0.403   2.844   5.786
 1595SOL    HW2 5682   0.294   2.723   5.779
 1596SOL     OW 5683   1.458   2.597   6.314
 1596SOL    HW1 5684   1.453   2.532   6.389
 1596SOL    HW2 5685   1.538   2.656   6.327
 1597SOL     OW 5686   0.461   3.128   7.313
 1597SOL    HW1 5687   0.411   3.129   7.227
 1597SOL    HW2 5688   0.398   3.110   7.389
 1598SOL     OW 5689   1.111   3.638   5.823
 1598SOL    HW1 5690   1.051   3.576   5.873
 1598SOL    HW2 5691   1.142   3.594   5.738
 1599SOL     OW 5692   0.202   2.147   7.084
 1599SOL    HW1 5693   0.122   2.207   7.071
 1599SOL    HW2 5694   0.192   2.098   7.170
 1600SOL     OW 5695   1.632   3.239   5.667
 1600SOL    HW1 5696   1.600   3.333   5.657
 1600SOL    HW2 5697   1.556   3.176   5.655
 1601SOL     OW 5698   0.464   3.605   5.909
 1601SOL    HW1 5699   0.497   3.644   5.995
 1601SOL    HW2 5700   0.540   3.598   5.844
 1602SOL     OW 5701   1.400   1.969   6.012
 1602SOL    HW1 5702   1.376   1.932   5.922
 1602SOL    HW2 5703   1.499   1.985   6.016
 1603SOL     OW 5704   0.249   3.647   6.827
 1603SOL    HW1 5705   0.306   3.582   6.877
 1603SOL    HW2 5706   0.233   3.614   6.734
 1604SOL     OW 5707   0.940   3.560   6.490
 1604SOL    HW1 5708   1.020   3.503   6.511
 1604SOL    HW2 5709   0.891   3.520   6.413
 1605SOL     OW 5710   0.382   2.562   6.066
 1605SOL    HW1 5711   0.427   2.472   6.063
 1605SOL    HW2 5712   0.288   2.551   6.099
 1606SOL     OW 5713   1.547   2.084   7.315
 1606SOL    HW1 5714   1.542   2.121   7.407
 1606SOL    HW2 5715   1.475   2.015   7.303
 1607SOL     OW 5716   0.614   1.984   5.703
 1607SOL    HW1 5717   0.712   1.962   5.710
 1607SOL    HW2 5718   0.583   1.967   5.610
 1608SOL     OW 5719   0.781   2.126   7.335
 1608SOL    HW1 5720   0.848   2.065   7.378
 1608SOL    HW2 5721   0.708   2.145   7.400
 1609SOL     OW 5722   0.888   3.376   6.781
 1609SOL    HW1 5723   0.865   3.351   6.687
 1609SOL    HW2 5724   0.949   3.307   6.820
 1610SOL     OW 5725   1.351   2.452   7.019
 1610SOL    HW1 5726   1.379   2.409   7.104
 1610SOL    HW2 5727   1.376   2.548   7.020
 1611SOL     OW 5728   0.803   3.264   6.510
 1611SOL    HW1 5729   0.893   3.278   6.468
 1611SOL    HW2 5730   0.732   3.266   6.439
 1612SOL     OW 5731   0.922   2.365   6.485
 1612SOL    HW1 5732   0.897   2.356   6.389
 1612SOL    HW2 5733   0.970   2.283   6.516
 1613SOL     OW 5734   0.539   1.926   6.098
 1613SOL    HW1 5735   0.458   1.927   6.156
 1613SOL    HW2 5736   0.542   2.009   6.043
 1614SOL     OW 5737   1.434   3.050   5.627
 1614SOL    HW1 5738   1.466   2.974   5.684
 1614SOL    HW2 5739   1.342   3.077   5.657
 1615SOL     OW 5740   0.297   1.897   5.757
 1615SOL    HW1 5741   0.346   1.981   5.736
 1615SOL    HW2 5742   0.359   1.832   5.802
 1616SOL     OW 5743   0.935   2.098   6.066
 1616SOL    HW1 5744   0.887   2.139   5.988
 1616SOL    HW2 5745   1.034   2.096   6.047
 1617SOL     OW 5746   1.076   2.545   7.050
 1617SOL    HW1 5747   0.996   2.484   7.053
 1617SOL    HW2 5748   1.157   2.492   7.026
 1618SOL     OW 5749   1.227   3.432   6.379
 1618SOL    HW1 5750   1.248   3.506   6.314
 1618SOL    HW2 5751   1.295   3.432   6.452
 1619SOL     OW 5752   0.459   3.014   6.327
 1619SOL    HW1 5753   0.388   2.987   6.392
 1619SOL    HW2 5754   0.433   2.986   6.234
 1620SOL     OW 5755   1.271   3.659   6.177
 1620SOL    HW1 5756   1.315   3.723   6.113
 1620SOL    HW2 5757   1.221   3.711   6.247
 1621SOL     OW 5758   1.032   2.411   5.602
 1621SOL    HW1 5759   0.991   2.493   5.563
 1621SOL    HW2 5760   1.096   2.437   5.675
 1622SOL     OW 5761   0.078   2.418   6.972
 1622SOL    HW1 5762   0.170   2.417   6.931
 1622SOL    HW2 5763   0.072   2.492   7.039
 1623SOL     OW 5764   0.561   2.084   6.733
 1623SOL    HW1 5765   0.599   2.000   6.770
 1623SOL    HW2 5766   0.473   2.103   6.777
 1624SOL     OW 5767   0.866   2.316   6.228
 1624SOL    HW1 5768   0.834   2.388   6.166
 1624SOL    HW2 5769   0.890   2.235   6.175
 1625SOL     OW 5770   1.017   1.901   6.339
 1625SOL    HW1 5771   0.945   1.906   6.270
 1625SOL    HW2 5772   0.993   1.832   6.408
 1626SOL     OW 5773   1.429   3.035   6.453
 1626SOL    HW1 5774   1.374   2.951   6.446
 1626SOL    HW2 5775   1.455   3.064   6.361
 1627SOL     OW 5776   1.466   2.452   6.578
 1627SOL    HW1 5777   1.436   2.357   6.585
 1627SOL    HW2 5778   1.539   2.468   6.644
 1628SOL     OW 5779   1.857   2.695   5.963
 1628SOL    HW1 5780   1.899   2.631   6.027
 1628SOL    HW2 5781   1.819   2.644   5.885
 1629SOL     OW 5782   0.488   3.247   5.760
 1629SOL    HW1 5783   0.401   3.232   5.807
 1629SOL    HW2 5784   0.471   3.273   5.665
 1630SOL     OW 5785   1.664   3.142   6.243
 1630SOL    HW1 5786   1.763   3.150   6.257
 1630SOL    HW2 5787   1.619   3.226   6.274
 1631SOL     OW 5788   1.390   2.437   5.664
 1631SOL    HW1 5789   1.336   2.416   5.745
 1631SOL    HW2 5790   1.481   2.396   5.673
 1632SOL     OW 5791   0.527   2.118   5.914
 1632SOL    HW1 5792   0.554   2.059   5.839
 1632SOL    HW2 5793   0.527   2.213   5.883
 1633SOL     OW 5794   1.754   3.085   7.174
 1633SOL    HW1 5795   1.845   3.046   7.161
 1633SOL    HW2 5796   1.762   3.181   7.198
 1634SOL     OW 5797   1.064   3.209   6.926
 1634SOL    HW1 5798   0.984   3.186   6.981
 1634SOL    HW2 5799   1.147   3.183   6.975
 1635SOL     OW 5800   1.592   3.491   7.211
 1635SOL    HW1 5801   1.619   3.525   7.121
 1635SOL    HW2 5802   1.671   3.453   7.257
 1636SOL     OW 5803   1.111   3.057   6.686
 1636SOL    HW1 5804   1.071   3.101   6.767
 1636SOL    HW2 5805   1.070   3.094   6.603
 1637SOL     OW 5806   1.638   2.961   6.665
 1637SOL    HW1 5807   1.643   3.042   6.724
 1637SOL    HW2 5808   1.552   2.963   6.614
 1638SOL     OW 5809   0.915   1.951   6.988
 1638SOL    HW1 5810   0.940   1.931   6.893
 1638SOL    HW2 5811   0.987   2.007   7.030
 1639SOL     OW 5812   0.980   2.978   7.305
 1639SOL    HW1 5813   0.881   2.984   7.315
 1639SOL    HW2 5814   1.003   2.898   7.249
 1640SOL     OW 5815   0.705   2.912   5.954
 1640SOL    HW1 5816   0.691   2.919   6.053
 1640SOL    HW2 5817   0.789   2.861   5.936
 1641SOL     OW 5818   0.410   2.675   6.837
 1641SOL    HW1 5819   0.496   2.687   6.887
 1641SOL    HW2 5820   0.368   2.588   6.864
 1642SOL     OW 5821   1.274   2.248   6.848
 1642SOL    HW1 5822   1.295   2.322   6.912
 1642SOL    HW2 5823   1.185   2.265   6.805
 1643SOL     OW 5824   0.064   3.426   6.917
 1643SOL    HW1 5825   0.018   3.508   6.883
 1643SOL    HW2 5826   0.162   3.445   6.926
 1644SOL     OW 5827   0.367   2.962   6.087
 1644SOL    HW1 5828   0.360   3.045   6.031
 1644SOL    HW2 5829   0.371   2.882   6.027
 1645SOL     OW 5830   0.566   2.399   6.451
 1645SOL    HW1 5831   0.578   2.465   6.377
 1645SOL    HW2 5832   0.612   2.433   6.534
 1646SOL     OW 5833   1.252   3.210   5.974
 1646SOL    HW1 5834   1.302   3.287   6.014
 1646SOL    HW2 5835   1.157   3.212   6.006
 1647SOL     OW 5836   1.272   3.307   6.728
 1647SOL    HW1 5837   1.319   3.320   6.815
 1647SOL    HW2 5838   1.206   3.233   6.737
 1648SOL     OW 5839   1.582   2.501   6.058
 1648SOL    HW1 5840   1.551   2.562   6.131
 1648SOL    HW2 5841   1.632   2.553   5.989
 1649SOL     OW 5842   0.354   3.372   6.915
 1649SOL    HW1 5843   0.333   3.328   6.828
 1649SOL    HW2 5844   0.451   3.398   6.918
 1650SOL     OW 5845   0.402   2.613   7.184
 1650SOL    HW1 5846   0.470   2.668   7.137
 1650SOL    HW2 5847   0.442   2.525   7.211
 1651SOL     OW 5848   1.587   2.641   7.256
 1651SOL    HW1 5849   1.495   2.679   7.251
 1651SOL    HW2 5850   1.647   2.688   7.191
 1652SOL     OW 5851   1.013   1.967   7.356
 1652SOL    HW1 5852   1.019   2.052   7.304
 1652SOL    HW2 5853   1.045   1.891   7.299
 1653SOL     OW 5854   0.504   1.912   7.326
 1653SOL    HW1 5855   0.462   1.855   7.256
 1653SOL    HW2 5856   0.438   1.981   7.358
 1654SOL     OW 5857   0.573   2.732   6.615
 1654SOL    HW1 5858   0.617   2.821   6.606
 1654SOL    HW2 5859   0.510   2.732   6.692
 1655SOL     OW 5860   1.360   2.724   6.631
 1655SOL    HW1 5861   1.285   2.724   6.565
 1655SOL    HW2 5862   1.397   2.632   6.640
 1656SOL     OW 5863   1.209   2.387   5.861
 1656SOL    HW1 5864   1.222   2.303   5.915
 1656SOL    HW2 5865   1.180   2.461   5.921
 1657SOL     OW 5866   0.307   2.075   6.817
 1657SOL    HW1 5867   0.284   2.112   6.907
 1657SOL    HW2 5868   0.277   1.980   6.811
 1658SOL     OW 5869   0.037   3.172   6.868
 1658SOL    HW1 5870   0.090   3.123   6.936
 1658SOL    HW2 5871   0.059   3.270   6.873
 1659SOL     OW 5872   0.732   2.496   6.650
 1659SOL    HW1 5873   0.791   2.470   6.574
 1659SOL    HW2 5874   0.704   2.592   6.639
 1660SOL     OW 5875   1.728   2.797   7.440
 1660SOL    HW1 5876   1.682   2.790   7.351
 1660SOL    HW2 5877   1.666   2.841   7.506
 1661SOL     OW 5878   0.307   1.925   6.204
 1661SOL    HW1 5879   0.296   2.019   6.237
 1661SOL    HW2 5880   0.302   1.862   6.281
 1662SOL     OW 5881   1.622   2.229   5.960
 1662SOL    HW1 5882   1.624   2.153   6.024
 1662SOL    HW2 5883   1.574   2.306   6.000
 1663SOL     OW 5884   1.023   2.628   6.552
 1663SOL    HW1 5885   1.038   2.649   6.648
 1663SOL    HW2 5886   0.993   2.533   6.543
 1664SOL     OW 5887   0.980   3.435   7.286
 1664SOL    HW1 5888   0.960   3.479   7.198
 1664SOL    HW2 5889   1.019   3.344   7.270
 1665SOL     OW 5890   1.859   3.380   7.191
 1665SOL    HW1 5891   1.873   3.407   7.096
 1665SOL    HW2 5892   1.942   3.402   7.244
 1666SOL     OW 5893   0.350   2.760   7.390
 1666SOL    HW1 5894   0.426   2.804   7.438
 1666SOL    HW2 5895   0.385   2.713   7.308
 1667SOL     OW 5896   1.540   2.136   5.711
 1667SOL    HW1 5897   1.479   2.061   5.734
 1667SOL    HW2 5898   1.562   2.188   5.794
 1668SOL     OW 5899   1.303   2.700   5.628
 1668SOL    HW1 5900   1.337   2.607   5.643
 1668SOL    HW2 5901   1.321   2.727   5.533
 1669SOL     OW 5902   1.068   3.195   6.435
 1669SOL    HW1 5903   1.075   3.111   6.380
 1669SOL    HW2 5904   1.130   3.264   6.399
 1670SOL     OW 5905   0.319   2.672   6.535
 1670SOL    HW1 5906   0.412   2.708   6.540
 1670SOL    HW2 5907   0.313   2.587   6.587
 1671SOL     OW 5908   0.339   2.371   6.592
 1671SOL    HW1 5909   0.287   2.288   6.575
 1671SOL    HW2 5910   0.416   2.376   6.528
 1672SOL     OW 5911   1.138   2.242   7.264
 1672SOL    HW1 5912   1.093   2.305   7.328
 1672SOL    HW2 5913   1.231   2.273   7.247
 1673SOL     OW 5914   1.160   2.069   7.063
 1673SOL    HW1 5915   1.160   2.133   7.140
 1673SOL    HW2 5916   1.188   2.117   6.980
 1674SOL     OW 5917   0.008   3.188   5.786
 1674SOL    HW1 5918  -0.085   3.209   5.755
 1674SOL    HW2 5919   0.018   3.089   5.799
 1675SOL     OW 5920   0.088   3.663   6.513
 1675SOL    HW1 5921   0.046   3.577   6.486
 1675SOL    HW2 5922   0.182   3.666   6.479
 1676SOL     OW 5923   0.504   3.430   6.496
 1676SOL    HW1 5924   0.570   3.504   6.505
 1676SOL    HW2 5925   0.548   3.351   6.454
 1677SOL     OW 5926   1.002   2.658   6.824
 1677SOL    HW1 5927   1.043   2.626   6.910
 1677SOL    HW2 5928   0.906   2.631   6.821
 1678SOL     OW 5929   0.040   2.406   6.700
 1678SOL    HW1 5930   0.125   2.373   6.659
 1678SOL    HW2 5931   0.053   2.421   6.798
 1679SOL     OW 5932   0.189   2.382   7.308
 1679SOL    HW1 5933   0.248   2.342   7.238
 1679SOL    HW2 5934   0.131   2.453   7.267
 1680SOL     OW 5935   1.369   2.812   7.246
 1680SOL    HW1 5936   1.408   2.901   7.266
 1680SOL    HW2 5937   1.379   2.792   7.149
 1681SOL     OW 5938   0.815   2.434   5.911
 1681SOL    HW1 5939   0.822   2.345   5.865
 1681SOL    HW2 5940   0.721   2.468   5.903
 1682SOL     OW 5941   1.657   2.466   6.792
 1682SOL    HW1 5942   1.619   2.397   6.854
 1682SOL    HW2 5943   1.739   2.430   6.748
 1683SOL     OW 5944   0.252   3.426   7.330
 1683SOL    HW1 5945   0.222   3.483   7.406
 1683SOL    HW2 5946   0.245   3.329   7.356
 1684SOL     OW 5947   0.671   2.326   6.855
 1684SOL    HW1 5948   0.637   2.237   6.825
 1684SOL    HW2 5949   0.697   2.380   6.775
 1685SOL     OW 5950   0.930   3.540   7.051
 1685SOL    HW1 5951   0.906   3.522   6.956
 1685SOL    HW2 5952   0.960   3.634   7.061
 1686SOL     OW 5953   0.473   2.362   5.777
 1686SOL    HW1 5954   0.534   2.442   5.781
 1686SOL    HW2 5955   0.378   2.393   5.784
 1687SOL     OW 5956   0.159   2.999   7.052
 1687SOL    HW1 5957   0.181   2.938   7.128
 1687SOL    HW2 5958   0.169   2.950   6.966
 1688SOL     OW 5959   1.347   2.921   6.820
 1688SOL    HW1 5960   1.371   2.858   6.746
 1688SOL    HW2 5961   1.257   2.961   6.802
 1689SOL     OW 5962   1.302   2.717   5.895
 1689SOL    HW1 5963   1.216   2.686   5.937
 1689SOL    HW2 5964   1.298   2.703   5.796
 1690SOL     OW 5965   1.759   3.609   6.740
 1690SOL    HW1 5966   1.820   3.639   6.667
 1690SOL    HW2 5967   1.721   3.520   6.718
 1691SOL     OW 5968   1.252   3.593   6.714
 1691SOL    HW1 5969   1.336   3.598   6.660
 1691SOL    HW2 5970   1.229   3.497   6.732
 1692SOL     OW 5971   0.083   3.120   6.608
 1692SOL    HW1 5972   0.078   3.119   6.708
 1692SOL    HW2 5973   0.000   3.079   6.570
 1693SOL     OW 5974   0.688   3.524   7.302
 1693SOL    HW1 5975   0.632   3.605   7.311
 1693SOL    HW2 5976   0.740   3.528   7.216
 1694SOL     OW 5977   1.726   1.997   6.109
 1694SOL    HW1 5978   1.799   1.980   6.042
 1694SOL    HW2 5979   1.695   1.910   6.147
 1695SOL     OW 5980   1.388   3.435   6.063
 1695SOL    HW1 5981   1.455   3.447   5.989
 1695SOL    HW2 5982   1.348   3.524   6.086
 1696SOL     OW 5983   0.130   3.656   7.437
 1696SOL    HW1 5984   0.089   3.582   7.490
 1696SOL    HW2 5985   0.194   3.707   7.495
 1697SOL     OW 5986   1.280   2.789   6.258
 1697SOL    HW1 5987   1.340   2.708   6.260
 1697SOL    HW2 5988   1.320   2.858   6.198
 1698SOL     OW 5989   0.830   3.135   7.008
 1698SOL    HW1 5990   0.825   3.168   7.103
 1698SOL    HW2 5991   0.744   3.154   6.962
 1699SOL     OW 5992   0.672   3.478   5.740
 1699SOL    HW1 5993   0.681   3.488   5.641
 1699SOL    HW2 5994   0.632   3.389   5.761
 1700SOL     OW 5995   1.650   3.582   6.980
 1700SOL    HW1 5996   1.703   3.592   6.896
 1700SOL    HW2 5997   1.623   3.672   7.014
 1701SOL     OW 5998   1.841   2.037   6.549
 1701SOL    HW1 5999   1.880   1.952   6.513
 1701SOL    HW2 6000   1.743   2.039   6.530
 1702SOL     OW 6001   0.263   2.188   6.306
 1702SOL    HW1 6002   0.184   2.239   6.272
 1702SOL    HW2 6003   0.254   2.173   6.404
 1703SOL     OW 6004   1.194   3.474   5.617
 1703SOL    HW1 6005   1.200   3.381   5.654
 1703SOL    HW2 6006   1.135   3.474   5.537
 1704SOL     OW 6007   0.822   2.864   6.958
 1704SOL    HW1 6008   0.862   2.863   6.866
 1704SOL    HW2 6009   0.832   2.956   6.998
 1705SOL     OW 6010   0.916   2.772   5.877
 1705SOL    HW1 6011   0.979   2.810   5.809
 1705SOL    HW2 6012   0.956   2.689   5.916
 1706SOL     OW 6013   1.504   3.469   5.630
 1706SOL    HW1 6014   1.412   3.506   5.637
 1706SOL    HW2 6015   1.542   3.489   5.540
 1707SOL     OW 6016   0.372   3.150   7.076
 1707SOL    HW1 6017   0.359   3.243   7.042
 1707SOL    HW2 6018   0.288   3.098   7.063
 1708SOL     OW 6019   1.614   3.154   6.875
 1708SOL    HW1 6020   1.674   3.157   6.955
 1708SOL    HW2 6021   1.539   3.218   6.888
 1709SOL     OW 6022   1.039   2.960   6.282
 1709SOL    HW1 6023   0.969   2.913   6.336
 1709SOL    HW2 6024   1.098   2.892   6.239
 1710SOL     OW 6025   1.014   2.098   6.557
 1710SOL    HW1 6026   1.006   2.062   6.464
 1710SOL    HW2 6027   1.012   2.022   6.622
 1711SOL     OW 6028   0.590   3.349   6.077
 1711SOL    HW1 6029   0.632   3.291   6.007
 1711SOL    HW2 6030   0.546   3.428   6.033
 1712SOL     OW 6031   1.709   2.247   6.967
 1712SOL    HW1 6032   1.782   2.316   6.971
 1712SOL    HW2 6033   1.737   2.172   6.908
 1713SOL     OW 6034   0.255   3.210   5.876
 1713SOL    HW1 6035   0.159   3.211   5.849
 1713SOL    HW2 6036   0.267   3.263   5.960
 1714SOL     OW 6037   0.105   2.875   7.312
 1714SOL    HW1 6038   0.028   2.842   7.366
 1714SOL    HW2 6039   0.190   2.845   7.354
 1715SOL     OW 6040   0.672   2.065   7.075
 1715SOL    HW1 6041   0.762   2.049   7.035
 1715SOL    HW2 6042   0.680   2.070   7.174
 1716SOL     OW 6043   0.075   2.207   5.619
 1716SOL    HW1 6044  -0.017   2.179   5.590
 1716SOL    HW2 6045   0.106   2.284   5.563
 1717SOL     OW 6046   1.440   2.718   6.984
 1717SOL    HW1 6047   1.383   2.770   6.921
 1717SOL    HW2 6048   1.536   2.730   6.960
 1718SOL     OW 6049   0.072   2.028   5.904
 1718SOL    HW1 6050   0.055   2.111   5.850
 1718SOL    HW2 6051   0.162   1.991   5.882
 1719SOL     OW 6052   1.183   3.197   5.705
 1719SOL    HW1 6053   1.084   3.186   5.707
 1719SOL    HW2 6054   1.217   3.212   5.798
 1720SOL     OW 6055   0.613   2.704   7.017
 1720SOL    HW1 6056   0.669   2.785   7.000
 1720SOL    HW2 6057   0.672   2.624   7.020
 1721SOL     OW 6058   1.493   3.629   6.545
 1721SOL    HW1 6059   1.526   3.693   6.476
 1721SOL    HW2 6060   1.559   3.623   6.620
 1722SOL     OW 6061   0.716   2.427   7.294
 1722SOL    HW1 6062   0.735   2.492   7.368
 1722SOL    HW2 6063   0.776   2.347   7.303
 1723SOL     OW 6064   1.450   3.082   7.219
 1723SOL    HW1 6065   1.441   3.072   7.318
 1723SOL    HW2 6066   1.546   3.075   7.193
 1724SOL     OW 6067   0.390   3.603   7.146
 1724SOL    HW1 6068   0.299   3.644   7.144
 1724SOL    HW2 6069   0.383   3.509   7.178
 1725SOL     OW 6070   1.674   2.745   6.840
 1725SOL    HW1 6071   1.647   2.656   6.803
 1725SOL    HW2 6072   1.675   2.813   6.767
 1726SOL     OW 6073   1.225   2.187   6.035
 1726SOL    HW1 6074   1.290   2.113   6.024
 1726SOL    HW2 6075   1.245   2.237   6.119
 1727SOL     OW 6076   0.594   2.607   6.238
 1727SOL    HW1 6077   0.644   2.692   6.219
 1727SOL    HW2 6078   0.506   2.609   6.190
 1728SOL     OW 6079   1.777   2.204   7.228
 1728SOL    HW1 6080   1.760   2.235   7.134
 1728SOL    HW2 6081   1.693   2.167   7.266
 1729SOL     OW 6082   1.730   2.796   7.103
 1729SOL    HW1 6083   1.768   2.887   7.118
 1729SOL    HW2 6084   1.722   2.779   7.004
 1730SOL     OW 6085   0.859   3.236   5.602
 1730SOL    HW1 6086   0.813   3.251   5.690
 1730SOL    HW2 6087   0.903   3.321   5.572
 1731SOL     OW 6088   0.661   3.652   6.539
 1731SOL    HW1 6089   0.615   3.740   6.526
 1731SOL    HW2 6090   0.760   3.664   6.532
 1732SOL     OW 6091   0.859   2.818   6.447
 1732SOL    HW1 6092   0.913   2.749   6.495
 1732SOL    HW2 6093   0.827   2.887   6.513
 1733SOL     OW 6094   1.083   2.846   5.673
 1733SOL    HW1 6095   1.060   2.899   5.591
 1733SOL    HW2 6096   1.164   2.790   5.654
 1734SOL     OW 6097   1.861   3.431   6.437
 1734SOL    HW1 6098   1.790   3.419   6.367
 1734SOL    HW2 6099   1.862   3.352   6.497
 1735SOL     OW 6100   0.221   3.176   7.430
 1735SOL    HW1 6101   0.156   3.103   7.409
 1735SOL    HW2 6102   0.225   3.190   7.528
 1736SOL     OW 6103   0.079   3.102   6.239
 1736SOL    HW1 6104   0.078   3.055   6.327
 1736SOL    HW2 6105   0.161   3.074   6.188
 1737SOL     OW 6106   0.672   3.253   7.210
 1737SOL    HW1 6107   0.594   3.203   7.248
 1737SOL    HW2 6108   0.669   3.348   7.241
 1738SOL     OW 6109   1.824   2.054   6.813
 1738SOL    HW1 6110   1.820   1.964   6.857
 1738SOL    HW2 6111   1.827   2.043   6.714
 1739SOL     OW 6112   0.428   2.286   6.106
 1739SOL    HW1 6113   0.458   2.214   6.044
 1739SOL    HW2 6114   0.389   2.246   6.189
 1740SOL     OW 6115   1.705   3.349   6.690
 1740SOL    HW1 6116   1.612   3.324   6.663
 1740SOL    HW2 6117   1.731   3.299   6.772
 1741SOL     OW 6118   0.317   2.409   6.866
 1741SOL    HW1 6119   0.355   2.350   6.938
 1741SOL    HW2 6120   0.357   2.383   6.778
 1742SOL     OW 6121   0.812   3.448   6.273
 1742SOL    HW1 6122   0.844   3.458   6.179
 1742SOL    HW2 6123   0.733   3.386   6.275
 1743SOL     OW 6124   1.424   2.076   6.698
 1743SOL    HW1 6125   1.476   2.011   6.753
 1743SOL    HW2 6126   1.375   2.139   6.759
 1744SOL     OW 6127   1.001   1.896   6.740
 1744SOL    HW1 6128   0.938   1.824   6.709
 1744SOL    HW2 6129   1.094   1.860   6.740
 1745SOL     OW 6130   0.770   3.192   5.887
 1745SOL    HW1 6131   0.724   3.105   5.904
 1745SOL    HW2 6132   0.861   3.189   5.928
 1746SOL     OW 6133   0.618   3.429   6.870
 1746SOL    HW1 6134   0.613   3.511   6.927
 1746SOL    HW2 6135   0.707   3.426   6.825
 1747SOL     OW 6136   1.352   1.914   5.754
 1747SOL    HW1 6137   1.387   1.873   5.670
 1747SOL    HW2 6138   1.262   1.876   5.774
 1748SOL     OW 6139   1.300   2.315   6.277
 1748SOL    HW1 6140   1.241   2.395   6.281
 1748SOL    HW2 6141   1.315   2.280   6.370
 1749SOL     OW 6142   1.593   2.083   6.468
 1749SOL    HW1 6143   1.509   2.082   6.522
 1749SOL    HW2 6144   1.595   2.166   6.412
 1750SOL     OW 6145   0.039   2.939   5.886
 1750SOL    HW1 6146   0.138   2.928   5.877
 1750SOL    HW2 6147  -0.001   2.853   5.918
 1751SOL     OW 6148   0.875   3.508   5.923
 1751SOL    HW1 6149   0.798   3.473   5.869
 1751SOL    HW2 6150   0.843   3.579   5.985
 1752SOL     OW 6151   0.230   2.490   7.561
 1752SOL    HW1 6152   0.137   2.488   7.598
 1752SOL    HW2 6153   0.231   2.451   7.469
 1753SOL     OW 6154   1.755   2.469   7.679
 1753SOL    HW1 6155   1.743   2.456   7.580
 1753SOL    HW2 6156   1.725   2.388   7.728
 1754SOL     OW 6157   0.231   3.575   7.931
 1754SOL    HW1 6158   0.265   3.652   7.985
 1754SOL    HW2 6159   0.275   3.575   7.841
 1755SOL     OW 6160   0.230   3.296   7.986
 1755SOL    HW1 6161   0.204   3.392   7.986
 1755SOL    HW2 6162   0.159   3.242   8.031
 1756SOL     OW 6163   0.606   2.826   7.571
 1756SOL    HW1 6164   0.613   2.910   7.517
 1756SOL    HW2 6165   0.652   2.839   7.659
 1757SOL     OW 6166   1.842   3.629   7.807
 1757SOL    HW1 6167   1.896   3.600   7.887
 1757SOL    HW2 6168   1.872   3.719   7.778
 1758SOL     OW 6169   0.027   3.458   7.565
 1758SOL    HW1 6170   0.008   3.362   7.586
 1758SOL    HW2 6171  -0.006   3.516   7.640
 1759SOL     OW 6172   1.689   2.784   8.060
 1759SOL    HW1 6173   1.784   2.755   8.068
 1759SOL    HW2 6174   1.681   2.849   7.985
 1760SOL     OW 6175   1.641   2.970   7.880
 1760SOL    HW1 6176   1.727   2.972   7.828
 1760SOL    HW2 6177   1.655   3.017   7.968
 1761SOL     OW 6178   0.809   1.866   7.950
 1761SOL    HW1 6179   0.849   1.957   7.941
 1761SOL    HW2 6180   0.709   1.874   7.956
 1762SOL     OW 6181   1.525   2.861   7.638
 1762SOL    HW1 6182   1.462   2.785   7.651
 1762SOL    HW2 6183   1.573   2.879   7.724
 1763SOL     OW 6184   0.598   2.591   7.718
 1763SOL    HW1 6185   0.622   2.660   7.650
 1763SOL    HW2 6186   0.520   2.624   7.772
 1764SOL     OW 6187   1.576   3.524   7.755
 1764SOL    HW1 6188   1.665   3.570   7.758
 1764SOL    HW2 6189   1.555   3.500   7.660
 1765SOL     OW 6190   0.076   2.673   8.237
 1765SOL    HW1 6191   0.175   2.661   8.246
 1765SOL    HW2 6192   0.052   2.768   8.258
 1766SOL     OW 6193   0.865   2.210   7.643
 1766SOL    HW1 6194   0.924   2.273   7.594
 1766SOL    HW2 6195   0.884   2.116   7.614
 1767SOL     OW 6196   0.321   2.805   7.690
 1767SOL    HW1 6197   0.403   2.844   7.648
 1767SOL    HW2 6198   0.294   2.723   7.641
 1768SOL     OW 6199   1.111   3.638   7.685
 1768SOL    HW1 6200   1.051   3.576   7.735
 1768SOL    HW2 6201   1.142   3.594   7.600
 1769SOL     OW 6202   1.632   3.239   7.529
 1769SOL    HW1 6203   1.600   3.333   7.519
 1769SOL    HW2 6204   1.556   3.176   7.517
 1770SOL     OW 6205   0.464   3.605   7.771
 1770SOL    HW1 6206   0.497   3.644   7.857
 1770SOL    HW2 6207   0.540   3.598   7.706
 1771SOL     OW 6208   1.400   1.969   7.874
 1771SOL    HW1 6209   1.376   1.932   7.784
 1771SOL    HW2 6210   1.499   1.985   7.878
 1772SOL     OW 6211   0.382   2.562   7.928
 1772SOL    HW1 6212   0.427   2.472   7.925
 1772SOL    HW2 6213   0.288   2.551   7.961
 1773SOL     OW 6214   0.614   1.984   7.565
 1773SOL    HW1 6215   0.712   1.962   7.572
 1773SOL    HW2 6216   0.583   1.967   7.472
 1774SOL     OW 6217   0.539   1.926   7.960
 1774SOL    HW1 6218   0.458   1.927   8.018
 1774SOL    HW2 6219   0.542   2.009   7.905
 1775SOL     OW 6220   1.434   3.050   7.489
 1775SOL    HW1 6221   1.466   2.974   7.546
 1775SOL    HW2 6222   1.342   3.077   7.519
 1776SOL     OW 6223   0.297   1.897   7.619
 1776SOL    HW1 6224   0.346   1.981   7.598
 1776SOL    HW2 6225   0.359   1.832   7.664
 1777SOL     OW 6226   0.935   2.098   7.928
 1777SOL    HW1 6227   0.887   2.139   7.850
 1777SOL    HW2 6228   1.034   2.096   7.909
 1778SOL     OW 6229   0.459   3.014   8.189
 1778SOL    HW1 6230   0.388   2.987   8.254
 1778SOL    HW2 6231   0.433   2.986   8.096
 1779SOL     OW 6232   1.271   3.659   8.039
 1779SOL    HW1 6233   1.315   3.723   7.975
 1779SOL    HW2 6234   1.221   3.711   8.109
 1780SOL     OW 6235   1.032   2.411   7.464
 1780SOL    HW1 6236   0.991   2.493   7.425
 1780SOL    HW2 6237   1.096   2.437   7.537
 1781SOL     OW 6238   1.857   2.695   7.825
 1781SOL    HW1 6239   1.899   2.631   7.889
 1781SOL    HW2 6240   1.819   2.644   7.747
 1782SOL     OW 6241   0.488   3.247   7.622
 1782SOL    HW1 6242   0.401   3.232   7.669
 1782SOL    HW2 6243   0.471   3.273   7.527
 1783SOL     OW 6244   1.390   2.437   7.526
 1783SOL    HW1 6245   1.336   2.416   7.607
 1783SOL    HW2 6246   1.481   2.396   7.535
 1784SOL     OW 6247   0.527   2.118   7.776
 1784SOL    HW1 6248   0.554   2.059   7.701
 1784SOL    HW2 6249   0.527   2.213   7.745
 1785SOL     OW 6250   0.705   2.912   7.816
 1785SOL    HW1 6251   0.691   2.919   7.915
 1785SOL    HW2 6252   0.789   2.861   7.798
 1786SOL     OW 6253   0.367   2.962   7.949
 1786SOL    HW1 6254   0.360   3.045   7.893
 1786SOL    HW2 6255   0.371   2.882   7.889
 1787SOL     OW 6256   1.252   3.210   7.836
 1787SOL    HW1 6257   1.302   3.287   7.876
 1787SOL    HW2 6258   1.157   3.212   7.868
 1788SOL     OW 6259   1.582   2.501   7.920
 1788SOL    HW1 6260   1.551   2.562   7.993
 1788SOL    HW2 6261   1.632   2.553   7.851
 1789SOL     OW 6262   1.209   2.387   7.723
 1789SOL    HW1 6263   1.222   2.303   7.777
 1789SOL    HW2 6264   1.180   2.461   7.783
 1790SOL     OW 6265   1.622   2.229   7.822
 1790SOL    HW1 6266   1.624   2.153   7.886
 1790SOL    HW2 6267   1.574   2.306   7.862
 1791SOL     OW 6268   1.540   2.136   7.573
 1791SOL    HW1 6269   1.479   2.061   7.596
 1791SOL    HW2 6270   1.562   2.188   7.656
 1792SOL     OW 6271   1.303   2.700   7.490
 1792SOL    HW1 6272   1.337   2.607   7.505
 1792SOL    HW2 6273   1.321   2.727   7.395
 1793SOL     OW 6274   0.008   3.188   7.648
 1793SOL    HW1 6275  -0.085   3.209   7.617
 1793SOL    HW2 6276   0.018   3.089   7.661
 1794SOL     OW 6277   0.815   2.434   7.773
 1794SOL    HW1 6278   0.822   2.345   7.727
 1794SOL    HW2 6279   0.721   2.468   7.765
 1795SOL     OW 6280   0.473   2.362   7.639
 1795SOL    HW1 6281   0.534   2.442   7.643
 1795SOL    HW2 6282   0.378   2.393   7.646
 1796SOL     OW 6283   1.302   2.717   7.757
 1796SOL    HW1 6284   1.216   2.686   7.799
 1796SOL    HW2 6285   1.298   2.703   7.658
 1797SOL     OW 6286   1.726   1.997   7.971
 1797SOL    HW1 6287   1.799   1.980   7.904
 1797SOL    HW2 6288   1.695   1.910   8.009
 1798SOL     OW 6289   1.388   3.435   7.925
 1798SOL    HW1 6290   1.455   3.447   7.851
 1798SOL    HW2 6291   1.348   3.524   7.948
 1799SOL     OW 6292   0.672   3.478   7.602
 1799SOL    HW1 6293   0.681   3.488   7.503
 1799SOL    HW2 6294   0.632   3.389   7.623
 1800SOL     OW 6295   1.194   3.474   7.479
 1800SOL    HW1 6296   1.200   3.381   7.516
 1800SOL    HW2 6297   1.135   3.474   7.399
 1801SOL     OW 6298   0.916   2.772   7.739
 1801SOL    HW1 6299   0.979   2.810   7.671
 1801SOL    HW2 6300   0.956   2.689   7.778
 1802SOL     OW 6301   1.504   3.469   7.492
 1802SOL    HW1 6302   1.412   3.506   7.499
 1802SOL    HW2 6303   1.542   3.489   7.402
 1803SOL     OW 6304   0.590   3.349   7.939
 1803SOL    HW1 6305   0.632   3.291   7.869
 1803SOL    HW2 6306   0.546   3.428   7.895
 1804SOL     OW 6307   0.255   3.210   7.738
 1804SOL    HW1 6308   0.159   3.211   7.711
 1804SOL    HW2 6309   0.267   3.263   7.822
 1805SOL     OW 6310   0.075   2.207   7.481
 1805SOL    HW1 6311  -0.017   2.179   7.452
 1805SOL    HW2 6312   0.106   2.284   7.425
 1806SOL     OW 6313   0.072   2.028   7.766
 1806SOL    HW1 6314   0.055   2.111   7.712
 1806SOL    HW2 6315   0.162   1.991   7.744
 1807SOL     OW 6316   1.183   3.197   7.567
 1807SOL    HW1 6317   1.084   3.186   7.569
 1807SOL    HW2 6318   1.217   3.212   7.660
 1808SOL     OW 6319   1.225   2.187   7.897
 1808SOL    HW1 6320   1.290   2.113   7.886
 1808SOL    HW2 6321   1.245   2.237   7.981
 1809SOL     OW 6322   0.594   2.607   8.100
 1809SOL    HW1 6323   0.644   2.692   8.081
 1809SOL    HW2 6324   0.506   2.609   8.052
 1810SOL     OW 6325   0.859   3.236   7.464
 1810SOL    HW1 6326   0.813   3.251   7.552
 1810SOL    HW2 6327   0.903   3.321   7.434
 1811SOL     OW 6328   1.083   2.846   7.535
 1811SOL    HW1 6329   1.060   2.899   7.453
 1811SOL    HW2 6330   1.164   2.790   7.516
 1812SOL     OW 6331   0.428   2.286   7.968
 1812SOL    HW1 6332   0.458   2.214   7.906
 1812SOL    HW2 6333   0.389   2.246   8.051
 1813SOL     OW 6334   0.770   3.192   7.749
 1813SOL    HW1 6335   0.724   3.105   7.766
 1813SOL    HW2 6336   0.861   3.189   7.790
 1814SOL     OW 6337   1.352   1.914   7.616
 1814SOL    HW1 6338   1.387   1.873   7.532
 1814SOL    HW2 6339   1.262   1.876   7.636
 1815SOL     OW 6340   0.039   2.939   7.748
 1815SOL    HW1 6341   0.138   2.928   7.739
 1815SOL    HW2 6342  -0.001   2.853   7.780
 1816SOL     OW 6343   0.875   3.508   7.785
 1816SOL    HW1 6344   0.798   3.473   7.731
 1816SOL    HW2 6345   0.843   3.579   7.847
 1817SOL     OW 6346   0.230   4.352   0.113
 1817SOL    HW1 6347   0.137   4.350   0.150
 1817SOL    HW2 6348   0.231   4.313   0.021
 1818SOL     OW 6349   0.225   3.999   0.996
 1818SOL    HW1 6350   0.260   3.982   1.088
 1818SOL    HW2 6351   0.137   3.954   0.984
 1819SOL     OW 6352   0.019   4.092   0.647
 1819SOL    HW1 6353  -0.063   4.135   0.686
 1819SOL    HW2 6354  -0.009   4.019   0.584
 1820SOL     OW 6355   0.569   4.999   1.165
 1820SOL    HW1 6356   0.476   4.992   1.128
 1820SOL    HW2 6357   0.580   5.088   1.209
 1821SOL     OW 6358   1.555   5.235   0.703
 1821SOL    HW1 6359   1.498   5.219   0.784
 1821SOL    HW2 6360   1.496   5.245   0.623
 1822SOL     OW 6361   1.135   4.427   0.717
 1822SOL    HW1 6362   1.192   4.505   0.692
 1822SOL    HW2 6363   1.075   4.453   0.793
 1823SOL     OW 6364   1.755   4.331   0.231
 1823SOL    HW1 6365   1.743   4.318   0.132
 1823SOL    HW2 6366   1.725   4.250   0.280
 1824SOL     OW 6367   0.768   4.868   1.023
 1824SOL    HW1 6368   0.690   4.885   1.083
 1824SOL    HW2 6369   0.802   4.955   0.987
 1825SOL     OW 6370   0.850   4.522   1.823
 1825SOL    HW1 6371   0.846   4.598   1.888
 1825SOL    HW2 6372   0.872   4.558   1.732
 1826SOL     OW 6373   0.685   4.736   0.665
 1826SOL    HW1 6374   0.754   4.720   0.735
 1826SOL    HW2 6375   0.612   4.793   0.703
 1827SOL     OW 6376   0.686   4.885   1.803
 1827SOL    HW1 6377   0.746   4.964   1.817
 1827SOL    HW2 6378   0.600   4.916   1.762
 1828SOL     OW 6379   0.335   5.159   1.061
 1828SOL    HW1 6380   0.257   5.128   1.008
 1828SOL    HW2 6381   0.393   5.217   1.004
 1829SOL     OW 6382   1.460   5.229   1.339
 1829SOL    HW1 6383   1.484   5.323   1.365
 1829SOL    HW2 6384   1.444   5.175   1.421
 1830SOL     OW 6385   0.438   4.116   1.499
 1830SOL    HW1 6386   0.520   4.060   1.508
 1830SOL    HW2 6387   0.357   4.058   1.503
 1831SOL     OW 6388   1.603   4.171   0.737
 1831SOL    HW1 6389   1.529   4.217   0.687
 1831SOL    HW2 6390   1.654   4.239   0.790
 1832SOL     OW 6391   1.127   5.065   1.690
 1832SOL    HW1 6392   1.174   5.065   1.778
 1832SOL    HW2 6393   1.079   4.978   1.679
 1833SOL     OW 6394   0.230   5.158   0.538
 1833SOL    HW1 6395   0.204   5.254   0.538
 1833SOL    HW2 6396   0.159   5.104   0.583
 1834SOL     OW 6397   0.240   4.815   0.886
 1834SOL    HW1 6398   0.254   4.731   0.938
 1834SOL    HW2 6399   0.185   4.879   0.941
 1835SOL     OW 6400   0.606   4.688   0.123
 1835SOL    HW1 6401   0.613   4.772   0.069
 1835SOL    HW2 6402   0.652   4.701   0.211
 1836SOL     OW 6403   1.594   3.838   1.480
 1836SOL    HW1 6404   1.576   3.905   1.408
 1836SOL    HW2 6405   1.591   3.884   1.569
 1837SOL     OW 6406   0.122   4.367   0.563
 1837SOL    HW1 6407   0.077   4.279   0.580
 1837SOL    HW2 6408   0.121   4.421   0.647
 1838SOL     OW 6409   0.027   5.320   0.117
 1838SOL    HW1 6410   0.008   5.224   0.138
 1838SOL    HW2 6411  -0.006   5.378   0.192
 1839SOL     OW 6412   1.689   4.646   0.612
 1839SOL    HW1 6413   1.784   4.617   0.620
 1839SOL    HW2 6414   1.681   4.711   0.537
 1840SOL     OW 6415   1.641   4.832   0.432
 1840SOL    HW1 6416   1.727   4.834   0.380
 1840SOL    HW2 6417   1.655   4.879   0.520
 1841SOL     OW 6418   0.113   4.461   1.597
 1841SOL    HW1 6419   0.201   4.448   1.642
 1841SOL    HW2 6420   0.100   4.558   1.575
 1842SOL     OW 6421   0.613   5.089   0.726
 1842SOL    HW1 6422   0.564   5.002   0.735
 1842SOL    HW2 6423   0.590   5.132   0.639
 1843SOL     OW 6424   1.293   4.952   1.423
 1843SOL    HW1 6425   1.330   4.879   1.365
 1843SOL    HW2 6426   1.345   4.957   1.508
 1844SOL     OW 6427   0.809   3.728   0.502
 1844SOL    HW1 6428   0.849   3.819   0.493
 1844SOL    HW2 6429   0.709   3.736   0.508
 1845SOL     OW 6430   0.197   4.700   1.264
 1845SOL    HW1 6431   0.286   4.655   1.250
 1845SOL    HW2 6432   0.124   4.635   1.245
 1846SOL     OW 6433   1.525   4.723   0.190
 1846SOL    HW1 6434   1.462   4.647   0.203
 1846SOL    HW2 6435   1.573   4.741   0.276
 1847SOL     OW 6436   0.317   3.975   1.801
 1847SOL    HW1 6437   0.388   4.046   1.807
 1847SOL    HW2 6438   0.229   4.014   1.829
 1848SOL     OW 6439   1.466   5.141   0.953
 1848SOL    HW1 6440   1.407   5.147   1.033
 1848SOL    HW2 6441   1.451   5.053   0.907
 1849SOL     OW 6442   0.598   4.453   0.270
 1849SOL    HW1 6443   0.622   4.522   0.202
 1849SOL    HW2 6444   0.520   4.486   0.324
 1850SOL     OW 6445   1.281   4.069   0.944
 1850SOL    HW1 6446   1.195   4.019   0.931
 1850SOL    HW2 6447   1.343   4.015   1.000
 1851SOL     OW 6448   0.807   4.329   1.465
 1851SOL    HW1 6449   0.760   4.326   1.554
 1851SOL    HW2 6450   0.756   4.274   1.399
 1852SOL     OW 6451   1.394   4.193   1.674
 1852SOL    HW1 6452   1.374   4.236   1.762
 1852SOL    HW2 6453   1.472   4.131   1.683
 1853SOL     OW 6454   0.973   4.614   1.572
 1853SOL    HW1 6455   1.019   4.530   1.543
 1853SOL    HW2 6456   0.917   4.648   1.497
 1854SOL     OW 6457   0.991   4.134   1.242
 1854SOL    HW1 6458   0.914   4.168   1.296
 1854SOL    HW2 6459   0.957   4.083   1.163
 1855SOL     OW 6460   1.041   4.425   0.429
 1855SOL    HW1 6461   1.067   4.421   0.525
 1855SOL    HW2 6462   0.956   4.374   0.415
 1856SOL     OW 6463   0.076   4.535   0.789
 1856SOL    HW1 6464   0.175   4.523   0.798
 1856SOL    HW2 6465   0.052   4.630   0.810
 1857SOL     OW 6466   0.865   4.072   0.195
 1857SOL    HW1 6467   0.924   4.135   0.146
 1857SOL    HW2 6468   0.884   3.978   0.166
 1858SOL     OW 6469   1.719   4.309   1.831
 1858SOL    HW1 6470   1.693   4.398   1.795
 1858SOL    HW2 6471   1.717   4.241   1.758
 1859SOL     OW 6472   1.362   4.868   0.545
 1859SOL    HW1 6473   1.445   4.839   0.497
 1859SOL    HW2 6474   1.313   4.935   0.489
 1860SOL     OW 6475   0.550   3.920   0.885
 1860SOL    HW1 6476   0.545   3.915   0.985
 1860SOL    HW2 6477   0.552   4.016   0.856
 1861SOL     OW 6478   1.008   5.180   0.477
 1861SOL    HW1 6479   0.962   5.252   0.425
 1861SOL    HW2 6480   1.004   5.200   0.575
 1862SOL     OW 6481   1.795   4.790   0.873
 1862SOL    HW1 6482   1.733   4.775   0.797
 1862SOL    HW2 6483   1.743   4.801   0.958
 1863SOL     OW 6484   1.227   5.274   1.506
 1863SOL    HW1 6485   1.233   5.197   1.570
 1863SOL    HW2 6486   1.175   5.248   1.426
 1864SOL     OW 6487   0.321   4.667   0.242
 1864SOL    HW1 6488   0.403   4.706   0.200
 1864SOL    HW2 6489   0.294   4.585   0.193
 1865SOL     OW 6490   1.458   4.459   0.728
 1865SOL    HW1 6491   1.453   4.394   0.803
 1865SOL    HW2 6492   1.538   4.518   0.741
 1866SOL     OW 6493   0.461   4.990   1.727
 1866SOL    HW1 6494   0.411   4.991   1.641
 1866SOL    HW2 6495   0.398   4.972   1.803
 1867SOL     OW 6496   1.111   5.500   0.237
 1867SOL    HW1 6497   1.051   5.438   0.287
 1867SOL    HW2 6498   1.142   5.456   0.152
 1868SOL     OW 6499   0.202   4.009   1.498
 1868SOL    HW1 6500   0.122   4.069   1.485
 1868SOL    HW2 6501   0.192   3.960   1.584
 1869SOL     OW 6502   1.632   5.101   0.081
 1869SOL    HW1 6503   1.600   5.195   0.071
 1869SOL    HW2 6504   1.556   5.038   0.069
 1870SOL     OW 6505   1.400   3.831   0.426
 1870SOL    HW1 6506   1.376   3.794   0.336
 1870SOL    HW2 6507   1.499   3.847   0.430
 1871SOL     OW 6508   0.382   4.424   0.480
 1871SOL    HW1 6509   0.427   4.334   0.477
 1871SOL    HW2 6510   0.288   4.413   0.513
 1872SOL     OW 6511   1.547   3.946   1.729
 1872SOL    HW1 6512   1.542   3.983   1.821
 1872SOL    HW2 6513   1.475   3.877   1.717
 1873SOL     OW 6514   0.614   3.846   0.117
 1873SOL    HW1 6515   0.712   3.824   0.124
 1873SOL    HW2 6516   0.583   3.829   0.024
 1874SOL     OW 6517   0.781   3.988   1.749
 1874SOL    HW1 6518   0.848   3.927   1.792
 1874SOL    HW2 6519   0.708   4.007   1.814
 1875SOL     OW 6520   1.351   4.314   1.433
 1875SOL    HW1 6521   1.379   4.271   1.518
 1875SOL    HW2 6522   1.376   4.410   1.434
 1876SOL     OW 6523   0.803   5.126   0.924
 1876SOL    HW1 6524   0.893   5.140   0.882
 1876SOL    HW2 6525   0.732   5.128   0.853
 1877SOL     OW 6526   0.922   4.227   0.899
 1877SOL    HW1 6527   0.897   4.218   0.803
 1877SOL    HW2 6528   0.970   4.145   0.930
 1878SOL     OW 6529   0.539   3.788   0.512
 1878SOL    HW1 6530   0.458   3.789   0.570
 1878SOL    HW2 6531   0.542   3.871   0.457
 1879SOL     OW 6532   1.434   4.912   0.041
 1879SOL    HW1 6533   1.466   4.836   0.098
 1879SOL    HW2 6534   1.342   4.939   0.071
 1880SOL     OW 6535   0.297   3.759   0.171
 1880SOL    HW1 6536   0.346   3.843   0.150
 1880SOL    HW2 6537   0.359   3.694   0.216
 1881SOL     OW 6538   0.935   3.960   0.480
 1881SOL    HW1 6539   0.887   4.001   0.402
 1881SOL    HW2 6540   1.034   3.958   0.461
 1882SOL     OW 6541   1.076   4.407   1.464
 1882SOL    HW1 6542   0.996   4.346   1.467
 1882SOL    HW2 6543   1.157   4.354   1.440
 1883SOL     OW 6544   1.227   5.294   0.793
 1883SOL    HW1 6545   1.248   5.368   0.728
 1883SOL    HW2 6546   1.295   5.294   0.866
 1884SOL     OW 6547   0.459   4.876   0.741
 1884SOL    HW1 6548   0.388   4.849   0.806
 1884SOL    HW2 6549   0.433   4.848   0.648
 1885SOL     OW 6550   1.032   4.273   0.016
 1885SOL    HW1 6551   0.991   4.355  -0.023
 1885SOL    HW2 6552   1.096   4.299   0.089
 1886SOL     OW 6553   0.078   4.280   1.386
 1886SOL    HW1 6554   0.170   4.279   1.345
 1886SOL    HW2 6555   0.072   4.354   1.453
 1887SOL     OW 6556   0.561   3.946   1.147
 1887SOL    HW1 6557   0.599   3.862   1.184
 1887SOL    HW2 6558   0.473   3.965   1.191
 1888SOL     OW 6559   0.866   4.178   0.642
 1888SOL    HW1 6560   0.834   4.250   0.580
 1888SOL    HW2 6561   0.890   4.097   0.589
 1889SOL     OW 6562   1.017   3.763   0.753
 1889SOL    HW1 6563   0.945   3.768   0.684
 1889SOL    HW2 6564   0.993   3.694   0.822
 1890SOL     OW 6565   1.429   4.897   0.867
 1890SOL    HW1 6566   1.374   4.813   0.860
 1890SOL    HW2 6567   1.455   4.926   0.775
 1891SOL     OW 6568   1.466   4.314   0.992
 1891SOL    HW1 6569   1.436   4.219   0.999
 1891SOL    HW2 6570   1.539   4.330   1.058
 1892SOL     OW 6571   1.857   4.557   0.377
 1892SOL    HW1 6572   1.899   4.493   0.441
 1892SOL    HW2 6573   1.819   4.506   0.299
 1893SOL     OW 6574   0.488   5.109   0.174
 1893SOL    HW1 6575   0.401   5.094   0.221
 1893SOL    HW2 6576   0.471   5.135   0.079
 1894SOL     OW 6577   1.664   5.004   0.657
 1894SOL    HW1 6578   1.763   5.012   0.671
 1894SOL    HW2 6579   1.619   5.088   0.688
 1895SOL     OW 6580   1.390   4.299   0.078
 1895SOL    HW1 6581   1.336   4.278   0.159
 1895SOL    HW2 6582   1.481   4.258   0.087
 1896SOL     OW 6583   0.527   3.980   0.328
 1896SOL    HW1 6584   0.554   3.921   0.253
 1896SOL    HW2 6585   0.527   4.075   0.297
 1897SOL     OW 6586   1.754   4.947   1.588
 1897SOL    HW1 6587   1.845   4.908   1.575
 1897SOL    HW2 6588   1.762   5.043   1.612
 1898SOL     OW 6589   1.064   5.071   1.340
 1898SOL    HW1 6590   0.984   5.048   1.395
 1898SOL    HW2 6591   1.147   5.045   1.389
 1899SOL     OW 6592   1.111   4.919   1.100
 1899SOL    HW1 6593   1.071   4.963   1.181
 1899SOL    HW2 6594   1.070   4.956   1.017
 1900SOL     OW 6595   1.638   4.823   1.079
 1900SOL    HW1 6596   1.643   4.904   1.138
 1900SOL    HW2 6597   1.552   4.825   1.028
 1901SOL     OW 6598   0.915   3.813   1.402
 1901SOL    HW1 6599   0.940   3.793   1.307
 1901SOL    HW2 6600   0.987   3.869   1.444
 1902SOL     OW 6601   0.980   4.840   1.719
 1902SOL    HW1 6602   0.881   4.846   1.729
 1902SOL    HW2 6603   1.003   4.760   1.663
 1903SOL     OW 6604   0.705   4.774   0.368
 1903SOL    HW1 6605   0.691   4.781   0.467
 1903SOL    HW2 6606   0.789   4.723   0.350
 1904SOL     OW 6607   0.410   4.537   1.251
 1904SOL    HW1 6608   0.496   4.549   1.301
 1904SOL    HW2 6609   0.368   4.450   1.278
 1905SOL     OW 6610   1.274   4.110   1.262
 1905SOL    HW1 6611   1.295   4.184   1.326
 1905SOL    HW2 6612   1.185   4.127   1.219
 1906SOL     OW 6613   0.064   5.288   1.331
 1906SOL    HW1 6614   0.018   5.370   1.297
 1906SOL    HW2 6615   0.162   5.307   1.340
 1907SOL     OW 6616   0.367   4.824   0.501
 1907SOL    HW1 6617   0.360   4.907   0.445
 1907SOL    HW2 6618   0.371   4.744   0.441
 1908SOL     OW 6619   0.566   4.261   0.865
 1908SOL    HW1 6620   0.578   4.327   0.791
 1908SOL    HW2 6621   0.612   4.295   0.948
 1909SOL     OW 6622   1.252   5.072   0.388
 1909SOL    HW1 6623   1.302   5.149   0.428
 1909SOL    HW2 6624   1.157   5.074   0.420
 1910SOL     OW 6625   1.272   5.169   1.142
 1910SOL    HW1 6626   1.319   5.182   1.229
 1910SOL    HW2 6627   1.206   5.095   1.151
 1911SOL     OW 6628   1.582   4.363   0.472
 1911SOL    HW1 6629   1.551   4.424   0.545
 1911SOL    HW2 6630   1.632   4.415   0.403
 1912SOL     OW 6631   0.354   5.234   1.329
 1912SOL    HW1 6632   0.333   5.190   1.242
 1912SOL    HW2 6633   0.451   5.260   1.332
 1913SOL     OW 6634   0.402   4.475   1.598
 1913SOL    HW1 6635   0.470   4.530   1.551
 1913SOL    HW2 6636   0.442   4.387   1.625
 1914SOL     OW 6637   1.587   4.503   1.670
 1914SOL    HW1 6638   1.495   4.541   1.665
 1914SOL    HW2 6639   1.647   4.550   1.605
 1915SOL     OW 6640   1.013   3.829   1.770
 1915SOL    HW1 6641   1.019   3.914   1.718
 1915SOL    HW2 6642   1.045   3.753   1.713
 1916SOL     OW 6643   0.504   3.774   1.740
 1916SOL    HW1 6644   0.462   3.717   1.670
 1916SOL    HW2 6645   0.438   3.843   1.772
 1917SOL     OW 6646   0.573   4.594   1.029
 1917SOL    HW1 6647   0.617   4.683   1.020
 1917SOL    HW2 6648   0.510   4.594   1.106
 1918SOL     OW 6649   1.360   4.586   1.045
 1918SOL    HW1 6650   1.285   4.586   0.979
 1918SOL    HW2 6651   1.397   4.494   1.054
 1919SOL     OW 6652   1.209   4.249   0.275
 1919SOL    HW1 6653   1.222   4.165   0.329
 1919SOL    HW2 6654   1.180   4.323   0.335
 1920SOL     OW 6655   0.307   3.937   1.231
 1920SOL    HW1 6656   0.284   3.974   1.321
 1920SOL    HW2 6657   0.277   3.842   1.225
 1921SOL     OW 6658   0.037   5.034   1.282
 1921SOL    HW1 6659   0.090   4.985   1.350
 1921SOL    HW2 6660   0.059   5.132   1.287
 1922SOL     OW 6661   0.732   4.358   1.064
 1922SOL    HW1 6662   0.791   4.332   0.988
 1922SOL    HW2 6663   0.704   4.454   1.053
 1923SOL     OW 6664   1.728   4.659   1.854
 1923SOL    HW1 6665   1.682   4.652   1.765
 1923SOL    HW2 6666   1.666   4.703   1.920
 1924SOL     OW 6667   0.307   3.787   0.618
 1924SOL    HW1 6668   0.296   3.881   0.651
 1924SOL    HW2 6669   0.302   3.724   0.695
 1925SOL     OW 6670   1.622   4.091   0.374
 1925SOL    HW1 6671   1.624   4.015   0.438
 1925SOL    HW2 6672   1.574   4.168   0.414
 1926SOL     OW 6673   1.023   4.490   0.966
 1926SOL    HW1 6674   1.038   4.511   1.062
 1926SOL    HW2 6675   0.993   4.395   0.957
 1927SOL     OW 6676   1.859   5.242   1.605
 1927SOL    HW1 6677   1.873   5.269   1.510
 1927SOL    HW2 6678   1.942   5.264   1.658
 1928SOL     OW 6679   0.350   4.622   1.804
 1928SOL    HW1 6680   0.426   4.666   1.852
 1928SOL    HW2 6681   0.385   4.575   1.722
 1929SOL     OW 6682   1.540   3.998   0.125
 1929SOL    HW1 6683   1.479   3.923   0.148
 1929SOL    HW2 6684   1.562   4.050   0.208
 1930SOL     OW 6685   1.303   4.562   0.042
 1930SOL    HW1 6686   1.337   4.469   0.057
 1930SOL    HW2 6687   1.321   4.589  -0.053
 1931SOL     OW 6688   1.068   5.057   0.849
 1931SOL    HW1 6689   1.075   4.973   0.794
 1931SOL    HW2 6690   1.130   5.126   0.813
 1932SOL     OW 6691   0.319   4.534   0.949
 1932SOL    HW1 6692   0.412   4.570   0.954
 1932SOL    HW2 6693   0.313   4.449   1.001
 1933SOL     OW 6694   0.339   4.233   1.006
 1933SOL    HW1 6695   0.287   4.150   0.989
 1933SOL    HW2 6696   0.416   4.238   0.942
 1934SOL     OW 6697   1.138   4.104   1.678
 1934SOL    HW1 6698   1.093   4.167   1.742
 1934SOL    HW2 6699   1.231   4.135   1.661
 1935SOL     OW 6700   1.160   3.931   1.477
 1935SOL    HW1 6701   1.160   3.995   1.554
 1935SOL    HW2 6702   1.188   3.979   1.394
 1936SOL     OW 6703   0.008   5.050   0.200
 1936SOL    HW1 6704  -0.085   5.071   0.169
 1936SOL    HW2 6705   0.018   4.951   0.213
 1937SOL     OW 6706   1.002   4.520   1.238
 1937SOL    HW1 6707   1.043   4.488   1.324
 1937SOL    HW2 6708   0.906   4.493   1.235
 1938SOL     OW 6709   0.040   4.268   1.114
 1938SOL    HW1 6710   0.125   4.235   1.073
 1938SOL    HW2 6711   0.053   4.283   1.212
 1939SOL     OW 6712   0.189   4.244   1.722
 1939SOL    HW1 6713   0.248   4.204   1.652
 1939SOL    HW2 6714   0.131   4.315   1.681
 1940SOL     OW 6715   1.369   4.674   1.660
 1940SOL    HW1 6716   1.408   4.763   1.680
 1940SOL    HW2 6717   1.379   4.654   1.563
 1941SOL     OW 6718   0.815   4.296   0.325
 1941SOL    HW1 6719   0.822   4.207   0.279
 1941SOL    HW2 6720   0.721   4.330   0.317
 1942SOL     OW 6721   1.657   4.328   1.206
 1942SOL    HW1 6722   1.619   4.259   1.268
 1942SOL    HW2 6723   1.739   4.292   1.162
 1943SOL     OW 6724   0.252   5.288   1.744
 1943SOL    HW1 6725   0.222   5.345   1.820
 1943SOL    HW2 6726   0.245   5.191   1.770
 1944SOL     OW 6727   0.671   4.188   1.269
 1944SOL    HW1 6728   0.637   4.099   1.239
 1944SOL    HW2 6729   0.697   4.242   1.189
 1945SOL     OW 6730   0.473   4.224   0.191
 1945SOL    HW1 6731   0.534   4.304   0.195
 1945SOL    HW2 6732   0.378   4.255   0.198
 1946SOL     OW 6733   0.159   4.861   1.466
 1946SOL    HW1 6734   0.181   4.800   1.542
 1946SOL    HW2 6735   0.169   4.812   1.380
 1947SOL     OW 6736   1.347   4.783   1.234
 1947SOL    HW1 6737   1.371   4.720   1.160
 1947SOL    HW2 6738   1.257   4.823   1.216
 1948SOL     OW 6739   1.302   4.579   0.309
 1948SOL    HW1 6740   1.216   4.548   0.351
 1948SOL    HW2 6741   1.298   4.565   0.210
 1949SOL     OW 6742   0.083   4.982   1.022
 1949SOL    HW1 6743   0.078   4.981   1.122
 1949SOL    HW2 6744   0.000   4.941   0.984
 1950SOL     OW 6745   0.688   5.386   1.716
 1950SOL    HW1 6746   0.632   5.467   1.725
 1950SOL    HW2 6747   0.740   5.390   1.630
 1951SOL     OW 6748   0.903   3.810   0.133
 1951SOL    HW1 6749   0.954   3.811   0.047
 1951SOL    HW2 6750   0.959   3.768   0.204
 1952SOL     OW 6751   1.726   3.859   0.523
 1952SOL    HW1 6752   1.799   3.842   0.456
 1952SOL    HW2 6753   1.695   3.772   0.561
 1953SOL     OW 6754   1.280   4.651   0.672
 1953SOL    HW1 6755   1.340   4.570   0.674
 1953SOL    HW2 6756   1.320   4.720   0.612
 1954SOL     OW 6757   0.830   4.997   1.422
 1954SOL    HW1 6758   0.825   5.030   1.517
 1954SOL    HW2 6759   0.744   5.016   1.376
 1955SOL     OW 6760   1.841   3.899   0.963
 1955SOL    HW1 6761   1.880   3.814   0.927
 1955SOL    HW2 6762   1.743   3.901   0.944
 1956SOL     OW 6763   0.263   4.050   0.720
 1956SOL    HW1 6764   0.184   4.101   0.686
 1956SOL    HW2 6765   0.254   4.035   0.818
 1957SOL     OW 6766   1.194   5.336   0.031
 1957SOL    HW1 6767   1.200   5.243   0.068
 1957SOL    HW2 6768   1.135   5.336  -0.049
 1958SOL     OW 6769   0.822   4.726   1.372
 1958SOL    HW1 6770   0.862   4.725   1.280
 1958SOL    HW2 6771   0.832   4.818   1.412
 1959SOL     OW 6772   0.916   4.634   0.291
 1959SOL    HW1 6773   0.979   4.672   0.223
 1959SOL    HW2 6774   0.956   4.551   0.330
 1960SOL     OW 6775   0.372   5.012   1.490
 1960SOL    HW1 6776   0.359   5.105   1.456
 1960SOL    HW2 6777   0.288   4.960   1.477
 1961SOL     OW 6778   1.614   5.016   1.289
 1961SOL    HW1 6779   1.674   5.019   1.369
 1961SOL    HW2 6780   1.539   5.080   1.302
 1962SOL     OW 6781   1.039   4.822   0.696
 1962SOL    HW1 6782   0.969   4.775   0.750
 1962SOL    HW2 6783   1.098   4.754   0.653
 1963SOL     OW 6784   1.014   3.960   0.971
 1963SOL    HW1 6785   1.006   3.924   0.878
 1963SOL    HW2 6786   1.012   3.884   1.036
 1964SOL     OW 6787   1.709   4.109   1.381
 1964SOL    HW1 6788   1.782   4.178   1.385
 1964SOL    HW2 6789   1.737   4.034   1.322
 1965SOL     OW 6790   0.255   5.072   0.290
 1965SOL    HW1 6791   0.159   5.073   0.263
 1965SOL    HW2 6792   0.267   5.125   0.374
 1966SOL     OW 6793   0.105   4.737   1.726
 1966SOL    HW1 6794   0.028   4.704   1.780
 1966SOL    HW2 6795   0.190   4.707   1.768
 1967SOL     OW 6796   0.672   3.927   1.489
 1967SOL    HW1 6797   0.762   3.911   1.449
 1967SOL    HW2 6798   0.680   3.932   1.588
 1968SOL     OW 6799   0.075   4.069   0.033
 1968SOL    HW1 6800  -0.017   4.041   0.004
 1968SOL    HW2 6801   0.106   4.146  -0.023
 1969SOL     OW 6802   1.440   4.580   1.398
 1969SOL    HW1 6803   1.383   4.632   1.335
 1969SOL    HW2 6804   1.536   4.592   1.374
 1970SOL     OW 6805   0.072   3.890   0.318
 1970SOL    HW1 6806   0.055   3.973   0.264
 1970SOL    HW2 6807   0.162   3.853   0.296
 1971SOL     OW 6808   1.183   5.059   0.119
 1971SOL    HW1 6809   1.084   5.048   0.121
 1971SOL    HW2 6810   1.217   5.074   0.212
 1972SOL     OW 6811   0.613   4.566   1.431
 1972SOL    HW1 6812   0.669   4.647   1.414
 1972SOL    HW2 6813   0.672   4.486   1.434
 1973SOL     OW 6814   0.716   4.289   1.708
 1973SOL    HW1 6815   0.735   4.354   1.782
 1973SOL    HW2 6816   0.776   4.209   1.717
 1974SOL     OW 6817   1.450   4.944   1.633
 1974SOL    HW1 6818   1.441   4.934   1.732
 1974SOL    HW2 6819   1.546   4.937   1.607
 1975SOL     OW 6820   1.674   4.607   1.254
 1975SOL    HW1 6821   1.647   4.518   1.217
 1975SOL    HW2 6822   1.675   4.675   1.181
 1976SOL     OW 6823   1.225   4.049   0.449
 1976SOL    HW1 6824   1.290   3.975   0.438
 1976SOL    HW2 6825   1.245   4.099   0.533
 1977SOL     OW 6826   0.594   4.469   0.652
 1977SOL    HW1 6827   0.644   4.554   0.633
 1977SOL    HW2 6828   0.506   4.471   0.604
 1978SOL     OW 6829   1.777   4.066   1.642
 1978SOL    HW1 6830   1.760   4.097   1.548
 1978SOL    HW2 6831   1.693   4.029   1.680
 1979SOL     OW 6832   1.730   4.658   1.517
 1979SOL    HW1 6833   1.768   4.749   1.532
 1979SOL    HW2 6834   1.722   4.641   1.418
 1980SOL     OW 6835   0.859   5.098   0.016
 1980SOL    HW1 6836   0.813   5.113   0.104
 1980SOL    HW2 6837   0.903   5.183  -0.014
 1981SOL     OW 6838   0.859   4.680   0.861
 1981SOL    HW1 6839   0.913   4.611   0.909
 1981SOL    HW2 6840   0.827   4.749   0.927
 1982SOL     OW 6841   1.083   4.708   0.087
 1982SOL    HW1 6842   1.060   4.761   0.005
 1982SOL    HW2 6843   1.164   4.652   0.068
 1983SOL     OW 6844   0.221   5.038   1.844
 1983SOL    HW1 6845   0.156   4.965   1.823
 1983SOL    HW2 6846   0.225   5.052   1.942
 1984SOL     OW 6847   0.079   4.964   0.653
 1984SOL    HW1 6848   0.078   4.917   0.741
 1984SOL    HW2 6849   0.161   4.936   0.602
 1985SOL     OW 6850   0.672   5.115   1.624
 1985SOL    HW1 6851   0.594   5.065   1.662
 1985SOL    HW2 6852   0.669   5.210   1.655
 1986SOL     OW 6853   1.824   3.916   1.227
 1986SOL    HW1 6854   1.820   3.826   1.271
 1986SOL    HW2 6855   1.827   3.905   1.128
 1987SOL     OW 6856   0.428   4.148   0.520
 1987SOL    HW1 6857   0.458   4.076   0.458
 1987SOL    HW2 6858   0.389   4.108   0.603
 1988SOL     OW 6859   1.705   5.211   1.104
 1988SOL    HW1 6860   1.612   5.186   1.077
 1988SOL    HW2 6861   1.731   5.161   1.186
 1989SOL     OW 6862   0.317   4.271   1.280
 1989SOL    HW1 6863   0.355   4.212   1.352
 1989SOL    HW2 6864   0.357   4.245   1.192
 1990SOL     OW 6865   1.424   3.938   1.112
 1990SOL    HW1 6866   1.476   3.873   1.167
 1990SOL    HW2 6867   1.375   4.001   1.173
 1991SOL     OW 6868   1.001   3.758   1.154
 1991SOL    HW1 6869   0.938   3.686   1.123
 1991SOL    HW2 6870   1.094   3.722   1.154
 1992SOL     OW 6871   0.770   5.054   0.301
 1992SOL    HW1 6872   0.724   4.967   0.318
 1992SOL    HW2 6873   0.861   5.051   0.342
 1993SOL     OW 6874   0.618   5.291   1.284
 1993SOL    HW1 6875   0.613   5.373   1.341
 1993SOL    HW2 6876   0.707   5.288   1.239
 1994SOL     OW 6877   1.352   3.776   0.168
 1994SOL    HW1 6878   1.387   3.735   0.084
 1994SOL    HW2 6879   1.262   3.738   0.188
 1995SOL     OW 6880   1.300   4.177   0.691
 1995SOL    HW1 6881   1.241   4.257   0.695
 1995SOL    HW2 6882   1.315   4.142   0.784
 1996SOL     OW 6883   1.593   3.945   0.882
 1996SOL    HW1 6884   1.509   3.944   0.936
 1996SOL    HW2 6885   1.595   4.028   0.826
 1997SOL     OW 6886   0.039   4.801   0.300
 1997SOL    HW1 6887   0.138   4.790   0.291
 1997SOL    HW2 6888  -0.001   4.715   0.332
 1998SOL     OW 6889   0.230   4.352   1.975
 1998SOL    HW1 6890   0.137   4.350   2.012
 1998SOL    HW2 6891   0.231   4.313   1.883
 1999SOL     OW 6892   0.225   3.999   2.858
 1999SOL    HW1 6893   0.260   3.982   2.950
 1999SOL    HW2 6894   0.137   3.954   2.846
 2000SOL     OW 6895   0.019   4.092   2.509
 2000SOL    HW1 6896  -0.063   4.135   2.548
 2000SOL    HW2 6897  -0.009   4.019   2.446
 2001SOL     OW 6898   0.569   4.999   3.027
 2001SOL    HW1 6899   0.476   4.992   2.990
 2001SOL    HW2 6900   0.580   5.088   3.071
 2002SOL     OW 6901   1.555   5.235   2.565
 2002SOL    HW1 6902   1.498   5.219   2.646
 2002SOL    HW2 6903   1.496   5.245   2.485
 2003SOL     OW 6904   1.135   4.427   2.579
 2003SOL    HW1 6905   1.192   4.505   2.554
 2003SOL    HW2 6906   1.075   4.453   2.655
 2004SOL     OW 6907   1.755   4.331   2.093
 2004SOL    HW1 6908   1.743   4.318   1.994
 2004SOL    HW2 6909   1.725   4.250   2.142
 2005SOL     OW 6910   0.768   4.868   2.885
 2005SOL    HW1 6911   0.690   4.885   2.945
 2005SOL    HW2 6912   0.802   4.955   2.849
 2006SOL     OW 6913   0.850   4.522   3.685
 2006SOL    HW1 6914   0.846   4.598   3.750
 2006SOL    HW2 6915   0.872   4.558   3.594
 2007SOL     OW 6916   0.685   4.736   2.527
 2007SOL    HW1 6917   0.754   4.720   2.597
 2007SOL    HW2 6918   0.612   4.793   2.565
 2008SOL     OW 6919   0.686   4.885   3.665
 2008SOL    HW1 6920   0.746   4.964   3.679
 2008SOL    HW2 6921   0.600   4.916   3.624
 2009SOL     OW 6922   0.335   5.159   2.923
 2009SOL    HW1 6923   0.257   5.128   2.870
 2009SOL    HW2 6924   0.393   5.217   2.866
 2010SOL     OW 6925   1.460   5.229   3.201
 2010SOL    HW1 6926   1.484   5.323   3.227
 2010SOL    HW2 6927   1.444   5.175   3.283
 2011SOL     OW 6928   0.438   4.116   3.361
 2011SOL    HW1 6929   0.520   4.060   3.370
 2011SOL    HW2 6930   0.357   4.058   3.365
 2012SOL     OW 6931   1.603   4.171   2.599
 2012SOL    HW1 6932   1.529   4.217   2.549
 2012SOL    HW2 6933   1.654   4.239   2.652
 2013SOL     OW 6934   1.127   5.065   3.552
 2013SOL    HW1 6935   1.174   5.065   3.640
 2013SOL    HW2 6936   1.079   4.978   3.541
 2014SOL     OW 6937   0.230   5.158   2.400
 2014SOL    HW1 6938   0.204   5.254   2.400
 2014SOL    HW2 6939   0.159   5.104   2.445
 2015SOL     OW 6940   0.240   4.815   2.748
 2015SOL    HW1 6941   0.254   4.731   2.800
 2015SOL    HW2 6942   0.185   4.879   2.803
 2016SOL     OW 6943   0.606   4.688   1.985
 2016SOL    HW1 6944   0.613   4.772   1.931
 2016SOL    HW2 6945   0.652   4.701   2.073
 2017SOL     OW 6946   1.594   3.838   3.342
 2017SOL    HW1 6947   1.576   3.905   3.270
 2017SOL    HW2 6948   1.591   3.884   3.431
 2018SOL     OW 6949   0.122   4.367   2.425
 2018SOL    HW1 6950   0.077   4.279   2.442
 2018SOL    HW2 6951   0.121   4.421   2.509
 2019SOL     OW 6952   0.027   5.320   1.979
 2019SOL    HW1 6953   0.008   5.224   2.000
 2019SOL    HW2 6954  -0.006   5.378   2.054
 2020SOL     OW 6955   1.689   4.646   2.474
 2020SOL    HW1 6956   1.784   4.617   2.482
 2020SOL    HW2 6957   1.681   4.711   2.399
 2021SOL     OW 6958   1.641   4.832   2.294
 2021SOL    HW1 6959   1.727   4.834   2.242
 2021SOL    HW2 6960   1.655   4.879   2.382
 2022SOL     OW 6961   0.113   4.461   3.459
 2022SOL    HW1 6962   0.201   4.448   3.504
 2022SOL    HW2 6963   0.100   4.558   3.437
 2023SOL     OW 6964   0.613   5.089   2.588
 2023SOL    HW1 6965   0.564   5.002   2.597
 2023SOL    HW2 6966   0.590   5.132   2.501
 2024SOL     OW 6967   1.293   4.952   3.285
 2024SOL    HW1 6968   1.330   4.879   3.227
 2024SOL    HW2 6969   1.345   4.957   3.370
 2025SOL     OW 6970   0.809   3.728   2.364
 2025SOL    HW1 6971   0.849   3.819   2.355
 2025SOL    HW2 6972   0.709   3.736   2.370
 2026SOL     OW 6973   0.197   4.700   3.126
 2026SOL    HW1 6974   0.286   4.655   3.112
 2026SOL    HW2 6975   0.124   4.635   3.107
 2027SOL     OW 6976   1.525   4.723   2.052
 2027SOL    HW1 6977   1.462   4.647   2.065
 2027SOL    HW2 6978   1.573   4.741   2.138
 2028SOL     OW 6979   0.317   3.975   3.663
 2028SOL    HW1 6980   0.388   4.046   3.669
 2028SOL    HW2 6981   0.229   4.014   3.691
 2029SOL     OW 6982   1.466   5.141   2.815
 2029SOL    HW1 6983   1.407   5.147   2.895
 2029SOL    HW2 6984   1.451   5.053   2.769
 2030SOL     OW 6985   0.598   4.453   2.132
 2030SOL    HW1 6986   0.622   4.522   2.064
 2030SOL    HW2 6987   0.520   4.486   2.186
 2031SOL     OW 6988   1.281   4.069   2.806
 2031SOL    HW1 6989   1.195   4.019   2.793
 2031SOL    HW2 6990   1.343   4.015   2.862
 2032SOL     OW 6991   0.807   4.329   3.327
 2032SOL    HW1 6992   0.760   4.326   3.416
 2032SOL    HW2 6993   0.756   4.274   3.261
 2033SOL     OW 6994   1.394   4.193   3.536
 2033SOL    HW1 6995   1.374   4.236   3.624
 2033SOL    HW2 6996   1.472   4.131   3.545
 2034SOL     OW 6997   0.973   4.614   3.434
 2034SOL    HW1 6998   1.019   4.530   3.405
 2034SOL    HW2 6999   0.917   4.648   3.359
 2035SOL     OW 7000   0.991   4.134   3.104
 2035SOL    HW1 7001   0.914   4.168   3.158
 2035SOL    HW2 7002   0.957   4.083   3.025
 2036SOL     OW 7003   1.041   4.425   2.291
 2036SOL    HW1 7004   1.067   4.421   2.387
 2036SOL    HW2 7005   0.956   4.374   2.277
 2037SOL     OW 7006   0.076   4.535   2.651
 2037SOL    HW1 7007   0.175   4.523   2.660
 2037SOL    HW2 7008   0.052   4.630   2.672
 2038SOL     OW 7009   0.865   4.072   2.057
 2038SOL    HW1 7010   0.924   4.135   2.008
 2038SOL    HW2 7011   0.884   3.978   2.028
 2039SOL     OW 7012   1.719   4.309   3.693
 2039SOL    HW1 7013   1.693   4.398   3.657
 2039SOL    HW2 7014   1.717   4.241   3.620
 2040SOL     OW 7015   1.362   4.868   2.407
 2040SOL    HW1 7016   1.445   4.839   2.359
 2040SOL    HW2 7017   1.313   4.935   2.351
 2041SOL     OW 7018   0.550   3.920   2.747
 2041SOL    HW1 7019   0.545   3.915   2.847
 2041SOL    HW2 7020   0.552   4.016   2.718
 2042SOL     OW 7021   1.008   5.180   2.339
 2042SOL    HW1 7022   0.962   5.252   2.287
 2042SOL    HW2 7023   1.004   5.200   2.437
 2043SOL     OW 7024   1.795   4.790   2.735
 2043SOL    HW1 7025   1.733   4.775   2.659
 2043SOL    HW2 7026   1.743   4.801   2.820
 2044SOL     OW 7027   1.227   5.274   3.368
 2044SOL    HW1 7028   1.233   5.197   3.432
 2044SOL    HW2 7029   1.175   5.248   3.288
 2045SOL     OW 7030   0.321   4.667   2.104
 2045SOL    HW1 7031   0.403   4.706   2.062
 2045SOL    HW2 7032   0.294   4.585   2.055
 2046SOL     OW 7033   1.458   4.459   2.590
 2046SOL    HW1 7034   1.453   4.394   2.665
 2046SOL    HW2 7035   1.538   4.518   2.603
 2047SOL     OW 7036   0.461   4.990   3.589
 2047SOL    HW1 7037   0.411   4.991   3.503
 2047SOL    HW2 7038   0.398   4.972   3.665
 2048SOL     OW 7039   1.111   5.500   2.099
 2048SOL    HW1 7040   1.051   5.438   2.149
 2048SOL    HW2 7041   1.142   5.456   2.014
 2049SOL     OW 7042   0.202   4.009   3.360
 2049SOL    HW1 7043   0.122   4.069   3.347
 2049SOL    HW2 7044   0.192   3.960   3.446
 2050SOL     OW 7045   1.632   5.101   1.943
 2050SOL    HW1 7046   1.600   5.195   1.933
 2050SOL    HW2 7047   1.556   5.038   1.931
 2051SOL     OW 7048   1.400   3.831   2.288
 2051SOL    HW1 7049   1.376   3.794   2.198
 2051SOL    HW2 7050   1.499   3.847   2.292
 2052SOL     OW 7051   0.382   4.424   2.342
 2052SOL    HW1 7052   0.427   4.334   2.339
 2052SOL    HW2 7053   0.288   4.413   2.375
 2053SOL     OW 7054   1.547   3.946   3.591
 2053SOL    HW1 7055   1.542   3.983   3.683
 2053SOL    HW2 7056   1.475   3.877   3.579
 2054SOL     OW 7057   0.614   3.846   1.979
 2054SOL    HW1 7058   0.712   3.824   1.986
 2054SOL    HW2 7059   0.583   3.829   1.886
 2055SOL     OW 7060   0.781   3.988   3.611
 2055SOL    HW1 7061   0.848   3.927   3.654
 2055SOL    HW2 7062   0.708   4.007   3.676
 2056SOL     OW 7063   1.351   4.314   3.295
 2056SOL    HW1 7064   1.379   4.271   3.380
 2056SOL    HW2 7065   1.376   4.410   3.296
 2057SOL     OW 7066   0.803   5.126   2.786
 2057SOL    HW1 7067   0.893   5.140   2.744
 2057SOL    HW2 7068   0.732   5.128   2.715
 2058SOL     OW 7069   0.922   4.227   2.761
 2058SOL    HW1 7070   0.897   4.218   2.665
 2058SOL    HW2 7071   0.970   4.145   2.792
 2059SOL     OW 7072   0.539   3.788   2.374
 2059SOL    HW1 7073   0.458   3.789   2.432
 2059SOL    HW2 7074   0.542   3.871   2.319
 2060SOL     OW 7075   1.434   4.912   1.903
 2060SOL    HW1 7076   1.466   4.836   1.960
 2060SOL    HW2 7077   1.342   4.939   1.933
 2061SOL     OW 7078   0.297   3.759   2.033
 2061SOL    HW1 7079   0.346   3.843   2.012
 2061SOL    HW2 7080   0.359   3.694   2.078
 2062SOL     OW 7081   0.935   3.960   2.342
 2062SOL    HW1 7082   0.887   4.001   2.264
 2062SOL    HW2 7083   1.034   3.958   2.323
 2063SOL     OW 7084   1.076   4.407   3.326
 2063SOL    HW1 7085   0.996   4.346   3.329
 2063SOL    HW2 7086   1.157   4.354   3.302
 2064SOL     OW 7087   1.227   5.294   2.655
 2064SOL    HW1 7088   1.248   5.368   2.590
 2064SOL    HW2 7089   1.295   5.294   2.728
 2065SOL     OW 7090   0.459   4.876   2.603
 2065SOL    HW1 7091   0.388   4.849   2.668
 2065SOL    HW2 7092   0.433   4.848   2.510
 2066SOL     OW 7093   1.032   4.273   1.878
 2066SOL    HW1 7094   0.991   4.355   1.839
 2066SOL    HW2 7095   1.096   4.299   1.951
 2067SOL     OW 7096   0.078   4.280   3.248
 2067SOL    HW1 7097   0.170   4.279   3.207
 2067SOL    HW2 7098   0.072   4.354   3.315
 2068SOL     OW 7099   0.561   3.946   3.009
 2068SOL    HW1 7100   0.599   3.862   3.046
 2068SOL    HW2 7101   0.473   3.965   3.053
 2069SOL     OW 7102   0.866   4.178   2.504
 2069SOL    HW1 7103   0.834   4.250   2.442
 2069SOL    HW2 7104   0.890   4.097   2.451
 2070SOL     OW 7105   1.017   3.763   2.615
 2070SOL    HW1 7106   0.945   3.768   2.546
 2070SOL    HW2 7107   0.993   3.694   2.684
 2071SOL     OW 7108   1.429   4.897   2.729
 2071SOL    HW1 7109   1.374   4.813   2.722
 2071SOL    HW2 7110   1.455   4.926   2.637
 2072SOL     OW 7111   1.466   4.314   2.854
 2072SOL    HW1 7112   1.436   4.219   2.861
 2072SOL    HW2 7113   1.539   4.330   2.920
 2073SOL     OW 7114   1.857   4.557   2.239
 2073SOL    HW1 7115   1.899   4.493   2.303
 2073SOL    HW2 7116   1.819   4.506   2.161
 2074SOL     OW 7117   0.488   5.109   2.036
 2074SOL    HW1 7118   0.401   5.094   2.083
 2074SOL    HW2 7119   0.471   5.135   1.941
 2075SOL     OW 7120   1.664   5.004   2.519
 2075SOL    HW1 7121   1.763   5.012   2.533
 2075SOL    HW2 7122   1.619   5.088   2.550
 2076SOL     OW 7123   1.390   4.299   1.940
 2076SOL    HW1 7124   1.336   4.278   2.021
 2076SOL    HW2 7125   1.481   4.258   1.949
 2077SOL     OW 7126   0.527   3.980   2.190
 2077SOL    HW1 7127   0.554   3.921   2.115
 2077SOL    HW2 7128   0.527   4.075   2.159
 2078SOL     OW 7129   1.754   4.947   3.450
 2078SOL    HW1 7130   1.845   4.908   3.437
 2078SOL    HW2 7131   1.762   5.043   3.474
 2079SOL     OW 7132   1.064   5.071   3.202
 2079SOL    HW1 7133   0.984   5.048   3.257
 2079SOL    HW2 7134   1.147   5.045   3.251
 2080SOL     OW 7135   1.111   4.919   2.962
 2080SOL    HW1 7136   1.071   4.963   3.043
 2080SOL    HW2 7137   1.070   4.956   2.879
 2081SOL     OW 7138   1.638   4.823   2.941
 2081SOL    HW1 7139   1.643   4.904   3.000
 2081SOL    HW2 7140   1.552   4.825   2.890
 2082SOL     OW 7141   0.915   3.813   3.264
 2082SOL    HW1 7142   0.940   3.793   3.169
 2082SOL    HW2 7143   0.987   3.869   3.306
 2083SOL     OW 7144   0.980   4.840   3.581
 2083SOL    HW1 7145   0.881   4.846   3.591
 2083SOL    HW2 7146   1.003   4.760   3.525
 2084SOL     OW 7147   0.705   4.774   2.230
 2084SOL    HW1 7148   0.691   4.781   2.329
 2084SOL    HW2 7149   0.789   4.723   2.212
 2085SOL     OW 7150   0.410   4.537   3.113
 2085SOL    HW1 7151   0.496   4.549   3.163
 2085SOL    HW2 7152   0.368   4.450   3.140
 2086SOL     OW 7153   1.274   4.110   3.124
 2086SOL    HW1 7154   1.295   4.184   3.188
 2086SOL    HW2 7155   1.185   4.127   3.081
 2087SOL     OW 7156   0.064   5.288   3.193
 2087SOL    HW1 7157   0.018   5.370   3.159
 2087SOL    HW2 7158   0.162   5.307   3.202
 2088SOL     OW 7159   0.367   4.824   2.363
 2088SOL    HW1 7160   0.360   4.907   2.307
 2088SOL    HW2 7161   0.371   4.744   2.303
 2089SOL     OW 7162   0.566   4.261   2.727
 2089SOL    HW1 7163   0.578   4.327   2.653
 2089SOL    HW2 7164   0.612   4.295   2.810
 2090SOL     OW 7165   1.252   5.072   2.250
 2090SOL    HW1 7166   1.302   5.149   2.290
 2090SOL    HW2 7167   1.157   5.074   2.282
 2091SOL     OW 7168   1.272   5.169   3.004
 2091SOL    HW1 7169   1.319   5.182   3.091
 2091SOL    HW2 7170   1.206   5.095   3.013
 2092SOL     OW 7171   1.582   4.363   2.334
 2092SOL    HW1 7172   1.551   4.424   2.407
 2092SOL    HW2 7173   1.632   4.415   2.265
 2093SOL     OW 7174   0.354   5.234   3.191
 2093SOL    HW1 7175   0.333   5.190   3.104
 2093SOL    HW2 7176   0.451   5.260   3.194
 2094SOL     OW 7177   0.402   4.475   3.460
 2094SOL    HW1 7178   0.470   4.530   3.413
 2094SOL    HW2 7179   0.442   4.387   3.487
 2095SOL     OW 7180   1.587   4.503   3.532
 2095SOL    HW1 7181   1.495   4.541   3.527
 2095SOL    HW2 7182   1.647   4.550   3.467
 2096SOL     OW 7183   1.013   3.829   3.632
 2096SOL    HW1 7184   1.019   3.914   3.580
 2096SOL    HW2 7185   1.045   3.753   3.575
 2097SOL     OW 7186   0.504   3.774   3.602
 2097SOL    HW1 7187   0.462   3.717   3.532
 2097SOL    HW2 7188   0.438   3.843   3.634
 2098SOL     OW 7189   0.573   4.594   2.891
 2098SOL    HW1 7190   0.617   4.683   2.882
 2098SOL    HW2 7191   0.510   4.594   2.968
 2099SOL     OW 7192   1.360   4.586   2.907
 2099SOL    HW1 7193   1.285   4.586   2.841
 2099SOL    HW2 7194   1.397   4.494   2.916
 2100SOL     OW 7195   1.209   4.249   2.137
 2100SOL    HW1 7196   1.222   4.165   2.191
 2100SOL    HW2 7197   1.180   4.323   2.197
 2101SOL     OW 7198   0.307   3.937   3.093
 2101SOL    HW1 7199   0.284   3.974   3.183
 2101SOL    HW2 7200   0.277   3.842   3.087
 2102SOL     OW 7201   0.037   5.034   3.144
 2102SOL    HW1 7202   0.090   4.985   3.212
 2102SOL    HW2 7203   0.059   5.132   3.149
 2103SOL     OW 7204   0.732   4.358   2.926
 2103SOL    HW1 7205   0.791   4.332   2.850
 2103SOL    HW2 7206   0.704   4.454   2.915
 2104SOL     OW 7207   1.728   4.659   3.716
 2104SOL    HW1 7208   1.682   4.652   3.627
 2104SOL    HW2 7209   1.666   4.703   3.782
 2105SOL     OW 7210   0.307   3.787   2.480
 2105SOL    HW1 7211   0.296   3.881   2.513
 2105SOL    HW2 7212   0.302   3.724   2.557
 2106SOL     OW 7213   1.622   4.091   2.236
 2106SOL    HW1 7214   1.624   4.015   2.300
 2106SOL    HW2 7215   1.574   4.168   2.276
 2107SOL     OW 7216   1.023   4.490   2.828
 2107SOL    HW1 7217   1.038   4.511   2.924
 2107SOL    HW2 7218   0.993   4.395   2.819
 2108SOL     OW 7219   1.859   5.242   3.467
 2108SOL    HW1 7220   1.873   5.269   3.372
 2108SOL    HW2 7221   1.942   5.264   3.520
 2109SOL     OW 7222   0.350   4.622   3.666
 2109SOL    HW1 7223   0.426   4.666   3.714
 2109SOL    HW2 7224   0.385   4.575   3.584
 2110SOL     OW 7225   1.540   3.998   1.987
 2110SOL    HW1 7226   1.479   3.923   2.010
 2110SOL    HW2 7227   1.562   4.050   2.070
 2111SOL     OW 7228   1.303   4.562   1.904
 2111SOL    HW1 7229   1.337   4.469   1.919
 2111SOL    HW2 7230   1.321   4.589   1.809
 2112SOL     OW 7231   1.068   5.057   2.711
 2112SOL    HW1 7232   1.075   4.973   2.656
 2112SOL    HW2 7233   1.130   5.126   2.675
 2113SOL     OW 7234   0.319   4.534   2.811
 2113SOL    HW1 7235   0.412   4.570   2.816
 2113SOL    HW2 7236   0.313   4.449   2.863
 2114SOL     OW 7237   0.339   4.233   2.868
 2114SOL    HW1 7238   0.287   4.150   2.851
 2114SOL    HW2 7239   0.416   4.238   2.804
 2115SOL     OW 7240   1.138   4.104   3.540
 2115SOL    HW1 7241   1.093   4.167   3.604
 2115SOL    HW2 7242   1.231   4.135   3.523
 2116SOL     OW 7243   1.160   3.931   3.339
 2116SOL    HW1 7244   1.160   3.995   3.416
 2116SOL    HW2 7245   1.188   3.979   3.256
 2117SOL     OW 7246   0.008   5.050   2.062
 2117SOL    HW1 7247  -0.085   5.071   2.031
 2117SOL    HW2 7248   0.018   4.951   2.075
 2118SOL     OW 7249   1.002   4.520   3.100
 2118SOL    HW1 7250   1.043   4.488   3.186
 2118SOL    HW2 7251   0.906   4.493   3.097
 2119SOL     OW 7252   0.040   4.268   2.976
 2119SOL    HW1 7253   0.125   4.235   2.935
 2119SOL    HW2 7254   0.053   4.283   3.074
 2120SOL     OW 7255   0.189   4.244   3.584
 2120SOL    HW1 7256   0.248   4.204   3.514
 2120SOL    HW2 7257   0.131   4.315   3.543
 2121SOL     OW 7258   1.369   4.674   3.522
 2121SOL    HW1 7259   1.408   4.763   3.542
 2121SOL    HW2 7260   1.379   4.654   3.425
 2122SOL     OW 7261   0.815   4.296   2.187
 2122SOL    HW1 7262   0.822   4.207   2.141
 2122SOL    HW2 7263   0.721   4.330   2.179
 2123SOL     OW 7264   1.657   4.328   3.068
 2123SOL    HW1 7265   1.619   4.259   3.130
 2123SOL    HW2 7266   1.739   4.292   3.024
 2124SOL     OW 7267   0.252   5.288   3.606
 2124SOL    HW1 7268   0.222   5.345   3.682
 2124SOL    HW2 7269   0.245   5.191   3.632
 2125SOL     OW 7270   0.671   4.188   3.131
 2125SOL    HW1 7271   0.637   4.099   3.101
 2125SOL    HW2 7272   0.697   4.242   3.051
 2126SOL     OW 7273   0.473   4.224   2.053
 2126SOL    HW1 7274   0.534   4.304   2.057
 2126SOL    HW2 7275   0.378   4.255   2.060
 2127SOL     OW 7276   0.159   4.861   3.328
 2127SOL    HW1 7277   0.181   4.800   3.404
 2127SOL    HW2 7278   0.169   4.812   3.242
 2128SOL     OW 7279   1.347   4.783   3.096
 2128SOL    HW1 7280   1.371   4.720   3.022
 2128SOL    HW2 7281   1.257   4.823   3.078
 2129SOL     OW 7282   1.302   4.579   2.171
 2129SOL    HW1 7283   1.216   4.548   2.213
 2129SOL    HW2 7284   1.298   4.565   2.072
 2130SOL     OW 7285   0.083   4.982   2.884
 2130SOL    HW1 7286   0.078   4.981   2.984
 2130SOL    HW2 7287   0.000   4.941   2.846
 2131SOL     OW 7288   0.688   5.386   3.578
 2131SOL    HW1 7289   0.632   5.467   3.587
 2131SOL    HW2 7290   0.740   5.390   3.492
 2132SOL     OW 7291   1.726   3.859   2.385
 2132SOL    HW1 7292   1.799   3.842   2.318
 2132SOL    HW2 7293   1.695   3.772   2.423
 2133SOL     OW 7294   1.280   4.651   2.534
 2133SOL    HW1 7295   1.340   4.570   2.536
 2133SOL    HW2 7296   1.320   4.720   2.474
 2134SOL     OW 7297   0.830   4.997   3.284
 2134SOL    HW1 7298   0.825   5.030   3.379
 2134SOL    HW2 7299   0.744   5.016   3.238
 2135SOL     OW 7300   1.841   3.899   2.825
 2135SOL    HW1 7301   1.880   3.814   2.789
 2135SOL    HW2 7302   1.743   3.901   2.806
 2136SOL     OW 7303   0.263   4.050   2.582
 2136SOL    HW1 7304   0.184   4.101   2.548
 2136SOL    HW2 7305   0.254   4.035   2.680
 2137SOL     OW 7306   0.822   4.726   3.234
 2137SOL    HW1 7307   0.862   4.725   3.142
 2137SOL    HW2 7308   0.832   4.818   3.274
 2138SOL     OW 7309   0.916   4.634   2.153
 2138SOL    HW1 7310   0.979   4.672   2.085
 2138SOL    HW2 7311   0.956   4.551   2.192
 2139SOL     OW 7312   0.372   5.012   3.352
 2139SOL    HW1 7313   0.359   5.105   3.318
 2139SOL    HW2 7314   0.288   4.960   3.339
 2140SOL     OW 7315   1.614   5.016   3.151
 2140SOL    HW1 7316   1.674   5.019   3.231
 2140SOL    HW2 7317   1.539   5.080   3.164
 2141SOL     OW 7318   1.039   4.822   2.558
 2141SOL    HW1 7319   0.969   4.775   2.612
 2141SOL    HW2 7320   1.098   4.754   2.515
 2142SOL     OW 7321   1.014   3.960   2.833
 2142SOL    HW1 7322   1.006   3.924   2.740
 2142SOL    HW2 7323   1.012   3.884   2.898
 2143SOL     OW 7324   1.709   4.109   3.243
 2143SOL    HW1 7325   1.782   4.178   3.247
 2143SOL    HW2 7326   1.737   4.034   3.184
 2144SOL     OW 7327   0.255   5.072   2.152
 2144SOL    HW1 7328   0.159   5.073   2.125
 2144SOL    HW2 7329   0.267   5.125   2.236
 2145SOL     OW 7330   0.105   4.737   3.588
 2145SOL    HW1 7331   0.028   4.704   3.642
 2145SOL    HW2 7332   0.190   4.707   3.630
 2146SOL     OW 7333   0.672   3.927   3.351
 2146SOL    HW1 7334   0.762   3.911   3.311
 2146SOL    HW2 7335   0.680   3.932   3.450
 2147SOL     OW 7336   0.075   4.069   1.895
 2147SOL    HW1 7337  -0.017   4.041   1.866
 2147SOL    HW2 7338   0.106   4.146   1.839
 2148SOL     OW 7339   1.440   4.580   3.260
 2148SOL    HW1 7340   1.383   4.632   3.197
 2148SOL    HW2 7341   1.536   4.592   3.236
 2149SOL     OW 7342   0.072   3.890   2.180
 2149SOL    HW1 7343   0.055   3.973   2.126
 2149SOL    HW2 7344   0.162   3.853   2.158
 2150SOL     OW 7345   1.183   5.059   1.981
 2150SOL    HW1 7346   1.084   5.048   1.983
 2150SOL    HW2 7347   1.217   5.074   2.074
 2151SOL     OW 7348   0.613   4.566   3.293
 2151SOL    HW1 7349   0.669   4.647   3.276
 2151SOL    HW2 7350   0.672   4.486   3.296
 2152SOL     OW 7351   0.716   4.289   3.570
 2152SOL    HW1 7352   0.735   4.354   3.644
 2152SOL    HW2 7353   0.776   4.209   3.579
 2153SOL     OW 7354   1.450   4.944   3.495
 2153SOL    HW1 7355   1.441   4.934   3.594
 2153SOL    HW2 7356   1.546   4.937   3.469
 2154SOL     OW 7357   1.674   4.607   3.116
 2154SOL    HW1 7358   1.647   4.518   3.079
 2154SOL    HW2 7359   1.675   4.675   3.043
 2155SOL     OW 7360   1.225   4.049   2.311
 2155SOL    HW1 7361   1.290   3.975   2.300
 2155SOL    HW2 7362   1.245   4.099   2.395
 2156SOL     OW 7363   0.594   4.469   2.514
 2156SOL    HW1 7364   0.644   4.554   2.495
 2156SOL    HW2 7365   0.506   4.471   2.466
 2157SOL     OW 7366   1.777   4.066   3.504
 2157SOL    HW1 7367   1.760   4.097   3.410
 2157SOL    HW2 7368   1.693   4.029   3.542
 2158SOL     OW 7369   1.730   4.658   3.379
 2158SOL    HW1 7370   1.768   4.749   3.394
 2158SOL    HW2 7371   1.722   4.641   3.280
 2159SOL     OW 7372   0.859   5.098   1.878
 2159SOL    HW1 7373   0.813   5.113   1.966
 2159SOL    HW2 7374   0.903   5.183   1.848
 2160SOL     OW 7375   0.859   4.680   2.723
 2160SOL    HW1 7376   0.913   4.611   2.771
 2160SOL    HW2 7377   0.827   4.749   2.789
 2161SOL     OW 7378   1.083   4.708   1.949
 2161SOL    HW1 7379   1.060   4.761   1.867
 2161SOL    HW2 7380   1.164   4.652   1.930
 2162SOL     OW 7381   0.221   5.038   3.706
 2162SOL    HW1 7382   0.156   4.965   3.685
 2162SOL    HW2 7383   0.225   5.052   3.804
 2163SOL     OW 7384   0.079   4.964   2.515
 2163SOL    HW1 7385   0.078   4.917   2.603
 2163SOL    HW2 7386   0.161   4.936   2.464
 2164SOL     OW 7387   0.672   5.115   3.486
 2164SOL    HW1 7388   0.594   5.065   3.524
 2164SOL    HW2 7389   0.669   5.210   3.517
 2165SOL     OW 7390   1.824   3.916   3.089
 2165SOL    HW1 7391   1.820   3.826   3.133
 2165SOL    HW2 7392   1.827   3.905   2.990
 2166SOL     OW 7393   0.428   4.148   2.382
 2166SOL    HW1 7394   0.458   4.076   2.320
 2166SOL    HW2 7395   0.389   4.108   2.465
 2167SOL     OW 7396   1.705   5.211   2.966
 2167SOL    HW1 7397   1.612   5.186   2.939
 2167SOL    HW2 7398   1.731   5.161   3.048
 2168SOL     OW 7399   0.317   4.271   3.142
 2168SOL    HW1 7400   0.355   4.212   3.214
 2168SOL    HW2 7401   0.357   4.245   3.054
 2169SOL     OW 7402   1.424   3.938   2.974
 2169SOL    HW1 7403   1.476   3.873   3.029
 2169SOL    HW2 7404   1.375   4.001   3.035
 2170SOL     OW 7405   1.001   3.758   3.016
 2170SOL    HW1 7406   0.938   3.686   2.985
 2170SOL    HW2 7407   1.094   3.722   3.016
 2171SOL     OW 7408   0.770   5.054   2.163
 2171SOL    HW1 7409   0.724   4.967   2.180
 2171SOL    HW2 7410   0.861   5.051   2.204
 2172SOL     OW 7411   0.618   5.291   3.146
 2172SOL    HW1 7412   0.613   5.373   3.203
 2172SOL    HW2 7413   0.707   5.288   3.101
 2173SOL     OW 7414   1.352   3.776   2.030
 2173SOL    HW1 7415   1.387   3.735   1.946
 2173SOL    HW2 7416   1.262   3.738   2.050
 2174SOL     OW 7417   1.300   4.177   2.553
 2174SOL    HW1 7418   1.241   4.257   2.557
 2174SOL    HW2 7419   1.315   4.142   2.646
 2175SOL     OW 7420   1.593   3.945   2.744
 2175SOL    HW1 7421   1.509   3.944   2.798
 2175SOL    HW2 7422   1.595   4.028   2.688
 2176SOL     OW 7423   0.039   4.801   2.162
 2176SOL    HW1 7424   0.138   4.790   2.153
 2176SOL    HW2 7425  -0.001   4.715   2.194
 2177SOL     OW 7426   0.230   4.352   3.837
 2177SOL    HW1 7427   0.137   4.350   3.874
 2177SOL    HW2 7428   0.231   4.313   3.745
 2178SOL     OW 7429   0.225   3.999   4.720
 2178SOL    HW1 7430   0.260   3.982   4.812
 2178SOL    HW2 7431   0.137   3.954   4.708
 2179SOL     OW 7432   0.019   4.092   4.371
 2179SOL    HW1 7433  -0.063   4.135   4.410
 2179SOL    HW2 7434  -0.009   4.019   4.308
 2180SOL     OW 7435   0.569   4.999   4.889
 2180SOL    HW1 7436   0.476   4.992   4.852
 2180SOL    HW2 7437   0.580   5.088   4.933
 2181SOL     OW 7438   1.555   5.235   4.427
 2181SOL    HW1 7439   1.498   5.219   4.508
 2181SOL    HW2 7440   1.496   5.245   4.347
 2182SOL     OW 7441   1.135   4.427   4.441
 2182SOL    HW1 7442   1.192   4.505   4.416
 2182SOL    HW2 7443   1.075   4.453   4.517
 2183SOL     OW 7444   1.755   4.331   3.955
 2183SOL    HW1 7445   1.743   4.318   3.856
 2183SOL    HW2 7446   1.725   4.250   4.004
 2184SOL     OW 7447   0.768   4.868   4.747
 2184SOL    HW1 7448   0.690   4.885   4.807
 2184SOL    HW2 7449   0.802   4.955   4.711
 2185SOL     OW 7450   0.850   4.522   5.547
 2185SOL    HW1 7451   0.846   4.598   5.612
 2185SOL    HW2 7452   0.872   4.558   5.456
 2186SOL     OW 7453   0.685   4.736   4.389
 2186SOL    HW1 7454   0.754   4.720   4.459
 2186SOL    HW2 7455   0.612   4.793   4.427
 2187SOL     OW 7456   0.686   4.885   5.527
 2187SOL    HW1 7457   0.746   4.964   5.541
 2187SOL    HW2 7458   0.600   4.916   5.486
 2188SOL     OW 7459   0.335   5.159   4.785
 2188SOL    HW1 7460   0.257   5.128   4.732
 2188SOL    HW2 7461   0.393   5.217   4.728
 2189SOL     OW 7462   1.460   5.229   5.063
 2189SOL    HW1 7463   1.484   5.323   5.089
 2189SOL    HW2 7464   1.444   5.175   5.145
 2190SOL     OW 7465   0.438   4.116   5.223
 2190SOL    HW1 7466   0.520   4.060   5.232
 2190SOL    HW2 7467   0.357   4.058   5.227
 2191SOL     OW 7468   1.603   4.171   4.461
 2191SOL    HW1 7469   1.529   4.217   4.411
 2191SOL    HW2 7470   1.654   4.239   4.514
 2192SOL     OW 7471   1.127   5.065   5.414
 2192SOL    HW1 7472   1.174   5.065   5.502
 2192SOL    HW2 7473   1.079   4.978   5.403
 2193SOL     OW 7474   0.230   5.158   4.262
 2193SOL    HW1 7475   0.204   5.254   4.262
 2193SOL    HW2 7476   0.159   5.104   4.307
 2194SOL     OW 7477   0.240   4.815   4.610
 2194SOL    HW1 7478   0.254   4.731   4.662
 2194SOL    HW2 7479   0.185   4.879   4.665
 2195SOL     OW 7480   0.606   4.688   3.847
 2195SOL    HW1 7481   0.613   4.772   3.793
 2195SOL    HW2 7482   0.652   4.701   3.935
 2196SOL     OW 7483   1.594   3.838   5.204
 2196SOL    HW1 7484   1.576   3.905   5.132
 2196SOL    HW2 7485   1.591   3.884   5.293
 2197SOL     OW 7486   0.122   4.367   4.287
 2197SOL    HW1 7487   0.077   4.279   4.304
 2197SOL    HW2 7488   0.121   4.421   4.371
 2198SOL     OW 7489   0.027   5.320   3.841
 2198SOL    HW1 7490   0.008   5.224   3.862
 2198SOL    HW2 7491  -0.006   5.378   3.916
 2199SOL     OW 7492   1.689   4.646   4.336
 2199SOL    HW1 7493   1.784   4.617   4.344
 2199SOL    HW2 7494   1.681   4.711   4.261
 2200SOL     OW 7495   1.641   4.832   4.156
 2200SOL    HW1 7496   1.727   4.834   4.104
 2200SOL    HW2 7497   1.655   4.879   4.244
 2201SOL     OW 7498   0.113   4.461   5.321
 2201SOL    HW1 7499   0.201   4.448   5.366
 2201SOL    HW2 7500   0.100   4.558   5.299
 2202SOL     OW 7501   0.613   5.089   4.450
 2202SOL    HW1 7502   0.564   5.002   4.459
 2202SOL    HW2 7503   0.590   5.132   4.363
 2203SOL     OW 7504   1.293   4.952   5.147
 2203SOL    HW1 7505   1.330   4.879   5.089
 2203SOL    HW2 7506   1.345   4.957   5.232
 2204SOL     OW 7507   0.809   3.728   4.226
 2204SOL    HW1 7508   0.849   3.819   4.217
 2204SOL    HW2 7509   0.709   3.736   4.232
 2205SOL     OW 7510   0.197   4.700   4.988
 2205SOL    HW1 7511   0.286   4.655   4.974
 2205SOL    HW2 7512   0.124   4.635   4.969
 2206SOL     OW 7513   1.525   4.723   3.914
 2206SOL    HW1 7514   1.462   4.647   3.927
 2206SOL    HW2 7515   1.573   4.741   4.000
 2207SOL     OW 7516   0.317   3.975   5.525
 2207SOL    HW1 7517   0.388   4.046   5.531
 2207SOL    HW2 7518   0.229   4.014   5.553
 2208SOL     OW 7519   1.466   5.141   4.677
 2208SOL    HW1 7520   1.407   5.147   4.757
 2208SOL    HW2 7521   1.451   5.053   4.631
 2209SOL     OW 7522   0.598   4.453   3.994
 2209SOL    HW1 7523   0.622   4.522   3.926
 2209SOL    HW2 7524   0.520   4.486   4.048
 2210SOL     OW 7525   1.281   4.069   4.668
 2210SOL    HW1 7526   1.195   4.019   4.655
 2210SOL    HW2 7527   1.343   4.015   4.724
 2211SOL     OW 7528   0.807   4.329   5.189
 2211SOL    HW1 7529   0.760   4.326   5.278
 2211SOL    HW2 7530   0.756   4.274   5.123
 2212SOL     OW 7531   1.394   4.193   5.398
 2212SOL    HW1 7532   1.374   4.236   5.486
 2212SOL    HW2 7533   1.472   4.131   5.407
 2213SOL     OW 7534   0.973   4.614   5.296
 2213SOL    HW1 7535   1.019   4.530   5.267
 2213SOL    HW2 7536   0.917   4.648   5.221
 2214SOL     OW 7537   0.991   4.134   4.966
 2214SOL    HW1 7538   0.914   4.168   5.020
 2214SOL    HW2 7539   0.957   4.083   4.887
 2215SOL     OW 7540   1.041   4.425   4.153
 2215SOL    HW1 7541   1.067   4.421   4.249
 2215SOL    HW2 7542   0.956   4.374   4.139
 2216SOL     OW 7543   0.076   4.535   4.513
 2216SOL    HW1 7544   0.175   4.523   4.522
 2216SOL    HW2 7545   0.052   4.630   4.534
 2217SOL     OW 7546   0.865   4.072   3.919
 2217SOL    HW1 7547   0.924   4.135   3.870
 2217SOL    HW2 7548   0.884   3.978   3.890
 2218SOL     OW 7549   1.719   4.309   5.555
 2218SOL    HW1 7550   1.693   4.398   5.519
 2218SOL    HW2 7551   1.717   4.241   5.482
 2219SOL     OW 7552   1.362   4.868   4.269
 2219SOL    HW1 7553   1.445   4.839   4.221
 2219SOL    HW2 7554   1.313   4.935   4.213
 2220SOL     OW 7555   0.550   3.920   4.609
 2220SOL    HW1 7556   0.545   3.915   4.709
 2220SOL    HW2 7557   0.552   4.016   4.580
 2221SOL     OW 7558   1.008   5.180   4.201
 2221SOL    HW1 7559   0.962   5.252   4.149
 2221SOL    HW2 7560   1.004   5.200   4.299
 2222SOL     OW 7561   1.795   4.790   4.597
 2222SOL    HW1 7562   1.733   4.775   4.521
 2222SOL    HW2 7563   1.743   4.801   4.682
 2223SOL     OW 7564   1.227   5.274   5.230
 2223SOL    HW1 7565   1.233   5.197   5.294
 2223SOL    HW2 7566   1.175   5.248   5.150
 2224SOL     OW 7567   0.321   4.667   3.966
 2224SOL    HW1 7568   0.403   4.706   3.924
 2224SOL    HW2 7569   0.294   4.585   3.917
 2225SOL     OW 7570   1.458   4.459   4.452
 2225SOL    HW1 7571   1.453   4.394   4.527
 2225SOL    HW2 7572   1.538   4.518   4.465
 2226SOL     OW 7573   0.461   4.990   5.451
 2226SOL    HW1 7574   0.411   4.991   5.365
 2226SOL    HW2 7575   0.398   4.972   5.527
 2227SOL     OW 7576   1.111   5.500   3.961
 2227SOL    HW1 7577   1.051   5.438   4.011
 2227SOL    HW2 7578   1.142   5.456   3.876
 2228SOL     OW 7579   0.202   4.009   5.222
 2228SOL    HW1 7580   0.122   4.069   5.209
 2228SOL    HW2 7581   0.192   3.960   5.308
 2229SOL     OW 7582   1.632   5.101   3.805
 2229SOL    HW1 7583   1.600   5.195   3.795
 2229SOL    HW2 7584   1.556   5.038   3.793
 2230SOL     OW 7585   1.400   3.831   4.150
 2230SOL    HW1 7586   1.376   3.794   4.060
 2230SOL    HW2 7587   1.499   3.847   4.154
 2231SOL     OW 7588   0.382   4.424   4.204
 2231SOL    HW1 7589   0.427   4.334   4.201
 2231SOL    HW2 7590   0.288   4.413   4.237
 2232SOL     OW 7591   1.547   3.946   5.453
 2232SOL    HW1 7592   1.542   3.983   5.545
 2232SOL    HW2 7593   1.475   3.877   5.441
 2233SOL     OW 7594   0.614   3.846   3.841
 2233SOL    HW1 7595   0.712   3.824   3.848
 2233SOL    HW2 7596   0.583   3.829   3.748
 2234SOL     OW 7597   0.781   3.988   5.473
 2234SOL    HW1 7598   0.848   3.927   5.516
 2234SOL    HW2 7599   0.708   4.007   5.538
 2235SOL     OW 7600   1.351   4.314   5.157
 2235SOL    HW1 7601   1.379   4.271   5.242
 2235SOL    HW2 7602   1.376   4.410   5.158
 2236SOL     OW 7603   0.803   5.126   4.648
 2236SOL    HW1 7604   0.893   5.140   4.606
 2236SOL    HW2 7605   0.732   5.128   4.577
 2237SOL     OW 7606   0.922   4.227   4.623
 2237SOL    HW1 7607   0.897   4.218   4.527
 2237SOL    HW2 7608   0.970   4.145   4.654
 2238SOL     OW 7609   0.539   3.788   4.236
 2238SOL    HW1 7610   0.458   3.789   4.294
 2238SOL    HW2 7611   0.542   3.871   4.181
 2239SOL     OW 7612   1.434   4.912   3.765
 2239SOL    HW1 7613   1.466   4.836   3.822
 2239SOL    HW2 7614   1.342   4.939   3.795
 2240SOL     OW 7615   0.297   3.759   3.895
 2240SOL    HW1 7616   0.346   3.843   3.874
 2240SOL    HW2 7617   0.359   3.694   3.940
 2241SOL     OW 7618   0.935   3.960   4.204
 2241SOL    HW1 7619   0.887   4.001   4.126
 2241SOL    HW2 7620   1.034   3.958   4.185
 2242SOL     OW 7621   1.076   4.407   5.188
 2242SOL    HW1 7622   0.996   4.346   5.191
 2242SOL    HW2 7623   1.157   4.354   5.164
 2243SOL     OW 7624   1.227   5.294   4.517
 2243SOL    HW1 7625   1.248   5.368   4.452
 2243SOL    HW2 7626   1.295   5.294   4.590
 2244SOL     OW 7627   0.459   4.876   4.465
 2244SOL    HW1 7628   0.388   4.849   4.530
 2244SOL    HW2 7629   0.433   4.848   4.372
 2245SOL     OW 7630   1.032   4.273   3.740
 2245SOL    HW1 7631   0.991   4.355   3.701
 2245SOL    HW2 7632   1.096   4.299   3.813
 2246SOL     OW 7633   0.078   4.280   5.110
 2246SOL    HW1 7634   0.170   4.279   5.069
 2246SOL    HW2 7635   0.072   4.354   5.177
 2247SOL     OW 7636   0.561   3.946   4.871
 2247SOL    HW1 7637   0.599   3.862   4.908
 2247SOL    HW2 7638   0.473   3.965   4.915
 2248SOL     OW 7639   0.866   4.178   4.366
 2248SOL    HW1 7640   0.834   4.250   4.304
 2248SOL    HW2 7641   0.890   4.097   4.313
 2249SOL     OW 7642   1.017   3.763   4.477
 2249SOL    HW1 7643   0.945   3.768   4.408
 2249SOL    HW2 7644   0.993   3.694   4.546
 2250SOL     OW 7645   1.429   4.897   4.591
 2250SOL    HW1 7646   1.374   4.813   4.584
 2250SOL    HW2 7647   1.455   4.926   4.499
 2251SOL     OW 7648   1.466   4.314   4.716
 2251SOL    HW1 7649   1.436   4.219   4.723
 2251SOL    HW2 7650   1.539   4.330   4.782
 2252SOL     OW 7651   1.857   4.557   4.101
 2252SOL    HW1 7652   1.899   4.493   4.165
 2252SOL    HW2 7653   1.819   4.506   4.023
 2253SOL     OW 7654   0.488   5.109   3.898
 2253SOL    HW1 7655   0.401   5.094   3.945
 2253SOL    HW2 7656   0.471   5.135   3.803
 2254SOL     OW 7657   1.664   5.004   4.381
 2254SOL    HW1 7658   1.763   5.012   4.395
 2254SOL    HW2 7659   1.619   5.088   4.412
 2255SOL     OW 7660   1.390   4.299   3.802
 2255SOL    HW1 7661   1.336   4.278   3.883
 2255SOL    HW2 7662   1.481   4.258   3.811
 2256SOL     OW 7663   0.527   3.980   4.052
 2256SOL    HW1 7664   0.554   3.921   3.977
 2256SOL    HW2 7665   0.527   4.075   4.021
 2257SOL     OW 7666   1.754   4.947   5.312
 2257SOL    HW1 7667   1.845   4.908   5.299
 2257SOL    HW2 7668   1.762   5.043   5.336
 2258SOL     OW 7669   1.064   5.071   5.064
 2258SOL    HW1 7670   0.984   5.048   5.119
 2258SOL    HW2 7671   1.147   5.045   5.113
 2259SOL     OW 7672   1.111   4.919   4.824
 2259SOL    HW1 7673   1.071   4.963   4.905
 2259SOL    HW2 7674   1.070   4.956   4.741
 2260SOL     OW 7675   1.638   4.823   4.803
 2260SOL    HW1 7676   1.643   4.904   4.862
 2260SOL    HW2 7677   1.552   4.825   4.752
 2261SOL     OW 7678   0.915   3.813   5.126
 2261SOL    HW1 7679   0.940   3.793   5.031
 2261SOL    HW2 7680   0.987   3.869   5.168
 2262SOL     OW 7681   0.980   4.840   5.443
 2262SOL    HW1 7682   0.881   4.846   5.453
 2262SOL    HW2 7683   1.003   4.760   5.387
 2263SOL     OW 7684   0.705   4.774   4.092
 2263SOL    HW1 7685   0.691   4.781   4.191
 2263SOL    HW2 7686   0.789   4.723   4.074
 2264SOL     OW 7687   0.410   4.537   4.975
 2264SOL    HW1 7688   0.496   4.549   5.025
 2264SOL    HW2 7689   0.368   4.450   5.002
 2265SOL     OW 7690   1.274   4.110   4.986
 2265SOL    HW1 7691   1.295   4.184   5.050
 2265SOL    HW2 7692   1.185   4.127   4.943
 2266SOL     OW 7693   0.064   5.288   5.055
 2266SOL    HW1 7694   0.018   5.370   5.021
 2266SOL    HW2 7695   0.162   5.307   5.064
 2267SOL     OW 7696   0.367   4.824   4.225
 2267SOL    HW1 7697   0.360   4.907   4.169
 2267SOL    HW2 7698   0.371   4.744   4.165
 2268SOL     OW 7699   0.566   4.261   4.589
 2268SOL    HW1 7700   0.578   4.327   4.515
 2268SOL    HW2 7701   0.612   4.295   4.672
 2269SOL     OW 7702   1.252   5.072   4.112
 2269SOL    HW1 7703   1.302   5.149   4.152
 2269SOL    HW2 7704   1.157   5.074   4.144
 2270SOL     OW 7705   1.272   5.169   4.866
 2270SOL    HW1 7706   1.319   5.182   4.953
 2270SOL    HW2 7707   1.206   5.095   4.875
 2271SOL     OW 7708   1.582   4.363   4.196
 2271SOL    HW1 7709   1.551   4.424   4.269
 2271SOL    HW2 7710   1.632   4.415   4.127
 2272SOL     OW 7711   0.354   5.234   5.053
 2272SOL    HW1 7712   0.333   5.190   4.966
 2272SOL    HW2 7713   0.451   5.260   5.056
 2273SOL     OW 7714   0.402   4.475   5.322
 2273SOL    HW1 7715   0.470   4.530   5.275
 2273SOL    HW2 7716   0.442   4.387   5.349
 2274SOL     OW 7717   1.587   4.503   5.394
 2274SOL    HW1 7718   1.495   4.541   5.389
 2274SOL    HW2 7719   1.647   4.550   5.329
 2275SOL     OW 7720   1.013   3.829   5.494
 2275SOL    HW1 7721   1.019   3.914   5.442
 2275SOL    HW2 7722   1.045   3.753   5.437
 2276SOL     OW 7723   0.504   3.774   5.464
 2276SOL    HW1 7724   0.462   3.717   5.394
 2276SOL    HW2 7725   0.438   3.843   5.496
 2277SOL     OW 7726   0.573   4.594   4.753
 2277SOL    HW1 7727   0.617   4.683   4.744
 2277SOL    HW2 7728   0.510   4.594   4.830
 2278SOL     OW 7729   1.360   4.586   4.769
 2278SOL    HW1 7730   1.285   4.586   4.703
 2278SOL    HW2 7731   1.397   4.494   4.778
 2279SOL     OW 7732   1.209   4.249   3.999
 2279SOL    HW1 7733   1.222   4.165   4.053
 2279SOL    HW2 7734   1.180   4.323   4.059
 2280SOL     OW 7735   0.307   3.937   4.955
 2280SOL    HW1 7736   0.284   3.974   5.045
 2280SOL    HW2 7737   0.277   3.842   4.949
 2281SOL     OW 7738   0.037   5.034   5.006
 2281SOL    HW1 7739   0.090   4.985   5.074
 2281SOL    HW2 7740   0.059   5.132   5.011
 2282SOL     OW 7741   0.732   4.358   4.788
 2282SOL    HW1 7742   0.791   4.332   4.712
 2282SOL    HW2 7743   0.704   4.454   4.777
 2283SOL     OW 7744   1.728   4.659   5.578
 2283SOL    HW1 7745   1.682   4.652   5.489
 2283SOL    HW2 7746   1.666   4.703   5.644
 2284SOL     OW 7747   0.307   3.787   4.342
 2284SOL    HW1 7748   0.296   3.881   4.375
 2284SOL    HW2 7749   0.302   3.724   4.419
 2285SOL     OW 7750   1.622   4.091   4.098
 2285SOL    HW1 7751   1.624   4.015   4.162
 2285SOL    HW2 7752   1.574   4.168   4.138
 2286SOL     OW 7753   1.023   4.490   4.690
 2286SOL    HW1 7754   1.038   4.511   4.786
 2286SOL    HW2 7755   0.993   4.395   4.681
 2287SOL     OW 7756   1.859   5.242   5.329
 2287SOL    HW1 7757   1.873   5.269   5.234
 2287SOL    HW2 7758   1.942   5.264   5.382
 2288SOL     OW 7759   0.350   4.622   5.528
 2288SOL    HW1 7760   0.426   4.666   5.576
 2288SOL    HW2 7761   0.385   4.575   5.446
 2289SOL     OW 7762   1.540   3.998   3.849
 2289SOL    HW1 7763   1.479   3.923   3.872
 2289SOL    HW2 7764   1.562   4.050   3.932
 2290SOL     OW 7765   1.303   4.562   3.766
 2290SOL    HW1 7766   1.337   4.469   3.781
 2290SOL    HW2 7767   1.321   4.589   3.671
 2291SOL     OW 7768   1.068   5.057   4.573
 2291SOL    HW1 7769   1.075   4.973   4.518
 2291SOL    HW2 7770   1.130   5.126   4.537
 2292SOL     OW 7771   0.319   4.534   4.673
 2292SOL    HW1 7772   0.412   4.570   4.678
 2292SOL    HW2 7773   0.313   4.449   4.725
 2293SOL     OW 7774   0.339   4.233   4.730
 2293SOL    HW1 7775   0.287   4.150   4.713
 2293SOL    HW2 7776   0.416   4.238   4.666
 2294SOL     OW 7777   1.138   4.104   5.402
 2294SOL    HW1 7778   1.093   4.167   5.466
 2294SOL    HW2 7779   1.231   4.135   5.385
 2295SOL     OW 7780   1.160   3.931   5.201
 2295SOL    HW1 7781   1.160   3.995   5.278
 2295SOL    HW2 7782   1.188   3.979   5.118
 2296SOL     OW 7783   0.008   5.050   3.924
 2296SOL    HW1 7784  -0.085   5.071   3.893
 2296SOL    HW2 7785   0.018   4.951   3.937
 2297SOL     OW 7786   1.002   4.520   4.962
 2297SOL    HW1 7787   1.043   4.488   5.048
 2297SOL    HW2 7788   0.906   4.493   4.959
 2298SOL     OW 7789   0.040   4.268   4.838
 2298SOL    HW1 7790   0.125   4.235   4.797
 2298SOL    HW2 7791   0.053   4.283   4.936
 2299SOL     OW 7792   0.189   4.244   5.446
 2299SOL    HW1 7793   0.248   4.204   5.376
 2299SOL    HW2 7794   0.131   4.315   5.405
 2300SOL     OW 7795   1.369   4.674   5.384
 2300SOL    HW1 7796   1.408   4.763   5.404
 2300SOL    HW2 7797   1.379   4.654   5.287
 2301SOL     OW 7798   0.815   4.296   4.049
 2301SOL    HW1 7799   0.822   4.207   4.003
 2301SOL    HW2 7800   0.721   4.330   4.041
 2302SOL     OW 7801   1.657   4.328   4.930
 2302SOL    HW1 7802   1.619   4.259   4.992
 2302SOL    HW2 7803   1.739   4.292   4.886
 2303SOL     OW 7804   0.252   5.288   5.468
 2303SOL    HW1 7805   0.222   5.345   5.544
 2303SOL    HW2 7806   0.245   5.191   5.494
 2304SOL     OW 7807   0.671   4.188   4.993
 2304SOL    HW1 7808   0.637   4.099   4.963
 2304SOL    HW2 7809   0.697   4.242   4.913
 2305SOL     OW 7810   0.473   4.224   3.915
 2305SOL    HW1 7811   0.534   4.304   3.919
 2305SOL    HW2 7812   0.378   4.255   3.922
 2306SOL     OW 7813   0.159   4.861   5.190
 2306SOL    HW1 7814   0.181   4.800   5.266
 2306SOL    HW2 7815   0.169   4.812   5.104
 2307SOL     OW 7816   1.347   4.783   4.958
 2307SOL    HW1 7817   1.371   4.720   4.884
 2307SOL    HW2 7818   1.257   4.823   4.940
 2308SOL     OW 7819   1.302   4.579   4.033
 2308SOL    HW1 7820   1.216   4.548   4.075
 2308SOL    HW2 7821   1.298   4.565   3.934
 2309SOL     OW 7822   0.083   4.982   4.746
 2309SOL    HW1 7823   0.078   4.981   4.846
 2309SOL    HW2 7824   0.000   4.941   4.708
 2310SOL     OW 7825   0.688   5.386   5.440
 2310SOL    HW1 7826   0.632   5.467   5.449
 2310SOL    HW2 7827   0.740   5.390   5.354
 2311SOL     OW 7828   1.726   3.859   4.247
 2311SOL    HW1 7829   1.799   3.842   4.180
 2311SOL    HW2 7830   1.695   3.772   4.285
 2312SOL     OW 7831   1.280   4.651   4.396
 2312SOL    HW1 7832   1.340   4.570   4.398
 2312SOL    HW2 7833   1.320   4.720   4.336
 2313SOL     OW 7834   0.830   4.997   5.146
 2313SOL    HW1 7835   0.825   5.030   5.241
 2313SOL    HW2 7836   0.744   5.016   5.100
 2314SOL     OW 7837   1.841   3.899   4.687
 2314SOL    HW1 7838   1.880   3.814   4.651
 2314SOL    HW2 7839   1.743   3.901   4.668
 2315SOL     OW 7840   0.263   4.050   4.444
 2315SOL    HW1 7841   0.184   4.101   4.410
 2315SOL    HW2 7842   0.254   4.035   4.542
 2316SOL     OW 7843   0.822   4.726   5.096
 2316SOL    HW1 7844   0.862   4.725   5.004
 2316SOL    HW2 7845   0.832   4.818   5.136
 2317SOL     OW 7846   0.916   4.634   4.015
 2317SOL    HW1 7847   0.979   4.672   3.947
 2317SOL    HW2 7848   0.956   4.551   4.054
 2318SOL     OW 7849   0.372   5.012   5.214
 2318SOL    HW1 7850   0.359   5.105   5.180
 2318SOL    HW2 7851   0.288   4.960   5.201
 2319SOL     OW 7852   1.614   5.016   5.013
 2319SOL    HW1 7853   1.674   5.019   5.093
 2319SOL    HW2 7854   1.539   5.080   5.026
 2320SOL     OW 7855   1.039   4.822   4.420
 2320SOL    HW1 7856   0.969   4.775   4.474
 2320SOL    HW2 7857   1.098   4.754   4.377
 2321SOL     OW 7858   1.014   3.960   4.695
 2321SOL    HW1 7859   1.006   3.924   4.602
 2321SOL    HW2 7860   1.012   3.884   4.760
 2322SOL     OW 7861   1.709   4.109   5.105
 2322SOL    HW1 7862   1.782   4.178   5.109
 2322SOL    HW2 7863   1.737   4.034   5.046
 2323SOL     OW 7864   0.255   5.072   4.014
 2323SOL    HW1 7865   0.159   5.073   3.987
 2323SOL    HW2 7866   0.267   5.125   4.098
 2324SOL     OW 7867   0.105   4.737   5.450
 2324SOL    HW1 7868   0.028   4.704   5.504
 2324SOL    HW2 7869   0.190   4.707   5.492
 2325SOL     OW 7870   0.672   3.927   5.213
 2325SOL    HW1 7871   0.762   3.911   5.173
 2325SOL    HW2 7872   0.680   3.932   5.312
 2326SOL     OW 7873   0.075   4.069   3.757
 2326SOL    HW1 7874  -0.017   4.041   3.728
 2326SOL    HW2 7875   0.106   4.146   3.701
 2327SOL     OW 7876   1.440   4.580   5.122
 2327SOL    HW1 7877   1.383   4.632   5.059
 2327SOL    HW2 7878   1.536   4.592   5.098
 2328SOL     OW 7879   0.072   3.890   4.042
 2328SOL    HW1 7880   0.055   3.973   3.988
 2328SOL    HW2 7881   0.162   3.853   4.020
 2329SOL     OW 7882   1.183   5.059   3.843
 2329SOL    HW1 7883   1.084   5.048   3.845
 2329SOL    HW2 7884   1.217   5.074   3.936
 2330SOL     OW 7885   0.613   4.566   5.155
 2330SOL    HW1 7886   0.669   4.647   5.138
 2330SOL    HW2 7887   0.672   4.486   5.158
 2331SOL     OW 7888   0.716   4.289   5.432
 2331SOL    HW1 7889   0.735   4.354   5.506
 2331SOL    HW2 7890   0.776   4.209   5.441
 2332SOL     OW 7891   1.450   4.944   5.357
 2332SOL    HW1 7892   1.441   4.934   5.456
 2332SOL    HW2 7893   1.546   4.937   5.331
 2333SOL     OW 7894   1.674   4.607   4.978
 2333SOL    HW1 7895   1.647   4.518   4.941
 2333SOL    HW2 7896   1.675   4.675   4.905
 2334SOL     OW 7897   1.225   4.049   4.173
 2334SOL    HW1 7898   1.290   3.975   4.162
 2334SOL    HW2 7899   1.245   4.099   4.257
 2335SOL     OW 7900   0.594   4.469   4.376
 2335SOL    HW1 7901   0.644   4.554   4.357
 2335SOL    HW2 7902   0.506   4.471   4.328
 2336SOL     OW 7903   1.777   4.066   5.366
 2336SOL    HW1 7904   1.760   4.097   5.272
 2336SOL    HW2 7905   1.693   4.029   5.404
 2337SOL     OW 7906   1.730   4.658   5.241
 2337SOL    HW1 7907   1.768   4.749   5.256
 2337SOL    HW2 7908   1.722   4.641   5.142
 2338SOL     OW 7909   0.859   5.098   3.740
 2338SOL    HW1 7910   0.813   5.113   3.828
 2338SOL    HW2 7911   0.903   5.183   3.710
 2339SOL     OW 7912   0.859   4.680   4.585
 2339SOL    HW1 7913   0.913   4.611   4.633
 2339SOL    HW2 7914   0.827   4.749   4.651
 2340SOL     OW 7915   1.083   4.708   3.811
 2340SOL    HW1 7916   1.060   4.761   3.729
 2340SOL    HW2 7917   1.164   4.652   3.792
 2341SOL     OW 7918   0.221   5.038   5.568
 2341SOL    HW1 7919   0.156   4.965   5.547
 2341SOL    HW2 7920   0.225   5.052   5.666
 2342SOL     OW 7921   0.079   4.964   4.377
 2342SOL    HW1 7922   0.078   4.917   4.465
 2342SOL    HW2 7923   0.161   4.936   4.326
 2343SOL     OW 7924   0.672   5.115   5.348
 2343SOL    HW1 7925   0.594   5.065   5.386
 2343SOL    HW2 7926   0.669   5.210   5.379
 2344SOL     OW 7927   1.824   3.916   4.951
 2344SOL    HW1 7928   1.820   3.826   4.995
 2344SOL    HW2 7929   1.827   3.905   4.852
 2345SOL     OW 7930   0.428   4.148   4.244
 2345SOL    HW1 7931   0.458   4.076   4.182
 2345SOL    HW2 7932   0.389   4.108   4.327
 2346SOL     OW 7933   1.705   5.211   4.828
 2346SOL    HW1 7934   1.612   5.186   4.801
 2346SOL    HW2 7935   1.731   5.161   4.910
 2347SOL     OW 7936   0.317   4.271   5.004
 2347SOL    HW1 7937   0.355   4.212   5.076
 2347SOL    HW2 7938   0.357   4.245   4.916
 2348SOL     OW 7939   1.424   3.938   4.836
 2348SOL    HW1 7940   1.476   3.873   4.891
 2348SOL    HW2 7941   1.375   4.001   4.897
 2349SOL     OW 7942   1.001   3.758   4.878
 2349SOL    HW1 7943   0.938   3.686   4.847
 2349SOL    HW2 7944   1.094   3.722   4.878
 2350SOL     OW 7945   0.770   5.054   4.025
 2350SOL    HW1 7946   0.724   4.967   4.042
 2350SOL    HW2 7947   0.861   5.051   4.066
 2351SOL     OW 7948   0.618   5.291   5.008
 2351SOL    HW1 7949   0.613   5.373   5.065
 2351SOL    HW2 7950   0.707   5.288   4.963
 2352SOL     OW 7951   1.352   3.776   3.892
 2352SOL    HW1 7952   1.387   3.735   3.808
 2352SOL    HW2 7953   1.262   3.738   3.912
 2353SOL     OW 7954   1.300   4.177   4.415
 2353SOL    HW1 7955   1.241   4.257   4.419
 2353SOL    HW2 7956   1.315   4.142   4.508
 2354SOL     OW 7957   1.593   3.945   4.606
 2354SOL    HW1 7958   1.509   3.944   4.660
 2354SOL    HW2 7959   1.595   4.028   4.550
 2355SOL     OW 7960   0.039   4.801   4.024
 2355SOL    HW1 7961   0.138   4.790   4.015
 2355SOL    HW2 7962  -0.001   4.715   4.056
 2356SOL     OW 7963   0.230   4.352   5.699
 2356SOL    HW1 7964   0.137   4.350   5.736
 2356SOL    HW2 7965   0.231   4.313   5.607
 2357SOL     OW 7966   0.225   3.999   6.582
 2357SOL    HW1 7967   0.260   3.982   6.674
 2357SOL    HW2 7968   0.137   3.954   6.570
 2358SOL     OW 7969   0.019   4.092   6.233
 2358SOL    HW1 7970  -0.063   4.135   6.272
 2358SOL    HW2 7971  -0.009   4.019   6.170
 2359SOL     OW 7972   0.569   4.999   6.751
 2359SOL    HW1 7973   0.476   4.992   6.714
 2359SOL    HW2 7974   0.580   5.088   6.795
 2360SOL     OW 7975   1.555   5.235   6.289
 2360SOL    HW1 7976   1.498   5.219   6.370
 2360SOL    HW2 7977   1.496   5.245   6.209
 2361SOL     OW 7978   1.135   4.427   6.303
 2361SOL    HW1 7979   1.192   4.505   6.278
 2361SOL    HW2 7980   1.075   4.453   6.379
 2362SOL     OW 7981   1.755   4.331   5.817
 2362SOL    HW1 7982   1.743   4.318   5.718
 2362SOL    HW2 7983   1.725   4.250   5.866
 2363SOL     OW 7984   0.768   4.868   6.609
 2363SOL    HW1 7985   0.690   4.885   6.669
 2363SOL    HW2 7986   0.802   4.955   6.573
 2364SOL     OW 7987   0.850   4.522   7.409
 2364SOL    HW1 7988   0.846   4.598   7.474
 2364SOL    HW2 7989   0.872   4.558   7.318
 2365SOL     OW 7990   0.685   4.736   6.251
 2365SOL    HW1 7991   0.754   4.720   6.321
 2365SOL    HW2 7992   0.612   4.793   6.289
 2366SOL     OW 7993   0.686   4.885   7.389
 2366SOL    HW1 7994   0.746   4.964   7.403
 2366SOL    HW2 7995   0.600   4.916   7.348
 2367SOL     OW 7996   0.335   5.159   6.647
 2367SOL    HW1 7997   0.257   5.128   6.594
 2367SOL    HW2 7998   0.393   5.217   6.590
 2368SOL     OW 7999   1.460   5.229   6.925
 2368SOL    HW1 8000   1.484   5.323   6.951
 2368SOL    HW2 8001   1.444   5.175   7.007
 2369SOL     OW 8002   0.438   4.116   7.085
 2369SOL    HW1 8003   0.520   4.060   7.094
 2369SOL    HW2 8004   0.357   4.058   7.089
 2370SOL     OW 8005   1.603   4.171   6.323
 2370SOL    HW1 8006   1.529   4.217   6.273
 2370SOL    HW2 8007   1.654   4.239   6.376
 2371SOL     OW 8008   1.127   5.065   7.276
 2371SOL    HW1 8009   1.174   5.065   7.364
 2371SOL    HW2 8010   1.079   4.978   7.265
 2372SOL     OW 8011   0.230   5.158   6.124
 2372SOL    HW1 8012   0.204   5.254   6.124
 2372SOL    HW2 8013   0.159   5.104   6.169
 2373SOL     OW 8014   0.240   4.815   6.472
 2373SOL    HW1 8015   0.254   4.731   6.524
 2373SOL    HW2 8016   0.185   4.879   6.527
 2374SOL     OW 8017   0.606   4.688   5.709
 2374SOL    HW1 8018   0.613   4.772   5.655
 2374SOL    HW2 8019   0.652   4.701   5.797
 2375SOL     OW 8020   1.594   3.838   7.066
 2375SOL    HW1 8021   1.576   3.905   6.994
 2375SOL    HW2 8022   1.591   3.884   7.155
 2376SOL     OW 8023   0.122   4.367   6.149
 2376SOL    HW1 8024   0.077   4.279   6.166
 2376SOL    HW2 8025   0.121   4.421   6.233
 2377SOL     OW 8026   0.027   5.320   5.703
 2377SOL    HW1 8027   0.008   5.224   5.724
 2377SOL    HW2 8028  -0.006   5.378   5.778
 2378SOL     OW 8029   1.689   4.646   6.198
 2378SOL    HW1 8030   1.784   4.617   6.206
 2378SOL    HW2 8031   1.681   4.711   6.123
 2379SOL     OW 8032   1.641   4.832   6.018
 2379SOL    HW1 8033   1.727   4.834   5.966
 2379SOL    HW2 8034   1.655   4.879   6.106
 2380SOL     OW 8035   0.113   4.461   7.183
 2380SOL    HW1 8036   0.201   4.448   7.228
 2380SOL    HW2 8037   0.100   4.558   7.161
 2381SOL     OW 8038   0.613   5.089   6.312
 2381SOL    HW1 8039   0.564   5.002   6.321
 2381SOL    HW2 8040   0.590   5.132   6.225
 2382SOL     OW 8041   1.293   4.952   7.009
 2382SOL    HW1 8042   1.330   4.879   6.951
 2382SOL    HW2 8043   1.345   4.957   7.094
 2383SOL     OW 8044   0.809   3.728   6.088
 2383SOL    HW1 8045   0.849   3.819   6.079
 2383SOL    HW2 8046   0.709   3.736   6.094
 2384SOL     OW 8047   0.197   4.700   6.850
 2384SOL    HW1 8048   0.286   4.655   6.836
 2384SOL    HW2 8049   0.124   4.635   6.831
 2385SOL     OW 8050   1.525   4.723   5.776
 2385SOL    HW1 8051   1.462   4.647   5.789
 2385SOL    HW2 8052   1.573   4.741   5.862
 2386SOL     OW 8053   0.317   3.975   7.387
 2386SOL    HW1 8054   0.388   4.046   7.393
 2386SOL    HW2 8055   0.229   4.014   7.415
 2387SOL     OW 8056   1.466   5.141   6.539
 2387SOL    HW1 8057   1.407   5.147   6.619
 2387SOL    HW2 8058   1.451   5.053   6.493
 2388SOL     OW 8059   0.598   4.453   5.856
 2388SOL    HW1 8060   0.622   4.522   5.788
 2388SOL    HW2 8061   0.520   4.486   5.910
 2389SOL     OW 8062   1.281   4.069   6.530
 2389SOL    HW1 8063   1.195   4.019   6.517
 2389SOL    HW2 8064   1.343   4.015   6.586
 2390SOL     OW 8065   0.807   4.329   7.051
 2390SOL    HW1 8066   0.760   4.326   7.140
 2390SOL    HW2 8067   0.756   4.274   6.985
 2391SOL     OW 8068   1.394   4.193   7.260
 2391SOL    HW1 8069   1.374   4.236   7.348
 2391SOL    HW2 8070   1.472   4.131   7.269
 2392SOL     OW 8071   0.973   4.614   7.158
 2392SOL    HW1 8072   1.019   4.530   7.129
 2392SOL    HW2 8073   0.917   4.648   7.083
 2393SOL     OW 8074   0.991   4.134   6.828
 2393SOL    HW1 8075   0.914   4.168   6.882
 2393SOL    HW2 8076   0.957   4.083   6.749
 2394SOL     OW 8077   1.041   4.425   6.015
 2394SOL    HW1 8078   1.067   4.421   6.111
 2394SOL    HW2 8079   0.956   4.374   6.001
 2395SOL     OW 8080   0.076   4.535   6.375
 2395SOL    HW1 8081   0.175   4.523   6.384
 2395SOL    HW2 8082   0.052   4.630   6.396
 2396SOL     OW 8083   0.865   4.072   5.781
 2396SOL    HW1 8084   0.924   4.135   5.732
 2396SOL    HW2 8085   0.884   3.978   5.752
 2397SOL     OW 8086   1.719   4.309   7.417
 2397SOL    HW1 8087   1.693   4.398   7.381
 2397SOL    HW2 8088   1.717   4.241   7.344
 2398SOL     OW 8089   1.362   4.868   6.131
 2398SOL    HW1 8090   1.445   4.839   6.083
 2398SOL    HW2 8091   1.313   4.935   6.075
 2399SOL     OW 8092   0.550   3.920   6.471
 2399SOL    HW1 8093   0.545   3.915   6.571
 2399SOL    HW2 8094   0.552   4.016   6.442
 2400SOL     OW 8095   1.008   5.180   6.063
 2400SOL    HW1 8096   0.962   5.252   6.011
 2400SOL    HW2 8097   1.004   5.200   6.161
 2401SOL     OW 8098   1.795   4.790   6.459
 2401SOL    HW1 8099   1.733   4.775   6.383
 2401SOL    HW2 8100   1.743   4.801   6.544
 2402SOL     OW 8101   1.227   5.274   7.092
 2402SOL    HW1 8102   1.233   5.197   7.156
 2402SOL    HW2 8103   1.175   5.248   7.012
 2403SOL     OW 8104   0.321   4.667   5.828
 2403SOL    HW1 8105   0.403   4.706   5.786
 2403SOL    HW2 8106   0.294   4.585   5.779
 2404SOL     OW 8107   1.458   4.459   6.314
 2404SOL    HW1 8108   1.453   4.394   6.389
 2404SOL    HW2 8109   1.538   4.518   6.327
 2405SOL     OW 8110   0.461   4.990   7.313
 2405SOL    HW1 8111   0.411   4.991   7.227
 2405SOL    HW2 8112   0.398   4.972   7.389
 2406SOL     OW 8113   1.111   5.500   5.823
 2406SOL    HW1 8114   1.051   5.438   5.873
 2406SOL    HW2 8115   1.142   5.456   5.738
 2407SOL     OW 8116   0.202   4.009   7.084
 2407SOL    HW1 8117   0.122   4.069   7.071
 2407SOL    HW2 8118   0.192   3.960   7.170
 2408SOL     OW 8119   1.632   5.101   5.667
 2408SOL    HW1 8120   1.600   5.195   5.657
 2408SOL    HW2 8121   1.556   5.038   5.655
 2409SOL     OW 8122   1.400   3.831   6.012
 2409SOL    HW1 8123   1.376   3.794   5.922
 2409SOL    HW2 8124   1.499   3.847   6.016
 2410SOL     OW 8125   0.382   4.424   6.066
 2410SOL    HW1 8126   0.427   4.334   6.063
 2410SOL    HW2 8127   0.288   4.413   6.099
 2411SOL     OW 8128   1.547   3.946   7.315
 2411SOL    HW1 8129   1.542   3.983   7.407
 2411SOL    HW2 8130   1.475   3.877   7.303
 2412SOL     OW 8131   0.614   3.846   5.703
 2412SOL    HW1 8132   0.712   3.824   5.710
 2412SOL    HW2 8133   0.583   3.829   5.610
 2413SOL     OW 8134   0.781   3.988   7.335
 2413SOL    HW1 8135   0.848   3.927   7.378
 2413SOL    HW2 8136   0.708   4.007   7.400
 2414SOL     OW 8137   1.351   4.314   7.019
 2414SOL    HW1 8138   1.379   4.271   7.104
 2414SOL    HW2 8139   1.376   4.410   7.020
 2415SOL     OW 8140   0.803   5.126   6.510
 2415SOL    HW1 8141   0.893   5.140   6.468
 2415SOL    HW2 8142   0.732   5.128   6.439
 2416SOL     OW 8143   0.922   4.227   6.485
 2416SOL    HW1 8144   0.897   4.218   6.389
 2416SOL    HW2 8145   0.970   4.145   6.516
 2417SOL     OW 8146   0.539   3.788   6.098
 2417SOL    HW1 8147   0.458   3.789   6.156
 2417SOL    HW2 8148   0.542   3.871   6.043
 2418SOL     OW 8149   1.434   4.912   5.627
 2418SOL    HW1 8150   1.466   4.836   5.684
 2418SOL    HW2 8151   1.342   4.939   5.657
 2419SOL     OW 8152   0.297   3.759   5.757
 2419SOL    HW1 8153   0.346   3.843   5.736
 2419SOL    HW2 8154   0.359   3.694   5.802
 2420SOL     OW 8155   0.935   3.960   6.066
 2420SOL    HW1 8156   0.887   4.001   5.988
 2420SOL    HW2 8157   1.034   3.958   6.047
 2421SOL     OW 8158   1.076   4.407   7.050
 2421SOL    HW1 8159   0.996   4.346   7.053
 2421SOL    HW2 8160   1.157   4.354   7.026
 2422SOL     OW 8161   1.227   5.294   6.379
 2422SOL    HW1 8162   1.248   5.368   6.314
 2422SOL    HW2 8163   1.295   5.294   6.452
 2423SOL     OW 8164   0.459   4.876   6.327
 2423SOL    HW1 8165   0.388   4.849   6.392
 2423SOL    HW2 8166   0.433   4.848   6.234
 2424SOL     OW 8167   1.032   4.273   5.602
 2424SOL    HW1 8168   0.991   4.355   5.563
 2424SOL    HW2 8169   1.096   4.299   5.675
 2425SOL     OW 8170   0.078   4.280   6.972
 2425SOL    HW1 8171   0.170   4.279   6.931
 2425SOL    HW2 8172   0.072   4.354   7.039
 2426SOL     OW 8173   0.561   3.946   6.733
 2426SOL    HW1 8174   0.599   3.862   6.770
 2426SOL    HW2 8175   0.473   3.965   6.777
 2427SOL     OW 8176   0.866   4.178   6.228
 2427SOL    HW1 8177   0.834   4.250   6.166
 2427SOL    HW2 8178   0.890   4.097   6.175
 2428SOL     OW 8179   1.017   3.763   6.339
 2428SOL    HW1 8180   0.945   3.768   6.270
 2428SOL    HW2 8181   0.993   3.694   6.408
 2429SOL     OW 8182   1.429   4.897   6.453
 2429SOL    HW1 8183   1.374   4.813   6.446
 2429SOL    HW2 8184   1.455   4.926   6.361
 2430SOL     OW 8185   1.466   4.314   6.578
 2430SOL    HW1 8186   1.436   4.219   6.585
 2430SOL    HW2 8187   1.539   4.330   6.644
 2431SOL     OW 8188   1.857   4.557   5.963
 2431SOL    HW1 8189   1.899   4.493   6.027
 2431SOL    HW2 8190   1.819   4.506   5.885
 2432SOL     OW 8191   0.488   5.109   5.760
 2432SOL    HW1 8192   0.401   5.094   5.807
 2432SOL    HW2 8193   0.471   5.135   5.665
 2433SOL     OW 8194   1.664   5.004   6.243
 2433SOL    HW1 8195   1.763   5.012   6.257
 2433SOL    HW2 8196   1.619   5.088   6.274
 2434SOL     OW 8197   1.390   4.299   5.664
 2434SOL    HW1 8198   1.336   4.278   5.745
 2434SOL    HW2 8199   1.481   4.258   5.673
 2435SOL     OW 8200   0.527   3.980   5.914
 2435SOL    HW1 8201   0.554   3.921   5.839
 2435SOL    HW2 8202   0.527   4.075   5.883
 2436SOL     OW 8203   1.754   4.947   7.174
 2436SOL    HW1 8204   1.845   4.908   7.161
 2436SOL    HW2 8205   1.762   5.043   7.198
 2437SOL     OW 8206   1.064   5.071   6.926
 2437SOL    HW1 8207   0.984   5.048   6.981
 2437SOL    HW2 8208   1.147   5.045   6.975
 2438SOL     OW 8209   1.111   4.919   6.686
 2438SOL    HW1 8210   1.071   4.963   6.767
 2438SOL    HW2 8211   1.070   4.956   6.603
 2439SOL     OW 8212   1.638   4.823   6.665
 2439SOL    HW1 8213   1.643   4.904   6.724
 2439SOL    HW2 8214   1.552   4.825   6.614
 2440SOL     OW 8215   0.915   3.813   6.988
 2440SOL    HW1 8216   0.940   3.793   6.893
 2440SOL    HW2 8217   0.987   3.869   7.030
 2441SOL     OW 8218   0.980   4.840   7.305
 2441SOL    HW1 8219   0.881   4.846   7.315
 2441SOL    HW2 8220   1.003   4.760   7.249
 2442SOL     OW 8221   0.705   4.774   5.954
 2442SOL    HW1 8222   0.691   4.781   6.053
 2442SOL    HW2 8223   0.789   4.723   5.936
 2443SOL     OW 8224   0.410   4.537   6.837
 2443SOL    HW1 8225   0.496   4.549   6.887
 2443SOL    HW2 8226   0.368   4.450   6.864
 2444SOL     OW 8227   1.274   4.110   6.848
 2444SOL    HW1 8228   1.295   4.184   6.912
 2444SOL    HW2 8229   1.185   4.127   6.805
 2445SOL     OW 8230   0.064   5.288   6.917
 2445SOL    HW1 8231   0.018   5.370   6.883
 2445SOL    HW2 8232   0.162   5.307   6.926
 2446SOL     OW 8233   0.367   4.824   6.087
 2446SOL    HW1 8234   0.360   4.907   6.031
 2446SOL    HW2 8235   0.371   4.744   6.027
 2447SOL     OW 8236   0.566   4.261   6.451
 2447SOL    HW1 8237   0.578   4.327   6.377
 2447SOL    HW2 8238   0.612   4.295   6.534
 2448SOL     OW 8239   1.252   5.072   5.974
 2448SOL    HW1 8240   1.302   5.149   6.014
 2448SOL    HW2 8241   1.157   5.074   6.006
 2449SOL     OW 8242   1.272   5.169   6.728
 2449SOL    HW1 8243   1.319   5.182   6.815
 2449SOL    HW2 8244   1.206   5.095   6.737
 2450SOL     OW 8245   1.582   4.363   6.058
 2450SOL    HW1 8246   1.551   4.424   6.131
 2450SOL    HW2 8247   1.632   4.415   5.989
 2451SOL     OW 8248   0.354   5.234   6.915
 2451SOL    HW1 8249   0.333   5.190   6.828
 2451SOL    HW2 8250   0.451   5.260   6.918
 2452SOL     OW 8251   0.402   4.475   7.184
 2452SOL    HW1 8252   0.470   4.530   7.137
 2452SOL    HW2 8253   0.442   4.387   7.211
 2453SOL     OW 8254   1.587   4.503   7.256
 2453SOL    HW1 8255   1.495   4.541   7.251
 2453SOL    HW2 8256   1.647   4.550   7.191
 2454SOL     OW 8257   1.013   3.829   7.356
 2454SOL    HW1 8258   1.019   3.914   7.304
 2454SOL    HW2 8259   1.045   3.753   7.299
 2455SOL     OW 8260   0.504   3.774   7.326
 2455SOL    HW1 8261   0.462   3.717   7.256
 2455SOL    HW2 8262   0.438   3.843   7.358
 2456SOL     OW 8263   0.573   4.594   6.615
 2456SOL    HW1 8264   0.617   4.683   6.606
 2456SOL    HW2 8265   0.510   4.594   6.692
 2457SOL     OW 8266   1.360   4.586   6.631
 2457SOL    HW1 8267   1.285   4.586   6.565
 2457SOL    HW2 8268   1.397   4.494   6.640
 2458SOL     OW 8269   1.209   4.249   5.861
 2458SOL    HW1 8270   1.222   4.165   5.915
 2458SOL    HW2 8271   1.180   4.323   5.921
 2459SOL     OW 8272   0.307   3.937   6.817
 2459SOL    HW1 8273   0.284   3.974   6.907
 2459SOL    HW2 8274   0.277   3.842   6.811
 2460SOL     OW 8275   0.037   5.034   6.868
 2460SOL    HW1 8276   0.090   4.985   6.936
 2460SOL    HW2 8277   0.059   5.132   6.873
 2461SOL     OW 8278   0.732   4.358   6.650
 2461SOL    HW1 8279   0.791   4.332   6.574
 2461SOL    HW2 8280   0.704   4.454   6.639
 2462SOL     OW 8281   1.728   4.659   7.440
 2462SOL    HW1 8282   1.682   4.652   7.351
 2462SOL    HW2 8283   1.666   4.703   7.506
 2463SOL     OW 8284   0.307   3.787   6.204
 2463SOL    HW1 8285   0.296   3.881   6.237
 2463SOL    HW2 8286   0.302   3.724   6.281
 2464SOL     OW 8287   1.622   4.091   5.960
 2464SOL    HW1 8288   1.624   4.015   6.024
 2464SOL    HW2 8289   1.574   4.168   6.000
 2465SOL     OW 8290   1.023   4.490   6.552
 2465SOL    HW1 8291   1.038   4.511   6.648
 2465SOL    HW2 8292   0.993   4.395   6.543
 2466SOL     OW 8293   1.859   5.242   7.191
 2466SOL    HW1 8294   1.873   5.269   7.096
 2466SOL    HW2 8295   1.942   5.264   7.244
 2467SOL     OW 8296   0.350   4.622   7.390
 2467SOL    HW1 8297   0.426   4.666   7.438
 2467SOL    HW2 8298   0.385   4.575   7.308
 2468SOL     OW 8299   1.540   3.998   5.711
 2468SOL    HW1 8300   1.479   3.923   5.734
 2468SOL    HW2 8301   1.562   4.050   5.794
 2469SOL     OW 8302   1.303   4.562   5.628
 2469SOL    HW1 8303   1.337   4.469   5.643
 2469SOL    HW2 8304   1.321   4.589   5.533
 2470SOL     OW 8305   1.068   5.057   6.435
 2470SOL    HW1 8306   1.075   4.973   6.380
 2470SOL    HW2 8307   1.130   5.126   6.399
 2471SOL     OW 8308   0.319   4.534   6.535
 2471SOL    HW1 8309   0.412   4.570   6.540
 2471SOL    HW2 8310   0.313   4.449   6.587
 2472SOL     OW 8311   0.339   4.233   6.592
 2472SOL    HW1 8312   0.287   4.150   6.575
 2472SOL    HW2 8313   0.416   4.238   6.528
 2473SOL     OW 8314   1.138   4.104   7.264
 2473SOL    HW1 8315   1.093   4.167   7.328
 2473SOL    HW2 8316   1.231   4.135   7.247
 2474SOL     OW 8317   1.160   3.931   7.063
 2474SOL    HW1 8318   1.160   3.995   7.140
 2474SOL    HW2 8319   1.188   3.979   6.980
 2475SOL     OW 8320   0.008   5.050   5.786
 2475SOL    HW1 8321  -0.085   5.071   5.755
 2475SOL    HW2 8322   0.018   4.951   5.799
 2476SOL     OW 8323   1.002   4.520   6.824
 2476SOL    HW1 8324   1.043   4.488   6.910
 2476SOL    HW2 8325   0.906   4.493   6.821
 2477SOL     OW 8326   0.040   4.268   6.700
 2477SOL    HW1 8327   0.125   4.235   6.659
 2477SOL    HW2 8328   0.053   4.283   6.798
 2478SOL     OW 8329   0.189   4.244   7.308
 2478SOL    HW1 8330   0.248   4.204   7.238
 2478SOL    HW2 8331   0.131   4.315   7.267
 2479SOL     OW 8332   1.369   4.674   7.246
 2479SOL    HW1 8333   1.408   4.763   7.266
 2479SOL    HW2 8334   1.379   4.654   7.149
 2480SOL     OW 8335   0.815   4.296   5.911
 2480SOL    HW1 8336   0.822   4.207   5.865
 2480SOL    HW2 8337   0.721   4.330   5.903
 2481SOL     OW 8338   1.657   4.328   6.792
 2481SOL    HW1 8339   1.619   4.259   6.854
 2481SOL    HW2 8340   1.739   4.292   6.748
 2482SOL     OW 8341   0.252   5.288   7.330
 2482SOL    HW1 8342   0.222   5.345   7.406
 2482SOL    HW2 8343   0.245   5.191   7.356
 2483SOL     OW 8344   0.671   4.188   6.855
 2483SOL    HW1 8345   0.637   4.099   6.825
 2483SOL    HW2 8346   0.697   4.242   6.775
 2484SOL     OW 8347   0.473   4.224   5.777
 2484SOL    HW1 8348   0.534   4.304   5.781
 2484SOL    HW2 8349   0.378   4.255   5.784
 2485SOL     OW 8350   0.159   4.861   7.052
 2485SOL    HW1 8351   0.181   4.800   7.128
 2485SOL    HW2 8352   0.169   4.812   6.966
 2486SOL     OW 8353   1.347   4.783   6.820
 2486SOL    HW1 8354   1.371   4.720   6.746
 2486SOL    HW2 8355   1.257   4.823   6.802
 2487SOL     OW 8356   1.302   4.579   5.895
 2487SOL    HW1 8357   1.216   4.548   5.937
 2487SOL    HW2 8358   1.298   4.565   5.796
 2488SOL     OW 8359   0.083   4.982   6.608
 2488SOL    HW1 8360   0.078   4.981   6.708
 2488SOL    HW2 8361   0.000   4.941   6.570
 2489SOL     OW 8362   0.688   5.386   7.302
 2489SOL    HW1 8363   0.632   5.467   7.311
 2489SOL    HW2 8364   0.740   5.390   7.216
 2490SOL     OW 8365   1.726   3.859   6.109
 2490SOL    HW1 8366   1.799   3.842   6.042
 2490SOL    HW2 8367   1.695   3.772   6.147
 2491SOL     OW 8368   1.280   4.651   6.258
 2491SOL    HW1 8369   1.340   4.570   6.260
 2491SOL    HW2 8370   1.320   4.720   6.198
 2492SOL     OW 8371   0.830   4.997   7.008
 2492SOL    HW1 8372   0.825   5.030   7.103
 2492SOL    HW2 8373   0.744   5.016   6.962
 2493SOL     OW 8374   1.841   3.899   6.549
 2493SOL    HW1 8375   1.880   3.814   6.513
 2493SOL    HW2 8376   1.743   3.901   6.530
 2494SOL     OW 8377   0.263   4.050   6.306
 2494SOL    HW1 8378   0.184   4.101   6.272
 2494SOL    HW2 8379   0.254   4.035   6.404
 2495SOL     OW 8380   0.822   4.726   6.958
 2495SOL    HW1 8381   0.862   4.725   6.866
 2495SOL    HW2 8382   0.832   4.818   6.998
 2496SOL     OW 8383   0.916   4.634   5.877
 2496SOL    HW1 8384   0.979   4.672   5.809
 2496SOL    HW2 8385   0.956   4.551   5.916
 2497SOL     OW 8386   0.372   5.012   7.076
 2497SOL    HW1 8387   0.359   5.105   7.042
 2497SOL    HW2 8388   0.288   4.960   7.063
 2498SOL     OW 8389   1.614   5.016   6.875
 2498SOL    HW1 8390   1.674   5.019   6.955
 2498SOL    HW2 8391   1.539   5.080   6.888
 2499SOL     OW 8392   1.039   4.822   6.282
 2499SOL    HW1 8393   0.969   4.775   6.336
 2499SOL    HW2 8394   1.098   4.754   6.239
 2500SOL     OW 8395   1.014   3.960   6.557
 2500SOL    HW1 8396   1.006   3.924   6.464
 2500SOL    HW2 8397   1.012   3.884   6.622
 2501SOL     OW 8398   1.709   4.109   6.967
 2501SOL    HW1 8399   1.782   4.178   6.971
 2501SOL    HW2 8400   1.737   4.034   6.908
 2502SOL     OW 8401   0.255   5.072   5.876
 2502SOL    HW1 8402   0.159   5.073   5.849
 2502SOL    HW2 8403   0.267   5.125   5.960
 2503SOL     OW 8404   0.105   4.737   7.312
 2503SOL    HW1 8405   0.028   4.704   7.366
 2503SOL    HW2 8406   0.190   4.707   7.354
 2504SOL     OW 8407   0.672   3.927   7.075
 2504SOL    HW1 8408   0.762   3.911   7.035
 2504SOL    HW2 8409   0.680   3.932   7.174
 2505SOL     OW 8410   0.075   4.069   5.619
 2505SOL    HW1 8411  -0.017   4.041   5.590
 2505SOL    HW2 8412   0.106   4.146   5.563
 2506SOL     OW 8413   1.440   4.580   6.984
 2506SOL    HW1 8414   1.383   4.632   6.921
 2506SOL    HW2 8415   1.536   4.592   6.960
 2507SOL     OW 8416   0.072   3.890   5.904
 2507SOL    HW1 8417   0.055   3.973   5.850
 2507SOL    HW2 8418   0.162   3.853   5.882
 2508SOL     OW 8419   1.183   5.059   5.705
 2508SOL    HW1 8420   1.084   5.048   5.707
 2508SOL    HW2 8421   1.217   5.074   5.798
 2509SOL     OW 8422   0.613   4.566   7.017
 2509SOL    HW1 8423   0.669   4.647   7.000
 2509SOL    HW2 8424   0.672   4.486   7.020
 2510SOL     OW 8425   0.716   4.289   7.294
 2510SOL    HW1 8426   0.735   4.354   7.368
 2510SOL    HW2 8427   0.776   4.209   7.303
 2511SOL     OW 8428   1.450   4.944   7.219
 2511SOL    HW1 8429   1.441   4.934   7.318
 2511SOL    HW2 8430   1.546   4.937   7.193
 2512SOL     OW 8431   1.674   4.607   6.840
 2512SOL    HW1 8432   1.647   4.518   6.803
 2512SOL    HW2 8433   1.675   4.675   6.767
 2513SOL     OW 8434   1.225   4.049   6.035
 2513SOL    HW1 8435   1.290   3.975   6.024
 2513SOL    HW2 8436   1.245   4.099   6.119
 2514SOL     OW 8437   0.594   4.469   6.238
 2514SOL    HW1 8438   0.644   4.554   6.219
 2514SOL    HW2 8439   0.506   4.471   6.190
 2515SOL     OW 8440   1.777   4.066   7.228
 2515SOL    HW1 8441   1.760   4.097   7.134
 2515SOL    HW2 8442   1.693   4.029   7.266
 2516SOL     OW 8443   1.730   4.658   7.103
 2516SOL    HW1 8444   1.768   4.749   7.118
 2516SOL    HW2 8445   1.722   4.641   7.004
 2517SOL     OW 8446   0.859   5.098   5.602
 2517SOL    HW1 8447   0.813   5.113   5.690
 2517SOL    HW2 8448   0.903   5.183   5.572
 2518SOL     OW 8449   0.859   4.680   6.447
 2518SOL    HW1 8450   0.913   4.611   6.495
 2518SOL    HW2 8451   0.827   4.749   6.513
 2519SOL     OW 8452   1.083   4.708   5.673
 2519SOL    HW1 8453   1.060   4.761   5.591
 2519SOL    HW2 8454   1.164   4.652   5.654
 2520SOL     OW 8455   0.221   5.038   7.430
 2520SOL    HW1 8456   0.156   4.965   7.409
 2520SOL    HW2 8457   0.225   5.052   7.528
 2521SOL     OW 8458   0.079   4.964   6.239
 2521SOL    HW1 8459   0.078   4.917   6.327
 2521SOL    HW2 8460   0.161   4.936   6.188
 2522SOL     OW 8461   0.672   5.115   7.210
 2522SOL    HW1 8462   0.594   5.065   7.248
 2522SOL    HW2 8463   0.669   5.210   7.241
 2523SOL     OW 8464   1.824   3.916   6.813
 2523SOL    HW1 8465   1.820   3.826   6.857
 2523SOL    HW2 8466   1.827   3.905   6.714
 2524SOL     OW 8467   0.428   4.148   6.106
 2524SOL    HW1 8468   0.458   4.076   6.044
 2524SOL    HW2 8469   0.389   4.108   6.189
 2525SOL     OW 8470   1.705   5.211   6.690
 2525SOL    HW1 8471   1.612   5.186   6.663
 2525SOL    HW2 8472   1.731   5.161   6.772
 2526SOL     OW 8473   0.317   4.271   6.866
 2526SOL    HW1 8474   0.355   4.212   6.938
 2526SOL    HW2 8475   0.357   4.245   6.778
 2527SOL     OW 8476   1.424   3.938   6.698
 2527SOL    HW1 8477   1.476   3.873   6.753
 2527SOL    HW2 8478   1.375   4.001   6.759
 2528SOL     OW 8479   1.001   3.758   6.740
 2528SOL    HW1 8480   0.938   3.686   6.709
 2528SOL    HW2 8481   1.094   3.722   6.740
 2529SOL     OW 8482   0.770   5.054   5.887
 2529SOL    HW1 8483   0.724   4.967   5.904
 2529SOL    HW2 8484   0.861   5.051   5.928
 2530SOL     OW 8485   0.618   5.291   6.870
 2530SOL    HW1 8486   0.613   5.373   6.927
 2530SOL    HW2 8487   0.707   5.288   6.825
 2531SOL     OW 8488   1.352   3.776   5.754
 2531SOL    HW1 8489   1.387   3.735   5.670
 2531SOL    HW2 8490   1.262   3.738   5.774
 2532SOL     OW 8491   1.300   4.177   6.277
 2532SOL    HW1 8492   1.241   4.257   6.281
 2532SOL    HW2 8493   1.315   4.142   6.370
 2533SOL     OW 8494   1.593   3.945   6.468
 2533SOL    HW1 8495   1.509   3.944   6.522
 2533SOL    HW2 8496   1.595   4.028   6.412
 2534SOL     OW 8497   0.039   4.801   5.886
 2534SOL    HW1 8498   0.138   4.790   5.877
 2534SOL    HW2 8499  -0.001   4.715   5.918
 2535SOL     OW 8500   0.230   4.352   7.561
 2535SOL    HW1 8501   0.137   4.350   7.598
 2535SOL    HW2 8502   0.231   4.313   7.469
 2536SOL     OW 8503   1.755   4.331   7.679
 2536SOL    HW1 8504   1.743   4.318   7.580
 2536SOL    HW2 8505   1.725   4.250   7.728
 2537SOL     OW 8506   0.231   5.437   7.931
 2537SOL    HW1 8507   0.265   5.514   7.985
 2537SOL    HW2 8508   0.275   5.437   7.841
 2538SOL     OW 8509   0.230   5.158   7.986
 2538SOL    HW1 8510   0.204   5.254   7.986
 2538SOL    HW2 8511   0.159   5.104   8.031
 2539SOL     OW 8512   0.606   4.688   7.571
 2539SOL    HW1 8513   0.613   4.772   7.517
 2539SOL    HW2 8514   0.652   4.701   7.659
 2540SOL     OW 8515   0.027   5.320   7.565
 2540SOL    HW1 8516   0.008   5.224   7.586
 2540SOL    HW2 8517  -0.006   5.378   7.640
 2541SOL     OW 8518   1.689   4.646   8.060
 2541SOL    HW1 8519   1.784   4.617   8.068
 2541SOL    HW2 8520   1.681   4.711   7.985
 2542SOL     OW 8521   1.641   4.832   7.880
 2542SOL    HW1 8522   1.727   4.834   7.828
 2542SOL    HW2 8523   1.655   4.879   7.968
 2543SOL     OW 8524   0.809   3.728   7.950
 2543SOL    HW1 8525   0.849   3.819   7.941
 2543SOL    HW2 8526   0.709   3.736   7.956
 2544SOL     OW 8527   1.525   4.723   7.638
 2544SOL    HW1 8528   1.462   4.647   7.651
 2544SOL    HW2 8529   1.573   4.741   7.724
 2545SOL     OW 8530   0.598   4.453   7.718
 2545SOL    HW1 8531   0.622   4.522   7.650
 2545SOL    HW2 8532   0.520   4.486   7.772
 2546SOL     OW 8533   0.076   4.535   8.237
 2546SOL    HW1 8534   0.175   4.523   8.246
 2546SOL    HW2 8535   0.052   4.630   8.258
 2547SOL     OW 8536   0.865   4.072   7.643
 2547SOL    HW1 8537   0.924   4.135   7.594
 2547SOL    HW2 8538   0.884   3.978   7.614
 2548SOL     OW 8539   0.321   4.667   7.690
 2548SOL    HW1 8540   0.403   4.706   7.648
 2548SOL    HW2 8541   0.294   4.585   7.641
 2549SOL     OW 8542   1.111   5.500   7.685
 2549SOL    HW1 8543   1.051   5.438   7.735
 2549SOL    HW2 8544   1.142   5.456   7.600
 2550SOL     OW 8545   1.632   5.101   7.529
 2550SOL    HW1 8546   1.600   5.195   7.519
 2550SOL    HW2 8547   1.556   5.038   7.517
 2551SOL     OW 8548   1.400   3.831   7.874
 2551SOL    HW1 8549   1.376   3.794   7.784
 2551SOL    HW2 8550   1.499   3.847   7.878
 2552SOL     OW 8551   0.382   4.424   7.928
 2552SOL    HW1 8552   0.427   4.334   7.925
 2552SOL    HW2 8553   0.288   4.413   7.961
 2553SOL     OW 8554   0.614   3.846   7.565
 2553SOL    HW1 8555   0.712   3.824   7.572
 2553SOL    HW2 8556   0.583   3.829   7.472
 2554SOL     OW 8557   0.539   3.788   7.960
 2554SOL    HW1 8558   0.458   3.789   8.018
 2554SOL    HW2 8559   0.542   3.871   7.905
 2555SOL     OW 8560   1.434   4.912   7.489
 2555SOL    HW1 8561   1.466   4.836   7.546
 2555SOL    HW2 8562   1.342   4.939   7.519
 2556SOL     OW 8563   0.297   3.759   7.619
 2556SOL    HW1 8564   0.346   3.843   7.598
 2556SOL    HW2 8565   0.359   3.694   7.664
 2557SOL     OW 8566   0.935   3.960   7.928
 2557SOL    HW1 8567   0.887   4.001   7.850
 2557SOL    HW2 8568   1.034   3.958   7.909
 2558SOL     OW 8569   0.459   4.876   8.189
 2558SOL    HW1 8570   0.388   4.849   8.254
 2558SOL    HW2 8571   0.433   4.848   8.096
 2559SOL     OW 8572   1.032   4.273   7.464
 2559SOL    HW1 8573   0.991   4.355   7.425
 2559SOL    HW2 8574   1.096   4.299   7.537
 2560SOL     OW 8575   1.857   4.557   7.825
 2560SOL    HW1 8576   1.899   4.493   7.889
 2560SOL    HW2 8577   1.819   4.506   7.747
 2561SOL     OW 8578   0.488   5.109   7.622
 2561SOL    HW1 8579   0.401   5.094   7.669
 2561SOL    HW2 8580   0.471   5.135   7.527
 2562SOL     OW 8581   1.390   4.299   7.526
 2562SOL    HW1 8582   1.336   4.278   7.607
 2562SOL    HW2 8583   1.481   4.258   7.535
 2563SOL     OW 8584   0.527   3.980   7.776
 2563SOL    HW1 8585   0.554   3.921   7.701
 2563SOL    HW2 8586   0.527   4.075   7.745
 2564SOL     OW 8587   0.705   4.774   7.816
 2564SOL    HW1 8588   0.691   4.781   7.915
 2564SOL    HW2 8589   0.789   4.723   7.798
 2565SOL     OW 8590   0.367   4.824   7.949
 2565SOL    HW1 8591   0.360   4.907   7.893
 2565SOL    HW2 8592   0.371   4.744   7.889
 2566SOL     OW 8593   1.252   5.072   7.836
 2566SOL    HW1 8594   1.302   5.149   7.876
 2566SOL    HW2 8595   1.157   5.074   7.868
 2567SOL     OW 8596   1.582   4.363   7.920
 2567SOL    HW1 8597   1.551   4.424   7.993
 2567SOL    HW2 8598   1.632   4.415   7.851
 2568SOL     OW 8599   1.209   4.249   7.723
 2568SOL    HW1 8600   1.222   4.165   7.777
 2568SOL    HW2 8601   1.180   4.323   7.783
 2569SOL     OW 8602   1.622   4.091   7.822
 2569SOL    HW1 8603   1.624   4.015   7.886
 2569SOL    HW2 8604   1.574   4.168   7.862
 2570SOL     OW 8605   1.540   3.998   7.573
 2570SOL    HW1 8606   1.479   3.923   7.596
 2570SOL    HW2 8607   1.562   4.050   7.656
 2571SOL     OW 8608   1.303   4.562   7.490
 2571SOL    HW1 8609   1.337   4.469   7.505
 2571SOL    HW2 8610   1.321   4.589   7.395
 2572SOL     OW 8611   0.008   5.050   7.648
 2572SOL    HW1 8612  -0.085   5.071   7.617
 2572SOL    HW2 8613   0.018   4.951   7.661
 2573SOL     OW 8614   0.815   4.296   7.773
 2573SOL    HW1 8615   0.822   4.207   7.727
 2573SOL    HW2 8616   0.721   4.330   7.765
 2574SOL     OW 8617   0.473   4.224   7.639
 2574SOL    HW1 8618   0.534   4.304   7.643
 2574SOL    HW2 8619   0.378   4.255   7.646
 2575SOL     OW 8620   1.302   4.579   7.757
 2575SOL    HW1 8621   1.216   4.548   7.799
 2575SOL    HW2 8622   1.298   4.565   7.658
 2576SOL     OW 8623   1.726   3.859   7.971
 2576SOL    HW1 8624   1.799   3.842   7.904
 2576SOL    HW2 8625   1.695   3.772   8.009
 2577SOL     OW 8626   0.916   4.634   7.739
 2577SOL    HW1 8627   0.979   4.672   7.671
 2577SOL    HW2 8628   0.956   4.551   7.778
 2578SOL     OW 8629   0.255   5.072   7.738
 2578SOL    HW1 8630   0.159   5.073   7.711
 2578SOL    HW2 8631   0.267   5.125   7.822
 2579SOL     OW 8632   0.075   4.069   7.481
 2579SOL    HW1 8633  -0.017   4.041   7.452
 2579SOL    HW2 8634   0.106   4.146   7.425
 2580SOL     OW 8635   0.072   3.890   7.766
 2580SOL    HW1 8636   0.055   3.973   7.712
 2580SOL    HW2 8637   0.162   3.853   7.744
 2581SOL     OW 8638   1.183   5.059   7.567
 2581SOL    HW1 8639   1.084   5.048   7.569
 2581SOL    HW2 8640   1.217   5.074   7.660
 2582SOL     OW 8641   1.225   4.049   7.897
 2582SOL    HW1 8642   1.290   3.975   7.886
 2582SOL    HW2 8643   1.245   4.099   7.981
 2583SOL     OW 8644   0.594   4.469   8.100
 2583SOL    HW1 8645   0.644   4.554   8.081
 2583SOL    HW2 8646   0.506   4.471   8.052
 2584SOL     OW 8647   0.859   5.098   7.464
 2584SOL    HW1 8648   0.813   5.113   7.552
 2584SOL    HW2 8649   0.903   5.183   7.434
 2585SOL     OW 8650   1.083   4.708   7.535
 2585SOL    HW1 8651   1.060   4.761   7.453
 2585SOL    HW2 8652   1.164   4.652   7.516
 2586SOL     OW 8653   0.428   4.148   7.968
 2586SOL    HW1 8654   0.458   4.076   7.906
 2586SOL    HW2 8655   0.389   4.108   8.051
 2587SOL     OW 8656   0.770   5.054   7.749
 2587SOL    HW1 8657   0.724   4.967   7.766
 2587SOL    HW2 8658   0.861   5.051   7.790
 2588SOL     OW 8659   1.352   3.776   7.616
 2588SOL    HW1 8660   1.387   3.735   7.532
 2588SOL    HW2 8661   1.262   3.738   7.636
 2589SOL     OW 8662   0.039   4.801   7.748
 2589SOL    HW1 8663   0.138   4.790   7.739
 2589SOL    HW2 8664  -0.001   4.715   7.780
 2590SOL     OW 8665   2.092   0.628   0.113
 2590SOL    HW1 8666   1.999   0.626   0.150
 2590SOL    HW2 8667   2.093   0.589   0.021
 2591SOL     OW 8668   2.087   0.275   0.996
 2591SOL    HW1 8669   2.122   0.258   1.088
 2591SOL    HW2 8670   1.999   0.230   0.984
 2592SOL     OW 8671   1.881   0.368   0.647
 2592SOL    HW1 8672   1.799   0.411   0.686
 2592SOL    HW2 8673   1.853   0.295   0.584
 2593SOL     OW 8674   2.431   1.275   1.165
 2593SOL    HW1 8675   2.338   1.268   1.128
 2593SOL    HW2 8676   2.442   1.364   1.209
 2594SOL     OW 8677   3.417   1.511   0.703
 2594SOL    HW1 8678   3.360   1.495   0.784
 2594SOL    HW2 8679   3.358   1.521   0.623
 2595SOL     OW 8680   2.997   0.703   0.717
 2595SOL    HW1 8681   3.054   0.781   0.692
 2595SOL    HW2 8682   2.937   0.729   0.793
 2596SOL     OW 8683   3.617   0.607   0.231
 2596SOL    HW1 8684   3.605   0.594   0.132
 2596SOL    HW2 8685   3.587   0.526   0.280
 2597SOL     OW 8686   2.630   1.144   1.023
 2597SOL    HW1 8687   2.552   1.161   1.083
 2597SOL    HW2 8688   2.664   1.231   0.987
 2598SOL     OW 8689   2.712   0.798   1.823
 2598SOL    HW1 8690   2.708   0.874   1.888
 2598SOL    HW2 8691   2.734   0.834   1.732
 2599SOL     OW 8692   2.547   1.012   0.665
 2599SOL    HW1 8693   2.616   0.996   0.735
 2599SOL    HW2 8694   2.474   1.069   0.703
 2600SOL     OW 8695   2.548   1.161   1.803
 2600SOL    HW1 8696   2.608   1.240   1.817
 2600SOL    HW2 8697   2.462   1.192   1.762
 2601SOL     OW 8698   2.197   1.435   1.061
 2601SOL    HW1 8699   2.119   1.404   1.008
 2601SOL    HW2 8700   2.255   1.493   1.004
 2602SOL     OW 8701   3.322   1.505   1.339
 2602SOL    HW1 8702   3.346   1.599   1.365
 2602SOL    HW2 8703   3.306   1.451   1.421
 2603SOL     OW 8704   2.300   0.392   1.499
 2603SOL    HW1 8705   2.382   0.336   1.508
 2603SOL    HW2 8706   2.219   0.334   1.503
 2604SOL     OW 8707   3.465   0.447   0.737
 2604SOL    HW1 8708   3.391   0.493   0.687
 2604SOL    HW2 8709   3.516   0.515   0.790
 2605SOL     OW 8710   2.093   1.713   0.483
 2605SOL    HW1 8711   2.127   1.790   0.537
 2605SOL    HW2 8712   2.137   1.713   0.393
 2606SOL     OW 8713   2.989   1.341   1.690
 2606SOL    HW1 8714   3.036   1.341   1.778
 2606SOL    HW2 8715   2.941   1.254   1.679
 2607SOL     OW 8716   2.092   1.434   0.538
 2607SOL    HW1 8717   2.066   1.530   0.538
 2607SOL    HW2 8718   2.021   1.380   0.583
 2608SOL     OW 8719   2.102   1.091   0.886
 2608SOL    HW1 8720   2.116   1.007   0.938
 2608SOL    HW2 8721   2.047   1.155   0.941
 2609SOL     OW 8722   2.482   1.786   1.439
 2609SOL    HW1 8723   2.390   1.769   1.474
 2609SOL    HW2 8724   2.510   1.878   1.465
 2610SOL     OW 8725   2.468   0.964   0.123
 2610SOL    HW1 8726   2.475   1.048   0.069
 2610SOL    HW2 8727   2.514   0.977   0.211
 2611SOL     OW 8728   3.456   0.114   1.480
 2611SOL    HW1 8729   3.438   0.181   1.408
 2611SOL    HW2 8730   3.453   0.160   1.569
 2612SOL     OW 8731   1.984   0.643   0.563
 2612SOL    HW1 8732   1.939   0.555   0.580
 2612SOL    HW2 8733   1.983   0.697   0.647
 2613SOL     OW 8734   3.704   1.767   0.359
 2613SOL    HW1 8735   3.758   1.738   0.439
 2613SOL    HW2 8736   3.734   1.857   0.330
 2614SOL     OW 8737   1.889   1.596   0.117
 2614SOL    HW1 8738   1.870   1.500   0.138
 2614SOL    HW2 8739   1.856   1.654   0.192
 2615SOL     OW 8740   3.551   0.922   0.612
 2615SOL    HW1 8741   3.646   0.893   0.620
 2615SOL    HW2 8742   3.543   0.987   0.537
 2616SOL     OW 8743   3.503   1.108   0.432
 2616SOL    HW1 8744   3.589   1.110   0.380
 2616SOL    HW2 8745   3.517   1.155   0.520
 2617SOL     OW 8746   1.975   0.737   1.597
 2617SOL    HW1 8747   2.063   0.724   1.642
 2617SOL    HW2 8748   1.962   0.834   1.575
 2618SOL     OW 8749   2.475   1.365   0.726
 2618SOL    HW1 8750   2.426   1.278   0.735
 2618SOL    HW2 8751   2.452   1.408   0.639
 2619SOL     OW 8752   3.155   1.228   1.423
 2619SOL    HW1 8753   3.192   1.155   1.365
 2619SOL    HW2 8754   3.207   1.233   1.508
 2620SOL     OW 8755   2.671   0.004   0.502
 2620SOL    HW1 8756   2.711   0.095   0.493
 2620SOL    HW2 8757   2.571   0.012   0.508
 2621SOL     OW 8758   2.059   0.976   1.264
 2621SOL    HW1 8759   2.148   0.931   1.250
 2621SOL    HW2 8760   1.986   0.911   1.245
 2622SOL     OW 8761   3.387   0.999   0.190
 2622SOL    HW1 8762   3.324   0.923   0.203
 2622SOL    HW2 8763   3.435   1.017   0.276
 2623SOL     OW 8764   3.049   1.792   1.616
 2623SOL    HW1 8765   3.073   1.852   1.540
 2623SOL    HW2 8766   3.056   1.697   1.586
 2624SOL     OW 8767   2.179   0.251   1.801
 2624SOL    HW1 8768   2.250   0.322   1.807
 2624SOL    HW2 8769   2.091   0.290   1.829
 2625SOL     OW 8770   3.328   1.417   0.953
 2625SOL    HW1 8771   3.269   1.423   1.033
 2625SOL    HW2 8772   3.313   1.329   0.907
 2626SOL     OW 8773   3.529   1.714   0.572
 2626SOL    HW1 8774   3.488   1.691   0.484
 2626SOL    HW2 8775   3.511   1.640   0.637
 2627SOL     OW 8776   2.460   0.729   0.270
 2627SOL    HW1 8777   2.484   0.798   0.202
 2627SOL    HW2 8778   2.382   0.762   0.324
 2628SOL     OW 8779   3.143   0.345   0.944
 2628SOL    HW1 8780   3.057   0.295   0.931
 2628SOL    HW2 8781   3.205   0.291   1.000
 2629SOL     OW 8782   3.438   1.662   0.307
 2629SOL    HW1 8783   3.527   1.708   0.310
 2629SOL    HW2 8784   3.417   1.638   0.212
 2630SOL     OW 8785   2.669   0.605   1.465
 2630SOL    HW1 8786   2.622   0.602   1.554
 2630SOL    HW2 8787   2.618   0.550   1.399
 2631SOL     OW 8788   3.256   0.469   1.674
 2631SOL    HW1 8789   3.236   0.512   1.762
 2631SOL    HW2 8790   3.334   0.407   1.683
 2632SOL     OW 8791   2.835   0.890   1.572
 2632SOL    HW1 8792   2.881   0.806   1.543
 2632SOL    HW2 8793   2.779   0.924   1.497
 2633SOL     OW 8794   2.853   0.410   1.242
 2633SOL    HW1 8795   2.776   0.444   1.296
 2633SOL    HW2 8796   2.819   0.359   1.163
 2634SOL     OW 8797   2.903   0.701   0.429
 2634SOL    HW1 8798   2.929   0.697   0.525
 2634SOL    HW2 8799   2.818   0.650   0.415
 2635SOL     OW 8800   1.938   0.811   0.789
 2635SOL    HW1 8801   2.037   0.799   0.798
 2635SOL    HW2 8802   1.914   0.906   0.810
 2636SOL     OW 8803   1.992   1.821   1.571
 2636SOL    HW1 8804   1.982   1.806   1.670
 2636SOL    HW2 8805   1.906   1.857   1.535
 2637SOL     OW 8806   2.727   0.348   0.195
 2637SOL    HW1 8807   2.786   0.411   0.146
 2637SOL    HW2 8808   2.746   0.254   0.166
 2638SOL     OW 8809   3.581   0.585   1.831
 2638SOL    HW1 8810   3.555   0.674   1.795
 2638SOL    HW2 8811   3.579   0.517   1.758
 2639SOL     OW 8812   3.224   1.144   0.545
 2639SOL    HW1 8813   3.307   1.115   0.497
 2639SOL    HW2 8814   3.175   1.211   0.489
 2640SOL     OW 8815   2.412   0.196   0.885
 2640SOL    HW1 8816   2.407   0.191   0.985
 2640SOL    HW2 8817   2.414   0.292   0.856
 2641SOL     OW 8818   2.870   1.456   0.477
 2641SOL    HW1 8819   2.824   1.528   0.425
 2641SOL    HW2 8820   2.866   1.476   0.575
 2642SOL     OW 8821   2.213   1.801   0.853
 2642SOL    HW1 8822   2.263   1.715   0.859
 2642SOL    HW2 8823   2.278   1.878   0.850
 2643SOL     OW 8824   3.657   1.066   0.873
 2643SOL    HW1 8825   3.595   1.051   0.797
 2643SOL    HW2 8826   3.605   1.077   0.958
 2644SOL     OW 8827   3.089   1.550   1.506
 2644SOL    HW1 8828   3.095   1.473   1.570
 2644SOL    HW2 8829   3.037   1.524   1.426
 2645SOL     OW 8830   2.183   0.943   0.242
 2645SOL    HW1 8831   2.265   0.982   0.200
 2645SOL    HW2 8832   2.156   0.861   0.193
 2646SOL     OW 8833   3.320   0.735   0.728
 2646SOL    HW1 8834   3.315   0.670   0.803
 2646SOL    HW2 8835   3.400   0.794   0.741
 2647SOL     OW 8836   2.323   1.266   1.727
 2647SOL    HW1 8837   2.273   1.267   1.641
 2647SOL    HW2 8838   2.260   1.248   1.803
 2648SOL     OW 8839   2.973   1.776   0.237
 2648SOL    HW1 8840   2.913   1.714   0.287
 2648SOL    HW2 8841   3.004   1.732   0.152
 2649SOL     OW 8842   2.064   0.285   1.498
 2649SOL    HW1 8843   1.984   0.345   1.485
 2649SOL    HW2 8844   2.054   0.236   1.584
 2650SOL     OW 8845   3.494   1.377   0.081
 2650SOL    HW1 8846   3.462   1.471   0.071
 2650SOL    HW2 8847   3.418   1.314   0.069
 2651SOL     OW 8848   2.326   1.743   0.323
 2651SOL    HW1 8849   2.359   1.782   0.409
 2651SOL    HW2 8850   2.402   1.736   0.258
 2652SOL     OW 8851   3.262   0.107   0.426
 2652SOL    HW1 8852   3.238   0.070   0.336
 2652SOL    HW2 8853   3.361   0.123   0.430
 2653SOL     OW 8854   2.111   1.785   1.241
 2653SOL    HW1 8855   2.168   1.720   1.291
 2653SOL    HW2 8856   2.095   1.752   1.148
 2654SOL     OW 8857   2.802   1.698   0.904
 2654SOL    HW1 8858   2.882   1.641   0.925
 2654SOL    HW2 8859   2.753   1.658   0.827
 2655SOL     OW 8860   2.244   0.700   0.480
 2655SOL    HW1 8861   2.289   0.610   0.477
 2655SOL    HW2 8862   2.150   0.689   0.513
 2656SOL     OW 8863   3.409   0.222   1.729
 2656SOL    HW1 8864   3.404   0.259   1.821
 2656SOL    HW2 8865   3.337   0.153   1.717
 2657SOL     OW 8866   2.476   0.122   0.117
 2657SOL    HW1 8867   2.574   0.100   0.124
 2657SOL    HW2 8868   2.445   0.105   0.024
 2658SOL     OW 8869   2.643   0.264   1.749
 2658SOL    HW1 8870   2.710   0.203   1.792
 2658SOL    HW2 8871   2.570   0.283   1.814
 2659SOL     OW 8872   2.750   1.514   1.195
 2659SOL    HW1 8873   2.727   1.489   1.101
 2659SOL    HW2 8874   2.811   1.445   1.234
 2660SOL     OW 8875   3.213   0.590   1.433
 2660SOL    HW1 8876   3.241   0.547   1.518
 2660SOL    HW2 8877   3.238   0.686   1.434
 2661SOL     OW 8878   2.665   1.402   0.924
 2661SOL    HW1 8879   2.755   1.416   0.882
 2661SOL    HW2 8880   2.594   1.404   0.853
 2662SOL     OW 8881   2.784   0.503   0.899
 2662SOL    HW1 8882   2.759   0.494   0.803
 2662SOL    HW2 8883   2.832   0.421   0.930
 2663SOL     OW 8884   2.401   0.064   0.512
 2663SOL    HW1 8885   2.320   0.065   0.570
 2663SOL    HW2 8886   2.404   0.147   0.457
 2664SOL     OW 8887   3.296   1.188   0.041
 2664SOL    HW1 8888   3.328   1.112   0.098
 2664SOL    HW2 8889   3.204   1.215   0.071
 2665SOL     OW 8890   2.159   0.035   0.171
 2665SOL    HW1 8891   2.208   0.119   0.150
 2665SOL    HW2 8892   2.221  -0.030   0.216
 2666SOL     OW 8893   2.797   0.236   0.480
 2666SOL    HW1 8894   2.749   0.277   0.402
 2666SOL    HW2 8895   2.896   0.234   0.461
 2667SOL     OW 8896   2.938   0.683   1.464
 2667SOL    HW1 8897   2.858   0.622   1.467
 2667SOL    HW2 8898   3.019   0.630   1.440
 2668SOL     OW 8899   3.089   1.570   0.793
 2668SOL    HW1 8900   3.110   1.644   0.728
 2668SOL    HW2 8901   3.157   1.570   0.866
 2669SOL     OW 8902   2.321   1.152   0.741
 2669SOL    HW1 8903   2.250   1.125   0.806
 2669SOL    HW2 8904   2.295   1.124   0.648
 2670SOL     OW 8905   3.133   1.797   0.591
 2670SOL    HW1 8906   3.177   1.861   0.527
 2670SOL    HW2 8907   3.083   1.849   0.661
 2671SOL     OW 8908   2.894   0.549   0.016
 2671SOL    HW1 8909   2.853   0.631  -0.023
 2671SOL    HW2 8910   2.958   0.575   0.089
 2672SOL     OW 8911   1.940   0.556   1.386
 2672SOL    HW1 8912   2.032   0.555   1.345
 2672SOL    HW2 8913   1.934   0.630   1.453
 2673SOL     OW 8914   2.423   0.222   1.147
 2673SOL    HW1 8915   2.461   0.138   1.184
 2673SOL    HW2 8916   2.335   0.241   1.191
 2674SOL     OW 8917   2.728   0.454   0.642
 2674SOL    HW1 8918   2.696   0.526   0.580
 2674SOL    HW2 8919   2.752   0.373   0.589
 2675SOL     OW 8920   2.879   0.039   0.753
 2675SOL    HW1 8921   2.807   0.044   0.684
 2675SOL    HW2 8922   2.855  -0.030   0.822
 2676SOL     OW 8923   3.291   1.173   0.867
 2676SOL    HW1 8924   3.236   1.089   0.860
 2676SOL    HW2 8925   3.317   1.202   0.775
 2677SOL     OW 8926   3.328   0.590   0.992
 2677SOL    HW1 8927   3.298   0.495   0.999
 2677SOL    HW2 8928   3.401   0.606   1.058
 2678SOL     OW 8929   3.719   0.833   0.377
 2678SOL    HW1 8930   3.761   0.769   0.441
 2678SOL    HW2 8931   3.681   0.782   0.299
 2679SOL     OW 8932   2.350   1.385   0.174
 2679SOL    HW1 8933   2.263   1.370   0.221
 2679SOL    HW2 8934   2.333   1.411   0.079
 2680SOL     OW 8935   3.526   1.280   0.657
 2680SOL    HW1 8936   3.625   1.288   0.671
 2680SOL    HW2 8937   3.481   1.364   0.688
 2681SOL     OW 8938   3.252   0.575   0.078
 2681SOL    HW1 8939   3.198   0.554   0.159
 2681SOL    HW2 8940   3.343   0.534   0.087
 2682SOL     OW 8941   2.389   0.256   0.328
 2682SOL    HW1 8942   2.416   0.197   0.253
 2682SOL    HW2 8943   2.389   0.351   0.297
 2683SOL     OW 8944   3.616   1.223   1.588
 2683SOL    HW1 8945   3.707   1.184   1.575
 2683SOL    HW2 8946   3.624   1.319   1.612
 2684SOL     OW 8947   2.926   1.347   1.340
 2684SOL    HW1 8948   2.846   1.324   1.395
 2684SOL    HW2 8949   3.009   1.321   1.389
 2685SOL     OW 8950   3.454   1.629   1.625
 2685SOL    HW1 8951   3.481   1.663   1.535
 2685SOL    HW2 8952   3.533   1.591   1.671
 2686SOL     OW 8953   2.973   1.195   1.100
 2686SOL    HW1 8954   2.933   1.239   1.181
 2686SOL    HW2 8955   2.932   1.232   1.017
 2687SOL     OW 8956   3.500   1.099   1.079
 2687SOL    HW1 8957   3.505   1.180   1.138
 2687SOL    HW2 8958   3.414   1.101   1.028
 2688SOL     OW 8959   2.777   0.089   1.402
 2688SOL    HW1 8960   2.802   0.069   1.307
 2688SOL    HW2 8961   2.849   0.145   1.444
 2689SOL     OW 8962   2.842   1.116   1.719
 2689SOL    HW1 8963   2.743   1.122   1.729
 2689SOL    HW2 8964   2.865   1.036   1.663
 2690SOL     OW 8965   2.567   1.050   0.368
 2690SOL    HW1 8966   2.553   1.057   0.467
 2690SOL    HW2 8967   2.651   0.999   0.350
 2691SOL     OW 8968   2.272   0.813   1.251
 2691SOL    HW1 8969   2.358   0.825   1.301
 2691SOL    HW2 8970   2.230   0.726   1.278
 2692SOL     OW 8971   3.136   0.386   1.262
 2692SOL    HW1 8972   3.157   0.460   1.326
 2692SOL    HW2 8973   3.047   0.403   1.219
 2693SOL     OW 8974   1.926   1.564   1.331
 2693SOL    HW1 8975   1.880   1.646   1.297
 2693SOL    HW2 8976   2.024   1.583   1.340
 2694SOL     OW 8977   2.229   1.100   0.501
 2694SOL    HW1 8978   2.222   1.183   0.445
 2694SOL    HW2 8979   2.233   1.020   0.441
 2695SOL     OW 8980   2.428   0.537   0.865
 2695SOL    HW1 8981   2.440   0.603   0.791
 2695SOL    HW2 8982   2.474   0.571   0.948
 2696SOL     OW 8983   3.114   1.348   0.388
 2696SOL    HW1 8984   3.164   1.425   0.428
 2696SOL    HW2 8985   3.019   1.350   0.420
 2697SOL     OW 8986   3.134   1.445   1.142
 2697SOL    HW1 8987   3.181   1.458   1.229
 2697SOL    HW2 8988   3.068   1.371   1.151
 2698SOL     OW 8989   3.444   0.639   0.472
 2698SOL    HW1 8990   3.413   0.700   0.545
 2698SOL    HW2 8991   3.494   0.691   0.403
 2699SOL     OW 8992   2.216   1.510   1.329
 2699SOL    HW1 8993   2.195   1.466   1.242
 2699SOL    HW2 8994   2.313   1.536   1.332
 2700SOL     OW 8995   2.264   0.751   1.598
 2700SOL    HW1 8996   2.332   0.806   1.551
 2700SOL    HW2 8997   2.304   0.663   1.625
 2701SOL     OW 8998   3.449   0.779   1.670
 2701SOL    HW1 8999   3.357   0.817   1.665
 2701SOL    HW2 9000   3.509   0.826   1.605
 2702SOL     OW 9001   2.875   0.105   1.770
 2702SOL    HW1 9002   2.881   0.190   1.718
 2702SOL    HW2 9003   2.907   0.029   1.713
 2703SOL     OW 9004   2.366   0.050   1.740
 2703SOL    HW1 9005   2.324  -0.007   1.670
 2703SOL    HW2 9006   2.300   0.119   1.772
 2704SOL     OW 9007   2.435   0.870   1.029
 2704SOL    HW1 9008   2.479   0.959   1.020
 2704SOL    HW2 9009   2.372   0.870   1.106
 2705SOL     OW 9010   3.222   0.862   1.045
 2705SOL    HW1 9011   3.147   0.862   0.979
 2705SOL    HW2 9012   3.259   0.770   1.054
 2706SOL     OW 9013   3.071   0.525   0.275
 2706SOL    HW1 9014   3.084   0.441   0.329
 2706SOL    HW2 9015   3.042   0.599   0.335
 2707SOL     OW 9016   2.169   0.213   1.231
 2707SOL    HW1 9017   2.146   0.250   1.321
 2707SOL    HW2 9018   2.139   0.118   1.225
 2708SOL     OW 9019   1.899   1.310   1.282
 2708SOL    HW1 9020   1.952   1.261   1.350
 2708SOL    HW2 9021   1.921   1.408   1.287
 2709SOL     OW 9022   2.594   0.634   1.064
 2709SOL    HW1 9023   2.653   0.608   0.988
 2709SOL    HW2 9024   2.566   0.730   1.053
 2710SOL     OW 9025   3.590   0.935   1.854
 2710SOL    HW1 9026   3.544   0.928   1.765
 2710SOL    HW2 9027   3.528   0.979   1.920
 2711SOL     OW 9028   2.169   0.063   0.618
 2711SOL    HW1 9029   2.158   0.157   0.651
 2711SOL    HW2 9030   2.164   0.000   0.695
 2712SOL     OW 9031   3.484   0.367   0.374
 2712SOL    HW1 9032   3.486   0.291   0.438
 2712SOL    HW2 9033   3.436   0.444   0.414
 2713SOL     OW 9034   2.885   0.766   0.966
 2713SOL    HW1 9035   2.900   0.787   1.062
 2713SOL    HW2 9036   2.855   0.671   0.957
 2714SOL     OW 9037   2.842   1.573   1.700
 2714SOL    HW1 9038   2.822   1.617   1.612
 2714SOL    HW2 9039   2.881   1.482   1.684
 2715SOL     OW 9040   3.721   1.518   1.605
 2715SOL    HW1 9041   3.735   1.545   1.510
 2715SOL    HW2 9042   3.804   1.540   1.658
 2716SOL     OW 9043   2.212   0.898   1.804
 2716SOL    HW1 9044   2.288   0.942   1.852
 2716SOL    HW2 9045   2.247   0.851   1.722
 2717SOL     OW 9046   3.402   0.274   0.125
 2717SOL    HW1 9047   3.341   0.199   0.148
 2717SOL    HW2 9048   3.424   0.326   0.208
 2718SOL     OW 9049   3.165   0.838   0.042
 2718SOL    HW1 9050   3.199   0.745   0.057
 2718SOL    HW2 9051   3.183   0.865  -0.053
 2719SOL     OW 9052   2.930   1.333   0.849
 2719SOL    HW1 9053   2.937   1.249   0.794
 2719SOL    HW2 9054   2.992   1.402   0.813
 2720SOL     OW 9055   2.181   0.810   0.949
 2720SOL    HW1 9056   2.274   0.846   0.954
 2720SOL    HW2 9057   2.175   0.725   1.001
 2721SOL     OW 9058   2.201   0.509   1.006
 2721SOL    HW1 9059   2.149   0.426   0.989
 2721SOL    HW2 9060   2.278   0.514   0.942
 2722SOL     OW 9061   3.000   0.380   1.678
 2722SOL    HW1 9062   2.955   0.443   1.742
 2722SOL    HW2 9063   3.093   0.411   1.661
 2723SOL     OW 9064   3.022   0.207   1.477
 2723SOL    HW1 9065   3.022   0.271   1.554
 2723SOL    HW2 9066   3.050   0.255   1.394
 2724SOL     OW 9067   1.870   1.326   0.200
 2724SOL    HW1 9068   1.777   1.347   0.169
 2724SOL    HW2 9069   1.880   1.227   0.213
 2725SOL     OW 9070   1.950   1.801   0.927
 2725SOL    HW1 9071   1.908   1.715   0.900
 2725SOL    HW2 9072   2.044   1.804   0.893
 2726SOL     OW 9073   2.366   1.568   0.910
 2726SOL    HW1 9074   2.432   1.642   0.919
 2726SOL    HW2 9075   2.410   1.489   0.868
 2727SOL     OW 9076   2.864   0.796   1.238
 2727SOL    HW1 9077   2.905   0.764   1.324
 2727SOL    HW2 9078   2.768   0.769   1.235
 2728SOL     OW 9079   1.902   0.544   1.114
 2728SOL    HW1 9080   1.987   0.511   1.073
 2728SOL    HW2 9081   1.915   0.559   1.212
 2729SOL     OW 9082   2.051   0.520   1.722
 2729SOL    HW1 9083   2.110   0.480   1.652
 2729SOL    HW2 9084   1.993   0.591   1.681
 2730SOL     OW 9085   3.231   0.950   1.660
 2730SOL    HW1 9086   3.270   1.039   1.680
 2730SOL    HW2 9087   3.241   0.930   1.563
 2731SOL     OW 9088   2.677   0.572   0.325
 2731SOL    HW1 9089   2.684   0.483   0.279
 2731SOL    HW2 9090   2.583   0.606   0.317
 2732SOL     OW 9091   3.519   0.604   1.206
 2732SOL    HW1 9092   3.481   0.535   1.268
 2732SOL    HW2 9093   3.601   0.568   1.162
 2733SOL     OW 9094   2.114   1.564   1.744
 2733SOL    HW1 9095   2.084   1.621   1.820
 2733SOL    HW2 9096   2.107   1.467   1.770
 2734SOL     OW 9097   2.533   0.464   1.269
 2734SOL    HW1 9098   2.499   0.375   1.239
 2734SOL    HW2 9099   2.559   0.518   1.189
 2735SOL     OW 9100   2.792   1.678   1.465
 2735SOL    HW1 9101   2.768   1.660   1.370
 2735SOL    HW2 9102   2.822   1.772   1.475
 2736SOL     OW 9103   2.335   0.500   0.191
 2736SOL    HW1 9104   2.396   0.580   0.195
 2736SOL    HW2 9105   2.240   0.531   0.198
 2737SOL     OW 9106   2.021   1.137   1.466
 2737SOL    HW1 9107   2.043   1.076   1.542
 2737SOL    HW2 9108   2.031   1.088   1.380
 2738SOL     OW 9109   3.209   1.059   1.234
 2738SOL    HW1 9110   3.233   0.996   1.160
 2738SOL    HW2 9111   3.119   1.099   1.216
 2739SOL     OW 9112   3.164   0.855   0.309
 2739SOL    HW1 9113   3.078   0.824   0.351
 2739SOL    HW2 9114   3.160   0.841   0.210
 2740SOL     OW 9115   3.621   1.747   1.154
 2740SOL    HW1 9116   3.682   1.777   1.081
 2740SOL    HW2 9117   3.583   1.658   1.132
 2741SOL     OW 9118   3.114   1.731   1.128
 2741SOL    HW1 9119   3.198   1.736   1.074
 2741SOL    HW2 9120   3.091   1.635   1.146
 2742SOL     OW 9121   1.945   1.258   1.022
 2742SOL    HW1 9122   1.940   1.257   1.122
 2742SOL    HW2 9123   1.862   1.217   0.984
 2743SOL     OW 9124   2.550   1.662   1.716
 2743SOL    HW1 9125   2.494   1.743   1.725
 2743SOL    HW2 9126   2.602   1.666   1.630
 2744SOL     OW 9127   2.765   0.086   0.133
 2744SOL    HW1 9128   2.816   0.087   0.047
 2744SOL    HW2 9129   2.821   0.044   0.204
 2745SOL     OW 9130   3.588   0.135   0.523
 2745SOL    HW1 9131   3.661   0.118   0.456
 2745SOL    HW2 9132   3.557   0.048   0.561
 2746SOL     OW 9133   3.250   1.573   0.477
 2746SOL    HW1 9134   3.317   1.585   0.403
 2746SOL    HW2 9135   3.210   1.662   0.500
 2747SOL     OW 9136   1.992   1.794   1.851
 2747SOL    HW1 9137   1.951   1.720   1.904
 2747SOL    HW2 9138   2.056   1.845   1.909
 2748SOL     OW 9139   3.142   0.927   0.672
 2748SOL    HW1 9140   3.202   0.846   0.674
 2748SOL    HW2 9141   3.182   0.996   0.612
 2749SOL     OW 9142   2.692   1.273   1.422
 2749SOL    HW1 9143   2.687   1.306   1.517
 2749SOL    HW2 9144   2.606   1.292   1.376
 2750SOL     OW 9145   2.534   1.616   0.154
 2750SOL    HW1 9146   2.543   1.626   0.055
 2750SOL    HW2 9147   2.494   1.527   0.175
 2751SOL     OW 9148   3.512   1.720   1.394
 2751SOL    HW1 9149   3.565   1.730   1.310
 2751SOL    HW2 9150   3.485   1.810   1.428
 2752SOL     OW 9151   3.703   0.175   0.963
 2752SOL    HW1 9152   3.742   0.090   0.927
 2752SOL    HW2 9153   3.605   0.177   0.944
 2753SOL     OW 9154   2.125   0.326   0.720
 2753SOL    HW1 9155   2.046   0.377   0.686
 2753SOL    HW2 9156   2.116   0.311   0.818
 2754SOL     OW 9157   3.056   1.612   0.031
 2754SOL    HW1 9158   3.062   1.519   0.068
 2754SOL    HW2 9159   2.997   1.612  -0.049
 2755SOL     OW 9160   2.684   1.002   1.372
 2755SOL    HW1 9161   2.724   1.001   1.280
 2755SOL    HW2 9162   2.694   1.094   1.412
 2756SOL     OW 9163   2.778   0.910   0.291
 2756SOL    HW1 9164   2.841   0.948   0.223
 2756SOL    HW2 9165   2.818   0.827   0.330
 2757SOL     OW 9166   3.366   1.607   0.044
 2757SOL    HW1 9167   3.274   1.644   0.051
 2757SOL    HW2 9168   3.404   1.627  -0.046
 2758SOL     OW 9169   2.234   1.288   1.490
 2758SOL    HW1 9170   2.221   1.381   1.456
 2758SOL    HW2 9171   2.150   1.236   1.477
 2759SOL     OW 9172   3.476   1.292   1.289
 2759SOL    HW1 9173   3.536   1.295   1.369
 2759SOL    HW2 9174   3.401   1.356   1.302
 2760SOL     OW 9175   2.901   1.098   0.696
 2760SOL    HW1 9176   2.831   1.051   0.750
 2760SOL    HW2 9177   2.960   1.030   0.653
 2761SOL     OW 9178   2.876   0.236   0.971
 2761SOL    HW1 9179   2.868   0.200   0.878
 2761SOL    HW2 9180   2.874   0.160   1.036
 2762SOL     OW 9181   2.452   1.487   0.491
 2762SOL    HW1 9182   2.494   1.429   0.421
 2762SOL    HW2 9183   2.408   1.566   0.447
 2763SOL     OW 9184   3.571   0.385   1.381
 2763SOL    HW1 9185   3.644   0.454   1.385
 2763SOL    HW2 9186   3.599   0.310   1.322
 2764SOL     OW 9187   2.117   1.348   0.290
 2764SOL    HW1 9188   2.021   1.349   0.263
 2764SOL    HW2 9189   2.129   1.401   0.374
 2765SOL     OW 9190   1.967   1.013   1.726
 2765SOL    HW1 9191   1.890   0.980   1.780
 2765SOL    HW2 9192   2.052   0.983   1.768
 2766SOL     OW 9193   2.534   0.203   1.489
 2766SOL    HW1 9194   2.624   0.187   1.449
 2766SOL    HW2 9195   2.542   0.208   1.588
 2767SOL     OW 9196   1.937   0.345   0.033
 2767SOL    HW1 9197   1.845   0.317   0.004
 2767SOL    HW2 9198   1.968   0.422  -0.023
 2768SOL     OW 9199   3.302   0.856   1.398
 2768SOL    HW1 9200   3.245   0.908   1.335
 2768SOL    HW2 9201   3.398   0.868   1.374
 2769SOL     OW 9202   1.934   0.166   0.318
 2769SOL    HW1 9203   1.917   0.249   0.264
 2769SOL    HW2 9204   2.024   0.129   0.296
 2770SOL     OW 9205   3.045   1.335   0.119
 2770SOL    HW1 9206   2.946   1.324   0.121
 2770SOL    HW2 9207   3.079   1.350   0.212
 2771SOL     OW 9208   2.475   0.842   1.431
 2771SOL    HW1 9209   2.531   0.923   1.414
 2771SOL    HW2 9210   2.534   0.762   1.434
 2772SOL     OW 9211   3.355   1.767   0.959
 2772SOL    HW1 9212   3.388   1.831   0.890
 2772SOL    HW2 9213   3.421   1.761   1.034
 2773SOL     OW 9214   2.578   0.565   1.708
 2773SOL    HW1 9215   2.597   0.630   1.782
 2773SOL    HW2 9216   2.638   0.485   1.717
 2774SOL     OW 9217   3.312   1.220   1.633
 2774SOL    HW1 9218   3.303   1.210   1.732
 2774SOL    HW2 9219   3.408   1.213   1.607
 2775SOL     OW 9220   2.252   1.741   1.560
 2775SOL    HW1 9221   2.161   1.782   1.558
 2775SOL    HW2 9222   2.245   1.647   1.592
 2776SOL     OW 9223   3.536   0.883   1.254
 2776SOL    HW1 9224   3.509   0.794   1.217
 2776SOL    HW2 9225   3.537   0.951   1.181
 2777SOL     OW 9226   3.087   0.325   0.449
 2777SOL    HW1 9227   3.152   0.251   0.438
 2777SOL    HW2 9228   3.107   0.375   0.533
 2778SOL     OW 9229   2.456   0.745   0.652
 2778SOL    HW1 9230   2.506   0.830   0.633
 2778SOL    HW2 9231   2.368   0.747   0.604
 2779SOL     OW 9232   3.639   0.342   1.642
 2779SOL    HW1 9233   3.622   0.373   1.548
 2779SOL    HW2 9234   3.555   0.305   1.680
 2780SOL     OW 9235   3.592   0.934   1.517
 2780SOL    HW1 9236   3.630   1.025   1.532
 2780SOL    HW2 9237   3.584   0.917   1.418
 2781SOL     OW 9238   2.721   1.374   0.016
 2781SOL    HW1 9239   2.675   1.389   0.104
 2781SOL    HW2 9240   2.765   1.459  -0.014
 2782SOL     OW 9241   2.523   1.790   0.953
 2782SOL    HW1 9242   2.477   1.878   0.940
 2782SOL    HW2 9243   2.622   1.802   0.946
 2783SOL     OW 9244   2.721   0.956   0.861
 2783SOL    HW1 9245   2.775   0.887   0.909
 2783SOL    HW2 9246   2.689   1.025   0.927
 2784SOL     OW 9247   2.945   0.984   0.087
 2784SOL    HW1 9248   2.922   1.037   0.005
 2784SOL    HW2 9249   3.026   0.928   0.068
 2785SOL     OW 9250   3.723   1.569   0.851
 2785SOL    HW1 9251   3.652   1.557   0.781
 2785SOL    HW2 9252   3.724   1.490   0.911
 2786SOL     OW 9253   2.083   1.314   1.844
 2786SOL    HW1 9254   2.018   1.241   1.823
 2786SOL    HW2 9255   2.087   1.328   1.942
 2787SOL     OW 9256   1.941   1.240   0.653
 2787SOL    HW1 9257   1.940   1.193   0.741
 2787SOL    HW2 9258   2.023   1.212   0.602
 2788SOL     OW 9259   2.534   1.391   1.624
 2788SOL    HW1 9260   2.456   1.341   1.662
 2788SOL    HW2 9261   2.531   1.486   1.655
 2789SOL     OW 9262   3.686   0.192   1.227
 2789SOL    HW1 9263   3.682   0.102   1.271
 2789SOL    HW2 9264   3.689   0.181   1.128
 2790SOL     OW 9265   2.290   0.424   0.520
 2790SOL    HW1 9266   2.320   0.352   0.458
 2790SOL    HW2 9267   2.251   0.384   0.603
 2791SOL     OW 9268   3.567   1.487   1.104
 2791SOL    HW1 9269   3.474   1.462   1.077
 2791SOL    HW2 9270   3.593   1.437   1.186
 2792SOL     OW 9271   2.179   0.547   1.280
 2792SOL    HW1 9272   2.217   0.488   1.352
 2792SOL    HW2 9273   2.219   0.521   1.192
 2793SOL     OW 9274   2.674   1.586   0.687
 2793SOL    HW1 9275   2.706   1.596   0.593
 2793SOL    HW2 9276   2.595   1.524   0.689
 2794SOL     OW 9277   3.286   0.214   1.112
 2794SOL    HW1 9278   3.338   0.149   1.167
 2794SOL    HW2 9279   3.237   0.277   1.173
 2795SOL     OW 9280   2.863   0.034   1.154
 2795SOL    HW1 9281   2.800  -0.038   1.123
 2795SOL    HW2 9282   2.956  -0.002   1.154
 2796SOL     OW 9283   2.632   1.330   0.301
 2796SOL    HW1 9284   2.586   1.243   0.318
 2796SOL    HW2 9285   2.723   1.327   0.342
 2797SOL     OW 9286   2.480   1.567   1.284
 2797SOL    HW1 9287   2.475   1.649   1.341
 2797SOL    HW2 9288   2.569   1.564   1.239
 2798SOL     OW 9289   3.214   0.052   0.168
 2798SOL    HW1 9290   3.249   0.011   0.084
 2798SOL    HW2 9291   3.124   0.014   0.188
 2799SOL     OW 9292   3.162   0.453   0.691
 2799SOL    HW1 9293   3.103   0.533   0.695
 2799SOL    HW2 9294   3.177   0.418   0.784
 2800SOL     OW 9295   3.455   0.221   0.882
 2800SOL    HW1 9296   3.371   0.220   0.936
 2800SOL    HW2 9297   3.457   0.304   0.826
 2801SOL     OW 9298   1.901   1.077   0.300
 2801SOL    HW1 9299   2.000   1.066   0.291
 2801SOL    HW2 9300   1.861   0.991   0.332
 2802SOL     OW 9301   2.737   1.646   0.337
 2802SOL    HW1 9302   2.660   1.611   0.283
 2802SOL    HW2 9303   2.705   1.717   0.399
 2803SOL     OW 9304   2.092   0.628   1.975
 2803SOL    HW1 9305   1.999   0.626   2.012
 2803SOL    HW2 9306   2.093   0.589   1.883
 2804SOL     OW 9307   2.087   0.275   2.858
 2804SOL    HW1 9308   2.122   0.258   2.950
 2804SOL    HW2 9309   1.999   0.230   2.846
 2805SOL     OW 9310   1.881   0.368   2.509
 2805SOL    HW1 9311   1.799   0.411   2.548
 2805SOL    HW2 9312   1.853   0.295   2.446
 2806SOL     OW 9313   2.431   1.275   3.027
 2806SOL    HW1 9314   2.338   1.268   2.990
 2806SOL    HW2 9315   2.442   1.364   3.071
 2807SOL     OW 9316   3.417   1.511   2.565
 2807SOL    HW1 9317   3.360   1.495   2.646
 2807SOL    HW2 9318   3.358   1.521   2.485
 2808SOL     OW 9319   2.997   0.703   2.579
 2808SOL    HW1 9320   3.054   0.781   2.554
 2808SOL    HW2 9321   2.937   0.729   2.655
 2809SOL     OW 9322   3.617   0.607   2.093
 2809SOL    HW1 9323   3.605   0.594   1.994
 2809SOL    HW2 9324   3.587   0.526   2.142
 2810SOL     OW 9325   2.630   1.144   2.885
 2810SOL    HW1 9326   2.552   1.161   2.945
 2810SOL    HW2 9327   2.664   1.231   2.849
 2811SOL     OW 9328   2.712   0.798   3.685
 2811SOL    HW1 9329   2.708   0.874   3.750
 2811SOL    HW2 9330   2.734   0.834   3.594
 2812SOL     OW 9331   2.547   1.012   2.527
 2812SOL    HW1 9332   2.616   0.996   2.597
 2812SOL    HW2 9333   2.474   1.069   2.565
 2813SOL     OW 9334   2.548   1.161   3.665
 2813SOL    HW1 9335   2.608   1.240   3.679
 2813SOL    HW2 9336   2.462   1.192   3.624
 2814SOL     OW 9337   2.197   1.435   2.923
 2814SOL    HW1 9338   2.119   1.404   2.870
 2814SOL    HW2 9339   2.255   1.493   2.866
 2815SOL     OW 9340   3.322   1.505   3.201
 2815SOL    HW1 9341   3.346   1.599   3.227
 2815SOL    HW2 9342   3.306   1.451   3.283
 2816SOL     OW 9343   2.300   0.392   3.361
 2816SOL    HW1 9344   2.382   0.336   3.370
 2816SOL    HW2 9345   2.219   0.334   3.365
 2817SOL     OW 9346   3.465   0.447   2.599
 2817SOL    HW1 9347   3.391   0.493   2.549
 2817SOL    HW2 9348   3.516   0.515   2.652
 2818SOL     OW 9349   2.093   1.713   2.345
 2818SOL    HW1 9350   2.127   1.790   2.399
 2818SOL    HW2 9351   2.137   1.713   2.255
 2819SOL     OW 9352   2.989   1.341   3.552
 2819SOL    HW1 9353   3.036   1.341   3.640
 2819SOL    HW2 9354   2.941   1.254   3.541
 2820SOL     OW 9355   2.092   1.434   2.400
 2820SOL    HW1 9356   2.066   1.530   2.400
 2820SOL    HW2 9357   2.021   1.380   2.445
 2821SOL     OW 9358   2.102   1.091   2.748
 2821SOL    HW1 9359   2.116   1.007   2.800
 2821SOL    HW2 9360   2.047   1.155   2.803
 2822SOL     OW 9361   2.468   0.964   1.985
 2822SOL    HW1 9362   2.475   1.048   1.931
 2822SOL    HW2 9363   2.514   0.977   2.073
 2823SOL     OW 9364   3.456   0.114   3.342
 2823SOL    HW1 9365   3.438   0.181   3.270
 2823SOL    HW2 9366   3.453   0.160   3.431
 2824SOL     OW 9367   1.984   0.643   2.425
 2824SOL    HW1 9368   1.939   0.555   2.442
 2824SOL    HW2 9369   1.983   0.697   2.509
 2825SOL     OW 9370   3.704   1.767   2.221
 2825SOL    HW1 9371   3.758   1.738   2.301
 2825SOL    HW2 9372   3.734   1.857   2.192
 2826SOL     OW 9373   1.889   1.596   1.979
 2826SOL    HW1 9374   1.870   1.500   2.000
 2826SOL    HW2 9375   1.856   1.654   2.054
 2827SOL     OW 9376   3.551   0.922   2.474
 2827SOL    HW1 9377   3.646   0.893   2.482
 2827SOL    HW2 9378   3.543   0.987   2.399
 2828SOL     OW 9379   3.503   1.108   2.294
 2828SOL    HW1 9380   3.589   1.110   2.242
 2828SOL    HW2 9381   3.517   1.155   2.382
 2829SOL     OW 9382   1.975   0.737   3.459
 2829SOL    HW1 9383   2.063   0.724   3.504
 2829SOL    HW2 9384   1.962   0.834   3.437
 2830SOL     OW 9385   2.475   1.365   2.588
 2830SOL    HW1 9386   2.426   1.278   2.597
 2830SOL    HW2 9387   2.452   1.408   2.501
 2831SOL     OW 9388   3.155   1.228   3.285
 2831SOL    HW1 9389   3.192   1.155   3.227
 2831SOL    HW2 9390   3.207   1.233   3.370
 2832SOL     OW 9391   2.671   0.004   2.364
 2832SOL    HW1 9392   2.711   0.095   2.355
 2832SOL    HW2 9393   2.571   0.012   2.370
 2833SOL     OW 9394   2.059   0.976   3.126
 2833SOL    HW1 9395   2.148   0.931   3.112
 2833SOL    HW2 9396   1.986   0.911   3.107
 2834SOL     OW 9397   3.387   0.999   2.052
 2834SOL    HW1 9398   3.324   0.923   2.065
 2834SOL    HW2 9399   3.435   1.017   2.138
 2835SOL     OW 9400   3.049   1.792   3.478
 2835SOL    HW1 9401   3.073   1.852   3.402
 2835SOL    HW2 9402   3.056   1.697   3.448
 2836SOL     OW 9403   2.179   0.251   3.663
 2836SOL    HW1 9404   2.250   0.322   3.669
 2836SOL    HW2 9405   2.091   0.290   3.691
 2837SOL     OW 9406   3.328   1.417   2.815
 2837SOL    HW1 9407   3.269   1.423   2.895
 2837SOL    HW2 9408   3.313   1.329   2.769
 2838SOL     OW 9409   3.529   1.714   2.434
 2838SOL    HW1 9410   3.488   1.691   2.346
 2838SOL    HW2 9411   3.511   1.640   2.499
 2839SOL     OW 9412   2.460   0.729   2.132
 2839SOL    HW1 9413   2.484   0.798   2.064
 2839SOL    HW2 9414   2.382   0.762   2.186
 2840SOL     OW 9415   3.143   0.345   2.806
 2840SOL    HW1 9416   3.057   0.295   2.793
 2840SOL    HW2 9417   3.205   0.291   2.862
 2841SOL     OW 9418   3.438   1.662   2.169
 2841SOL    HW1 9419   3.527   1.708   2.172
 2841SOL    HW2 9420   3.417   1.638   2.074
 2842SOL     OW 9421   2.669   0.605   3.327
 2842SOL    HW1 9422   2.622   0.602   3.416
 2842SOL    HW2 9423   2.618   0.550   3.261
 2843SOL     OW 9424   3.256   0.469   3.536
 2843SOL    HW1 9425   3.236   0.512   3.624
 2843SOL    HW2 9426   3.334   0.407   3.545
 2844SOL     OW 9427   2.835   0.890   3.434
 2844SOL    HW1 9428   2.881   0.806   3.405
 2844SOL    HW2 9429   2.779   0.924   3.359
 2845SOL     OW 9430   2.853   0.410   3.104
 2845SOL    HW1 9431   2.776   0.444   3.158
 2845SOL    HW2 9432   2.819   0.359   3.025
 2846SOL     OW 9433   2.903   0.701   2.291
 2846SOL    HW1 9434   2.929   0.697   2.387
 2846SOL    HW2 9435   2.818   0.650   2.277
 2847SOL     OW 9436   1.938   0.811   2.651
 2847SOL    HW1 9437   2.037   0.799   2.660
 2847SOL    HW2 9438   1.914   0.906   2.672
 2848SOL     OW 9439   1.992   1.821   3.433
 2848SOL    HW1 9440   1.982   1.806   3.532
 2848SOL    HW2 9441   1.906   1.857   3.397
 2849SOL     OW 9442   2.727   0.348   2.057
 2849SOL    HW1 9443   2.786   0.411   2.008
 2849SOL    HW2 9444   2.746   0.254   2.028
 2850SOL     OW 9445   3.581   0.585   3.693
 2850SOL    HW1 9446   3.555   0.674   3.657
 2850SOL    HW2 9447   3.579   0.517   3.620
 2851SOL     OW 9448   3.224   1.144   2.407
 2851SOL    HW1 9449   3.307   1.115   2.359
 2851SOL    HW2 9450   3.175   1.211   2.351
 2852SOL     OW 9451   2.412   0.196   2.747
 2852SOL    HW1 9452   2.407   0.191   2.847
 2852SOL    HW2 9453   2.414   0.292   2.718
 2853SOL     OW 9454   2.870   1.456   2.339
 2853SOL    HW1 9455   2.824   1.528   2.287
 2853SOL    HW2 9456   2.866   1.476   2.437
 2854SOL     OW 9457   2.213   1.801   2.715
 2854SOL    HW1 9458   2.263   1.715   2.721
 2854SOL    HW2 9459   2.278   1.878   2.712
 2855SOL     OW 9460   3.657   1.066   2.735
 2855SOL    HW1 9461   3.595   1.051   2.659
 2855SOL    HW2 9462   3.605   1.077   2.820
 2856SOL     OW 9463   3.089   1.550   3.368
 2856SOL    HW1 9464   3.095   1.473   3.432
 2856SOL    HW2 9465   3.037   1.524   3.288
 2857SOL     OW 9466   2.183   0.943   2.104
 2857SOL    HW1 9467   2.265   0.982   2.062
 2857SOL    HW2 9468   2.156   0.861   2.055
 2858SOL     OW 9469   3.320   0.735   2.590
 2858SOL    HW1 9470   3.315   0.670   2.665
 2858SOL    HW2 9471   3.400   0.794   2.603
 2859SOL     OW 9472   2.323   1.266   3.589
 2859SOL    HW1 9473   2.273   1.267   3.503
 2859SOL    HW2 9474   2.260   1.248   3.665
 2860SOL     OW 9475   2.973   1.776   2.099
 2860SOL    HW1 9476   2.913   1.714   2.149
 2860SOL    HW2 9477   3.004   1.732   2.014
 2861SOL     OW 9478   2.064   0.285   3.360
 2861SOL    HW1 9479   1.984   0.345   3.347
 2861SOL    HW2 9480   2.054   0.236   3.446
 2862SOL     OW 9481   3.494   1.377   1.943
 2862SOL    HW1 9482   3.462   1.471   1.933
 2862SOL    HW2 9483   3.418   1.314   1.931
 2863SOL     OW 9484   2.326   1.743   2.185
 2863SOL    HW1 9485   2.359   1.782   2.271
 2863SOL    HW2 9486   2.402   1.736   2.120
 2864SOL     OW 9487   3.262   0.107   2.288
 2864SOL    HW1 9488   3.238   0.070   2.198
 2864SOL    HW2 9489   3.361   0.123   2.292
 2865SOL     OW 9490   2.111   1.785   3.103
 2865SOL    HW1 9491   2.168   1.720   3.153
 2865SOL    HW2 9492   2.095   1.752   3.010
 2866SOL     OW 9493   2.802   1.698   2.766
 2866SOL    HW1 9494   2.882   1.641   2.787
 2866SOL    HW2 9495   2.753   1.658   2.689
 2867SOL     OW 9496   2.244   0.700   2.342
 2867SOL    HW1 9497   2.289   0.610   2.339
 2867SOL    HW2 9498   2.150   0.689   2.375
 2868SOL     OW 9499   3.409   0.222   3.591
 2868SOL    HW1 9500   3.404   0.259   3.683
 2868SOL    HW2 9501   3.337   0.153   3.579
 2869SOL     OW 9502   2.476   0.122   1.979
 2869SOL    HW1 9503   2.574   0.100   1.986
 2869SOL    HW2 9504   2.445   0.105   1.886
 2870SOL     OW 9505   2.643   0.264   3.611
 2870SOL    HW1 9506   2.710   0.203   3.654
 2870SOL    HW2 9507   2.570   0.283   3.676
 2871SOL     OW 9508   2.750   1.514   3.057
 2871SOL    HW1 9509   2.727   1.489   2.963
 2871SOL    HW2 9510   2.811   1.445   3.096
 2872SOL     OW 9511   3.213   0.590   3.295
 2872SOL    HW1 9512   3.241   0.547   3.380
 2872SOL    HW2 9513   3.238   0.686   3.296
 2873SOL     OW 9514   2.665   1.402   2.786
 2873SOL    HW1 9515   2.755   1.416   2.744
 2873SOL    HW2 9516   2.594   1.404   2.715
 2874SOL     OW 9517   2.784   0.503   2.761
 2874SOL    HW1 9518   2.759   0.494   2.665
 2874SOL    HW2 9519   2.832   0.421   2.792
 2875SOL     OW 9520   2.401   0.064   2.374
 2875SOL    HW1 9521   2.320   0.065   2.432
 2875SOL    HW2 9522   2.404   0.147   2.319
 2876SOL     OW 9523   3.296   1.188   1.903
 2876SOL    HW1 9524   3.328   1.112   1.960
 2876SOL    HW2 9525   3.204   1.215   1.933
 2877SOL     OW 9526   2.159   0.035   2.033
 2877SOL    HW1 9527   2.208   0.119   2.012
 2877SOL    HW2 9528   2.221  -0.030   2.078
 2878SOL     OW 9529   2.797   0.236   2.342
 2878SOL    HW1 9530   2.749   0.277   2.264
 2878SOL    HW2 9531   2.896   0.234   2.323
 2879SOL     OW 9532   2.938   0.683   3.326
 2879SOL    HW1 9533   2.858   0.622   3.329
 2879SOL    HW2 9534   3.019   0.630   3.302
 2880SOL     OW 9535   3.089   1.570   2.655
 2880SOL    HW1 9536   3.110   1.644   2.590
 2880SOL    HW2 9537   3.157   1.570   2.728
 2881SOL     OW 9538   2.321   1.152   2.603
 2881SOL    HW1 9539   2.250   1.125   2.668
 2881SOL    HW2 9540   2.295   1.124   2.510
 2882SOL     OW 9541   3.133   1.797   2.453
 2882SOL    HW1 9542   3.177   1.861   2.389
 2882SOL    HW2 9543   3.083   1.849   2.523
 2883SOL     OW 9544   2.894   0.549   1.878
 2883SOL    HW1 9545   2.853   0.631   1.839
 2883SOL    HW2 9546   2.958   0.575   1.951
 2884SOL     OW 9547   1.940   0.556   3.248
 2884SOL    HW1 9548   2.032   0.555   3.207
 2884SOL    HW2 9549   1.934   0.630   3.315
 2885SOL     OW 9550   2.423   0.222   3.009
 2885SOL    HW1 9551   2.461   0.138   3.046
 2885SOL    HW2 9552   2.335   0.241   3.053
 2886SOL     OW 9553   2.728   0.454   2.504
 2886SOL    HW1 9554   2.696   0.526   2.442
 2886SOL    HW2 9555   2.752   0.373   2.451
 2887SOL     OW 9556   2.879   0.039   2.615
 2887SOL    HW1 9557   2.807   0.044   2.546
 2887SOL    HW2 9558   2.855  -0.030   2.684
 2888SOL     OW 9559   3.291   1.173   2.729
 2888SOL    HW1 9560   3.236   1.089   2.722
 2888SOL    HW2 9561   3.317   1.202   2.637
 2889SOL     OW 9562   3.328   0.590   2.854
 2889SOL    HW1 9563   3.298   0.495   2.861
 2889SOL    HW2 9564   3.401   0.606   2.920
 2890SOL     OW 9565   3.719   0.833   2.239
 2890SOL    HW1 9566   3.761   0.769   2.303
 2890SOL    HW2 9567   3.681   0.782   2.161
 2891SOL     OW 9568   2.350   1.385   2.036
 2891SOL    HW1 9569   2.263   1.370   2.083
 2891SOL    HW2 9570   2.333   1.411   1.941
 2892SOL     OW 9571   3.526   1.280   2.519
 2892SOL    HW1 9572   3.625   1.288   2.533
 2892SOL    HW2 9573   3.481   1.364   2.550
 2893SOL     OW 9574   3.252   0.575   1.940
 2893SOL    HW1 9575   3.198   0.554   2.021
 2893SOL    HW2 9576   3.343   0.534   1.949
 2894SOL     OW 9577   2.389   0.256   2.190
 2894SOL    HW1 9578   2.416   0.197   2.115
 2894SOL    HW2 9579   2.389   0.351   2.159
 2895SOL     OW 9580   3.616   1.223   3.450
 2895SOL    HW1 9581   3.707   1.184   3.437
 2895SOL    HW2 9582   3.624   1.319   3.474
 2896SOL     OW 9583   2.926   1.347   3.202
 2896SOL    HW1 9584   2.846   1.324   3.257
 2896SOL    HW2 9585   3.009   1.321   3.251
 2897SOL     OW 9586   3.454   1.629   3.487
 2897SOL    HW1 9587   3.481   1.663   3.397
 2897SOL    HW2 9588   3.533   1.591   3.533
 2898SOL     OW 9589   2.973   1.195   2.962
 2898SOL    HW1 9590   2.933   1.239   3.043
 2898SOL    HW2 9591   2.932   1.232   2.879
 2899SOL     OW 9592   3.500   1.099   2.941
 2899SOL    HW1 9593   3.505   1.180   3.000
 2899SOL    HW2 9594   3.414   1.101   2.890
 2900SOL     OW 9595   2.777   0.089   3.264
 2900SOL    HW1 9596   2.802   0.069   3.169
 2900SOL    HW2 9597   2.849   0.145   3.306
 2901SOL     OW 9598   2.842   1.116   3.581
 2901SOL    HW1 9599   2.743   1.122   3.591
 2901SOL    HW2 9600   2.865   1.036   3.525
 2902SOL     OW 9601   2.567   1.050   2.230
 2902SOL    HW1 9602   2.553   1.057   2.329
 2902SOL    HW2 9603   2.651   0.999   2.212
 2903SOL     OW 9604   2.272   0.813   3.113
 2903SOL    HW1 9605   2.358   0.825   3.163
 2903SOL    HW2 9606   2.230   0.726   3.140
 2904SOL     OW 9607   3.136   0.386   3.124
 2904SOL    HW1 9608   3.157   0.460   3.188
 2904SOL    HW2 9609   3.047   0.403   3.081
 2905SOL     OW 9610   1.926   1.564   3.193
 2905SOL    HW1 9611   1.880   1.646   3.159
 2905SOL    HW2 9612   2.024   1.583   3.202
 2906SOL     OW 9613   2.229   1.100   2.363
 2906SOL    HW1 9614   2.222   1.183   2.307
 2906SOL    HW2 9615   2.233   1.020   2.303
 2907SOL     OW 9616   2.428   0.537   2.727
 2907SOL    HW1 9617   2.440   0.603   2.653
 2907SOL    HW2 9618   2.474   0.571   2.810
 2908SOL     OW 9619   3.114   1.348   2.250
 2908SOL    HW1 9620   3.164   1.425   2.290
 2908SOL    HW2 9621   3.019   1.350   2.282
 2909SOL     OW 9622   3.134   1.445   3.004
 2909SOL    HW1 9623   3.181   1.458   3.091
 2909SOL    HW2 9624   3.068   1.371   3.013
 2910SOL     OW 9625   3.444   0.639   2.334
 2910SOL    HW1 9626   3.413   0.700   2.407
 2910SOL    HW2 9627   3.494   0.691   2.265
 2911SOL     OW 9628   2.216   1.510   3.191
 2911SOL    HW1 9629   2.195   1.466   3.104
 2911SOL    HW2 9630   2.313   1.536   3.194
 2912SOL     OW 9631   2.264   0.751   3.460
 2912SOL    HW1 9632   2.332   0.806   3.413
 2912SOL    HW2 9633   2.304   0.663   3.487
 2913SOL     OW 9634   3.449   0.779   3.532
 2913SOL    HW1 9635   3.357   0.817   3.527
 2913SOL    HW2 9636   3.509   0.826   3.467
 2914SOL     OW 9637   2.875   0.105   3.632
 2914SOL    HW1 9638   2.881   0.190   3.580
 2914SOL    HW2 9639   2.907   0.029   3.575
 2915SOL     OW 9640   2.366   0.050   3.602
 2915SOL    HW1 9641   2.324  -0.007   3.532
 2915SOL    HW2 9642   2.300   0.119   3.634
 2916SOL     OW 9643   2.435   0.870   2.891
 2916SOL    HW1 9644   2.479   0.959   2.882
 2916SOL    HW2 9645   2.372   0.870   2.968
 2917SOL     OW 9646   3.222   0.862   2.907
 2917SOL    HW1 9647   3.147   0.862   2.841
 2917SOL    HW2 9648   3.259   0.770   2.916
 2918SOL     OW 9649   3.071   0.525   2.137
 2918SOL    HW1 9650   3.084   0.441   2.191
 2918SOL    HW2 9651   3.042   0.599   2.197
 2919SOL     OW 9652   2.169   0.213   3.093
 2919SOL    HW1 9653   2.146   0.250   3.183
 2919SOL    HW2 9654   2.139   0.118   3.087
 2920SOL     OW 9655   1.899   1.310   3.144
 2920SOL    HW1 9656   1.952   1.261   3.212
 2920SOL    HW2 9657   1.921   1.408   3.149
 2921SOL     OW 9658   2.594   0.634   2.926
 2921SOL    HW1 9659   2.653   0.608   2.850
 2921SOL    HW2 9660   2.566   0.730   2.915
 2922SOL     OW 9661   3.590   0.935   3.716
 2922SOL    HW1 9662   3.544   0.928   3.627
 2922SOL    HW2 9663   3.528   0.979   3.782
 2923SOL     OW 9664   2.169   0.063   2.480
 2923SOL    HW1 9665   2.158   0.157   2.513
 2923SOL    HW2 9666   2.164   0.000   2.557
 2924SOL     OW 9667   3.484   0.367   2.236
 2924SOL    HW1 9668   3.486   0.291   2.300
 2924SOL    HW2 9669   3.436   0.444   2.276
 2925SOL     OW 9670   2.885   0.766   2.828
 2925SOL    HW1 9671   2.900   0.787   2.924
 2925SOL    HW2 9672   2.855   0.671   2.819
 2926SOL     OW 9673   2.842   1.573   3.562
 2926SOL    HW1 9674   2.822   1.617   3.474
 2926SOL    HW2 9675   2.881   1.482   3.546
 2927SOL     OW 9676   3.721   1.518   3.467
 2927SOL    HW1 9677   3.735   1.545   3.372
 2927SOL    HW2 9678   3.804   1.540   3.520
 2928SOL     OW 9679   2.212   0.898   3.666
 2928SOL    HW1 9680   2.288   0.942   3.714
 2928SOL    HW2 9681   2.247   0.851   3.584
 2929SOL     OW 9682   3.402   0.274   1.987
 2929SOL    HW1 9683   3.341   0.199   2.010
 2929SOL    HW2 9684   3.424   0.326   2.070
 2930SOL     OW 9685   3.165   0.838   1.904
 2930SOL    HW1 9686   3.199   0.745   1.919
 2930SOL    HW2 9687   3.183   0.865   1.809
 2931SOL     OW 9688   2.930   1.333   2.711
 2931SOL    HW1 9689   2.937   1.249   2.656
 2931SOL    HW2 9690   2.992   1.402   2.675
 2932SOL     OW 9691   2.181   0.810   2.811
 2932SOL    HW1 9692   2.274   0.846   2.816
 2932SOL    HW2 9693   2.175   0.725   2.863
 2933SOL     OW 9694   2.201   0.509   2.868
 2933SOL    HW1 9695   2.149   0.426   2.851
 2933SOL    HW2 9696   2.278   0.514   2.804
 2934SOL     OW 9697   3.000   0.380   3.540
 2934SOL    HW1 9698   2.955   0.443   3.604
 2934SOL    HW2 9699   3.093   0.411   3.523
 2935SOL     OW 9700   3.022   0.207   3.339
 2935SOL    HW1 9701   3.022   0.271   3.416
 2935SOL    HW2 9702   3.050   0.255   3.256
 2936SOL     OW 9703   1.870   1.326   2.062
 2936SOL    HW1 9704   1.777   1.347   2.031
 2936SOL    HW2 9705   1.880   1.227   2.075
 2937SOL     OW 9706   1.950   1.801   2.789
 2937SOL    HW1 9707   1.908   1.715   2.762
 2937SOL    HW2 9708   2.044   1.804   2.755
 2938SOL     OW 9709   2.366   1.568   2.772
 2938SOL    HW1 9710   2.432   1.642   2.781
 2938SOL    HW2 9711   2.410   1.489   2.730
 2939SOL     OW 9712   2.864   0.796   3.100
 2939SOL    HW1 9713   2.905   0.764   3.186
 2939SOL    HW2 9714   2.768   0.769   3.097
 2940SOL     OW 9715   1.902   0.544   2.976
 2940SOL    HW1 9716   1.987   0.511   2.935
 2940SOL    HW2 9717   1.915   0.559   3.074
 2941SOL     OW 9718   2.051   0.520   3.584
 2941SOL    HW1 9719   2.110   0.480   3.514
 2941SOL    HW2 9720   1.993   0.591   3.543
 2942SOL     OW 9721   3.231   0.950   3.522
 2942SOL    HW1 9722   3.270   1.039   3.542
 2942SOL    HW2 9723   3.241   0.930   3.425
 2943SOL     OW 9724   2.677   0.572   2.187
 2943SOL    HW1 9725   2.684   0.483   2.141
 2943SOL    HW2 9726   2.583   0.606   2.179
 2944SOL     OW 9727   3.519   0.604   3.068
 2944SOL    HW1 9728   3.481   0.535   3.130
 2944SOL    HW2 9729   3.601   0.568   3.024
 2945SOL     OW 9730   2.114   1.564   3.606
 2945SOL    HW1 9731   2.084   1.621   3.682
 2945SOL    HW2 9732   2.107   1.467   3.632
 2946SOL     OW 9733   2.533   0.464   3.131
 2946SOL    HW1 9734   2.499   0.375   3.101
 2946SOL    HW2 9735   2.559   0.518   3.051
 2947SOL     OW 9736   2.792   1.678   3.327
 2947SOL    HW1 9737   2.768   1.660   3.232
 2947SOL    HW2 9738   2.822   1.772   3.337
 2948SOL     OW 9739   2.335   0.500   2.053
 2948SOL    HW1 9740   2.396   0.580   2.057
 2948SOL    HW2 9741   2.240   0.531   2.060
 2949SOL     OW 9742   2.021   1.137   3.328
 2949SOL    HW1 9743   2.043   1.076   3.404
 2949SOL    HW2 9744   2.031   1.088   3.242
 2950SOL     OW 9745   3.209   1.059   3.096
 2950SOL    HW1 9746   3.233   0.996   3.022
 2950SOL    HW2 9747   3.119   1.099   3.078
 2951SOL     OW 9748   3.164   0.855   2.171
 2951SOL    HW1 9749   3.078   0.824   2.213
 2951SOL    HW2 9750   3.160   0.841   2.072
 2952SOL     OW 9751   3.621   1.747   3.016
 2952SOL    HW1 9752   3.682   1.777   2.943
 2952SOL    HW2 9753   3.583   1.658   2.994
 2953SOL     OW 9754   3.114   1.731   2.990
 2953SOL    HW1 9755   3.198   1.736   2.936
 2953SOL    HW2 9756   3.091   1.635   3.008
 2954SOL     OW 9757   1.945   1.258   2.884
 2954SOL    HW1 9758   1.940   1.257   2.984
 2954SOL    HW2 9759   1.862   1.217   2.846
 2955SOL     OW 9760   2.550   1.662   3.578
 2955SOL    HW1 9761   2.494   1.743   3.587
 2955SOL    HW2 9762   2.602   1.666   3.492
 2956SOL     OW 9763   3.588   0.135   2.385
 2956SOL    HW1 9764   3.661   0.118   2.318
 2956SOL    HW2 9765   3.557   0.048   2.423
 2957SOL     OW 9766   3.250   1.573   2.339
 2957SOL    HW1 9767   3.317   1.585   2.265
 2957SOL    HW2 9768   3.210   1.662   2.362
 2958SOL     OW 9769   1.992   1.794   3.713
 2958SOL    HW1 9770   1.951   1.720   3.766
 2958SOL    HW2 9771   2.056   1.845   3.771
 2959SOL     OW 9772   3.142   0.927   2.534
 2959SOL    HW1 9773   3.202   0.846   2.536
 2959SOL    HW2 9774   3.182   0.996   2.474
 2960SOL     OW 9775   2.692   1.273   3.284
 2960SOL    HW1 9776   2.687   1.306   3.379
 2960SOL    HW2 9777   2.606   1.292   3.238
 2961SOL     OW 9778   2.534   1.616   2.016
 2961SOL    HW1 9779   2.543   1.626   1.917
 2961SOL    HW2 9780   2.494   1.527   2.037
 2962SOL     OW 9781   3.512   1.720   3.256
 2962SOL    HW1 9782   3.565   1.730   3.172
 2962SOL    HW2 9783   3.485   1.810   3.290
 2963SOL     OW 9784   3.703   0.175   2.825
 2963SOL    HW1 9785   3.742   0.090   2.789
 2963SOL    HW2 9786   3.605   0.177   2.806
 2964SOL     OW 9787   2.125   0.326   2.582
 2964SOL    HW1 9788   2.046   0.377   2.548
 2964SOL    HW2 9789   2.116   0.311   2.680
 2965SOL     OW 9790   3.056   1.612   1.893
 2965SOL    HW1 9791   3.062   1.519   1.930
 2965SOL    HW2 9792   2.997   1.612   1.813
 2966SOL     OW 9793   2.684   1.002   3.234
 2966SOL    HW1 9794   2.724   1.001   3.142
 2966SOL    HW2 9795   2.694   1.094   3.274
 2967SOL     OW 9796   2.778   0.910   2.153
 2967SOL    HW1 9797   2.841   0.948   2.085
 2967SOL    HW2 9798   2.818   0.827   2.192
 2968SOL     OW 9799   3.366   1.607   1.906
 2968SOL    HW1 9800   3.274   1.644   1.913
 2968SOL    HW2 9801   3.404   1.627   1.816
 2969SOL     OW 9802   2.234   1.288   3.352
 2969SOL    HW1 9803   2.221   1.381   3.318
 2969SOL    HW2 9804   2.150   1.236   3.339
 2970SOL     OW 9805   3.476   1.292   3.151
 2970SOL    HW1 9806   3.536   1.295   3.231
 2970SOL    HW2 9807   3.401   1.356   3.164
 2971SOL     OW 9808   2.901   1.098   2.558
 2971SOL    HW1 9809   2.831   1.051   2.612
 2971SOL    HW2 9810   2.960   1.030   2.515
 2972SOL     OW 9811   2.876   0.236   2.833
 2972SOL    HW1 9812   2.868   0.200   2.740
 2972SOL    HW2 9813   2.874   0.160   2.898
 2973SOL     OW 9814   2.452   1.487   2.353
 2973SOL    HW1 9815   2.494   1.429   2.283
 2973SOL    HW2 9816   2.408   1.566   2.309
 2974SOL     OW 9817   3.571   0.385   3.243
 2974SOL    HW1 9818   3.644   0.454   3.247
 2974SOL    HW2 9819   3.599   0.310   3.184
 2975SOL     OW 9820   2.117   1.348   2.152
 2975SOL    HW1 9821   2.021   1.349   2.125
 2975SOL    HW2 9822   2.129   1.401   2.236
 2976SOL     OW 9823   1.967   1.013   3.588
 2976SOL    HW1 9824   1.890   0.980   3.642
 2976SOL    HW2 9825   2.052   0.983   3.630
 2977SOL     OW 9826   2.534   0.203   3.351
 2977SOL    HW1 9827   2.624   0.187   3.311
 2977SOL    HW2 9828   2.542   0.208   3.450
 2978SOL     OW 9829   1.937   0.345   1.895
 2978SOL    HW1 9830   1.845   0.317   1.866
 2978SOL    HW2 9831   1.968   0.422   1.839
 2979SOL     OW 9832   3.302   0.856   3.260
 2979SOL    HW1 9833   3.245   0.908   3.197
 2979SOL    HW2 9834   3.398   0.868   3.236
 2980SOL     OW 9835   1.934   0.166   2.180
 2980SOL    HW1 9836   1.917   0.249   2.126
 2980SOL    HW2 9837   2.024   0.129   2.158
 2981SOL     OW 9838   3.045   1.335   1.981
 2981SOL    HW1 9839   2.946   1.324   1.983
 2981SOL    HW2 9840   3.079   1.350   2.074
 2982SOL     OW 9841   2.475   0.842   3.293
 2982SOL    HW1 9842   2.531   0.923   3.276
 2982SOL    HW2 9843   2.534   0.762   3.296
 2983SOL     OW 9844   3.355   1.767   2.821
 2983SOL    HW1 9845   3.388   1.831   2.752
 2983SOL    HW2 9846   3.421   1.761   2.896
 2984SOL     OW 9847   2.578   0.565   3.570
 2984SOL    HW1 9848   2.597   0.630   3.644
 2984SOL    HW2 9849   2.638   0.485   3.579
 2985SOL     OW 9850   3.312   1.220   3.495
 2985SOL    HW1 9851   3.303   1.210   3.594
 2985SOL    HW2 9852   3.408   1.213   3.469
 2986SOL     OW 9853   2.252   1.741   3.422
 2986SOL    HW1 9854   2.161   1.782   3.420
 2986SOL    HW2 9855   2.245   1.647   3.454
 2987SOL     OW 9856   3.536   0.883   3.116
 2987SOL    HW1 9857   3.509   0.794   3.079
 2987SOL    HW2 9858   3.537   0.951   3.043
 2988SOL     OW 9859   3.087   0.325   2.311
 2988SOL    HW1 9860   3.152   0.251   2.300
 2988SOL    HW2 9861   3.107   0.375   2.395
 2989SOL     OW 9862   2.456   0.745   2.514
 2989SOL    HW1 9863   2.506   0.830   2.495
 2989SOL    HW2 9864   2.368   0.747   2.466
 2990SOL     OW 9865   3.639   0.342   3.504
 2990SOL    HW1 9866   3.622   0.373   3.410
 2990SOL    HW2 9867   3.555   0.305   3.542
 2991SOL     OW 9868   3.592   0.934   3.379
 2991SOL    HW1 9869   3.630   1.025   3.394
 2991SOL    HW2 9870   3.584   0.917   3.280
 2992SOL     OW 9871   2.721   1.374   1.878
 2992SOL    HW1 9872   2.675   1.389   1.966
 2992SOL    HW2 9873   2.765   1.459   1.848
 2993SOL     OW 9874   2.523   1.790   2.815
 2993SOL    HW1 9875   2.477   1.878   2.802
 2993SOL    HW2 9876   2.622   1.802   2.808
 2994SOL     OW 9877   2.721   0.956   2.723
 2994SOL    HW1 9878   2.775   0.887   2.771
 2994SOL    HW2 9879   2.689   1.025   2.789
 2995SOL     OW 9880   2.945   0.984   1.949
 2995SOL    HW1 9881   2.922   1.037   1.867
 2995SOL    HW2 9882   3.026   0.928   1.930
 2996SOL     OW 9883   3.723   1.569   2.713
 2996SOL    HW1 9884   3.652   1.557   2.643
 2996SOL    HW2 9885   3.724   1.490   2.773
 2997SOL     OW 9886   2.083   1.314   3.706
 2997SOL    HW1 9887   2.018   1.241   3.685
 2997SOL    HW2 9888   2.087   1.328   3.804
 2998SOL     OW 9889   1.941   1.240   2.515
 2998SOL    HW1 9890   1.940   1.193   2.603
 2998SOL    HW2 9891   2.023   1.212   2.464
 2999SOL     OW 9892   2.534   1.391   3.486
 2999SOL    HW1 9893   2.456   1.341   3.524
 2999SOL    HW2 9894   2.531   1.486   3.517
 3000SOL     OW 9895   3.686   0.192   3.089
 3000SOL    HW1 9896   3.682   0.102   3.133
 3000SOL    HW2 9897   3.689   0.181   2.990
 3001SOL     OW 9898   2.290   0.424   2.382
 3001SOL    HW1 9899   2.320   0.352   2.320
 3001SOL    HW2 9900   2.251   0.384   2.465
 3002SOL     OW 9901   3.567   1.487   2.966
 3002SOL    HW1 9902   3.474   1.462   2.939
 3002SOL    HW2 9903   3.593   1.437   3.048
 3003SOL     OW 9904   2.179   0.547   3.142
 3003SOL    HW1 9905   2.217   0.488   3.214
 3003SOL    HW2 9906   2.219   0.521   3.054
 3004SOL     OW 9907   2.674   1.586   2.549
 3004SOL    HW1 9908   2.706   1.596   2.455
 3004SOL    HW2 9909   2.595   1.524   2.551
 3005SOL     OW 9910   3.286   0.214   2.974
 3005SOL    HW1 9911   3.338   0.149   3.029
 3005SOL    HW2 9912   3.237   0.277   3.035
 3006SOL     OW 9913   2.863   0.034   3.016
 3006SOL    HW1 9914   2.800  -0.038   2.985
 3006SOL    HW2 9915   2.956  -0.002   3.016
 3007SOL     OW 9916   2.632   1.330   2.163
 3007SOL    HW1 9917   2.586   1.243   2.180
 3007SOL    HW2 9918   2.723   1.327   2.204
 3008SOL     OW 9919   2.480   1.567   3.146
 3008SOL    HW1 9920   2.475   1.649   3.203
 3008SOL    HW2 9921   2.569   1.564   3.101
 3009SOL     OW 9922   3.214   0.052   2.030
 3009SOL    HW1 9923   3.249   0.011   1.946
 3009SOL    HW2 9924   3.124   0.014   2.050
 3010SOL     OW 9925   3.162   0.453   2.553
 3010SOL    HW1 9926   3.103   0.533   2.557
 3010SOL    HW2 9927   3.177   0.418   2.646
 3011SOL     OW 9928   3.455   0.221   2.744
 3011SOL    HW1 9929   3.371   0.220   2.798
 3011SOL    HW2 9930   3.457   0.304   2.688
 3012SOL     OW 9931   1.901   1.077   2.162
 3012SOL    HW1 9932   2.000   1.066   2.153
 3012SOL    HW2 9933   1.861   0.991   2.194
 3013SOL     OW 9934   2.737   1.646   2.199
 3013SOL    HW1 9935   2.660   1.611   2.145
 3013SOL    HW2 9936   2.705   1.717   2.261
 3014SOL     OW 9937   2.092   0.628   3.837
 3014SOL    HW1 9938   1.999   0.626   3.874
 3014SOL    HW2 9939   2.093   0.589   3.745
 3015SOL     OW 9940   2.087   0.275   4.720
 3015SOL    HW1 9941   2.122   0.258   4.812
 3015SOL    HW2 9942   1.999   0.230   4.708
 3016SOL     OW 9943   1.881   0.368   4.371
 3016SOL    HW1 9944   1.799   0.411   4.410
 3016SOL    HW2 9945   1.853   0.295   4.308
 3017SOL     OW 9946   2.431   1.275   4.889
 3017SOL    HW1 9947   2.338   1.268   4.852
 3017SOL    HW2 9948   2.442   1.364   4.933
 3018SOL     OW 9949   3.417   1.511   4.427
 3018SOL    HW1 9950   3.360   1.495   4.508
 3018SOL    HW2 9951   3.358   1.521   4.347
 3019SOL     OW 9952   2.997   0.703   4.441
 3019SOL    HW1 9953   3.054   0.781   4.416
 3019SOL    HW2 9954   2.937   0.729   4.517
 3020SOL     OW 9955   3.617   0.607   3.955
 3020SOL    HW1 9956   3.605   0.594   3.856
 3020SOL    HW2 9957   3.587   0.526   4.004
 3021SOL     OW 9958   2.630   1.144   4.747
 3021SOL    HW1 9959   2.552   1.161   4.807
 3021SOL    HW2 9960   2.664   1.231   4.711
 3022SOL     OW 9961   2.712   0.798   5.547
 3022SOL    HW1 9962   2.708   0.874   5.612
 3022SOL    HW2 9963   2.734   0.834   5.456
 3023SOL     OW 9964   2.547   1.012   4.389
 3023SOL    HW1 9965   2.616   0.996   4.459
 3023SOL    HW2 9966   2.474   1.069   4.427
 3024SOL     OW 9967   2.548   1.161   5.527
 3024SOL    HW1 9968   2.608   1.240   5.541
 3024SOL    HW2 9969   2.462   1.192   5.486
 3025SOL     OW 9970   2.197   1.435   4.785
 3025SOL    HW1 9971   2.119   1.404   4.732
 3025SOL    HW2 9972   2.255   1.493   4.728
 3026SOL     OW 9973   3.322   1.505   5.063
 3026SOL    HW1 9974   3.346   1.599   5.089
 3026SOL    HW2 9975   3.306   1.451   5.145
 3027SOL     OW 9976   2.300   0.392   5.223
 3027SOL    HW1 9977   2.382   0.336   5.232
 3027SOL    HW2 9978   2.219   0.334   5.227
 3028SOL     OW 9979   3.465   0.447   4.461
 3028SOL    HW1 9980   3.391   0.493   4.411
 3028SOL    HW2 9981   3.516   0.515   4.514
 3029SOL     OW 9982   2.093   1.713   4.207
 3029SOL    HW1 9983   2.127   1.790   4.261
 3029SOL    HW2 9984   2.137   1.713   4.117
 3030SOL     OW 9985   2.989   1.341   5.414
 3030SOL    HW1 9986   3.036   1.341   5.502
 3030SOL    HW2 9987   2.941   1.254   5.403
 3031SOL     OW 9988   2.092   1.434   4.262
 3031SOL    HW1 9989   2.066   1.530   4.262
 3031SOL    HW2 9990   2.021   1.380   4.307
 3032SOL     OW 9991   2.102   1.091   4.610
 3032SOL    HW1 9992   2.116   1.007   4.662
 3032SOL    HW2 9993   2.047   1.155   4.665
 3033SOL     OW 9994   2.482   1.786   5.163
 3033SOL    HW1 9995   2.390   1.769   5.198
 3033SOL    HW2 9996   2.510   1.878   5.189
 3034SOL     OW 9997   2.468   0.964   3.847
 3034SOL    HW1 9998   2.475   1.048   3.793
 3034SOL    HW2 9999   2.514   0.977   3.935
 3035SOL     OW10000   3.456   0.114   5.204
 3035SOL    HW110001   3.438   0.181   5.132
 3035SOL    HW210002   3.453   0.160   5.293
 3036SOL     OW10003   1.984   0.643   4.287
 3036SOL    HW110004   1.939   0.555   4.304
 3036SOL    HW210005   1.983   0.697   4.371
 3037SOL     OW10006   3.704   1.767   4.083
 3037SOL    HW110007   3.758   1.738   4.163
 3037SOL    HW210008   3.734   1.857   4.054
 3038SOL     OW10009   1.889   1.596   3.841
 3038SOL    HW110010   1.870   1.500   3.862
 3038SOL    HW210011   1.856   1.654   3.916
 3039SOL     OW10012   3.551   0.922   4.336
 3039SOL    HW110013   3.646   0.893   4.344
 3039SOL    HW210014   3.543   0.987   4.261
 3040SOL     OW10015   3.503   1.108   4.156
 3040SOL    HW110016   3.589   1.110   4.104
 3040SOL    HW210017   3.517   1.155   4.244
 3041SOL     OW10018   1.975   0.737   5.321
 3041SOL    HW110019   2.063   0.724   5.366
 3041SOL    HW210020   1.962   0.834   5.299
 3042SOL     OW10021   2.475   1.365   4.450
 3042SOL    HW110022   2.426   1.278   4.459
 3042SOL    HW210023   2.452   1.408   4.363
 3043SOL     OW10024   3.155   1.228   5.147
 3043SOL    HW110025   3.192   1.155   5.089
 3043SOL    HW210026   3.207   1.233   5.232
 3044SOL     OW10027   2.671   0.004   4.226
 3044SOL    HW110028   2.711   0.095   4.217
 3044SOL    HW210029   2.571   0.012   4.232
 3045SOL     OW10030   2.059   0.976   4.988
 3045SOL    HW110031   2.148   0.931   4.974
 3045SOL    HW210032   1.986   0.911   4.969
 3046SOL     OW10033   3.387   0.999   3.914
 3046SOL    HW110034   3.324   0.923   3.927
 3046SOL    HW210035   3.435   1.017   4.000
 3047SOL     OW10036   3.049   1.792   5.340
 3047SOL    HW110037   3.073   1.852   5.264
 3047SOL    HW210038   3.056   1.697   5.310
 3048SOL     OW10039   2.179   0.251   5.525
 3048SOL    HW110040   2.250   0.322   5.531
 3048SOL    HW210041   2.091   0.290   5.553
 3049SOL     OW10042   3.328   1.417   4.677
 3049SOL    HW110043   3.269   1.423   4.757
 3049SOL    HW210044   3.313   1.329   4.631
 3050SOL     OW10045   3.529   1.714   4.296
 3050SOL    HW110046   3.488   1.691   4.208
 3050SOL    HW210047   3.511   1.640   4.361
 3051SOL     OW10048   2.460   0.729   3.994
 3051SOL    HW110049   2.484   0.798   3.926
 3051SOL    HW210050   2.382   0.762   4.048
 3052SOL     OW10051   3.143   0.345   4.668
 3052SOL    HW110052   3.057   0.295   4.655
 3052SOL    HW210053   3.205   0.291   4.724
 3053SOL     OW10054   3.438   1.662   4.031
 3053SOL    HW110055   3.527   1.708   4.034
 3053SOL    HW210056   3.417   1.638   3.936
 3054SOL     OW10057   2.669   0.605   5.189
 3054SOL    HW110058   2.622   0.602   5.278
 3054SOL    HW210059   2.618   0.550   5.123
 3055SOL     OW10060   3.256   0.469   5.398
 3055SOL    HW110061   3.236   0.512   5.486
 3055SOL    HW210062   3.334   0.407   5.407
 3056SOL     OW10063   2.835   0.890   5.296
 3056SOL    HW110064   2.881   0.806   5.267
 3056SOL    HW210065   2.779   0.924   5.221
 3057SOL     OW10066   2.853   0.410   4.966
 3057SOL    HW110067   2.776   0.444   5.020
 3057SOL    HW210068   2.819   0.359   4.887
 3058SOL     OW10069   2.903   0.701   4.153
 3058SOL    HW110070   2.929   0.697   4.249
 3058SOL    HW210071   2.818   0.650   4.139
 3059SOL     OW10072   1.938   0.811   4.513
 3059SOL    HW110073   2.037   0.799   4.522
 3059SOL    HW210074   1.914   0.906   4.534
 3060SOL     OW10075   1.992   1.821   5.295
 3060SOL    HW110076   1.982   1.806   5.394
 3060SOL    HW210077   1.906   1.857   5.259
 3061SOL     OW10078   2.727   0.348   3.919
 3061SOL    HW110079   2.786   0.411   3.870
 3061SOL    HW210080   2.746   0.254   3.890
 3062SOL     OW10081   3.581   0.585   5.555
 3062SOL    HW110082   3.555   0.674   5.519
 3062SOL    HW210083   3.579   0.517   5.482
 3063SOL     OW10084   3.224   1.144   4.269
 3063SOL    HW110085   3.307   1.115   4.221
 3063SOL    HW210086   3.175   1.211   4.213
 3064SOL     OW10087   2.412   0.196   4.609
 3064SOL    HW110088   2.407   0.191   4.709
 3064SOL    HW210089   2.414   0.292   4.580
 3065SOL     OW10090   2.870   1.456   4.201
 3065SOL    HW110091   2.824   1.528   4.149
 3065SOL    HW210092   2.866   1.476   4.299
 3066SOL     OW10093   2.213   1.801   4.577
 3066SOL    HW110094   2.263   1.715   4.583
 3066SOL    HW210095   2.278   1.878   4.574
 3067SOL     OW10096   3.657   1.066   4.597
 3067SOL    HW110097   3.595   1.051   4.521
 3067SOL    HW210098   3.605   1.077   4.682
 3068SOL     OW10099   3.089   1.550   5.230
 3068SOL    HW110100   3.095   1.473   5.294
 3068SOL    HW210101   3.037   1.524   5.150
 3069SOL     OW10102   2.183   0.943   3.966
 3069SOL    HW110103   2.265   0.982   3.924
 3069SOL    HW210104   2.156   0.861   3.917
 3070SOL     OW10105   3.320   0.735   4.452
 3070SOL    HW110106   3.315   0.670   4.527
 3070SOL    HW210107   3.400   0.794   4.465
 3071SOL     OW10108   2.323   1.266   5.451
 3071SOL    HW110109   2.273   1.267   5.365
 3071SOL    HW210110   2.260   1.248   5.527
 3072SOL     OW10111   2.973   1.776   3.961
 3072SOL    HW110112   2.913   1.714   4.011
 3072SOL    HW210113   3.004   1.732   3.876
 3073SOL     OW10114   2.064   0.285   5.222
 3073SOL    HW110115   1.984   0.345   5.209
 3073SOL    HW210116   2.054   0.236   5.308
 3074SOL     OW10117   3.494   1.377   3.805
 3074SOL    HW110118   3.462   1.471   3.795
 3074SOL    HW210119   3.418   1.314   3.793
 3075SOL     OW10120   2.326   1.743   4.047
 3075SOL    HW110121   2.359   1.782   4.133
 3075SOL    HW210122   2.402   1.736   3.982
 3076SOL     OW10123   3.262   0.107   4.150
 3076SOL    HW110124   3.238   0.070   4.060
 3076SOL    HW210125   3.361   0.123   4.154
 3077SOL     OW10126   2.111   1.785   4.965
 3077SOL    HW110127   2.168   1.720   5.015
 3077SOL    HW210128   2.095   1.752   4.872
 3078SOL     OW10129   2.802   1.698   4.628
 3078SOL    HW110130   2.882   1.641   4.649
 3078SOL    HW210131   2.753   1.658   4.551
 3079SOL     OW10132   2.244   0.700   4.204
 3079SOL    HW110133   2.289   0.610   4.201
 3079SOL    HW210134   2.150   0.689   4.237
 3080SOL     OW10135   3.409   0.222   5.453
 3080SOL    HW110136   3.404   0.259   5.545
 3080SOL    HW210137   3.337   0.153   5.441
 3081SOL     OW10138   2.476   0.122   3.841
 3081SOL    HW110139   2.574   0.100   3.848
 3081SOL    HW210140   2.445   0.105   3.748
 3082SOL     OW10141   2.643   0.264   5.473
 3082SOL    HW110142   2.710   0.203   5.516
 3082SOL    HW210143   2.570   0.283   5.538
 3083SOL     OW10144   2.750   1.514   4.919
 3083SOL    HW110145   2.727   1.489   4.825
 3083SOL    HW210146   2.811   1.445   4.958
 3084SOL     OW10147   3.213   0.590   5.157
 3084SOL    HW110148   3.241   0.547   5.242
 3084SOL    HW210149   3.238   0.686   5.158
 3085SOL     OW10150   2.665   1.402   4.648
 3085SOL    HW110151   2.755   1.416   4.606
 3085SOL    HW210152   2.594   1.404   4.577
 3086SOL     OW10153   2.784   0.503   4.623
 3086SOL    HW110154   2.759   0.494   4.527
 3086SOL    HW210155   2.832   0.421   4.654
 3087SOL     OW10156   2.401   0.064   4.236
 3087SOL    HW110157   2.320   0.065   4.294
 3087SOL    HW210158   2.404   0.147   4.181
 3088SOL     OW10159   3.296   1.188   3.765
 3088SOL    HW110160   3.328   1.112   3.822
 3088SOL    HW210161   3.204   1.215   3.795
 3089SOL     OW10162   2.159   0.035   3.895
 3089SOL    HW110163   2.208   0.119   3.874
 3089SOL    HW210164   2.221  -0.030   3.940
 3090SOL     OW10165   2.797   0.236   4.204
 3090SOL    HW110166   2.749   0.277   4.126
 3090SOL    HW210167   2.896   0.234   4.185
 3091SOL     OW10168   2.938   0.683   5.188
 3091SOL    HW110169   2.858   0.622   5.191
 3091SOL    HW210170   3.019   0.630   5.164
 3092SOL     OW10171   3.089   1.570   4.517
 3092SOL    HW110172   3.110   1.644   4.452
 3092SOL    HW210173   3.157   1.570   4.590
 3093SOL     OW10174   2.321   1.152   4.465
 3093SOL    HW110175   2.250   1.125   4.530
 3093SOL    HW210176   2.295   1.124   4.372
 3094SOL     OW10177   2.894   0.549   3.740
 3094SOL    HW110178   2.853   0.631   3.701
 3094SOL    HW210179   2.958   0.575   3.813
 3095SOL     OW10180   1.940   0.556   5.110
 3095SOL    HW110181   2.032   0.555   5.069
 3095SOL    HW210182   1.934   0.630   5.177
 3096SOL     OW10183   2.423   0.222   4.871
 3096SOL    HW110184   2.461   0.138   4.908
 3096SOL    HW210185   2.335   0.241   4.915
 3097SOL     OW10186   2.728   0.454   4.366
 3097SOL    HW110187   2.696   0.526   4.304
 3097SOL    HW210188   2.752   0.373   4.313
 3098SOL     OW10189   2.879   0.039   4.477
 3098SOL    HW110190   2.807   0.044   4.408
 3098SOL    HW210191   2.855  -0.030   4.546
 3099SOL     OW10192   3.291   1.173   4.591
 3099SOL    HW110193   3.236   1.089   4.584
 3099SOL    HW210194   3.317   1.202   4.499
 3100SOL     OW10195   3.328   0.590   4.716
 3100SOL    HW110196   3.298   0.495   4.723
 3100SOL    HW210197   3.401   0.606   4.782
 3101SOL     OW10198   3.719   0.833   4.101
 3101SOL    HW110199   3.761   0.769   4.165
 3101SOL    HW210200   3.681   0.782   4.023
 3102SOL     OW10201   2.350   1.385   3.898
 3102SOL    HW110202   2.263   1.370   3.945
 3102SOL    HW210203   2.333   1.411   3.803
 3103SOL     OW10204   3.526   1.280   4.381
 3103SOL    HW110205   3.625   1.288   4.395
 3103SOL    HW210206   3.481   1.364   4.412
 3104SOL     OW10207   3.252   0.575   3.802
 3104SOL    HW110208   3.198   0.554   3.883
 3104SOL    HW210209   3.343   0.534   3.811
 3105SOL     OW10210   2.389   0.256   4.052
 3105SOL    HW110211   2.416   0.197   3.977
 3105SOL    HW210212   2.389   0.351   4.021
 3106SOL     OW10213   3.616   1.223   5.312
 3106SOL    HW110214   3.707   1.184   5.299
 3106SOL    HW210215   3.624   1.319   5.336
 3107SOL     OW10216   2.926   1.347   5.064
 3107SOL    HW110217   2.846   1.324   5.119
 3107SOL    HW210218   3.009   1.321   5.113
 3108SOL     OW10219   3.454   1.629   5.349
 3108SOL    HW110220   3.481   1.663   5.259
 3108SOL    HW210221   3.533   1.591   5.395
 3109SOL     OW10222   2.973   1.195   4.824
 3109SOL    HW110223   2.933   1.239   4.905
 3109SOL    HW210224   2.932   1.232   4.741
 3110SOL     OW10225   3.500   1.099   4.803
 3110SOL    HW110226   3.505   1.180   4.862
 3110SOL    HW210227   3.414   1.101   4.752
 3111SOL     OW10228   2.777   0.089   5.126
 3111SOL    HW110229   2.802   0.069   5.031
 3111SOL    HW210230   2.849   0.145   5.168
 3112SOL     OW10231   2.842   1.116   5.443
 3112SOL    HW110232   2.743   1.122   5.453
 3112SOL    HW210233   2.865   1.036   5.387
 3113SOL     OW10234   2.567   1.050   4.092
 3113SOL    HW110235   2.553   1.057   4.191
 3113SOL    HW210236   2.651   0.999   4.074
 3114SOL     OW10237   2.272   0.813   4.975
 3114SOL    HW110238   2.358   0.825   5.025
 3114SOL    HW210239   2.230   0.726   5.002
 3115SOL     OW10240   3.136   0.386   4.986
 3115SOL    HW110241   3.157   0.460   5.050
 3115SOL    HW210242   3.047   0.403   4.943
 3116SOL     OW10243   1.926   1.564   5.055
 3116SOL    HW110244   1.880   1.646   5.021
 3116SOL    HW210245   2.024   1.583   5.064
 3117SOL     OW10246   2.229   1.100   4.225
 3117SOL    HW110247   2.222   1.183   4.169
 3117SOL    HW210248   2.233   1.020   4.165
 3118SOL     OW10249   2.428   0.537   4.589
 3118SOL    HW110250   2.440   0.603   4.515
 3118SOL    HW210251   2.474   0.571   4.672
 3119SOL     OW10252   3.114   1.348   4.112
 3119SOL    HW110253   3.164   1.425   4.152
 3119SOL    HW210254   3.019   1.350   4.144
 3120SOL     OW10255   3.134   1.445   4.866
 3120SOL    HW110256   3.181   1.458   4.953
 3120SOL    HW210257   3.068   1.371   4.875
 3121SOL     OW10258   3.444   0.639   4.196
 3121SOL    HW110259   3.413   0.700   4.269
 3121SOL    HW210260   3.494   0.691   4.127
 3122SOL     OW10261   2.216   1.510   5.053
 3122SOL    HW110262   2.195   1.466   4.966
 3122SOL    HW210263   2.313   1.536   5.056
 3123SOL     OW10264   2.264   0.751   5.322
 3123SOL    HW110265   2.332   0.806   5.275
 3123SOL    HW210266   2.304   0.663   5.349
 3124SOL     OW10267   3.449   0.779   5.394
 3124SOL    HW110268   3.357   0.817   5.389
 3124SOL    HW210269   3.509   0.826   5.329
 3125SOL     OW10270   2.875   0.105   5.494
 3125SOL    HW110271   2.881   0.190   5.442
 3125SOL    HW210272   2.907   0.029   5.437
 3126SOL     OW10273   2.366   0.050   5.464
 3126SOL    HW110274   2.324  -0.007   5.394
 3126SOL    HW210275   2.300   0.119   5.496
 3127SOL     OW10276   2.435   0.870   4.753
 3127SOL    HW110277   2.479   0.959   4.744
 3127SOL    HW210278   2.372   0.870   4.830
 3128SOL     OW10279   3.222   0.862   4.769
 3128SOL    HW110280   3.147   0.862   4.703
 3128SOL    HW210281   3.259   0.770   4.778
 3129SOL     OW10282   3.071   0.525   3.999
 3129SOL    HW110283   3.084   0.441   4.053
 3129SOL    HW210284   3.042   0.599   4.059
 3130SOL     OW10285   2.169   0.213   4.955
 3130SOL    HW110286   2.146   0.250   5.045
 3130SOL    HW210287   2.139   0.118   4.949
 3131SOL     OW10288   1.899   1.310   5.006
 3131SOL    HW110289   1.952   1.261   5.074
 3131SOL    HW210290   1.921   1.408   5.011
 3132SOL     OW10291   2.594   0.634   4.788
 3132SOL    HW110292   2.653   0.608   4.712
 3132SOL    HW210293   2.566   0.730   4.777
 3133SOL     OW10294   3.590   0.935   5.578
 3133SOL    HW110295   3.544   0.928   5.489
 3133SOL    HW210296   3.528   0.979   5.644
 3134SOL     OW10297   2.169   0.063   4.342
 3134SOL    HW110298   2.158   0.157   4.375
 3134SOL    HW210299   2.164   0.000   4.419
 3135SOL     OW10300   3.484   0.367   4.098
 3135SOL    HW110301   3.486   0.291   4.162
 3135SOL    HW210302   3.436   0.444   4.138
 3136SOL     OW10303   2.885   0.766   4.690
 3136SOL    HW110304   2.900   0.787   4.786
 3136SOL    HW210305   2.855   0.671   4.681
 3137SOL     OW10306   2.842   1.573   5.424
 3137SOL    HW110307   2.822   1.617   5.336
 3137SOL    HW210308   2.881   1.482   5.408
 3138SOL     OW10309   3.721   1.518   5.329
 3138SOL    HW110310   3.735   1.545   5.234
 3138SOL    HW210311   3.804   1.540   5.382
 3139SOL     OW10312   2.212   0.898   5.528
 3139SOL    HW110313   2.288   0.942   5.576
 3139SOL    HW210314   2.247   0.851   5.446
 3140SOL     OW10315   3.402   0.274   3.849
 3140SOL    HW110316   3.341   0.199   3.872
 3140SOL    HW210317   3.424   0.326   3.932
 3141SOL     OW10318   3.165   0.838   3.766
 3141SOL    HW110319   3.199   0.745   3.781
 3141SOL    HW210320   3.183   0.865   3.671
 3142SOL     OW10321   2.930   1.333   4.573
 3142SOL    HW110322   2.937   1.249   4.518
 3142SOL    HW210323   2.992   1.402   4.537
 3143SOL     OW10324   2.181   0.810   4.673
 3143SOL    HW110325   2.274   0.846   4.678
 3143SOL    HW210326   2.175   0.725   4.725
 3144SOL     OW10327   2.201   0.509   4.730
 3144SOL    HW110328   2.149   0.426   4.713
 3144SOL    HW210329   2.278   0.514   4.666
 3145SOL     OW10330   3.000   0.380   5.402
 3145SOL    HW110331   2.955   0.443   5.466
 3145SOL    HW210332   3.093   0.411   5.385
 3146SOL     OW10333   3.022   0.207   5.201
 3146SOL    HW110334   3.022   0.271   5.278
 3146SOL    HW210335   3.050   0.255   5.118
 3147SOL     OW10336   1.870   1.326   3.924
 3147SOL    HW110337   1.777   1.347   3.893
 3147SOL    HW210338   1.880   1.227   3.937
 3148SOL     OW10339   1.950   1.801   4.651
 3148SOL    HW110340   1.908   1.715   4.624
 3148SOL    HW210341   2.044   1.804   4.617
 3149SOL     OW10342   2.366   1.568   4.634
 3149SOL    HW110343   2.432   1.642   4.643
 3149SOL    HW210344   2.410   1.489   4.592
 3150SOL     OW10345   2.864   0.796   4.962
 3150SOL    HW110346   2.905   0.764   5.048
 3150SOL    HW210347   2.768   0.769   4.959
 3151SOL     OW10348   1.902   0.544   4.838
 3151SOL    HW110349   1.987   0.511   4.797
 3151SOL    HW210350   1.915   0.559   4.936
 3152SOL     OW10351   2.051   0.520   5.446
 3152SOL    HW110352   2.110   0.480   5.376
 3152SOL    HW210353   1.993   0.591   5.405
 3153SOL     OW10354   3.231   0.950   5.384
 3153SOL    HW110355   3.270   1.039   5.404
 3153SOL    HW210356   3.241   0.930   5.287
 3154SOL     OW10357   2.677   0.572   4.049
 3154SOL    HW110358   2.684   0.483   4.003
 3154SOL    HW210359   2.583   0.606   4.041
 3155SOL     OW10360   3.519   0.604   4.930
 3155SOL    HW110361   3.481   0.535   4.992
 3155SOL    HW210362   3.601   0.568   4.886
 3156SOL     OW10363   2.114   1.564   5.468
 3156SOL    HW110364   2.084   1.621   5.544
 3156SOL    HW210365   2.107   1.467   5.494
 3157SOL     OW10366   2.533   0.464   4.993
 3157SOL    HW110367   2.499   0.375   4.963
 3157SOL    HW210368   2.559   0.518   4.913
 3158SOL     OW10369   2.792   1.678   5.189
 3158SOL    HW110370   2.768   1.660   5.094
 3158SOL    HW210371   2.822   1.772   5.199
 3159SOL     OW10372   2.335   0.500   3.915
 3159SOL    HW110373   2.396   0.580   3.919
 3159SOL    HW210374   2.240   0.531   3.922
 3160SOL     OW10375   2.021   1.137   5.190
 3160SOL    HW110376   2.043   1.076   5.266
 3160SOL    HW210377   2.031   1.088   5.104
 3161SOL     OW10378   3.209   1.059   4.958
 3161SOL    HW110379   3.233   0.996   4.884
 3161SOL    HW210380   3.119   1.099   4.940
 3162SOL     OW10381   3.164   0.855   4.033
 3162SOL    HW110382   3.078   0.824   4.075
 3162SOL    HW210383   3.160   0.841   3.934
 3163SOL     OW10384   3.621   1.747   4.878
 3163SOL    HW110385   3.682   1.777   4.805
 3163SOL    HW210386   3.583   1.658   4.856
 3164SOL     OW10387   3.114   1.731   4.852
 3164SOL    HW110388   3.198   1.736   4.798
 3164SOL    HW210389   3.091   1.635   4.870
 3165SOL     OW10390   1.945   1.258   4.746
 3165SOL    HW110391   1.940   1.257   4.846
 3165SOL    HW210392   1.862   1.217   4.708
 3166SOL     OW10393   2.550   1.662   5.440
 3166SOL    HW110394   2.494   1.743   5.449
 3166SOL    HW210395   2.602   1.666   5.354
 3167SOL     OW10396   3.588   0.135   4.247
 3167SOL    HW110397   3.661   0.118   4.180
 3167SOL    HW210398   3.557   0.048   4.285
 3168SOL     OW10399   3.250   1.573   4.201
 3168SOL    HW110400   3.317   1.585   4.127
 3168SOL    HW210401   3.210   1.662   4.224
 3169SOL     OW10402   1.992   1.794   5.575
 3169SOL    HW110403   1.951   1.720   5.628
 3169SOL    HW210404   2.056   1.845   5.633
 3170SOL     OW10405   3.142   0.927   4.396
 3170SOL    HW110406   3.202   0.846   4.398
 3170SOL    HW210407   3.182   0.996   4.336
 3171SOL     OW10408   2.692   1.273   5.146
 3171SOL    HW110409   2.687   1.306   5.241
 3171SOL    HW210410   2.606   1.292   5.100
 3172SOL     OW10411   2.534   1.616   3.878
 3172SOL    HW110412   2.543   1.626   3.779
 3172SOL    HW210413   2.494   1.527   3.899
 3173SOL     OW10414   3.512   1.720   5.118
 3173SOL    HW110415   3.565   1.730   5.034
 3173SOL    HW210416   3.485   1.810   5.152
 3174SOL     OW10417   3.703   0.175   4.687
 3174SOL    HW110418   3.742   0.090   4.651
 3174SOL    HW210419   3.605   0.177   4.668
 3175SOL     OW10420   2.125   0.326   4.444
 3175SOL    HW110421   2.046   0.377   4.410
 3175SOL    HW210422   2.116   0.311   4.542
 3176SOL     OW10423   3.056   1.612   3.755
 3176SOL    HW110424   3.062   1.519   3.792
 3176SOL    HW210425   2.997   1.612   3.675
 3177SOL     OW10426   2.684   1.002   5.096
 3177SOL    HW110427   2.724   1.001   5.004
 3177SOL    HW210428   2.694   1.094   5.136
 3178SOL     OW10429   2.778   0.910   4.015
 3178SOL    HW110430   2.841   0.948   3.947
 3178SOL    HW210431   2.818   0.827   4.054
 3179SOL     OW10432   3.366   1.607   3.768
 3179SOL    HW110433   3.274   1.644   3.775
 3179SOL    HW210434   3.404   1.627   3.678
 3180SOL     OW10435   2.234   1.288   5.214
 3180SOL    HW110436   2.221   1.381   5.180
 3180SOL    HW210437   2.150   1.236   5.201
 3181SOL     OW10438   3.476   1.292   5.013
 3181SOL    HW110439   3.536   1.295   5.093
 3181SOL    HW210440   3.401   1.356   5.026
 3182SOL     OW10441   2.901   1.098   4.420
 3182SOL    HW110442   2.831   1.051   4.474
 3182SOL    HW210443   2.960   1.030   4.377
 3183SOL     OW10444   2.876   0.236   4.695
 3183SOL    HW110445   2.868   0.200   4.602
 3183SOL    HW210446   2.874   0.160   4.760
 3184SOL     OW10447   2.452   1.487   4.215
 3184SOL    HW110448   2.494   1.429   4.145
 3184SOL    HW210449   2.408   1.566   4.171
 3185SOL     OW10450   3.571   0.385   5.105
 3185SOL    HW110451   3.644   0.454   5.109
 3185SOL    HW210452   3.599   0.310   5.046
 3186SOL     OW10453   2.117   1.348   4.014
 3186SOL    HW110454   2.021   1.349   3.987
 3186SOL    HW210455   2.129   1.401   4.098
 3187SOL     OW10456   1.967   1.013   5.450
 3187SOL    HW110457   1.890   0.980   5.504
 3187SOL    HW210458   2.052   0.983   5.492
 3188SOL     OW10459   2.534   0.203   5.213
 3188SOL    HW110460   2.624   0.187   5.173
 3188SOL    HW210461   2.542   0.208   5.312
 3189SOL     OW10462   1.937   0.345   3.757
 3189SOL    HW110463   1.845   0.317   3.728
 3189SOL    HW210464   1.968   0.422   3.701
 3190SOL     OW10465   3.302   0.856   5.122
 3190SOL    HW110466   3.245   0.908   5.059
 3190SOL    HW210467   3.398   0.868   5.098
 3191SOL     OW10468   1.934   0.166   4.042
 3191SOL    HW110469   1.917   0.249   3.988
 3191SOL    HW210470   2.024   0.129   4.020
 3192SOL     OW10471   3.045   1.335   3.843
 3192SOL    HW110472   2.946   1.324   3.845
 3192SOL    HW210473   3.079   1.350   3.936
 3193SOL     OW10474   2.475   0.842   5.155
 3193SOL    HW110475   2.531   0.923   5.138
 3193SOL    HW210476   2.534   0.762   5.158
 3194SOL     OW10477   2.578   0.565   5.432
 3194SOL    HW110478   2.597   0.630   5.506
 3194SOL    HW210479   2.638   0.485   5.441
 3195SOL     OW10480   3.312   1.220   5.357
 3195SOL    HW110481   3.303   1.210   5.456
 3195SOL    HW210482   3.408   1.213   5.331
 3196SOL     OW10483   2.252   1.741   5.284
 3196SOL    HW110484   2.161   1.782   5.282
 3196SOL    HW210485   2.245   1.647   5.316
 3197SOL     OW10486   3.536   0.883   4.978
 3197SOL    HW110487   3.509   0.794   4.941
 3197SOL    HW210488   3.537   0.951   4.905
 3198SOL     OW10489   3.087   0.325   4.173
 3198SOL    HW110490   3.152   0.251   4.162
 3198SOL    HW210491   3.107   0.375   4.257
 3199SOL     OW10492   2.456   0.745   4.376
 3199SOL    HW110493   2.506   0.830   4.357
 3199SOL    HW210494   2.368   0.747   4.328
 3200SOL     OW10495   3.639   0.342   5.366
 3200SOL    HW110496   3.622   0.373   5.272
 3200SOL    HW210497   3.555   0.305   5.404
 3201SOL     OW10498   3.592   0.934   5.241
 3201SOL    HW110499   3.630   1.025   5.256
 3201SOL    HW210500   3.584   0.917   5.142
 3202SOL     OW10501   2.721   1.374   3.740
 3202SOL    HW110502   2.675   1.389   3.828
 3202SOL    HW210503   2.765   1.459   3.710
 3203SOL     OW10504   2.721   0.956   4.585
 3203SOL    HW110505   2.775   0.887   4.633
 3203SOL    HW210506   2.689   1.025   4.651
 3204SOL     OW10507   2.945   0.984   3.811
 3204SOL    HW110508   2.922   1.037   3.729
 3204SOL    HW210509   3.026   0.928   3.792
 3205SOL     OW10510   3.723   1.569   4.575
 3205SOL    HW110511   3.652   1.557   4.505
 3205SOL    HW210512   3.724   1.490   4.635
 3206SOL     OW10513   2.083   1.314   5.568
 3206SOL    HW110514   2.018   1.241   5.547
 3206SOL    HW210515   2.087   1.328   5.666
 3207SOL     OW10516   1.941   1.240   4.377
 3207SOL    HW110517   1.940   1.193   4.465
 3207SOL    HW210518   2.023   1.212   4.326
 3208SOL     OW10519   2.534   1.391   5.348
 3208SOL    HW110520   2.456   1.341   5.386
 3208SOL    HW210521   2.531   1.486   5.379
 3209SOL     OW10522   3.686   0.192   4.951
 3209SOL    HW110523   3.682   0.102   4.995
 3209SOL    HW210524   3.689   0.181   4.852
 3210SOL     OW10525   2.290   0.424   4.244
 3210SOL    HW110526   2.320   0.352   4.182
 3210SOL    HW210527   2.251   0.384   4.327
 3211SOL     OW10528   3.567   1.487   4.828
 3211SOL    HW110529   3.474   1.462   4.801
 3211SOL    HW210530   3.593   1.437   4.910
 3212SOL     OW10531   2.179   0.547   5.004
 3212SOL    HW110532   2.217   0.488   5.076
 3212SOL    HW210533   2.219   0.521   4.916
 3213SOL     OW10534   2.674   1.586   4.411
 3213SOL    HW110535   2.706   1.596   4.317
 3213SOL    HW210536   2.595   1.524   4.413
 3214SOL     OW10537   3.286   0.214   4.836
 3214SOL    HW110538   3.338   0.149   4.891
 3214SOL    HW210539   3.237   0.277   4.897
 3215SOL     OW10540   2.863   0.034   4.878
 3215SOL    HW110541   2.800  -0.038   4.847
 3215SOL    HW210542   2.956  -0.002   4.878
 3216SOL     OW10543   2.632   1.330   4.025
 3216SOL    HW110544   2.586   1.243   4.042
 3216SOL    HW210545   2.723   1.327   4.066
 3217SOL     OW10546   2.480   1.567   5.008
 3217SOL    HW110547   2.475   1.649   5.065
 3217SOL    HW210548   2.569   1.564   4.963
 3218SOL     OW10549   3.214   0.052   3.892
 3218SOL    HW110550   3.249   0.011   3.808
 3218SOL    HW210551   3.124   0.014   3.912
 3219SOL     OW10552   3.162   0.453   4.415
 3219SOL    HW110553   3.103   0.533   4.419
 3219SOL    HW210554   3.177   0.418   4.508
 3220SOL     OW10555   3.455   0.221   4.606
 3220SOL    HW110556   3.371   0.220   4.660
 3220SOL    HW210557   3.457   0.304   4.550
 3221SOL     OW10558   1.901   1.077   4.024
 3221SOL    HW110559   2.000   1.066   4.015
 3221SOL    HW210560   1.861   0.991   4.056
 3222SOL     OW10561   2.737   1.646   4.061
 3222SOL    HW110562   2.660   1.611   4.007
 3222SOL    HW210563   2.705   1.717   4.123
 3223SOL     OW10564   2.092   0.628   5.699
 3223SOL    HW110565   1.999   0.626   5.736
 3223SOL    HW210566   2.093   0.589   5.607
 3224SOL     OW10567   2.087   0.275   6.582
 3224SOL    HW110568   2.122   0.258   6.674
 3224SOL    HW210569   1.999   0.230   6.570
 3225SOL     OW10570   1.881   0.368   6.233
 3225SOL    HW110571   1.799   0.411   6.272
 3225SOL    HW210572   1.853   0.295   6.170
 3226SOL     OW10573   2.431   1.275   6.751
 3226SOL    HW110574   2.338   1.268   6.714
 3226SOL    HW210575   2.442   1.364   6.795
 3227SOL     OW10576   3.417   1.511   6.289
 3227SOL    HW110577   3.360   1.495   6.370
 3227SOL    HW210578   3.358   1.521   6.209
 3228SOL     OW10579   2.997   0.703   6.303
 3228SOL    HW110580   3.054   0.781   6.278
 3228SOL    HW210581   2.937   0.729   6.379
 3229SOL     OW10582   3.617   0.607   5.817
 3229SOL    HW110583   3.605   0.594   5.718
 3229SOL    HW210584   3.587   0.526   5.866
 3230SOL     OW10585   2.630   1.144   6.609
 3230SOL    HW110586   2.552   1.161   6.669
 3230SOL    HW210587   2.664   1.231   6.573
 3231SOL     OW10588   2.712   0.798   7.409
 3231SOL    HW110589   2.708   0.874   7.474
 3231SOL    HW210590   2.734   0.834   7.318
 3232SOL     OW10591   2.547   1.012   6.251
 3232SOL    HW110592   2.616   0.996   6.321
 3232SOL    HW210593   2.474   1.069   6.289
 3233SOL     OW10594   2.548   1.161   7.389
 3233SOL    HW110595   2.608   1.240   7.403
 3233SOL    HW210596   2.462   1.192   7.348
 3234SOL     OW10597   2.197   1.435   6.647
 3234SOL    HW110598   2.119   1.404   6.594
 3234SOL    HW210599   2.255   1.493   6.590
 3235SOL     OW10600   3.322   1.505   6.925
 3235SOL    HW110601   3.346   1.599   6.951
 3235SOL    HW210602   3.306   1.451   7.007
 3236SOL     OW10603   2.300   0.392   7.085
 3236SOL    HW110604   2.382   0.336   7.094
 3236SOL    HW210605   2.219   0.334   7.089
 3237SOL     OW10606   3.465   0.447   6.323
 3237SOL    HW110607   3.391   0.493   6.273
 3237SOL    HW210608   3.516   0.515   6.376
 3238SOL     OW10609   2.093   1.713   6.069
 3238SOL    HW110610   2.127   1.790   6.123
 3238SOL    HW210611   2.137   1.713   5.979
 3239SOL     OW10612   2.989   1.341   7.276
 3239SOL    HW110613   3.036   1.341   7.364
 3239SOL    HW210614   2.941   1.254   7.265
 3240SOL     OW10615   2.092   1.434   6.124
 3240SOL    HW110616   2.066   1.530   6.124
 3240SOL    HW210617   2.021   1.380   6.169
 3241SOL     OW10618   2.102   1.091   6.472
 3241SOL    HW110619   2.116   1.007   6.524
 3241SOL    HW210620   2.047   1.155   6.527
 3242SOL     OW10621   2.482   1.786   7.025
 3242SOL    HW110622   2.390   1.769   7.060
 3242SOL    HW210623   2.510   1.878   7.051
 3243SOL     OW10624   2.468   0.964   5.709
 3243SOL    HW110625   2.475   1.048   5.655
 3243SOL    HW210626   2.514   0.977   5.797
 3244SOL     OW10627   3.456   0.114   7.066
 3244SOL    HW110628   3.438   0.181   6.994
 3244SOL    HW210629   3.453   0.160   7.155
 3245SOL     OW10630   1.984   0.643   6.149
 3245SOL    HW110631   1.939   0.555   6.166
 3245SOL    HW210632   1.983   0.697   6.233
 3246SOL     OW10633   3.704   1.767   5.945
 3246SOL    HW110634   3.758   1.738   6.025
 3246SOL    HW210635   3.734   1.857   5.916
 3247SOL     OW10636   1.889   1.596   5.703
 3247SOL    HW110637   1.870   1.500   5.724
 3247SOL    HW210638   1.856   1.654   5.778
 3248SOL     OW10639   3.551   0.922   6.198
 3248SOL    HW110640   3.646   0.893   6.206
 3248SOL    HW210641   3.543   0.987   6.123
 3249SOL     OW10642   3.503   1.108   6.018
 3249SOL    HW110643   3.589   1.110   5.966
 3249SOL    HW210644   3.517   1.155   6.106
 3250SOL     OW10645   1.975   0.737   7.183
 3250SOL    HW110646   2.063   0.724   7.228
 3250SOL    HW210647   1.962   0.834   7.161
 3251SOL     OW10648   2.475   1.365   6.312
 3251SOL    HW110649   2.426   1.278   6.321
 3251SOL    HW210650   2.452   1.408   6.225
 3252SOL     OW10651   3.155   1.228   7.009
 3252SOL    HW110652   3.192   1.155   6.951
 3252SOL    HW210653   3.207   1.233   7.094
 3253SOL     OW10654   2.671   0.004   6.088
 3253SOL    HW110655   2.711   0.095   6.079
 3253SOL    HW210656   2.571   0.012   6.094
 3254SOL     OW10657   2.059   0.976   6.850
 3254SOL    HW110658   2.148   0.931   6.836
 3254SOL    HW210659   1.986   0.911   6.831
 3255SOL     OW10660   3.387   0.999   5.776
 3255SOL    HW110661   3.324   0.923   5.789
 3255SOL    HW210662   3.435   1.017   5.862
 3256SOL     OW10663   3.049   1.792   7.202
 3256SOL    HW110664   3.073   1.852   7.126
 3256SOL    HW210665   3.056   1.697   7.172
 3257SOL     OW10666   2.179   0.251   7.387
 3257SOL    HW110667   2.250   0.322   7.393
 3257SOL    HW210668   2.091   0.290   7.415
 3258SOL     OW10669   3.328   1.417   6.539
 3258SOL    HW110670   3.269   1.423   6.619
 3258SOL    HW210671   3.313   1.329   6.493
 3259SOL     OW10672   3.529   1.714   6.158
 3259SOL    HW110673   3.488   1.691   6.070
 3259SOL    HW210674   3.511   1.640   6.223
 3260SOL     OW10675   2.460   0.729   5.856
 3260SOL    HW110676   2.484   0.798   5.788
 3260SOL    HW210677   2.382   0.762   5.910
 3261SOL     OW10678   3.143   0.345   6.530
 3261SOL    HW110679   3.057   0.295   6.517
 3261SOL    HW210680   3.205   0.291   6.586
 3262SOL     OW10681   3.438   1.662   5.893
 3262SOL    HW110682   3.527   1.708   5.896
 3262SOL    HW210683   3.417   1.638   5.798
 3263SOL     OW10684   2.669   0.605   7.051
 3263SOL    HW110685   2.622   0.602   7.140
 3263SOL    HW210686   2.618   0.550   6.985
 3264SOL     OW10687   3.256   0.469   7.260
 3264SOL    HW110688   3.236   0.512   7.348
 3264SOL    HW210689   3.334   0.407   7.269
 3265SOL     OW10690   2.835   0.890   7.158
 3265SOL    HW110691   2.881   0.806   7.129
 3265SOL    HW210692   2.779   0.924   7.083
 3266SOL     OW10693   2.853   0.410   6.828
 3266SOL    HW110694   2.776   0.444   6.882
 3266SOL    HW210695   2.819   0.359   6.749
 3267SOL     OW10696   2.903   0.701   6.015
 3267SOL    HW110697   2.929   0.697   6.111
 3267SOL    HW210698   2.818   0.650   6.001
 3268SOL     OW10699   1.938   0.811   6.375
 3268SOL    HW110700   2.037   0.799   6.384
 3268SOL    HW210701   1.914   0.906   6.396
 3269SOL     OW10702   1.992   1.821   7.157
 3269SOL    HW110703   1.982   1.806   7.256
 3269SOL    HW210704   1.906   1.857   7.121
 3270SOL     OW10705   2.727   0.348   5.781
 3270SOL    HW110706   2.786   0.411   5.732
 3270SOL    HW210707   2.746   0.254   5.752
 3271SOL     OW10708   3.581   0.585   7.417
 3271SOL    HW110709   3.555   0.674   7.381
 3271SOL    HW210710   3.579   0.517   7.344
 3272SOL     OW10711   3.224   1.144   6.131
 3272SOL    HW110712   3.307   1.115   6.083
 3272SOL    HW210713   3.175   1.211   6.075
 3273SOL     OW10714   2.412   0.196   6.471
 3273SOL    HW110715   2.407   0.191   6.571
 3273SOL    HW210716   2.414   0.292   6.442
 3274SOL     OW10717   2.870   1.456   6.063
 3274SOL    HW110718   2.824   1.528   6.011
 3274SOL    HW210719   2.866   1.476   6.161
 3275SOL     OW10720   2.213   1.801   6.439
 3275SOL    HW110721   2.263   1.715   6.445
 3275SOL    HW210722   2.278   1.878   6.436
 3276SOL     OW10723   3.657   1.066   6.459
 3276SOL    HW110724   3.595   1.051   6.383
 3276SOL    HW210725   3.605   1.077   6.544
 3277SOL     OW10726   3.089   1.550   7.092
 3277SOL    HW110727   3.095   1.473   7.156
 3277SOL    HW210728   3.037   1.524   7.012
 3278SOL     OW10729   2.183   0.943   5.828
 3278SOL    HW110730   2.265   0.982   5.786
 3278SOL    HW210731   2.156   0.861   5.779
 3279SOL     OW10732   3.320   0.735   6.314
 3279SOL    HW110733   3.315   0.670   6.389
 3279SOL    HW210734   3.400   0.794   6.327
 3280SOL     OW10735   2.323   1.266   7.313
 3280SOL    HW110736   2.273   1.267   7.227
 3280SOL    HW210737   2.260   1.248   7.389
 3281SOL     OW10738   2.973   1.776   5.823
 3281SOL    HW110739   2.913   1.714   5.873
 3281SOL    HW210740   3.004   1.732   5.738
 3282SOL     OW10741   2.064   0.285   7.084
 3282SOL    HW110742   1.984   0.345   7.071
 3282SOL    HW210743   2.054   0.236   7.170
 3283SOL     OW10744   3.494   1.377   5.667
 3283SOL    HW110745   3.462   1.471   5.657
 3283SOL    HW210746   3.418   1.314   5.655
 3284SOL     OW10747   2.326   1.743   5.909
 3284SOL    HW110748   2.359   1.782   5.995
 3284SOL    HW210749   2.402   1.736   5.844
 3285SOL     OW10750   3.262   0.107   6.012
 3285SOL    HW110751   3.238   0.070   5.922
 3285SOL    HW210752   3.361   0.123   6.016
 3286SOL     OW10753   2.111   1.785   6.827
 3286SOL    HW110754   2.168   1.720   6.877
 3286SOL    HW210755   2.095   1.752   6.734
 3287SOL     OW10756   2.802   1.698   6.490
 3287SOL    HW110757   2.882   1.641   6.511
 3287SOL    HW210758   2.753   1.658   6.413
 3288SOL     OW10759   2.244   0.700   6.066
 3288SOL    HW110760   2.289   0.610   6.063
 3288SOL    HW210761   2.150   0.689   6.099
 3289SOL     OW10762   3.409   0.222   7.315
 3289SOL    HW110763   3.404   0.259   7.407
 3289SOL    HW210764   3.337   0.153   7.303
 3290SOL     OW10765   2.476   0.122   5.703
 3290SOL    HW110766   2.574   0.100   5.710
 3290SOL    HW210767   2.445   0.105   5.610
 3291SOL     OW10768   2.643   0.264   7.335
 3291SOL    HW110769   2.710   0.203   7.378
 3291SOL    HW210770   2.570   0.283   7.400
 3292SOL     OW10771   2.750   1.514   6.781
 3292SOL    HW110772   2.727   1.489   6.687
 3292SOL    HW210773   2.811   1.445   6.820
 3293SOL     OW10774   3.213   0.590   7.019
 3293SOL    HW110775   3.241   0.547   7.104
 3293SOL    HW210776   3.238   0.686   7.020
 3294SOL     OW10777   2.665   1.402   6.510
 3294SOL    HW110778   2.755   1.416   6.468
 3294SOL    HW210779   2.594   1.404   6.439
 3295SOL     OW10780   2.784   0.503   6.485
 3295SOL    HW110781   2.759   0.494   6.389
 3295SOL    HW210782   2.832   0.421   6.516
 3296SOL     OW10783   2.401   0.064   6.098
 3296SOL    HW110784   2.320   0.065   6.156
 3296SOL    HW210785   2.404   0.147   6.043
 3297SOL     OW10786   3.296   1.188   5.627
 3297SOL    HW110787   3.328   1.112   5.684
 3297SOL    HW210788   3.204   1.215   5.657
 3298SOL     OW10789   2.159   0.035   5.757
 3298SOL    HW110790   2.208   0.119   5.736
 3298SOL    HW210791   2.221  -0.030   5.802
 3299SOL     OW10792   2.797   0.236   6.066
 3299SOL    HW110793   2.749   0.277   5.988
 3299SOL    HW210794   2.896   0.234   6.047
 3300SOL     OW10795   2.938   0.683   7.050
 3300SOL    HW110796   2.858   0.622   7.053
 3300SOL    HW210797   3.019   0.630   7.026
 3301SOL     OW10798   3.089   1.570   6.379
 3301SOL    HW110799   3.110   1.644   6.314
 3301SOL    HW210800   3.157   1.570   6.452
 3302SOL     OW10801   2.321   1.152   6.327
 3302SOL    HW110802   2.250   1.125   6.392
 3302SOL    HW210803   2.295   1.124   6.234
 3303SOL     OW10804   3.133   1.797   6.177
 3303SOL    HW110805   3.177   1.861   6.113
 3303SOL    HW210806   3.083   1.849   6.247
 3304SOL     OW10807   2.894   0.549   5.602
 3304SOL    HW110808   2.853   0.631   5.563
 3304SOL    HW210809   2.958   0.575   5.675
 3305SOL     OW10810   1.940   0.556   6.972
 3305SOL    HW110811   2.032   0.555   6.931
 3305SOL    HW210812   1.934   0.630   7.039
 3306SOL     OW10813   2.423   0.222   6.733
 3306SOL    HW110814   2.461   0.138   6.770
 3306SOL    HW210815   2.335   0.241   6.777
 3307SOL     OW10816   2.728   0.454   6.228
 3307SOL    HW110817   2.696   0.526   6.166
 3307SOL    HW210818   2.752   0.373   6.175
 3308SOL     OW10819   2.879   0.039   6.339
 3308SOL    HW110820   2.807   0.044   6.270
 3308SOL    HW210821   2.855  -0.030   6.408
 3309SOL     OW10822   3.291   1.173   6.453
 3309SOL    HW110823   3.236   1.089   6.446
 3309SOL    HW210824   3.317   1.202   6.361
 3310SOL     OW10825   3.328   0.590   6.578
 3310SOL    HW110826   3.298   0.495   6.585
 3310SOL    HW210827   3.401   0.606   6.644
 3311SOL     OW10828   3.719   0.833   5.963
 3311SOL    HW110829   3.761   0.769   6.027
 3311SOL    HW210830   3.681   0.782   5.885
 3312SOL     OW10831   2.350   1.385   5.760
 3312SOL    HW110832   2.263   1.370   5.807
 3312SOL    HW210833   2.333   1.411   5.665
 3313SOL     OW10834   3.526   1.280   6.243
 3313SOL    HW110835   3.625   1.288   6.257
 3313SOL    HW210836   3.481   1.364   6.274
 3314SOL     OW10837   3.252   0.575   5.664
 3314SOL    HW110838   3.198   0.554   5.745
 3314SOL    HW210839   3.343   0.534   5.673
 3315SOL     OW10840   2.389   0.256   5.914
 3315SOL    HW110841   2.416   0.197   5.839
 3315SOL    HW210842   2.389   0.351   5.883
 3316SOL     OW10843   3.616   1.223   7.174
 3316SOL    HW110844   3.707   1.184   7.161
 3316SOL    HW210845   3.624   1.319   7.198
 3317SOL     OW10846   2.926   1.347   6.926
 3317SOL    HW110847   2.846   1.324   6.981
 3317SOL    HW210848   3.009   1.321   6.975
 3318SOL     OW10849   3.454   1.629   7.211
 3318SOL    HW110850   3.481   1.663   7.121
 3318SOL    HW210851   3.533   1.591   7.257
 3319SOL     OW10852   2.973   1.195   6.686
 3319SOL    HW110853   2.933   1.239   6.767
 3319SOL    HW210854   2.932   1.232   6.603
 3320SOL     OW10855   3.500   1.099   6.665
 3320SOL    HW110856   3.505   1.180   6.724
 3320SOL    HW210857   3.414   1.101   6.614
 3321SOL     OW10858   2.777   0.089   6.988
 3321SOL    HW110859   2.802   0.069   6.893
 3321SOL    HW210860   2.849   0.145   7.030
 3322SOL     OW10861   2.842   1.116   7.305
 3322SOL    HW110862   2.743   1.122   7.315
 3322SOL    HW210863   2.865   1.036   7.249
 3323SOL     OW10864   2.567   1.050   5.954
 3323SOL    HW110865   2.553   1.057   6.053
 3323SOL    HW210866   2.651   0.999   5.936
 3324SOL     OW10867   2.272   0.813   6.837
 3324SOL    HW110868   2.358   0.825   6.887
 3324SOL    HW210869   2.230   0.726   6.864
 3325SOL     OW10870   3.136   0.386   6.848
 3325SOL    HW110871   3.157   0.460   6.912
 3325SOL    HW210872   3.047   0.403   6.805
 3326SOL     OW10873   1.926   1.564   6.917
 3326SOL    HW110874   1.880   1.646   6.883
 3326SOL    HW210875   2.024   1.583   6.926
 3327SOL     OW10876   2.229   1.100   6.087
 3327SOL    HW110877   2.222   1.183   6.031
 3327SOL    HW210878   2.233   1.020   6.027
 3328SOL     OW10879   2.428   0.537   6.451
 3328SOL    HW110880   2.440   0.603   6.377
 3328SOL    HW210881   2.474   0.571   6.534
 3329SOL     OW10882   3.114   1.348   5.974
 3329SOL    HW110883   3.164   1.425   6.014
 3329SOL    HW210884   3.019   1.350   6.006
 3330SOL     OW10885   3.134   1.445   6.728
 3330SOL    HW110886   3.181   1.458   6.815
 3330SOL    HW210887   3.068   1.371   6.737
 3331SOL     OW10888   3.444   0.639   6.058
 3331SOL    HW110889   3.413   0.700   6.131
 3331SOL    HW210890   3.494   0.691   5.989
 3332SOL     OW10891   2.216   1.510   6.915
 3332SOL    HW110892   2.195   1.466   6.828
 3332SOL    HW210893   2.313   1.536   6.918
 3333SOL     OW10894   2.264   0.751   7.184
 3333SOL    HW110895   2.332   0.806   7.137
 3333SOL    HW210896   2.304   0.663   7.211
 3334SOL     OW10897   3.449   0.779   7.256
 3334SOL    HW110898   3.357   0.817   7.251
 3334SOL    HW210899   3.509   0.826   7.191
 3335SOL     OW10900   2.875   0.105   7.356
 3335SOL    HW110901   2.881   0.190   7.304
 3335SOL    HW210902   2.907   0.029   7.299
 3336SOL     OW10903   2.366   0.050   7.326
 3336SOL    HW110904   2.324  -0.007   7.256
 3336SOL    HW210905   2.300   0.119   7.358
 3337SOL     OW10906   2.435   0.870   6.615
 3337SOL    HW110907   2.479   0.959   6.606
 3337SOL    HW210908   2.372   0.870   6.692
 3338SOL     OW10909   3.222   0.862   6.631
 3338SOL    HW110910   3.147   0.862   6.565
 3338SOL    HW210911   3.259   0.770   6.640
 3339SOL     OW10912   3.071   0.525   5.861
 3339SOL    HW110913   3.084   0.441   5.915
 3339SOL    HW210914   3.042   0.599   5.921
 3340SOL     OW10915   2.169   0.213   6.817
 3340SOL    HW110916   2.146   0.250   6.907
 3340SOL    HW210917   2.139   0.118   6.811
 3341SOL     OW10918   1.899   1.310   6.868
 3341SOL    HW110919   1.952   1.261   6.936
 3341SOL    HW210920   1.921   1.408   6.873
 3342SOL     OW10921   2.594   0.634   6.650
 3342SOL    HW110922   2.653   0.608   6.574
 3342SOL    HW210923   2.566   0.730   6.639
 3343SOL     OW10924   3.590   0.935   7.440
 3343SOL    HW110925   3.544   0.928   7.351
 3343SOL    HW210926   3.528   0.979   7.506
 3344SOL     OW10927   2.169   0.063   6.204
 3344SOL    HW110928   2.158   0.157   6.237
 3344SOL    HW210929   2.164   0.000   6.281
 3345SOL     OW10930   3.484   0.367   5.960
 3345SOL    HW110931   3.486   0.291   6.024
 3345SOL    HW210932   3.436   0.444   6.000
 3346SOL     OW10933   2.885   0.766   6.552
 3346SOL    HW110934   2.900   0.787   6.648
 3346SOL    HW210935   2.855   0.671   6.543
 3347SOL     OW10936   2.842   1.573   7.286
 3347SOL    HW110937   2.822   1.617   7.198
 3347SOL    HW210938   2.881   1.482   7.270
 3348SOL     OW10939   3.721   1.518   7.191
 3348SOL    HW110940   3.735   1.545   7.096
 3348SOL    HW210941   3.804   1.540   7.244
 3349SOL     OW10942   2.212   0.898   7.390
 3349SOL    HW110943   2.288   0.942   7.438
 3349SOL    HW210944   2.247   0.851   7.308
 3350SOL     OW10945   3.402   0.274   5.711
 3350SOL    HW110946   3.341   0.199   5.734
 3350SOL    HW210947   3.424   0.326   5.794
 3351SOL     OW10948   3.165   0.838   5.628
 3351SOL    HW110949   3.199   0.745   5.643
 3351SOL    HW210950   3.183   0.865   5.533
 3352SOL     OW10951   2.930   1.333   6.435
 3352SOL    HW110952   2.937   1.249   6.380
 3352SOL    HW210953   2.992   1.402   6.399
 3353SOL     OW10954   2.181   0.810   6.535
 3353SOL    HW110955   2.274   0.846   6.540
 3353SOL    HW210956   2.175   0.725   6.587
 3354SOL     OW10957   2.201   0.509   6.592
 3354SOL    HW110958   2.149   0.426   6.575
 3354SOL    HW210959   2.278   0.514   6.528
 3355SOL     OW10960   3.000   0.380   7.264
 3355SOL    HW110961   2.955   0.443   7.328
 3355SOL    HW210962   3.093   0.411   7.247
 3356SOL     OW10963   3.022   0.207   7.063
 3356SOL    HW110964   3.022   0.271   7.140
 3356SOL    HW210965   3.050   0.255   6.980
 3357SOL     OW10966   1.870   1.326   5.786
 3357SOL    HW110967   1.777   1.347   5.755
 3357SOL    HW210968   1.880   1.227   5.799
 3358SOL     OW10969   1.950   1.801   6.513
 3358SOL    HW110970   1.908   1.715   6.486
 3358SOL    HW210971   2.044   1.804   6.479
 3359SOL     OW10972   2.366   1.568   6.496
 3359SOL    HW110973   2.432   1.642   6.505
 3359SOL    HW210974   2.410   1.489   6.454
 3360SOL     OW10975   2.864   0.796   6.824
 3360SOL    HW110976   2.905   0.764   6.910
 3360SOL    HW210977   2.768   0.769   6.821
 3361SOL     OW10978   1.902   0.544   6.700
 3361SOL    HW110979   1.987   0.511   6.659
 3361SOL    HW210980   1.915   0.559   6.798
 3362SOL     OW10981   2.051   0.520   7.308
 3362SOL    HW110982   2.110   0.480   7.238
 3362SOL    HW210983   1.993   0.591   7.267
 3363SOL     OW10984   3.231   0.950   7.246
 3363SOL    HW110985   3.270   1.039   7.266
 3363SOL    HW210986   3.241   0.930   7.149
 3364SOL     OW10987   2.677   0.572   5.911
 3364SOL    HW110988   2.684   0.483   5.865
 3364SOL    HW210989   2.583   0.606   5.903
 3365SOL     OW10990   3.519   0.604   6.792
 3365SOL    HW110991   3.481   0.535   6.854
 3365SOL    HW210992   3.601   0.568   6.748
 3366SOL     OW10993   2.114   1.564   7.330
 3366SOL    HW110994   2.084   1.621   7.406
 3366SOL    HW210995   2.107   1.467   7.356
 3367SOL     OW10996   2.533   0.464   6.855
 3367SOL    HW110997   2.499   0.375   6.825
 3367SOL    HW210998   2.559   0.518   6.775
 3368SOL     OW10999   2.792   1.678   7.051
 3368SOL    HW111000   2.768   1.660   6.956
 3368SOL    HW211001   2.822   1.772   7.061
 3369SOL     OW11002   2.335   0.500   5.777
 3369SOL    HW111003   2.396   0.580   5.781
 3369SOL    HW211004   2.240   0.531   5.784
 3370SOL     OW11005   2.021   1.137   7.052
 3370SOL    HW111006   2.043   1.076   7.128
 3370SOL    HW211007   2.031   1.088   6.966
 3371SOL     OW11008   3.209   1.059   6.820
 3371SOL    HW111009   3.233   0.996   6.746
 3371SOL    HW211010   3.119   1.099   6.802
 3372SOL     OW11011   3.164   0.855   5.895
 3372SOL    HW111012   3.078   0.824   5.937
 3372SOL    HW211013   3.160   0.841   5.796
 3373SOL     OW11014   3.621   1.747   6.740
 3373SOL    HW111015   3.682   1.777   6.667
 3373SOL    HW211016   3.583   1.658   6.718
 3374SOL     OW11017   3.114   1.731   6.714
 3374SOL    HW111018   3.198   1.736   6.660
 3374SOL    HW211019   3.091   1.635   6.732
 3375SOL     OW11020   1.945   1.258   6.608
 3375SOL    HW111021   1.940   1.257   6.708
 3375SOL    HW211022   1.862   1.217   6.570
 3376SOL     OW11023   2.550   1.662   7.302
 3376SOL    HW111024   2.494   1.743   7.311
 3376SOL    HW211025   2.602   1.666   7.216
 3377SOL     OW11026   3.588   0.135   6.109
 3377SOL    HW111027   3.661   0.118   6.042
 3377SOL    HW211028   3.557   0.048   6.147
 3378SOL     OW11029   3.250   1.573   6.063
 3378SOL    HW111030   3.317   1.585   5.989
 3378SOL    HW211031   3.210   1.662   6.086
 3379SOL     OW11032   1.992   1.794   7.437
 3379SOL    HW111033   1.951   1.720   7.490
 3379SOL    HW211034   2.056   1.845   7.495
 3380SOL     OW11035   3.142   0.927   6.258
 3380SOL    HW111036   3.202   0.846   6.260
 3380SOL    HW211037   3.182   0.996   6.198
 3381SOL     OW11038   2.692   1.273   7.008
 3381SOL    HW111039   2.687   1.306   7.103
 3381SOL    HW211040   2.606   1.292   6.962
 3382SOL     OW11041   2.534   1.616   5.740
 3382SOL    HW111042   2.543   1.626   5.641
 3382SOL    HW211043   2.494   1.527   5.761
 3383SOL     OW11044   3.512   1.720   6.980
 3383SOL    HW111045   3.565   1.730   6.896
 3383SOL    HW211046   3.485   1.810   7.014
 3384SOL     OW11047   3.703   0.175   6.549
 3384SOL    HW111048   3.742   0.090   6.513
 3384SOL    HW211049   3.605   0.177   6.530
 3385SOL     OW11050   2.125   0.326   6.306
 3385SOL    HW111051   2.046   0.377   6.272
 3385SOL    HW211052   2.116   0.311   6.404
 3386SOL     OW11053   3.056   1.612   5.617
 3386SOL    HW111054   3.062   1.519   5.654
 3386SOL    HW211055   2.997   1.612   5.537
 3387SOL     OW11056   2.684   1.002   6.958
 3387SOL    HW111057   2.724   1.001   6.866
 3387SOL    HW211058   2.694   1.094   6.998
 3388SOL     OW11059   2.778   0.910   5.877
 3388SOL    HW111060   2.841   0.948   5.809
 3388SOL    HW211061   2.818   0.827   5.916
 3389SOL     OW11062   3.366   1.607   5.630
 3389SOL    HW111063   3.274   1.644   5.637
 3389SOL    HW211064   3.404   1.627   5.540
 3390SOL     OW11065   2.234   1.288   7.076
 3390SOL    HW111066   2.221   1.381   7.042
 3390SOL    HW211067   2.150   1.236   7.063
 3391SOL     OW11068   3.476   1.292   6.875
 3391SOL    HW111069   3.536   1.295   6.955
 3391SOL    HW211070   3.401   1.356   6.888
 3392SOL     OW11071   2.901   1.098   6.282
 3392SOL    HW111072   2.831   1.051   6.336
 3392SOL    HW211073   2.960   1.030   6.239
 3393SOL     OW11074   2.876   0.236   6.557
 3393SOL    HW111075   2.868   0.200   6.464
 3393SOL    HW211076   2.874   0.160   6.622
 3394SOL     OW11077   2.452   1.487   6.077
 3394SOL    HW111078   2.494   1.429   6.007
 3394SOL    HW211079   2.408   1.566   6.033
 3395SOL     OW11080   3.571   0.385   6.967
 3395SOL    HW111081   3.644   0.454   6.971
 3395SOL    HW211082   3.599   0.310   6.908
 3396SOL     OW11083   2.117   1.348   5.876
 3396SOL    HW111084   2.021   1.349   5.849
 3396SOL    HW211085   2.129   1.401   5.960
 3397SOL     OW11086   1.967   1.013   7.312
 3397SOL    HW111087   1.890   0.980   7.366
 3397SOL    HW211088   2.052   0.983   7.354
 3398SOL     OW11089   2.534   0.203   7.075
 3398SOL    HW111090   2.624   0.187   7.035
 3398SOL    HW211091   2.542   0.208   7.174
 3399SOL     OW11092   1.937   0.345   5.619
 3399SOL    HW111093   1.845   0.317   5.590
 3399SOL    HW211094   1.968   0.422   5.563
 3400SOL     OW11095   3.302   0.856   6.984
 3400SOL    HW111096   3.245   0.908   6.921
 3400SOL    HW211097   3.398   0.868   6.960
 3401SOL     OW11098   1.934   0.166   5.904
 3401SOL    HW111099   1.917   0.249   5.850
 3401SOL    HW211100   2.024   0.129   5.882
 3402SOL     OW11101   3.045   1.335   5.705
 3402SOL    HW111102   2.946   1.324   5.707
 3402SOL    HW211103   3.079   1.350   5.798
 3403SOL     OW11104   2.475   0.842   7.017
 3403SOL    HW111105   2.531   0.923   7.000
 3403SOL    HW211106   2.534   0.762   7.020
 3404SOL     OW11107   3.355   1.767   6.545
 3404SOL    HW111108   3.388   1.831   6.476
 3404SOL    HW211109   3.421   1.761   6.620
 3405SOL     OW11110   2.578   0.565   7.294
 3405SOL    HW111111   2.597   0.630   7.368
 3405SOL    HW211112   2.638   0.485   7.303
 3406SOL     OW11113   3.312   1.220   7.219
 3406SOL    HW111114   3.303   1.210   7.318
 3406SOL    HW211115   3.408   1.213   7.193
 3407SOL     OW11116   2.252   1.741   7.146
 3407SOL    HW111117   2.161   1.782   7.144
 3407SOL    HW211118   2.245   1.647   7.178
 3408SOL     OW11119   3.536   0.883   6.840
 3408SOL    HW111120   3.509   0.794   6.803
 3408SOL    HW211121   3.537   0.951   6.767
 3409SOL     OW11122   3.087   0.325   6.035
 3409SOL    HW111123   3.152   0.251   6.024
 3409SOL    HW211124   3.107   0.375   6.119
 3410SOL     OW11125   2.456   0.745   6.238
 3410SOL    HW111126   2.506   0.830   6.219
 3410SOL    HW211127   2.368   0.747   6.190
 3411SOL     OW11128   3.639   0.342   7.228
 3411SOL    HW111129   3.622   0.373   7.134
 3411SOL    HW211130   3.555   0.305   7.266
 3412SOL     OW11131   3.592   0.934   7.103
 3412SOL    HW111132   3.630   1.025   7.118
 3412SOL    HW211133   3.584   0.917   7.004
 3413SOL     OW11134   2.721   1.374   5.602
 3413SOL    HW111135   2.675   1.389   5.690
 3413SOL    HW211136   2.765   1.459   5.572
 3414SOL     OW11137   2.523   1.790   6.539
 3414SOL    HW111138   2.477   1.878   6.526
 3414SOL    HW211139   2.622   1.802   6.532
 3415SOL     OW11140   2.721   0.956   6.447
 3415SOL    HW111141   2.775   0.887   6.495
 3415SOL    HW211142   2.689   1.025   6.513
 3416SOL     OW11143   2.945   0.984   5.673
 3416SOL    HW111144   2.922   1.037   5.591
 3416SOL    HW211145   3.026   0.928   5.654
 3417SOL     OW11146   3.723   1.569   6.437
 3417SOL    HW111147   3.652   1.557   6.367
 3417SOL    HW211148   3.724   1.490   6.497
 3418SOL     OW11149   2.083   1.314   7.430
 3418SOL    HW111150   2.018   1.241   7.409
 3418SOL    HW211151   2.087   1.328   7.528
 3419SOL     OW11152   1.941   1.240   6.239
 3419SOL    HW111153   1.940   1.193   6.327
 3419SOL    HW211154   2.023   1.212   6.188
 3420SOL     OW11155   2.534   1.391   7.210
 3420SOL    HW111156   2.456   1.341   7.248
 3420SOL    HW211157   2.531   1.486   7.241
 3421SOL     OW11158   3.686   0.192   6.813
 3421SOL    HW111159   3.682   0.102   6.857
 3421SOL    HW211160   3.689   0.181   6.714
 3422SOL     OW11161   2.290   0.424   6.106
 3422SOL    HW111162   2.320   0.352   6.044
 3422SOL    HW211163   2.251   0.384   6.189
 3423SOL     OW11164   3.567   1.487   6.690
 3423SOL    HW111165   3.474   1.462   6.663
 3423SOL    HW211166   3.593   1.437   6.772
 3424SOL     OW11167   2.179   0.547   6.866
 3424SOL    HW111168   2.217   0.488   6.938
 3424SOL    HW211169   2.219   0.521   6.778
 3425SOL     OW11170   2.674   1.586   6.273
 3425SOL    HW111171   2.706   1.596   6.179
 3425SOL    HW211172   2.595   1.524   6.275
 3426SOL     OW11173   3.286   0.214   6.698
 3426SOL    HW111174   3.338   0.149   6.753
 3426SOL    HW211175   3.237   0.277   6.759
 3427SOL     OW11176   2.863   0.034   6.740
 3427SOL    HW111177   2.800  -0.038   6.709
 3427SOL    HW211178   2.956  -0.002   6.740
 3428SOL     OW11179   2.632   1.330   5.887
 3428SOL    HW111180   2.586   1.243   5.904
 3428SOL    HW211181   2.723   1.327   5.928
 3429SOL     OW11182   2.480   1.567   6.870
 3429SOL    HW111183   2.475   1.649   6.927
 3429SOL    HW211184   2.569   1.564   6.825
 3430SOL     OW11185   3.214   0.052   5.754
 3430SOL    HW111186   3.249   0.011   5.670
 3430SOL    HW211187   3.124   0.014   5.774
 3431SOL     OW11188   3.162   0.453   6.277
 3431SOL    HW111189   3.103   0.533   6.281
 3431SOL    HW211190   3.177   0.418   6.370
 3432SOL     OW11191   3.455   0.221   6.468
 3432SOL    HW111192   3.371   0.220   6.522
 3432SOL    HW211193   3.457   0.304   6.412
 3433SOL     OW11194   1.901   1.077   5.886
 3433SOL    HW111195   2.000   1.066   5.877
 3433SOL    HW211196   1.861   0.991   5.918
 3434SOL     OW11197   2.737   1.646   5.923
 3434SOL    HW111198   2.660   1.611   5.869
 3434SOL    HW211199   2.705   1.717   5.985
 3435SOL     OW11200   2.092   0.628   7.561
 3435SOL    HW111201   1.999   0.626   7.598
 3435SOL    HW211202   2.093   0.589   7.469
 3436SOL     OW11203   3.617   0.607   7.679
 3436SOL    HW111204   3.605   0.594   7.580
 3436SOL    HW211205   3.587   0.526   7.728
 3437SOL     OW11206   2.093   1.713   7.931
 3437SOL    HW111207   2.127   1.790   7.985
 3437SOL    HW211208   2.137   1.713   7.841
 3438SOL     OW11209   2.092   1.434   7.986
 3438SOL    HW111210   2.066   1.530   7.986
 3438SOL    HW211211   2.021   1.380   8.031
 3439SOL     OW11212   2.468   0.964   7.571
 3439SOL    HW111213   2.475   1.048   7.517
 3439SOL    HW211214   2.514   0.977   7.659
 3440SOL     OW11215   3.704   1.767   7.807
 3440SOL    HW111216   3.758   1.738   7.887
 3440SOL    HW211217   3.734   1.857   7.778
 3441SOL     OW11218   1.889   1.596   7.565
 3441SOL    HW111219   1.870   1.500   7.586
 3441SOL    HW211220   1.856   1.654   7.640
 3442SOL     OW11221   3.551   0.922   8.060
 3442SOL    HW111222   3.646   0.893   8.068
 3442SOL    HW211223   3.543   0.987   7.985
 3443SOL     OW11224   3.503   1.108   7.880
 3443SOL    HW111225   3.589   1.110   7.828
 3443SOL    HW211226   3.517   1.155   7.968
 3444SOL     OW11227   2.671   0.004   7.950
 3444SOL    HW111228   2.711   0.095   7.941
 3444SOL    HW211229   2.571   0.012   7.956
 3445SOL     OW11230   3.387   0.999   7.638
 3445SOL    HW111231   3.324   0.923   7.651
 3445SOL    HW211232   3.435   1.017   7.724
 3446SOL     OW11233   2.460   0.729   7.718
 3446SOL    HW111234   2.484   0.798   7.650
 3446SOL    HW211235   2.382   0.762   7.772
 3447SOL     OW11236   3.438   1.662   7.755
 3447SOL    HW111237   3.527   1.708   7.758
 3447SOL    HW211238   3.417   1.638   7.660
 3448SOL     OW11239   1.938   0.811   8.237
 3448SOL    HW111240   2.037   0.799   8.246
 3448SOL    HW211241   1.914   0.906   8.258
 3449SOL     OW11242   2.727   0.348   7.643
 3449SOL    HW111243   2.786   0.411   7.594
 3449SOL    HW211244   2.746   0.254   7.614
 3450SOL     OW11245   2.183   0.943   7.690
 3450SOL    HW111246   2.265   0.982   7.648
 3450SOL    HW211247   2.156   0.861   7.641
 3451SOL     OW11248   2.973   1.776   7.685
 3451SOL    HW111249   2.913   1.714   7.735
 3451SOL    HW211250   3.004   1.732   7.600
 3452SOL     OW11251   3.494   1.377   7.529
 3452SOL    HW111252   3.462   1.471   7.519
 3452SOL    HW211253   3.418   1.314   7.517
 3453SOL     OW11254   2.326   1.743   7.771
 3453SOL    HW111255   2.359   1.782   7.857
 3453SOL    HW211256   2.402   1.736   7.706
 3454SOL     OW11257   3.262   0.107   7.874
 3454SOL    HW111258   3.238   0.070   7.784
 3454SOL    HW211259   3.361   0.123   7.878
 3455SOL     OW11260   2.244   0.700   7.928
 3455SOL    HW111261   2.289   0.610   7.925
 3455SOL    HW211262   2.150   0.689   7.961
 3456SOL     OW11263   2.476   0.122   7.565
 3456SOL    HW111264   2.574   0.100   7.572
 3456SOL    HW211265   2.445   0.105   7.472
 3457SOL     OW11266   2.401   0.064   7.960
 3457SOL    HW111267   2.320   0.065   8.018
 3457SOL    HW211268   2.404   0.147   7.905
 3458SOL     OW11269   3.296   1.188   7.489
 3458SOL    HW111270   3.328   1.112   7.546
 3458SOL    HW211271   3.204   1.215   7.519
 3459SOL     OW11272   2.159   0.035   7.619
 3459SOL    HW111273   2.208   0.119   7.598
 3459SOL    HW211274   2.221  -0.030   7.664
 3460SOL     OW11275   2.797   0.236   7.928
 3460SOL    HW111276   2.749   0.277   7.850
 3460SOL    HW211277   2.896   0.234   7.909
 3461SOL     OW11278   2.321   1.152   8.189
 3461SOL    HW111279   2.250   1.125   8.254
 3461SOL    HW211280   2.295   1.124   8.096
 3462SOL     OW11281   3.133   1.797   8.039
 3462SOL    HW111282   3.177   1.861   7.975
 3462SOL    HW211283   3.083   1.849   8.109
 3463SOL     OW11284   2.894   0.549   7.464
 3463SOL    HW111285   2.853   0.631   7.425
 3463SOL    HW211286   2.958   0.575   7.537
 3464SOL     OW11287   3.719   0.833   7.825
 3464SOL    HW111288   3.761   0.769   7.889
 3464SOL    HW211289   3.681   0.782   7.747
 3465SOL     OW11290   2.350   1.385   7.622
 3465SOL    HW111291   2.263   1.370   7.669
 3465SOL    HW211292   2.333   1.411   7.527
 3466SOL     OW11293   3.252   0.575   7.526
 3466SOL    HW111294   3.198   0.554   7.607
 3466SOL    HW211295   3.343   0.534   7.535
 3467SOL     OW11296   2.389   0.256   7.776
 3467SOL    HW111297   2.416   0.197   7.701
 3467SOL    HW211298   2.389   0.351   7.745
 3468SOL     OW11299   2.567   1.050   7.816
 3468SOL    HW111300   2.553   1.057   7.915
 3468SOL    HW211301   2.651   0.999   7.798
 3469SOL     OW11302   2.229   1.100   7.949
 3469SOL    HW111303   2.222   1.183   7.893
 3469SOL    HW211304   2.233   1.020   7.889
 3470SOL     OW11305   3.114   1.348   7.836
 3470SOL    HW111306   3.164   1.425   7.876
 3470SOL    HW211307   3.019   1.350   7.868
 3471SOL     OW11308   3.444   0.639   7.920
 3471SOL    HW111309   3.413   0.700   7.993
 3471SOL    HW211310   3.494   0.691   7.851
 3472SOL     OW11311   3.071   0.525   7.723
 3472SOL    HW111312   3.084   0.441   7.777
 3472SOL    HW211313   3.042   0.599   7.783
 3473SOL     OW11314   3.484   0.367   7.822
 3473SOL    HW111315   3.486   0.291   7.886
 3473SOL    HW211316   3.436   0.444   7.862
 3474SOL     OW11317   3.402   0.274   7.573
 3474SOL    HW111318   3.341   0.199   7.596
 3474SOL    HW211319   3.424   0.326   7.656
 3475SOL     OW11320   3.165   0.838   7.490
 3475SOL    HW111321   3.199   0.745   7.505
 3475SOL    HW211322   3.183   0.865   7.395
 3476SOL     OW11323   1.870   1.326   7.648
 3476SOL    HW111324   1.777   1.347   7.617
 3476SOL    HW211325   1.880   1.227   7.661
 3477SOL     OW11326   2.677   0.572   7.773
 3477SOL    HW111327   2.684   0.483   7.727
 3477SOL    HW211328   2.583   0.606   7.765
 3478SOL     OW11329   2.335   0.500   7.639
 3478SOL    HW111330   2.396   0.580   7.643
 3478SOL    HW211331   2.240   0.531   7.646
 3479SOL     OW11332   3.164   0.855   7.757
 3479SOL    HW111333   3.078   0.824   7.799
 3479SOL    HW211334   3.160   0.841   7.658
 3480SOL     OW11335   3.588   0.135   7.971
 3480SOL    HW111336   3.661   0.118   7.904
 3480SOL    HW211337   3.557   0.048   8.009
 3481SOL     OW11338   3.250   1.573   7.925
 3481SOL    HW111339   3.317   1.585   7.851
 3481SOL    HW211340   3.210   1.662   7.948
 3482SOL     OW11341   2.534   1.616   7.602
 3482SOL    HW111342   2.543   1.626   7.503
 3482SOL    HW211343   2.494   1.527   7.623
 3483SOL     OW11344   3.056   1.612   7.479
 3483SOL    HW111345   3.062   1.519   7.516
 3483SOL    HW211346   2.997   1.612   7.399
 3484SOL     OW11347   2.778   0.910   7.739
 3484SOL    HW111348   2.841   0.948   7.671
 3484SOL    HW211349   2.818   0.827   7.778
 3485SOL     OW11350   3.366   1.607   7.492
 3485SOL    HW111351   3.274   1.644   7.499
 3485SOL    HW211352   3.404   1.627   7.402
 3486SOL     OW11353   2.452   1.487   7.939
 3486SOL    HW111354   2.494   1.429   7.869
 3486SOL    HW211355   2.408   1.566   7.895
 3487SOL     OW11356   2.117   1.348   7.738
 3487SOL    HW111357   2.021   1.349   7.711
 3487SOL    HW211358   2.129   1.401   7.822
 3488SOL     OW11359   1.937   0.345   7.481
 3488SOL    HW111360   1.845   0.317   7.452
 3488SOL    HW211361   1.968   0.422   7.425
 3489SOL     OW11362   1.934   0.166   7.766
 3489SOL    HW111363   1.917   0.249   7.712
 3489SOL    HW211364   2.024   0.129   7.744
 3490SOL     OW11365   3.045   1.335   7.567
 3490SOL    HW111366   2.946   1.324   7.569
 3490SOL    HW211367   3.079   1.350   7.660
 3491SOL     OW11368   3.087   0.325   7.897
 3491SOL    HW111369   3.152   0.251   7.886
 3491SOL    HW211370   3.107   0.375   7.981
 3492SOL     OW11371   2.456   0.745   8.100
 3492SOL    HW111372   2.506   0.830   8.081
 3492SOL    HW211373   2.368   0.747   8.052
 3493SOL     OW11374   2.721   1.374   7.464
 3493SOL    HW111375   2.675   1.389   7.552
 3493SOL    HW211376   2.765   1.459   7.434
 3494SOL     OW11377   2.945   0.984   7.535
 3494SOL    HW111378   2.922   1.037   7.453
 3494SOL    HW211379   3.026   0.928   7.516
 3495SOL     OW11380   2.290   0.424   7.968
 3495SOL    HW111381   2.320   0.352   7.906
 3495SOL    HW211382   2.251   0.384   8.051
 3496SOL     OW11383   2.632   1.330   7.749
 3496SOL    HW111384   2.586   1.243   7.766
 3496SOL    HW211385   2.723   1.327   7.790
 3497SOL     OW11386   3.214   0.052   7.616
 3497SOL    HW111387   3.249   0.011   7.532
 3497SOL    HW211388   3.124   0.014   7.636
 3498SOL     OW11389   1.901   1.077   7.748
 3498SOL    HW111390   2.000   1.066   7.739
 3498SOL    HW211391   1.861   0.991   7.780
 3499SOL     OW11392   2.737   1.646   7.785
 3499SOL    HW111393   2.660   1.611   7.731
 3499SOL    HW211394   2.705   1.717   7.847
 3500SOL     OW11395   2.092   2.490   0.113
 3500SOL    HW111396   1.999   2.488   0.150
 3500SOL    HW211397   2.093   2.451   0.021
 3501SOL     OW11398   2.087   2.137   0.996
 3501SOL    HW111399   2.122   2.120   1.088
 3501SOL    HW211400   1.999   2.092   0.984
 3502SOL     OW11401   1.881   2.230   0.647
 3502SOL    HW111402   1.799   2.273   0.686
 3502SOL    HW211403   1.853   2.157   0.584
 3503SOL     OW11404   2.431   3.137   1.165
 3503SOL    HW111405   2.338   3.130   1.128
 3503SOL    HW211406   2.442   3.226   1.209
 3504SOL     OW11407   3.417   3.373   0.703
 3504SOL    HW111408   3.360   3.357   0.784
 3504SOL    HW211409   3.358   3.383   0.623
 3505SOL     OW11410   3.617   2.469   0.231
 3505SOL    HW111411   3.605   2.456   0.132
 3505SOL    HW211412   3.587   2.388   0.280
 3506SOL     OW11413   2.630   3.006   1.023
 3506SOL    HW111414   2.552   3.023   1.083
 3506SOL    HW211415   2.664   3.093   0.987
 3507SOL     OW11416   2.548   3.023   1.803
 3507SOL    HW111417   2.608   3.102   1.817
 3507SOL    HW211418   2.462   3.054   1.762
 3508SOL     OW11419   2.197   3.297   1.061
 3508SOL    HW111420   2.119   3.266   1.008
 3508SOL    HW211421   2.255   3.355   1.004
 3509SOL     OW11422   3.322   3.367   1.339
 3509SOL    HW111423   3.346   3.461   1.365
 3509SOL    HW211424   3.306   3.313   1.421
 3510SOL     OW11425   2.300   2.254   1.499
 3510SOL    HW111426   2.382   2.198   1.508
 3510SOL    HW211427   2.219   2.196   1.503
 3511SOL     OW11428   3.465   2.309   0.737
 3511SOL    HW111429   3.391   2.355   0.687
 3511SOL    HW211430   3.516   2.377   0.790
 3512SOL     OW11431   2.093   3.575   0.483
 3512SOL    HW111432   2.127   3.652   0.537
 3512SOL    HW211433   2.137   3.575   0.393
 3513SOL     OW11434   2.989   3.203   1.690
 3513SOL    HW111435   3.036   3.203   1.778
 3513SOL    HW211436   2.941   3.116   1.679
 3514SOL     OW11437   2.092   3.296   0.538
 3514SOL    HW111438   2.066   3.392   0.538
 3514SOL    HW211439   2.021   3.242   0.583
 3515SOL     OW11440   2.102   2.953   0.886
 3515SOL    HW111441   2.116   2.869   0.938
 3515SOL    HW211442   2.047   3.017   0.941
 3516SOL     OW11443   2.482   3.648   1.439
 3516SOL    HW111444   2.390   3.631   1.474
 3516SOL    HW211445   2.510   3.740   1.465
 3517SOL     OW11446   2.468   2.826   0.123
 3517SOL    HW111447   2.475   2.910   0.069
 3517SOL    HW211448   2.514   2.839   0.211
 3518SOL     OW11449   3.456   1.976   1.480
 3518SOL    HW111450   3.438   2.043   1.408
 3518SOL    HW211451   3.453   2.022   1.569
 3519SOL     OW11452   1.984   2.505   0.563
 3519SOL    HW111453   1.939   2.417   0.580
 3519SOL    HW211454   1.983   2.559   0.647
 3520SOL     OW11455   3.704   3.629   0.359
 3520SOL    HW111456   3.758   3.600   0.439
 3520SOL    HW211457   3.734   3.719   0.330
 3521SOL     OW11458   1.889   3.458   0.117
 3521SOL    HW111459   1.870   3.362   0.138
 3521SOL    HW211460   1.856   3.516   0.192
 3522SOL     OW11461   3.551   2.784   0.612
 3522SOL    HW111462   3.646   2.755   0.620
 3522SOL    HW211463   3.543   2.849   0.537
 3523SOL     OW11464   3.503   2.970   0.432
 3523SOL    HW111465   3.589   2.972   0.380
 3523SOL    HW211466   3.517   3.017   0.520
 3524SOL     OW11467   1.975   2.599   1.597
 3524SOL    HW111468   2.063   2.586   1.642
 3524SOL    HW211469   1.962   2.696   1.575
 3525SOL     OW11470   2.475   3.227   0.726
 3525SOL    HW111471   2.426   3.140   0.735
 3525SOL    HW211472   2.452   3.270   0.639
 3526SOL     OW11473   3.155   3.090   1.423
 3526SOL    HW111474   3.192   3.017   1.365
 3526SOL    HW211475   3.207   3.095   1.508
 3527SOL     OW11476   2.671   1.866   0.502
 3527SOL    HW111477   2.711   1.957   0.493
 3527SOL    HW211478   2.571   1.874   0.508
 3528SOL     OW11479   2.059   2.838   1.264
 3528SOL    HW111480   2.148   2.793   1.250
 3528SOL    HW211481   1.986   2.773   1.245
 3529SOL     OW11482   3.387   2.861   0.190
 3529SOL    HW111483   3.324   2.785   0.203
 3529SOL    HW211484   3.435   2.879   0.276
 3530SOL     OW11485   3.049   3.654   1.616
 3530SOL    HW111486   3.073   3.714   1.540
 3530SOL    HW211487   3.056   3.559   1.586
 3531SOL     OW11488   2.179   2.113   1.801
 3531SOL    HW111489   2.250   2.184   1.807
 3531SOL    HW211490   2.091   2.152   1.829
 3532SOL     OW11491   3.328   3.279   0.953
 3532SOL    HW111492   3.269   3.285   1.033
 3532SOL    HW211493   3.313   3.191   0.907
 3533SOL     OW11494   3.529   3.576   0.572
 3533SOL    HW111495   3.488   3.553   0.484
 3533SOL    HW211496   3.511   3.502   0.637
 3534SOL     OW11497   3.143   2.207   0.944
 3534SOL    HW111498   3.057   2.157   0.931
 3534SOL    HW211499   3.205   2.153   1.000
 3535SOL     OW11500   3.438   3.524   0.307
 3535SOL    HW111501   3.527   3.570   0.310
 3535SOL    HW211502   3.417   3.500   0.212
 3536SOL     OW11503   3.256   2.331   1.674
 3536SOL    HW111504   3.236   2.374   1.762
 3536SOL    HW211505   3.334   2.269   1.683
 3537SOL     OW11506   2.853   2.272   1.242
 3537SOL    HW111507   2.776   2.306   1.296
 3537SOL    HW211508   2.819   2.221   1.163
 3538SOL     OW11509   1.938   2.673   0.789
 3538SOL    HW111510   2.037   2.661   0.798
 3538SOL    HW211511   1.914   2.768   0.810
 3539SOL     OW11512   1.992   3.683   1.571
 3539SOL    HW111513   1.982   3.668   1.670
 3539SOL    HW211514   1.906   3.719   1.535
 3540SOL     OW11515   2.727   2.210   0.195
 3540SOL    HW111516   2.786   2.273   0.146
 3540SOL    HW211517   2.746   2.116   0.166
 3541SOL     OW11518   3.581   2.447   1.831
 3541SOL    HW111519   3.555   2.536   1.795
 3541SOL    HW211520   3.579   2.379   1.758
 3542SOL     OW11521   3.224   3.006   0.545
 3542SOL    HW111522   3.307   2.977   0.497
 3542SOL    HW211523   3.175   3.073   0.489
 3543SOL     OW11524   2.412   2.058   0.885
 3543SOL    HW111525   2.407   2.053   0.985
 3543SOL    HW211526   2.414   2.154   0.856
 3544SOL     OW11527   2.870   3.318   0.477
 3544SOL    HW111528   2.824   3.390   0.425
 3544SOL    HW211529   2.866   3.338   0.575
 3545SOL     OW11530   2.213   3.663   0.853
 3545SOL    HW111531   2.263   3.577   0.859
 3545SOL    HW211532   2.278   3.740   0.850
 3546SOL     OW11533   3.657   2.928   0.873
 3546SOL    HW111534   3.595   2.913   0.797
 3546SOL    HW211535   3.605   2.939   0.958
 3547SOL     OW11536   3.089   3.412   1.506
 3547SOL    HW111537   3.095   3.335   1.570
 3547SOL    HW211538   3.037   3.386   1.426
 3548SOL     OW11539   2.183   2.805   0.242
 3548SOL    HW111540   2.265   2.844   0.200
 3548SOL    HW211541   2.156   2.723   0.193
 3549SOL     OW11542   3.320   2.597   0.728
 3549SOL    HW111543   3.315   2.532   0.803
 3549SOL    HW211544   3.400   2.656   0.741
 3550SOL     OW11545   2.323   3.128   1.727
 3550SOL    HW111546   2.273   3.129   1.641
 3550SOL    HW211547   2.260   3.110   1.803
 3551SOL     OW11548   2.973   3.638   0.237
 3551SOL    HW111549   2.913   3.576   0.287
 3551SOL    HW211550   3.004   3.594   0.152
 3552SOL     OW11551   2.064   2.147   1.498
 3552SOL    HW111552   1.984   2.207   1.485
 3552SOL    HW211553   2.054   2.098   1.584
 3553SOL     OW11554   3.494   3.239   0.081
 3553SOL    HW111555   3.462   3.333   0.071
 3553SOL    HW211556   3.418   3.176   0.069
 3554SOL     OW11557   2.326   3.605   0.323
 3554SOL    HW111558   2.359   3.644   0.409
 3554SOL    HW211559   2.402   3.598   0.258
 3555SOL     OW11560   3.262   1.969   0.426
 3555SOL    HW111561   3.238   1.932   0.336
 3555SOL    HW211562   3.361   1.985   0.430
 3556SOL     OW11563   2.111   3.647   1.241
 3556SOL    HW111564   2.168   3.582   1.291
 3556SOL    HW211565   2.095   3.614   1.148
 3557SOL     OW11566   2.802   3.560   0.904
 3557SOL    HW111567   2.882   3.503   0.925
 3557SOL    HW211568   2.753   3.520   0.827
 3558SOL     OW11569   2.244   2.562   0.480
 3558SOL    HW111570   2.289   2.472   0.477
 3558SOL    HW211571   2.150   2.551   0.513
 3559SOL     OW11572   3.409   2.084   1.729
 3559SOL    HW111573   3.404   2.121   1.821
 3559SOL    HW211574   3.337   2.015   1.717
 3560SOL     OW11575   2.476   1.984   0.117
 3560SOL    HW111576   2.574   1.962   0.124
 3560SOL    HW211577   2.445   1.967   0.024
 3561SOL     OW11578   2.643   2.126   1.749
 3561SOL    HW111579   2.710   2.065   1.792
 3561SOL    HW211580   2.570   2.145   1.814
 3562SOL     OW11581   2.750   3.376   1.195
 3562SOL    HW111582   2.727   3.351   1.101
 3562SOL    HW211583   2.811   3.307   1.234
 3563SOL     OW11584   3.213   2.452   1.433
 3563SOL    HW111585   3.241   2.409   1.518
 3563SOL    HW211586   3.238   2.548   1.434
 3564SOL     OW11587   2.665   3.264   0.924
 3564SOL    HW111588   2.755   3.278   0.882
 3564SOL    HW211589   2.594   3.266   0.853
 3565SOL     OW11590   2.784   2.365   0.899
 3565SOL    HW111591   2.759   2.356   0.803
 3565SOL    HW211592   2.832   2.283   0.930
 3566SOL     OW11593   2.401   1.926   0.512
 3566SOL    HW111594   2.320   1.927   0.570
 3566SOL    HW211595   2.404   2.009   0.457
 3567SOL     OW11596   3.296   3.050   0.041
 3567SOL    HW111597   3.328   2.974   0.098
 3567SOL    HW211598   3.204   3.077   0.071
 3568SOL     OW11599   2.159   1.897   0.171
 3568SOL    HW111600   2.208   1.981   0.150
 3568SOL    HW211601   2.221   1.832   0.216
 3569SOL     OW11602   2.797   2.098   0.480
 3569SOL    HW111603   2.749   2.139   0.402
 3569SOL    HW211604   2.896   2.096   0.461
 3570SOL     OW11605   3.089   3.432   0.793
 3570SOL    HW111606   3.110   3.506   0.728
 3570SOL    HW211607   3.157   3.432   0.866
 3571SOL     OW11608   2.321   3.014   0.741
 3571SOL    HW111609   2.250   2.987   0.806
 3571SOL    HW211610   2.295   2.986   0.648
 3572SOL     OW11611   3.133   3.659   0.591
 3572SOL    HW111612   3.177   3.723   0.527
 3572SOL    HW211613   3.083   3.711   0.661
 3573SOL     OW11614   2.894   2.411   0.016
 3573SOL    HW111615   2.853   2.493  -0.023
 3573SOL    HW211616   2.958   2.437   0.089
 3574SOL     OW11617   1.940   2.418   1.386
 3574SOL    HW111618   2.032   2.417   1.345
 3574SOL    HW211619   1.934   2.492   1.453
 3575SOL     OW11620   2.423   2.084   1.147
 3575SOL    HW111621   2.461   2.000   1.184
 3575SOL    HW211622   2.335   2.103   1.191
 3576SOL     OW11623   2.728   2.316   0.642
 3576SOL    HW111624   2.696   2.388   0.580
 3576SOL    HW211625   2.752   2.235   0.589
 3577SOL     OW11626   2.879   1.901   0.753
 3577SOL    HW111627   2.807   1.906   0.684
 3577SOL    HW211628   2.855   1.832   0.822
 3578SOL     OW11629   3.291   3.035   0.867
 3578SOL    HW111630   3.236   2.951   0.860
 3578SOL    HW211631   3.317   3.064   0.775
 3579SOL     OW11632   3.328   2.452   0.992
 3579SOL    HW111633   3.298   2.357   0.999
 3579SOL    HW211634   3.401   2.468   1.058
 3580SOL     OW11635   3.719   2.695   0.377
 3580SOL    HW111636   3.761   2.631   0.441
 3580SOL    HW211637   3.681   2.644   0.299
 3581SOL     OW11638   2.350   3.247   0.174
 3581SOL    HW111639   2.263   3.232   0.221
 3581SOL    HW211640   2.333   3.273   0.079
 3582SOL     OW11641   3.526   3.142   0.657
 3582SOL    HW111642   3.625   3.150   0.671
 3582SOL    HW211643   3.481   3.226   0.688
 3583SOL     OW11644   3.252   2.437   0.078
 3583SOL    HW111645   3.198   2.416   0.159
 3583SOL    HW211646   3.343   2.396   0.087
 3584SOL     OW11647   2.389   2.118   0.328
 3584SOL    HW111648   2.416   2.059   0.253
 3584SOL    HW211649   2.389   2.213   0.297
 3585SOL     OW11650   3.616   3.085   1.588
 3585SOL    HW111651   3.707   3.046   1.575
 3585SOL    HW211652   3.624   3.181   1.612
 3586SOL     OW11653   2.926   3.209   1.340
 3586SOL    HW111654   2.846   3.186   1.395
 3586SOL    HW211655   3.009   3.183   1.389
 3587SOL     OW11656   3.454   3.491   1.625
 3587SOL    HW111657   3.481   3.525   1.535
 3587SOL    HW211658   3.533   3.453   1.671
 3588SOL     OW11659   2.973   3.057   1.100
 3588SOL    HW111660   2.933   3.101   1.181
 3588SOL    HW211661   2.932   3.094   1.017
 3589SOL     OW11662   3.500   2.961   1.079
 3589SOL    HW111663   3.505   3.042   1.138
 3589SOL    HW211664   3.414   2.963   1.028
 3590SOL     OW11665   2.777   1.951   1.402
 3590SOL    HW111666   2.802   1.931   1.307
 3590SOL    HW211667   2.849   2.007   1.444
 3591SOL     OW11668   2.272   2.675   1.251
 3591SOL    HW111669   2.358   2.687   1.301
 3591SOL    HW211670   2.230   2.588   1.278
 3592SOL     OW11671   3.136   2.248   1.262
 3592SOL    HW111672   3.157   2.322   1.326
 3592SOL    HW211673   3.047   2.265   1.219
 3593SOL     OW11674   1.926   3.426   1.331
 3593SOL    HW111675   1.880   3.508   1.297
 3593SOL    HW211676   2.024   3.445   1.340
 3594SOL     OW11677   2.229   2.962   0.501
 3594SOL    HW111678   2.222   3.045   0.445
 3594SOL    HW211679   2.233   2.882   0.441
 3595SOL     OW11680   3.114   3.210   0.388
 3595SOL    HW111681   3.164   3.287   0.428
 3595SOL    HW211682   3.019   3.212   0.420
 3596SOL     OW11683   3.134   3.307   1.142
 3596SOL    HW111684   3.181   3.320   1.229
 3596SOL    HW211685   3.068   3.233   1.151
 3597SOL     OW11686   3.444   2.501   0.472
 3597SOL    HW111687   3.413   2.562   0.545
 3597SOL    HW211688   3.494   2.553   0.403
 3598SOL     OW11689   2.216   3.372   1.329
 3598SOL    HW111690   2.195   3.328   1.242
 3598SOL    HW211691   2.313   3.398   1.332
 3599SOL     OW11692   2.264   2.613   1.598
 3599SOL    HW111693   2.332   2.668   1.551
 3599SOL    HW211694   2.304   2.525   1.625
 3600SOL     OW11695   3.449   2.641   1.670
 3600SOL    HW111696   3.357   2.679   1.665
 3600SOL    HW211697   3.509   2.688   1.605
 3601SOL     OW11698   2.875   1.967   1.770
 3601SOL    HW111699   2.881   2.052   1.718
 3601SOL    HW211700   2.907   1.891   1.713
 3602SOL     OW11701   2.366   1.912   1.740
 3602SOL    HW111702   2.324   1.855   1.670
 3602SOL    HW211703   2.300   1.981   1.772
 3603SOL     OW11704   3.222   2.724   1.045
 3603SOL    HW111705   3.147   2.724   0.979
 3603SOL    HW211706   3.259   2.632   1.054
 3604SOL     OW11707   3.071   2.387   0.275
 3604SOL    HW111708   3.084   2.303   0.329
 3604SOL    HW211709   3.042   2.461   0.335
 3605SOL     OW11710   2.169   2.075   1.231
 3605SOL    HW111711   2.146   2.112   1.321
 3605SOL    HW211712   2.139   1.980   1.225
 3606SOL     OW11713   1.899   3.172   1.282
 3606SOL    HW111714   1.952   3.123   1.350
 3606SOL    HW211715   1.921   3.270   1.287
 3607SOL     OW11716   3.590   2.797   1.854
 3607SOL    HW111717   3.544   2.790   1.765
 3607SOL    HW211718   3.528   2.841   1.920
 3608SOL     OW11719   2.169   1.925   0.618
 3608SOL    HW111720   2.158   2.019   0.651
 3608SOL    HW211721   2.164   1.862   0.695
 3609SOL     OW11722   3.484   2.229   0.374
 3609SOL    HW111723   3.486   2.153   0.438
 3609SOL    HW211724   3.436   2.306   0.414
 3610SOL     OW11725   2.842   3.435   1.700
 3610SOL    HW111726   2.822   3.479   1.612
 3610SOL    HW211727   2.881   3.344   1.684
 3611SOL     OW11728   3.721   3.380   1.605
 3611SOL    HW111729   3.735   3.407   1.510
 3611SOL    HW211730   3.804   3.402   1.658
 3612SOL     OW11731   2.212   2.760   1.804
 3612SOL    HW111732   2.288   2.804   1.852
 3612SOL    HW211733   2.247   2.713   1.722
 3613SOL     OW11734   3.402   2.136   0.125
 3613SOL    HW111735   3.341   2.061   0.148
 3613SOL    HW211736   3.424   2.188   0.208
 3614SOL     OW11737   3.165   2.700   0.042
 3614SOL    HW111738   3.199   2.607   0.057
 3614SOL    HW211739   3.183   2.727  -0.053
 3615SOL     OW11740   2.930   3.195   0.849
 3615SOL    HW111741   2.937   3.111   0.794
 3615SOL    HW211742   2.992   3.264   0.813
 3616SOL     OW11743   2.181   2.672   0.949
 3616SOL    HW111744   2.274   2.708   0.954
 3616SOL    HW211745   2.175   2.587   1.001
 3617SOL     OW11746   2.201   2.371   1.006
 3617SOL    HW111747   2.149   2.288   0.989
 3617SOL    HW211748   2.278   2.376   0.942
 3618SOL     OW11749   3.000   2.242   1.678
 3618SOL    HW111750   2.955   2.305   1.742
 3618SOL    HW211751   3.093   2.273   1.661
 3619SOL     OW11752   3.022   2.069   1.477
 3619SOL    HW111753   3.022   2.133   1.554
 3619SOL    HW211754   3.050   2.117   1.394
 3620SOL     OW11755   1.870   3.188   0.200
 3620SOL    HW111756   1.777   3.209   0.169
 3620SOL    HW211757   1.880   3.089   0.213
 3621SOL     OW11758   1.950   3.663   0.927
 3621SOL    HW111759   1.908   3.577   0.900
 3621SOL    HW211760   2.044   3.666   0.893
 3622SOL     OW11761   2.366   3.430   0.910
 3622SOL    HW111762   2.432   3.504   0.919
 3622SOL    HW211763   2.410   3.351   0.868
 3623SOL     OW11764   1.902   2.406   1.114
 3623SOL    HW111765   1.987   2.373   1.073
 3623SOL    HW211766   1.915   2.421   1.212
 3624SOL     OW11767   2.051   2.382   1.722
 3624SOL    HW111768   2.110   2.342   1.652
 3624SOL    HW211769   1.993   2.453   1.681
 3625SOL     OW11770   3.231   2.812   1.660
 3625SOL    HW111771   3.270   2.901   1.680
 3625SOL    HW211772   3.241   2.792   1.563
 3626SOL     OW11773   3.519   2.466   1.206
 3626SOL    HW111774   3.481   2.397   1.268
 3626SOL    HW211775   3.601   2.430   1.162
 3627SOL     OW11776   2.114   3.426   1.744
 3627SOL    HW111777   2.084   3.483   1.820
 3627SOL    HW211778   2.107   3.329   1.770
 3628SOL     OW11779   2.792   3.540   1.465
 3628SOL    HW111780   2.768   3.522   1.370
 3628SOL    HW211781   2.822   3.634   1.475
 3629SOL     OW11782   2.021   2.999   1.466
 3629SOL    HW111783   2.043   2.938   1.542
 3629SOL    HW211784   2.031   2.950   1.380
 3630SOL     OW11785   3.209   2.921   1.234
 3630SOL    HW111786   3.233   2.858   1.160
 3630SOL    HW211787   3.119   2.961   1.216
 3631SOL     OW11788   3.164   2.717   0.309
 3631SOL    HW111789   3.078   2.686   0.351
 3631SOL    HW211790   3.160   2.703   0.210
 3632SOL     OW11791   3.621   3.609   1.154
 3632SOL    HW111792   3.682   3.639   1.081
 3632SOL    HW211793   3.583   3.520   1.132
 3633SOL     OW11794   3.114   3.593   1.128
 3633SOL    HW111795   3.198   3.598   1.074
 3633SOL    HW211796   3.091   3.497   1.146
 3634SOL     OW11797   1.945   3.120   1.022
 3634SOL    HW111798   1.940   3.119   1.122
 3634SOL    HW211799   1.862   3.079   0.984
 3635SOL     OW11800   2.550   3.524   1.716
 3635SOL    HW111801   2.494   3.605   1.725
 3635SOL    HW211802   2.602   3.528   1.630
 3636SOL     OW11803   2.765   1.948   0.133
 3636SOL    HW111804   2.816   1.949   0.047
 3636SOL    HW211805   2.821   1.906   0.204
 3637SOL     OW11806   3.588   1.997   0.523
 3637SOL    HW111807   3.661   1.980   0.456
 3637SOL    HW211808   3.557   1.910   0.561
 3638SOL     OW11809   3.250   3.435   0.477
 3638SOL    HW111810   3.317   3.447   0.403
 3638SOL    HW211811   3.210   3.524   0.500
 3639SOL     OW11812   1.992   3.656   1.851
 3639SOL    HW111813   1.951   3.582   1.904
 3639SOL    HW211814   2.056   3.707   1.909
 3640SOL     OW11815   3.142   2.789   0.672
 3640SOL    HW111816   3.202   2.708   0.674
 3640SOL    HW211817   3.182   2.858   0.612
 3641SOL     OW11818   2.692   3.135   1.422
 3641SOL    HW111819   2.687   3.168   1.517
 3641SOL    HW211820   2.606   3.154   1.376
 3642SOL     OW11821   2.534   3.478   0.154
 3642SOL    HW111822   2.543   3.488   0.055
 3642SOL    HW211823   2.494   3.389   0.175
 3643SOL     OW11824   3.512   3.582   1.394
 3643SOL    HW111825   3.565   3.592   1.310
 3643SOL    HW211826   3.485   3.672   1.428
 3644SOL     OW11827   3.703   2.037   0.963
 3644SOL    HW111828   3.742   1.952   0.927
 3644SOL    HW211829   3.605   2.039   0.944
 3645SOL     OW11830   2.125   2.188   0.720
 3645SOL    HW111831   2.046   2.239   0.686
 3645SOL    HW211832   2.116   2.173   0.818
 3646SOL     OW11833   3.056   3.474   0.031
 3646SOL    HW111834   3.062   3.381   0.068
 3646SOL    HW211835   2.997   3.474  -0.049
 3647SOL     OW11836   3.366   3.469   0.044
 3647SOL    HW111837   3.274   3.506   0.051
 3647SOL    HW211838   3.404   3.489  -0.046
 3648SOL     OW11839   2.234   3.150   1.490
 3648SOL    HW111840   2.221   3.243   1.456
 3648SOL    HW211841   2.150   3.098   1.477
 3649SOL     OW11842   3.476   3.154   1.289
 3649SOL    HW111843   3.536   3.157   1.369
 3649SOL    HW211844   3.401   3.218   1.302
 3650SOL     OW11845   2.901   2.960   0.696
 3650SOL    HW111846   2.831   2.913   0.750
 3650SOL    HW211847   2.960   2.892   0.653
 3651SOL     OW11848   2.876   2.098   0.971
 3651SOL    HW111849   2.868   2.062   0.878
 3651SOL    HW211850   2.874   2.022   1.036
 3652SOL     OW11851   2.452   3.349   0.491
 3652SOL    HW111852   2.494   3.291   0.421
 3652SOL    HW211853   2.408   3.428   0.447
 3653SOL     OW11854   3.571   2.247   1.381
 3653SOL    HW111855   3.644   2.316   1.385
 3653SOL    HW211856   3.599   2.172   1.322
 3654SOL     OW11857   2.117   3.210   0.290
 3654SOL    HW111858   2.021   3.211   0.263
 3654SOL    HW211859   2.129   3.263   0.374
 3655SOL     OW11860   1.967   2.875   1.726
 3655SOL    HW111861   1.890   2.842   1.780
 3655SOL    HW211862   2.052   2.845   1.768
 3656SOL     OW11863   2.534   2.065   1.489
 3656SOL    HW111864   2.624   2.049   1.449
 3656SOL    HW211865   2.542   2.070   1.588
 3657SOL     OW11866   1.937   2.207   0.033
 3657SOL    HW111867   1.845   2.179   0.004
 3657SOL    HW211868   1.968   2.284  -0.023
 3658SOL     OW11869   3.302   2.718   1.398
 3658SOL    HW111870   3.245   2.770   1.335
 3658SOL    HW211871   3.398   2.730   1.374
 3659SOL     OW11872   1.934   2.028   0.318
 3659SOL    HW111873   1.917   2.111   0.264
 3659SOL    HW211874   2.024   1.991   0.296
 3660SOL     OW11875   3.045   3.197   0.119
 3660SOL    HW111876   2.946   3.186   0.121
 3660SOL    HW211877   3.079   3.212   0.212
 3661SOL     OW11878   3.355   3.629   0.959
 3661SOL    HW111879   3.388   3.693   0.890
 3661SOL    HW211880   3.421   3.623   1.034
 3662SOL     OW11881   3.312   3.082   1.633
 3662SOL    HW111882   3.303   3.072   1.732
 3662SOL    HW211883   3.408   3.075   1.607
 3663SOL     OW11884   2.252   3.603   1.560
 3663SOL    HW111885   2.161   3.644   1.558
 3663SOL    HW211886   2.245   3.509   1.592
 3664SOL     OW11887   3.536   2.745   1.254
 3664SOL    HW111888   3.509   2.656   1.217
 3664SOL    HW211889   3.537   2.813   1.181
 3665SOL     OW11890   3.087   2.187   0.449
 3665SOL    HW111891   3.152   2.113   0.438
 3665SOL    HW211892   3.107   2.237   0.533
 3666SOL     OW11893   3.639   2.204   1.642
 3666SOL    HW111894   3.622   2.235   1.548
 3666SOL    HW211895   3.555   2.167   1.680
 3667SOL     OW11896   3.592   2.796   1.517
 3667SOL    HW111897   3.630   2.887   1.532
 3667SOL    HW211898   3.584   2.779   1.418
 3668SOL     OW11899   2.721   3.236   0.016
 3668SOL    HW111900   2.675   3.251   0.104
 3668SOL    HW211901   2.765   3.321  -0.014
 3669SOL     OW11902   2.523   3.652   0.953
 3669SOL    HW111903   2.477   3.740   0.940
 3669SOL    HW211904   2.622   3.664   0.946
 3670SOL     OW11905   3.723   3.431   0.851
 3670SOL    HW111906   3.652   3.419   0.781
 3670SOL    HW211907   3.724   3.352   0.911
 3671SOL     OW11908   2.083   3.176   1.844
 3671SOL    HW111909   2.018   3.103   1.823
 3671SOL    HW211910   2.087   3.190   1.942
 3672SOL     OW11911   1.941   3.102   0.653
 3672SOL    HW111912   1.940   3.055   0.741
 3672SOL    HW211913   2.023   3.074   0.602
 3673SOL     OW11914   2.534   3.253   1.624
 3673SOL    HW111915   2.456   3.203   1.662
 3673SOL    HW211916   2.531   3.348   1.655
 3674SOL     OW11917   3.686   2.054   1.227
 3674SOL    HW111918   3.682   1.964   1.271
 3674SOL    HW211919   3.689   2.043   1.128
 3675SOL     OW11920   2.290   2.286   0.520
 3675SOL    HW111921   2.320   2.214   0.458
 3675SOL    HW211922   2.251   2.246   0.603
 3676SOL     OW11923   3.567   3.349   1.104
 3676SOL    HW111924   3.474   3.324   1.077
 3676SOL    HW211925   3.593   3.299   1.186
 3677SOL     OW11926   2.179   2.409   1.280
 3677SOL    HW111927   2.217   2.350   1.352
 3677SOL    HW211928   2.219   2.383   1.192
 3678SOL     OW11929   2.674   3.448   0.687
 3678SOL    HW111930   2.706   3.458   0.593
 3678SOL    HW211931   2.595   3.386   0.689
 3679SOL     OW11932   3.286   2.076   1.112
 3679SOL    HW111933   3.338   2.011   1.167
 3679SOL    HW211934   3.237   2.139   1.173
 3680SOL     OW11935   2.863   1.896   1.154
 3680SOL    HW111936   2.800   1.824   1.123
 3680SOL    HW211937   2.956   1.860   1.154
 3681SOL     OW11938   2.632   3.192   0.301
 3681SOL    HW111939   2.586   3.105   0.318
 3681SOL    HW211940   2.723   3.189   0.342
 3682SOL     OW11941   2.480   3.429   1.284
 3682SOL    HW111942   2.475   3.511   1.341
 3682SOL    HW211943   2.569   3.426   1.239
 3683SOL     OW11944   3.214   1.914   0.168
 3683SOL    HW111945   3.249   1.873   0.084
 3683SOL    HW211946   3.124   1.876   0.188
 3684SOL     OW11947   3.162   2.315   0.691
 3684SOL    HW111948   3.103   2.395   0.695
 3684SOL    HW211949   3.177   2.280   0.784
 3685SOL     OW11950   3.455   2.083   0.882
 3685SOL    HW111951   3.371   2.082   0.936
 3685SOL    HW211952   3.457   2.166   0.826
 3686SOL     OW11953   1.901   2.939   0.300
 3686SOL    HW111954   2.000   2.928   0.291
 3686SOL    HW211955   1.861   2.853   0.332
 3687SOL     OW11956   2.737   3.508   0.337
 3687SOL    HW111957   2.660   3.473   0.283
 3687SOL    HW211958   2.705   3.579   0.399
 3688SOL     OW11959   2.092   2.490   1.975
 3688SOL    HW111960   1.999   2.488   2.012
 3688SOL    HW211961   2.093   2.451   1.883
 3689SOL     OW11962   1.881   2.230   2.509
 3689SOL    HW111963   1.799   2.273   2.548
 3689SOL    HW211964   1.853   2.157   2.446
 3690SOL     OW11965   2.431   3.137   3.027
 3690SOL    HW111966   2.338   3.130   2.990
 3690SOL    HW211967   2.442   3.226   3.071
 3691SOL     OW11968   3.417   3.373   2.565
 3691SOL    HW111969   3.360   3.357   2.646
 3691SOL    HW211970   3.358   3.383   2.485
 3692SOL     OW11971   2.997   2.565   2.579
 3692SOL    HW111972   3.054   2.643   2.554
 3692SOL    HW211973   2.937   2.591   2.655
 3693SOL     OW11974   3.617   2.469   2.093
 3693SOL    HW111975   3.605   2.456   1.994
 3693SOL    HW211976   3.587   2.388   2.142
 3694SOL     OW11977   2.630   3.006   2.885
 3694SOL    HW111978   2.552   3.023   2.945
 3694SOL    HW211979   2.664   3.093   2.849
 3695SOL     OW11980   2.197   3.297   2.923
 3695SOL    HW111981   2.119   3.266   2.870
 3695SOL    HW211982   2.255   3.355   2.866
 3696SOL     OW11983   3.322   3.367   3.201
 3696SOL    HW111984   3.346   3.461   3.227
 3696SOL    HW211985   3.306   3.313   3.283
 3697SOL     OW11986   3.465   2.309   2.599
 3697SOL    HW111987   3.391   2.355   2.549
 3697SOL    HW211988   3.516   2.377   2.652
 3698SOL     OW11989   2.093   3.575   2.345
 3698SOL    HW111990   2.127   3.652   2.399
 3698SOL    HW211991   2.137   3.575   2.255
 3699SOL     OW11992   2.092   3.296   2.400
 3699SOL    HW111993   2.066   3.392   2.400
 3699SOL    HW211994   2.021   3.242   2.445
 3700SOL     OW11995   2.102   2.953   2.748
 3700SOL    HW111996   2.116   2.869   2.800
 3700SOL    HW211997   2.047   3.017   2.803
 3701SOL     OW11998   2.482   3.648   3.301
 3701SOL    HW111999   2.390   3.631   3.336
 3701SOL    HW212000   2.510   3.740   3.327
 3702SOL     OW12001   2.468   2.826   1.985
 3702SOL    HW112002   2.475   2.910   1.931
 3702SOL    HW212003   2.514   2.839   2.073
 3703SOL     OW12004   1.984   2.505   2.425
 3703SOL    HW112005   1.939   2.417   2.442
 3703SOL    HW212006   1.983   2.559   2.509
 3704SOL     OW12007   3.704   3.629   2.221
 3704SOL    HW112008   3.758   3.600   2.301
 3704SOL    HW212009   3.734   3.719   2.192
 3705SOL     OW12010   1.889   3.458   1.979
 3705SOL    HW112011   1.870   3.362   2.000
 3705SOL    HW212012   1.856   3.516   2.054
 3706SOL     OW12013   3.551   2.784   2.474
 3706SOL    HW112014   3.646   2.755   2.482
 3706SOL    HW212015   3.543   2.849   2.399
 3707SOL     OW12016   3.503   2.970   2.294
 3707SOL    HW112017   3.589   2.972   2.242
 3707SOL    HW212018   3.517   3.017   2.382
 3708SOL     OW12019   2.475   3.227   2.588
 3708SOL    HW112020   2.426   3.140   2.597
 3708SOL    HW212021   2.452   3.270   2.501
 3709SOL     OW12022   2.671   1.866   2.364
 3709SOL    HW112023   2.711   1.957   2.355
 3709SOL    HW212024   2.571   1.874   2.370
 3710SOL     OW12025   3.387   2.861   2.052
 3710SOL    HW112026   3.324   2.785   2.065
 3710SOL    HW212027   3.435   2.879   2.138
 3711SOL     OW12028   3.049   3.654   3.478
 3711SOL    HW112029   3.073   3.714   3.402
 3711SOL    HW212030   3.056   3.559   3.448
 3712SOL     OW12031   3.328   3.279   2.815
 3712SOL    HW112032   3.269   3.285   2.895
 3712SOL    HW212033   3.313   3.191   2.769
 3713SOL     OW12034   3.529   3.576   2.434
 3713SOL    HW112035   3.488   3.553   2.346
 3713SOL    HW212036   3.511   3.502   2.499
 3714SOL     OW12037   3.143   2.207   2.806
 3714SOL    HW112038   3.057   2.157   2.793
 3714SOL    HW212039   3.205   2.153   2.862
 3715SOL     OW12040   3.438   3.524   2.169
 3715SOL    HW112041   3.527   3.570   2.172
 3715SOL    HW212042   3.417   3.500   2.074
 3716SOL     OW12043   2.853   2.272   3.104
 3716SOL    HW112044   2.776   2.306   3.158
 3716SOL    HW212045   2.819   2.221   3.025
 3717SOL     OW12046   1.938   2.673   2.651
 3717SOL    HW112047   2.037   2.661   2.660
 3717SOL    HW212048   1.914   2.768   2.672
 3718SOL     OW12049   1.992   3.683   3.433
 3718SOL    HW112050   1.982   3.668   3.532
 3718SOL    HW212051   1.906   3.719   3.397
 3719SOL     OW12052   2.727   2.210   2.057
 3719SOL    HW112053   2.786   2.273   2.008
 3719SOL    HW212054   2.746   2.116   2.028
 3720SOL     OW12055   3.581   2.447   3.693
 3720SOL    HW112056   3.555   2.536   3.657
 3720SOL    HW212057   3.579   2.379   3.620
 3721SOL     OW12058   3.224   3.006   2.407
 3721SOL    HW112059   3.307   2.977   2.359
 3721SOL    HW212060   3.175   3.073   2.351
 3722SOL     OW12061   2.412   2.058   2.747
 3722SOL    HW112062   2.407   2.053   2.847
 3722SOL    HW212063   2.414   2.154   2.718
 3723SOL     OW12064   2.870   3.318   2.339
 3723SOL    HW112065   2.824   3.390   2.287
 3723SOL    HW212066   2.866   3.338   2.437
 3724SOL     OW12067   2.213   3.663   2.715
 3724SOL    HW112068   2.263   3.577   2.721
 3724SOL    HW212069   2.278   3.740   2.712
 3725SOL     OW12070   3.657   2.928   2.735
 3725SOL    HW112071   3.595   2.913   2.659
 3725SOL    HW212072   3.605   2.939   2.820
 3726SOL     OW12073   2.183   2.805   2.104
 3726SOL    HW112074   2.265   2.844   2.062
 3726SOL    HW212075   2.156   2.723   2.055
 3727SOL     OW12076   3.320   2.597   2.590
 3727SOL    HW112077   3.315   2.532   2.665
 3727SOL    HW212078   3.400   2.656   2.603
 3728SOL     OW12079   2.973   3.638   2.099
 3728SOL    HW112080   2.913   3.576   2.149
 3728SOL    HW212081   3.004   3.594   2.014
 3729SOL     OW12082   3.494   3.239   1.943
 3729SOL    HW112083   3.462   3.333   1.933
 3729SOL    HW212084   3.418   3.176   1.931
 3730SOL     OW12085   2.326   3.605   2.185
 3730SOL    HW112086   2.359   3.644   2.271
 3730SOL    HW212087   2.402   3.598   2.120
 3731SOL     OW12088   3.262   1.969   2.288
 3731SOL    HW112089   3.238   1.932   2.198
 3731SOL    HW212090   3.361   1.985   2.292
 3732SOL     OW12091   2.111   3.647   3.103
 3732SOL    HW112092   2.168   3.582   3.153
 3732SOL    HW212093   2.095   3.614   3.010
 3733SOL     OW12094   2.802   3.560   2.766
 3733SOL    HW112095   2.882   3.503   2.787
 3733SOL    HW212096   2.753   3.520   2.689
 3734SOL     OW12097   2.476   1.984   1.979
 3734SOL    HW112098   2.574   1.962   1.986
 3734SOL    HW212099   2.445   1.967   1.886
 3735SOL     OW12100   2.665   3.264   2.786
 3735SOL    HW112101   2.755   3.278   2.744
 3735SOL    HW212102   2.594   3.266   2.715
 3736SOL     OW12103   2.784   2.365   2.761
 3736SOL    HW112104   2.759   2.356   2.665
 3736SOL    HW212105   2.832   2.283   2.792
 3737SOL     OW12106   2.401   1.926   2.374
 3737SOL    HW112107   2.320   1.927   2.432
 3737SOL    HW212108   2.404   2.009   2.319
 3738SOL     OW12109   3.296   3.050   1.903
 3738SOL    HW112110   3.328   2.974   1.960
 3738SOL    HW212111   3.204   3.077   1.933
 3739SOL     OW12112   2.159   1.897   2.033
 3739SOL    HW112113   2.208   1.981   2.012
 3739SOL    HW212114   2.221   1.832   2.078
 3740SOL     OW12115   2.797   2.098   2.342
 3740SOL    HW112116   2.749   2.139   2.264
 3740SOL    HW212117   2.896   2.096   2.323
 3741SOL     OW12118   2.938   2.545   3.326
 3741SOL    HW112119   2.858   2.484   3.329
 3741SOL    HW212120   3.019   2.492   3.302
 3742SOL     OW12121   3.089   3.432   2.655
 3742SOL    HW112122   3.110   3.506   2.590
 3742SOL    HW212123   3.157   3.432   2.728
 3743SOL     OW12124   2.321   3.014   2.603
 3743SOL    HW112125   2.250   2.987   2.668
 3743SOL    HW212126   2.295   2.986   2.510
 3744SOL     OW12127   3.133   3.659   2.453
 3744SOL    HW112128   3.177   3.723   2.389
 3744SOL    HW212129   3.083   3.711   2.523
 3745SOL     OW12130   2.728   2.316   2.504
 3745SOL    HW112131   2.696   2.388   2.442
 3745SOL    HW212132   2.752   2.235   2.451
 3746SOL     OW12133   2.879   1.901   2.615
 3746SOL    HW112134   2.807   1.906   2.546
 3746SOL    HW212135   2.855   1.832   2.684
 3747SOL     OW12136   3.291   3.035   2.729
 3747SOL    HW112137   3.236   2.951   2.722
 3747SOL    HW212138   3.317   3.064   2.637
 3748SOL     OW12139   3.328   2.452   2.854
 3748SOL    HW112140   3.298   2.357   2.861
 3748SOL    HW212141   3.401   2.468   2.920
 3749SOL     OW12142   3.719   2.695   2.239
 3749SOL    HW112143   3.761   2.631   2.303
 3749SOL    HW212144   3.681   2.644   2.161
 3750SOL     OW12145   2.350   3.247   2.036
 3750SOL    HW112146   2.263   3.232   2.083
 3750SOL    HW212147   2.333   3.273   1.941
 3751SOL     OW12148   3.526   3.142   2.519
 3751SOL    HW112149   3.625   3.150   2.533
 3751SOL    HW212150   3.481   3.226   2.550
 3752SOL     OW12151   3.252   2.437   1.940
 3752SOL    HW112152   3.198   2.416   2.021
 3752SOL    HW212153   3.343   2.396   1.949
 3753SOL     OW12154   2.389   2.118   2.190
 3753SOL    HW112155   2.416   2.059   2.115
 3753SOL    HW212156   2.389   2.213   2.159
 3754SOL     OW12157   3.616   3.085   3.450
 3754SOL    HW112158   3.707   3.046   3.437
 3754SOL    HW212159   3.624   3.181   3.474
 3755SOL     OW12160   3.454   3.491   3.487
 3755SOL    HW112161   3.481   3.525   3.397
 3755SOL    HW212162   3.533   3.453   3.533
 3756SOL     OW12163   3.500   2.961   2.941
 3756SOL    HW112164   3.505   3.042   3.000
 3756SOL    HW212165   3.414   2.963   2.890
 3757SOL     OW12166   2.272   2.675   3.113
 3757SOL    HW112167   2.358   2.687   3.163
 3757SOL    HW212168   2.230   2.588   3.140
 3758SOL     OW12169   1.926   3.426   3.193
 3758SOL    HW112170   1.880   3.508   3.159
 3758SOL    HW212171   2.024   3.445   3.202
 3759SOL     OW12172   2.229   2.962   2.363
 3759SOL    HW112173   2.222   3.045   2.307
 3759SOL    HW212174   2.233   2.882   2.303
 3760SOL     OW12175   3.114   3.210   2.250
 3760SOL    HW112176   3.164   3.287   2.290
 3760SOL    HW212177   3.019   3.212   2.282
 3761SOL     OW12178   3.444   2.501   2.334
 3761SOL    HW112179   3.413   2.562   2.407
 3761SOL    HW212180   3.494   2.553   2.265
 3762SOL     OW12181   2.435   2.732   2.891
 3762SOL    HW112182   2.479   2.821   2.882
 3762SOL    HW212183   2.372   2.732   2.968
 3763SOL     OW12184   3.222   2.724   2.907
 3763SOL    HW112185   3.147   2.724   2.841
 3763SOL    HW212186   3.259   2.632   2.916
 3764SOL     OW12187   3.071   2.387   2.137
 3764SOL    HW112188   3.084   2.303   2.191
 3764SOL    HW212189   3.042   2.461   2.197
 3765SOL     OW12190   3.590   2.797   3.716
 3765SOL    HW112191   3.544   2.790   3.627
 3765SOL    HW212192   3.528   2.841   3.782
 3766SOL     OW12193   2.169   1.925   2.480
 3766SOL    HW112194   2.158   2.019   2.513
 3766SOL    HW212195   2.164   1.862   2.557
 3767SOL     OW12196   3.484   2.229   2.236
 3767SOL    HW112197   3.486   2.153   2.300
 3767SOL    HW212198   3.436   2.306   2.276
 3768SOL     OW12199   3.721   3.380   3.467
 3768SOL    HW112200   3.735   3.407   3.372
 3768SOL    HW212201   3.804   3.402   3.520
 3769SOL     OW12202   3.402   2.136   1.987
 3769SOL    HW112203   3.341   2.061   2.010
 3769SOL    HW212204   3.424   2.188   2.070
 3770SOL     OW12205   3.165   2.700   1.904
 3770SOL    HW112206   3.199   2.607   1.919
 3770SOL    HW212207   3.183   2.727   1.809
 3771SOL     OW12208   2.930   3.195   2.711
 3771SOL    HW112209   2.937   3.111   2.656
 3771SOL    HW212210   2.992   3.264   2.675
 3772SOL     OW12211   2.181   2.672   2.811
 3772SOL    HW112212   2.274   2.708   2.816
 3772SOL    HW212213   2.175   2.587   2.863
 3773SOL     OW12214   2.201   2.371   2.868
 3773SOL    HW112215   2.149   2.288   2.851
 3773SOL    HW212216   2.278   2.376   2.804
 3774SOL     OW12217   1.870   3.188   2.062
 3774SOL    HW112218   1.777   3.209   2.031
 3774SOL    HW212219   1.880   3.089   2.075
 3775SOL     OW12220   1.950   3.663   2.789
 3775SOL    HW112221   1.908   3.577   2.762
 3775SOL    HW212222   2.044   3.666   2.755
 3776SOL     OW12223   2.366   3.430   2.772
 3776SOL    HW112224   2.432   3.504   2.781
 3776SOL    HW212225   2.410   3.351   2.730
 3777SOL     OW12226   1.902   2.406   2.976
 3777SOL    HW112227   1.987   2.373   2.935
 3777SOL    HW212228   1.915   2.421   3.074
 3778SOL     OW12229   2.792   3.540   3.327
 3778SOL    HW112230   2.768   3.522   3.232
 3778SOL    HW212231   2.822   3.634   3.337
 3779SOL     OW12232   3.164   2.717   2.171
 3779SOL    HW112233   3.078   2.686   2.213
 3779SOL    HW212234   3.160   2.703   2.072
 3780SOL     OW12235   3.621   3.609   3.016
 3780SOL    HW112236   3.682   3.639   2.943
 3780SOL    HW212237   3.583   3.520   2.994
 3781SOL     OW12238   3.114   3.593   2.990
 3781SOL    HW112239   3.198   3.598   2.936
 3781SOL    HW212240   3.091   3.497   3.008
 3782SOL     OW12241   1.945   3.120   2.884
 3782SOL    HW112242   1.940   3.119   2.984
 3782SOL    HW212243   1.862   3.079   2.846
 3783SOL     OW12244   2.550   3.524   3.578
 3783SOL    HW112245   2.494   3.605   3.587
 3783SOL    HW212246   2.602   3.528   3.492
 3784SOL     OW12247   3.588   1.997   2.385
 3784SOL    HW112248   3.661   1.980   2.318
 3784SOL    HW212249   3.557   1.910   2.423
 3785SOL     OW12250   3.250   3.435   2.339
 3785SOL    HW112251   3.317   3.447   2.265
 3785SOL    HW212252   3.210   3.524   2.362
 3786SOL     OW12253   1.992   3.656   3.713
 3786SOL    HW112254   1.951   3.582   3.766
 3786SOL    HW212255   2.056   3.707   3.771
 3787SOL     OW12256   3.142   2.789   2.534
 3787SOL    HW112257   3.202   2.708   2.536
 3787SOL    HW212258   3.182   2.858   2.474
 3788SOL     OW12259   2.534   3.478   2.016
 3788SOL    HW112260   2.543   3.488   1.917
 3788SOL    HW212261   2.494   3.389   2.037
 3789SOL     OW12262   3.512   3.582   3.256
 3789SOL    HW112263   3.565   3.592   3.172
 3789SOL    HW212264   3.485   3.672   3.290
 3790SOL     OW12265   3.703   2.037   2.825
 3790SOL    HW112266   3.742   1.952   2.789
 3790SOL    HW212267   3.605   2.039   2.806
 3791SOL     OW12268   2.125   2.188   2.582
 3791SOL    HW112269   2.046   2.239   2.548
 3791SOL    HW212270   2.116   2.173   2.680
 3792SOL     OW12271   3.056   3.474   1.893
 3792SOL    HW112272   3.062   3.381   1.930
 3792SOL    HW212273   2.997   3.474   1.813
 3793SOL     OW12274   3.366   3.469   1.906
 3793SOL    HW112275   3.274   3.506   1.913
 3793SOL    HW212276   3.404   3.489   1.816
 3794SOL     OW12277   2.876   2.098   2.833
 3794SOL    HW112278   2.868   2.062   2.740
 3794SOL    HW212279   2.874   2.022   2.898
 3795SOL     OW12280   2.452   3.349   2.353
 3795SOL    HW112281   2.494   3.291   2.283
 3795SOL    HW212282   2.408   3.428   2.309
 3796SOL     OW12283   3.571   2.247   3.243
 3796SOL    HW112284   3.644   2.316   3.247
 3796SOL    HW212285   3.599   2.172   3.184
 3797SOL     OW12286   2.117   3.210   2.152
 3797SOL    HW112287   2.021   3.211   2.125
 3797SOL    HW212288   2.129   3.263   2.236
 3798SOL     OW12289   1.937   2.207   1.895
 3798SOL    HW112290   1.845   2.179   1.866
 3798SOL    HW212291   1.968   2.284   1.839
 3799SOL     OW12292   1.934   2.028   2.180
 3799SOL    HW112293   1.917   2.111   2.126
 3799SOL    HW212294   2.024   1.991   2.158
 3800SOL     OW12295   3.045   3.197   1.981
 3800SOL    HW112296   2.946   3.186   1.983
 3800SOL    HW212297   3.079   3.212   2.074
 3801SOL     OW12298   3.355   3.629   2.821
 3801SOL    HW112299   3.388   3.693   2.752
 3801SOL    HW212300   3.421   3.623   2.896
 3802SOL     OW12301   2.252   3.603   3.422
 3802SOL    HW112302   2.161   3.644   3.420
 3802SOL    HW212303   2.245   3.509   3.454
 3803SOL     OW12304   3.087   2.187   2.311
 3803SOL    HW112305   3.152   2.113   2.300
 3803SOL    HW212306   3.107   2.237   2.395
 3804SOL     OW12307   3.639   2.204   3.504
 3804SOL    HW112308   3.622   2.235   3.410
 3804SOL    HW212309   3.555   2.167   3.542
 3805SOL     OW12310   2.721   3.236   1.878
 3805SOL    HW112311   2.675   3.251   1.966
 3805SOL    HW212312   2.765   3.321   1.848
 3806SOL     OW12313   2.523   3.652   2.815
 3806SOL    HW112314   2.477   3.740   2.802
 3806SOL    HW212315   2.622   3.664   2.808
 3807SOL     OW12316   3.723   3.431   2.713
 3807SOL    HW112317   3.652   3.419   2.643
 3807SOL    HW212318   3.724   3.352   2.773
 3808SOL     OW12319   1.941   3.102   2.515
 3808SOL    HW112320   1.940   3.055   2.603
 3808SOL    HW212321   2.023   3.074   2.464
 3809SOL     OW12322   3.686   2.054   3.089
 3809SOL    HW112323   3.682   1.964   3.133
 3809SOL    HW212324   3.689   2.043   2.990
 3810SOL     OW12325   2.290   2.286   2.382
 3810SOL    HW112326   2.320   2.214   2.320
 3810SOL    HW212327   2.251   2.246   2.465
 3811SOL     OW12328   3.567   3.349   2.966
 3811SOL    HW112329   3.474   3.324   2.939
 3811SOL    HW212330   3.593   3.299   3.048
 3812SOL     OW12331   2.674   3.448   2.549
 3812SOL    HW112332   2.706   3.458   2.455
 3812SOL    HW212333   2.595   3.386   2.551
 3813SOL     OW12334   3.286   2.076   2.974
 3813SOL    HW112335   3.338   2.011   3.029
 3813SOL    HW212336   3.237   2.139   3.035
 3814SOL     OW12337   2.863   1.896   3.016
 3814SOL    HW112338   2.800   1.824   2.985
 3814SOL    HW212339   2.956   1.860   3.016
 3815SOL     OW12340   2.632   3.192   2.163
 3815SOL    HW112341   2.586   3.105   2.180
 3815SOL    HW212342   2.723   3.189   2.204
 3816SOL     OW12343   3.214   1.914   2.030
 3816SOL    HW112344   3.249   1.873   1.946
 3816SOL    HW212345   3.124   1.876   2.050
 3817SOL     OW12346   3.162   2.315   2.553
 3817SOL    HW112347   3.103   2.395   2.557
 3817SOL    HW212348   3.177   2.280   2.646
 3818SOL     OW12349   3.455   2.083   2.744
 3818SOL    HW112350   3.371   2.082   2.798
 3818SOL    HW212351   3.457   2.166   2.688
 3819SOL     OW12352   1.901   2.939   2.162
 3819SOL    HW112353   2.000   2.928   2.153
 3819SOL    HW212354   1.861   2.853   2.194
 3820SOL     OW12355   2.737   3.508   2.199
 3820SOL    HW112356   2.660   3.473   2.145
 3820SOL    HW212357   2.705   3.579   2.261
 3821SOL     OW12358   3.417   3.373   4.427
 3821SOL    HW112359   3.360   3.357   4.508
 3821SOL    HW212360   3.358   3.383   4.347
 3822SOL     OW12361   3.617   2.469   3.955
 3822SOL    HW112362   3.605   2.456   3.856
 3822SOL    HW212363   3.587   2.388   4.004
 3823SOL     OW12364   2.548   3.023   5.527
 3823SOL    HW112365   2.608   3.102   5.541
 3823SOL    HW212366   2.462   3.054   5.486
 3824SOL     OW12367   3.322   3.367   5.063
 3824SOL    HW112368   3.346   3.461   5.089
 3824SOL    HW212369   3.306   3.313   5.145
 3825SOL     OW12370   2.300   2.254   5.223
 3825SOL    HW112371   2.382   2.198   5.232
 3825SOL    HW212372   2.219   2.196   5.227
 3826SOL     OW12373   2.093   3.575   4.207
 3826SOL    HW112374   2.127   3.652   4.261
 3826SOL    HW212375   2.137   3.575   4.117
 3827SOL     OW12376   2.989   3.203   5.414
 3827SOL    HW112377   3.036   3.203   5.502
 3827SOL    HW212378   2.941   3.116   5.403
 3828SOL     OW12379   2.092   3.296   4.262
 3828SOL    HW112380   2.066   3.392   4.262
 3828SOL    HW212381   2.021   3.242   4.307
 3829SOL     OW12382   2.482   3.648   5.163
 3829SOL    HW112383   2.390   3.631   5.198
 3829SOL    HW212384   2.510   3.740   5.189
 3830SOL     OW12385   3.456   1.976   5.204
 3830SOL    HW112386   3.438   2.043   5.132
 3830SOL    HW212387   3.453   2.022   5.293
 3831SOL     OW12388   3.704   3.629   4.083
 3831SOL    HW112389   3.758   3.600   4.163
 3831SOL    HW212390   3.734   3.719   4.054
 3832SOL     OW12391   1.889   3.458   3.841
 3832SOL    HW112392   1.870   3.362   3.862
 3832SOL    HW212393   1.856   3.516   3.916
 3833SOL     OW12394   3.551   2.784   4.336
 3833SOL    HW112395   3.646   2.755   4.344
 3833SOL    HW212396   3.543   2.849   4.261
 3834SOL     OW12397   3.503   2.970   4.156
 3834SOL    HW112398   3.589   2.972   4.104
 3834SOL    HW212399   3.517   3.017   4.244
 3835SOL     OW12400   1.975   2.599   5.321
 3835SOL    HW112401   2.063   2.586   5.366
 3835SOL    HW212402   1.962   2.696   5.299
 3836SOL     OW12403   3.049   3.654   5.340
 3836SOL    HW112404   3.073   3.714   5.264
 3836SOL    HW212405   3.056   3.559   5.310
 3837SOL     OW12406   2.179   2.113   5.525
 3837SOL    HW112407   2.250   2.184   5.531
 3837SOL    HW212408   2.091   2.152   5.553
 3838SOL     OW12409   3.328   3.279   4.677
 3838SOL    HW112410   3.269   3.285   4.757
 3838SOL    HW212411   3.313   3.191   4.631
 3839SOL     OW12412   3.529   3.576   4.296
 3839SOL    HW112413   3.488   3.553   4.208
 3839SOL    HW212414   3.511   3.502   4.361
 3840SOL     OW12415   3.438   3.524   4.031
 3840SOL    HW112416   3.527   3.570   4.034
 3840SOL    HW212417   3.417   3.500   3.936
 3841SOL     OW12418   3.256   2.331   5.398
 3841SOL    HW112419   3.236   2.374   5.486
 3841SOL    HW212420   3.334   2.269   5.407
 3842SOL     OW12421   1.992   3.683   5.295
 3842SOL    HW112422   1.982   3.668   5.394
 3842SOL    HW212423   1.906   3.719   5.259
 3843SOL     OW12424   3.581   2.447   5.555
 3843SOL    HW112425   3.555   2.536   5.519
 3843SOL    HW212426   3.579   2.379   5.482
 3844SOL     OW12427   2.213   3.663   4.577
 3844SOL    HW112428   2.263   3.577   4.583
 3844SOL    HW212429   2.278   3.740   4.574
 3845SOL     OW12430   3.657   2.928   4.597
 3845SOL    HW112431   3.595   2.913   4.521
 3845SOL    HW212432   3.605   2.939   4.682
 3846SOL     OW12433   3.089   3.412   5.230
 3846SOL    HW112434   3.095   3.335   5.294
 3846SOL    HW212435   3.037   3.386   5.150
 3847SOL     OW12436   2.323   3.128   5.451
 3847SOL    HW112437   2.273   3.129   5.365
 3847SOL    HW212438   2.260   3.110   5.527
 3848SOL     OW12439   2.973   3.638   3.961
 3848SOL    HW112440   2.913   3.576   4.011
 3848SOL    HW212441   3.004   3.594   3.876
 3849SOL     OW12442   2.064   2.147   5.222
 3849SOL    HW112443   1.984   2.207   5.209
 3849SOL    HW212444   2.054   2.098   5.308
 3850SOL     OW12445   3.494   3.239   3.805
 3850SOL    HW112446   3.462   3.333   3.795
 3850SOL    HW212447   3.418   3.176   3.793
 3851SOL     OW12448   2.326   3.605   4.047
 3851SOL    HW112449   2.359   3.644   4.133
 3851SOL    HW212450   2.402   3.598   3.982
 3852SOL     OW12451   3.262   1.969   4.150
 3852SOL    HW112452   3.238   1.932   4.060
 3852SOL    HW212453   3.361   1.985   4.154
 3853SOL     OW12454   2.111   3.647   4.965
 3853SOL    HW112455   2.168   3.582   5.015
 3853SOL    HW212456   2.095   3.614   4.872
 3854SOL     OW12457   2.802   3.560   4.628
 3854SOL    HW112458   2.882   3.503   4.649
 3854SOL    HW212459   2.753   3.520   4.551
 3855SOL     OW12460   3.409   2.084   5.453
 3855SOL    HW112461   3.404   2.121   5.545
 3855SOL    HW212462   3.337   2.015   5.441
 3856SOL     OW12463   2.643   2.126   5.473
 3856SOL    HW112464   2.710   2.065   5.516
 3856SOL    HW212465   2.570   2.145   5.538
 3857SOL     OW12466   2.750   3.376   4.919
 3857SOL    HW112467   2.727   3.351   4.825
 3857SOL    HW212468   2.811   3.307   4.958
 3858SOL     OW12469   3.213   2.452   5.157
 3858SOL    HW112470   3.241   2.409   5.242
 3858SOL    HW212471   3.238   2.548   5.158
 3859SOL     OW12472   2.321   3.014   4.465
 3859SOL    HW112473   2.250   2.987   4.530
 3859SOL    HW212474   2.295   2.986   4.372
 3860SOL     OW12475   3.133   3.659   4.315
 3860SOL    HW112476   3.177   3.723   4.251
 3860SOL    HW212477   3.083   3.711   4.385
 3861SOL     OW12478   2.728   2.316   4.366
 3861SOL    HW112479   2.696   2.388   4.304
 3861SOL    HW212480   2.752   2.235   4.313
 3862SOL     OW12481   3.719   2.695   4.101
 3862SOL    HW112482   3.761   2.631   4.165
 3862SOL    HW212483   3.681   2.644   4.023
 3863SOL     OW12484   2.350   3.247   3.898
 3863SOL    HW112485   2.263   3.232   3.945
 3863SOL    HW212486   2.333   3.273   3.803
 3864SOL     OW12487   3.526   3.142   4.381
 3864SOL    HW112488   3.625   3.150   4.395
 3864SOL    HW212489   3.481   3.226   4.412
 3865SOL     OW12490   3.616   3.085   5.312
 3865SOL    HW112491   3.707   3.046   5.299
 3865SOL    HW212492   3.624   3.181   5.336
 3866SOL     OW12493   3.454   3.491   5.349
 3866SOL    HW112494   3.481   3.525   5.259
 3866SOL    HW212495   3.533   3.453   5.395
 3867SOL     OW12496   3.500   2.961   4.803
 3867SOL    HW112497   3.505   3.042   4.862
 3867SOL    HW212498   3.414   2.963   4.752
 3868SOL     OW12499   2.777   1.951   5.126
 3868SOL    HW112500   2.802   1.931   5.031
 3868SOL    HW212501   2.849   2.007   5.168
 3869SOL     OW12502   1.926   3.426   5.055
 3869SOL    HW112503   1.880   3.508   5.021
 3869SOL    HW212504   2.024   3.445   5.064
 3870SOL     OW12505   3.444   2.501   4.196
 3870SOL    HW112506   3.413   2.562   4.269
 3870SOL    HW212507   3.494   2.553   4.127
 3871SOL     OW12508   2.216   3.372   5.053
 3871SOL    HW112509   2.195   3.328   4.966
 3871SOL    HW212510   2.313   3.398   5.056
 3872SOL     OW12511   2.264   2.613   5.322
 3872SOL    HW112512   2.332   2.668   5.275
 3872SOL    HW212513   2.304   2.525   5.349
 3873SOL     OW12514   3.449   2.641   5.394
 3873SOL    HW112515   3.357   2.679   5.389
 3873SOL    HW212516   3.509   2.688   5.329
 3874SOL     OW12517   2.875   1.967   5.494
 3874SOL    HW112518   2.881   2.052   5.442
 3874SOL    HW212519   2.907   1.891   5.437
 3875SOL     OW12520   2.366   1.912   5.464
 3875SOL    HW112521   2.324   1.855   5.394
 3875SOL    HW212522   2.300   1.981   5.496
 3876SOL     OW12523   1.899   3.172   5.006
 3876SOL    HW112524   1.952   3.123   5.074
 3876SOL    HW212525   1.921   3.270   5.011
 3877SOL     OW12526   3.590   2.797   5.578
 3877SOL    HW112527   3.544   2.790   5.489
 3877SOL    HW212528   3.528   2.841   5.644
 3878SOL     OW12529   2.169   1.925   4.342
 3878SOL    HW112530   2.158   2.019   4.375
 3878SOL    HW212531   2.164   1.862   4.419
 3879SOL     OW12532   3.484   2.229   4.098
 3879SOL    HW112533   3.486   2.153   4.162
 3879SOL    HW212534   3.436   2.306   4.138
 3880SOL     OW12535   2.842   3.435   5.424
 3880SOL    HW112536   2.822   3.479   5.336
 3880SOL    HW212537   2.881   3.344   5.408
 3881SOL     OW12538   3.721   3.380   5.329
 3881SOL    HW112539   3.735   3.407   5.234
 3881SOL    HW212540   3.804   3.402   5.382
 3882SOL     OW12541   2.212   2.760   5.528
 3882SOL    HW112542   2.288   2.804   5.576
 3882SOL    HW212543   2.247   2.713   5.446
 3883SOL     OW12544   3.402   2.136   3.849
 3883SOL    HW112545   3.341   2.061   3.872
 3883SOL    HW212546   3.424   2.188   3.932
 3884SOL     OW12547   3.000   2.242   5.402
 3884SOL    HW112548   2.955   2.305   5.466
 3884SOL    HW212549   3.093   2.273   5.385
 3885SOL     OW12550   3.022   2.069   5.201
 3885SOL    HW112551   3.022   2.133   5.278
 3885SOL    HW212552   3.050   2.117   5.118
 3886SOL     OW12553   1.870   3.188   3.924
 3886SOL    HW112554   1.777   3.209   3.893
 3886SOL    HW212555   1.880   3.089   3.937
 3887SOL     OW12556   1.950   3.663   4.651
 3887SOL    HW112557   1.908   3.577   4.624
 3887SOL    HW212558   2.044   3.666   4.617
 3888SOL     OW12559   2.051   2.382   5.446
 3888SOL    HW112560   2.110   2.342   5.376
 3888SOL    HW212561   1.993   2.453   5.405
 3889SOL     OW12562   3.231   2.812   5.384
 3889SOL    HW112563   3.270   2.901   5.404
 3889SOL    HW212564   3.241   2.792   5.287
 3890SOL     OW12565   3.519   2.466   4.930
 3890SOL    HW112566   3.481   2.397   4.992
 3890SOL    HW212567   3.601   2.430   4.886
 3891SOL     OW12568   2.114   3.426   5.468
 3891SOL    HW112569   2.084   3.483   5.544
 3891SOL    HW212570   2.107   3.329   5.494
 3892SOL     OW12571   2.792   3.540   5.189
 3892SOL    HW112572   2.768   3.522   5.094
 3892SOL    HW212573   2.822   3.634   5.199
 3893SOL     OW12574   3.164   2.717   4.033
 3893SOL    HW112575   3.078   2.686   4.075
 3893SOL    HW212576   3.160   2.703   3.934
 3894SOL     OW12577   3.621   3.609   4.878
 3894SOL    HW112578   3.682   3.639   4.805
 3894SOL    HW212579   3.583   3.520   4.856
 3895SOL     OW12580   2.550   3.524   5.440
 3895SOL    HW112581   2.494   3.605   5.449
 3895SOL    HW212582   2.602   3.528   5.354
 3896SOL     OW12583   3.588   1.997   4.247
 3896SOL    HW112584   3.661   1.980   4.180
 3896SOL    HW212585   3.557   1.910   4.285
 3897SOL     OW12586   3.250   3.435   4.201
 3897SOL    HW112587   3.317   3.447   4.127
 3897SOL    HW212588   3.210   3.524   4.224
 3898SOL     OW12589   1.992   3.656   5.575
 3898SOL    HW112590   1.951   3.582   5.628
 3898SOL    HW212591   2.056   3.707   5.633
 3899SOL     OW12592   2.534   3.478   3.878
 3899SOL    HW112593   2.543   3.488   3.779
 3899SOL    HW212594   2.494   3.389   3.899
 3900SOL     OW12595   3.512   3.582   5.118
 3900SOL    HW112596   3.565   3.592   5.034
 3900SOL    HW212597   3.485   3.672   5.152
 3901SOL     OW12598   3.703   2.037   4.687
 3901SOL    HW112599   3.742   1.952   4.651
 3901SOL    HW212600   3.605   2.039   4.668
 3902SOL     OW12601   3.366   3.469   3.768
 3902SOL    HW112602   3.274   3.506   3.775
 3902SOL    HW212603   3.404   3.489   3.678
 3903SOL     OW12604   3.476   3.154   5.013
 3903SOL    HW112605   3.536   3.157   5.093
 3903SOL    HW212606   3.401   3.218   5.026
 3904SOL     OW12607   3.571   2.247   5.105
 3904SOL    HW112608   3.644   2.316   5.109
 3904SOL    HW212609   3.599   2.172   5.046
 3905SOL     OW12610   2.117   3.210   4.014
 3905SOL    HW112611   2.021   3.211   3.987
 3905SOL    HW212612   2.129   3.263   4.098
 3906SOL     OW12613   1.967   2.875   5.450
 3906SOL    HW112614   1.890   2.842   5.504
 3906SOL    HW212615   2.052   2.845   5.492
 3907SOL     OW12616   2.534   2.065   5.213
 3907SOL    HW112617   2.624   2.049   5.173
 3907SOL    HW212618   2.542   2.070   5.312
 3908SOL     OW12619   1.934   2.028   4.042
 3908SOL    HW112620   1.917   2.111   3.988
 3908SOL    HW212621   2.024   1.991   4.020
 3909SOL     OW12622   3.045   3.197   3.843
 3909SOL    HW112623   2.946   3.186   3.845
 3909SOL    HW212624   3.079   3.212   3.936
 3910SOL     OW12625   3.355   3.629   4.683
 3910SOL    HW112626   3.388   3.693   4.614
 3910SOL    HW212627   3.421   3.623   4.758
 3911SOL     OW12628   3.312   3.082   5.357
 3911SOL    HW112629   3.303   3.072   5.456
 3911SOL    HW212630   3.408   3.075   5.331
 3912SOL     OW12631   2.252   3.603   5.284
 3912SOL    HW112632   2.161   3.644   5.282
 3912SOL    HW212633   2.245   3.509   5.316
 3913SOL     OW12634   3.536   2.745   4.978
 3913SOL    HW112635   3.509   2.656   4.941
 3913SOL    HW212636   3.537   2.813   4.905
 3914SOL     OW12637   3.087   2.187   4.173
 3914SOL    HW112638   3.152   2.113   4.162
 3914SOL    HW212639   3.107   2.237   4.257
 3915SOL     OW12640   3.639   2.204   5.366
 3915SOL    HW112641   3.622   2.235   5.272
 3915SOL    HW212642   3.555   2.167   5.404
 3916SOL     OW12643   3.592   2.796   5.241
 3916SOL    HW112644   3.630   2.887   5.256
 3916SOL    HW212645   3.584   2.779   5.142
 3917SOL     OW12646   2.523   3.652   4.677
 3917SOL    HW112647   2.477   3.740   4.664
 3917SOL    HW212648   2.622   3.664   4.670
 3918SOL     OW12649   3.723   3.431   4.575
 3918SOL    HW112650   3.652   3.419   4.505
 3918SOL    HW212651   3.724   3.352   4.635
 3919SOL     OW12652   2.083   3.176   5.568
 3919SOL    HW112653   2.018   3.103   5.547
 3919SOL    HW212654   2.087   3.190   5.666
 3920SOL     OW12655   2.534   3.253   5.348
 3920SOL    HW112656   2.456   3.203   5.386
 3920SOL    HW212657   2.531   3.348   5.379
 3921SOL     OW12658   3.686   2.054   4.951
 3921SOL    HW112659   3.682   1.964   4.995
 3921SOL    HW212660   3.689   2.043   4.852
 3922SOL     OW12661   3.567   3.349   4.828
 3922SOL    HW112662   3.474   3.324   4.801
 3922SOL    HW212663   3.593   3.299   4.910
 3923SOL     OW12664   2.863   1.896   4.878
 3923SOL    HW112665   2.800   1.824   4.847
 3923SOL    HW212666   2.956   1.860   4.878
 3924SOL     OW12667   2.480   3.429   5.008
 3924SOL    HW112668   2.475   3.511   5.065
 3924SOL    HW212669   2.569   3.426   4.963
 3925SOL     OW12670   3.214   1.914   3.892
 3925SOL    HW112671   3.249   1.873   3.808
 3925SOL    HW212672   3.124   1.876   3.912
 3926SOL     OW12673   1.901   2.939   4.024
 3926SOL    HW112674   2.000   2.928   4.015
 3926SOL    HW212675   1.861   2.853   4.056
 3927SOL     OW12676   2.737   3.508   4.061
 3927SOL    HW112677   2.660   3.473   4.007
 3927SOL    HW212678   2.705   3.579   4.123
 3928SOL     OW12679   2.092   2.490   5.699
 3928SOL    HW112680   1.999   2.488   5.736
 3928SOL    HW212681   2.093   2.451   5.607
 3929SOL     OW12682   2.087   2.137   6.582
 3929SOL    HW112683   2.122   2.120   6.674
 3929SOL    HW212684   1.999   2.092   6.570
 3930SOL     OW12685   1.881   2.230   6.233
 3930SOL    HW112686   1.799   2.273   6.272
 3930SOL    HW212687   1.853   2.157   6.170
 3931SOL     OW12688   2.431   3.137   6.751
 3931SOL    HW112689   2.338   3.130   6.714
 3931SOL    HW212690   2.442   3.226   6.795
 3932SOL     OW12691   3.417   3.373   6.289
 3932SOL    HW112692   3.360   3.357   6.370
 3932SOL    HW212693   3.358   3.383   6.209
 3933SOL     OW12694   2.997   2.565   6.303
 3933SOL    HW112695   3.054   2.643   6.278
 3933SOL    HW212696   2.937   2.591   6.379
 3934SOL     OW12697   3.617   2.469   5.817
 3934SOL    HW112698   3.605   2.456   5.718
 3934SOL    HW212699   3.587   2.388   5.866
 3935SOL     OW12700   2.630   3.006   6.609
 3935SOL    HW112701   2.552   3.023   6.669
 3935SOL    HW212702   2.664   3.093   6.573
 3936SOL     OW12703   2.548   3.023   7.389
 3936SOL    HW112704   2.608   3.102   7.403
 3936SOL    HW212705   2.462   3.054   7.348
 3937SOL     OW12706   2.197   3.297   6.647
 3937SOL    HW112707   2.119   3.266   6.594
 3937SOL    HW212708   2.255   3.355   6.590
 3938SOL     OW12709   3.322   3.367   6.925
 3938SOL    HW112710   3.346   3.461   6.951
 3938SOL    HW212711   3.306   3.313   7.007
 3939SOL     OW12712   2.300   2.254   7.085
 3939SOL    HW112713   2.382   2.198   7.094
 3939SOL    HW212714   2.219   2.196   7.089
 3940SOL     OW12715   3.465   2.309   6.323
 3940SOL    HW112716   3.391   2.355   6.273
 3940SOL    HW212717   3.516   2.377   6.376
 3941SOL     OW12718   2.093   3.575   6.069
 3941SOL    HW112719   2.127   3.652   6.123
 3941SOL    HW212720   2.137   3.575   5.979
 3942SOL     OW12721   2.989   3.203   7.276
 3942SOL    HW112722   3.036   3.203   7.364
 3942SOL    HW212723   2.941   3.116   7.265
 3943SOL     OW12724   2.092   3.296   6.124
 3943SOL    HW112725   2.066   3.392   6.124
 3943SOL    HW212726   2.021   3.242   6.169
 3944SOL     OW12727   2.102   2.953   6.472
 3944SOL    HW112728   2.116   2.869   6.524
 3944SOL    HW212729   2.047   3.017   6.527
 3945SOL     OW12730   2.482   3.648   7.025
 3945SOL    HW112731   2.390   3.631   7.060
 3945SOL    HW212732   2.510   3.740   7.051
 3946SOL     OW12733   2.468   2.826   5.709
 3946SOL    HW112734   2.475   2.910   5.655
 3946SOL    HW212735   2.514   2.839   5.797
 3947SOL     OW12736   3.456   1.976   7.066
 3947SOL    HW112737   3.438   2.043   6.994
 3947SOL    HW212738   3.453   2.022   7.155
 3948SOL     OW12739   1.984   2.505   6.149
 3948SOL    HW112740   1.939   2.417   6.166
 3948SOL    HW212741   1.983   2.559   6.233
 3949SOL     OW12742   3.704   3.629   5.945
 3949SOL    HW112743   3.758   3.600   6.025
 3949SOL    HW212744   3.734   3.719   5.916
 3950SOL     OW12745   1.889   3.458   5.703
 3950SOL    HW112746   1.870   3.362   5.724
 3950SOL    HW212747   1.856   3.516   5.778
 3951SOL     OW12748   3.551   2.784   6.198
 3951SOL    HW112749   3.646   2.755   6.206
 3951SOL    HW212750   3.543   2.849   6.123
 3952SOL     OW12751   3.503   2.970   6.018
 3952SOL    HW112752   3.589   2.972   5.966
 3952SOL    HW212753   3.517   3.017   6.106
 3953SOL     OW12754   1.975   2.599   7.183
 3953SOL    HW112755   2.063   2.586   7.228
 3953SOL    HW212756   1.962   2.696   7.161
 3954SOL     OW12757   2.475   3.227   6.312
 3954SOL    HW112758   2.426   3.140   6.321
 3954SOL    HW212759   2.452   3.270   6.225
 3955SOL     OW12760   3.155   3.090   7.009
 3955SOL    HW112761   3.192   3.017   6.951
 3955SOL    HW212762   3.207   3.095   7.094
 3956SOL     OW12763   2.671   1.866   6.088
 3956SOL    HW112764   2.711   1.957   6.079
 3956SOL    HW212765   2.571   1.874   6.094
 3957SOL     OW12766   2.059   2.838   6.850
 3957SOL    HW112767   2.148   2.793   6.836
 3957SOL    HW212768   1.986   2.773   6.831
 3958SOL     OW12769   3.387   2.861   5.776
 3958SOL    HW112770   3.324   2.785   5.789
 3958SOL    HW212771   3.435   2.879   5.862
 3959SOL     OW12772   3.049   3.654   7.202
 3959SOL    HW112773   3.073   3.714   7.126
 3959SOL    HW212774   3.056   3.559   7.172
 3960SOL     OW12775   2.179   2.113   7.387
 3960SOL    HW112776   2.250   2.184   7.393
 3960SOL    HW212777   2.091   2.152   7.415
 3961SOL     OW12778   3.328   3.279   6.539
 3961SOL    HW112779   3.269   3.285   6.619
 3961SOL    HW212780   3.313   3.191   6.493
 3962SOL     OW12781   3.529   3.576   6.158
 3962SOL    HW112782   3.488   3.553   6.070
 3962SOL    HW212783   3.511   3.502   6.223
 3963SOL     OW12784   3.143   2.207   6.530
 3963SOL    HW112785   3.057   2.157   6.517
 3963SOL    HW212786   3.205   2.153   6.586
 3964SOL     OW12787   3.438   3.524   5.893
 3964SOL    HW112788   3.527   3.570   5.896
 3964SOL    HW212789   3.417   3.500   5.798
 3965SOL     OW12790   3.256   2.331   7.260
 3965SOL    HW112791   3.236   2.374   7.348
 3965SOL    HW212792   3.334   2.269   7.269
 3966SOL     OW12793   2.853   2.272   6.828
 3966SOL    HW112794   2.776   2.306   6.882
 3966SOL    HW212795   2.819   2.221   6.749
 3967SOL     OW12796   1.938   2.673   6.375
 3967SOL    HW112797   2.037   2.661   6.384
 3967SOL    HW212798   1.914   2.768   6.396
 3968SOL     OW12799   1.992   3.683   7.157
 3968SOL    HW112800   1.982   3.668   7.256
 3968SOL    HW212801   1.906   3.719   7.121
 3969SOL     OW12802   2.727   2.210   5.781
 3969SOL    HW112803   2.786   2.273   5.732
 3969SOL    HW212804   2.746   2.116   5.752
 3970SOL     OW12805   3.581   2.447   7.417
 3970SOL    HW112806   3.555   2.536   7.381
 3970SOL    HW212807   3.579   2.379   7.344
 3971SOL     OW12808   3.224   3.006   6.131
 3971SOL    HW112809   3.307   2.977   6.083
 3971SOL    HW212810   3.175   3.073   6.075
 3972SOL     OW12811   2.412   2.058   6.471
 3972SOL    HW112812   2.407   2.053   6.571
 3972SOL    HW212813   2.414   2.154   6.442
 3973SOL     OW12814   2.870   3.318   6.063
 3973SOL    HW112815   2.824   3.390   6.011
 3973SOL    HW212816   2.866   3.338   6.161
 3974SOL     OW12817   2.213   3.663   6.439
 3974SOL    HW112818   2.263   3.577   6.445
 3974SOL    HW212819   2.278   3.740   6.436
 3975SOL     OW12820   3.657   2.928   6.459
 3975SOL    HW112821   3.595   2.913   6.383
 3975SOL    HW212822   3.605   2.939   6.544
 3976SOL     OW12823   3.089   3.412   7.092
 3976SOL    HW112824   3.095   3.335   7.156
 3976SOL    HW212825   3.037   3.386   7.012
 3977SOL     OW12826   2.183   2.805   5.828
 3977SOL    HW112827   2.265   2.844   5.786
 3977SOL    HW212828   2.156   2.723   5.779
 3978SOL     OW12829   3.320   2.597   6.314
 3978SOL    HW112830   3.315   2.532   6.389
 3978SOL    HW212831   3.400   2.656   6.327
 3979SOL     OW12832   2.323   3.128   7.313
 3979SOL    HW112833   2.273   3.129   7.227
 3979SOL    HW212834   2.260   3.110   7.389
 3980SOL     OW12835   2.973   3.638   5.823
 3980SOL    HW112836   2.913   3.576   5.873
 3980SOL    HW212837   3.004   3.594   5.738
 3981SOL     OW12838   2.064   2.147   7.084
 3981SOL    HW112839   1.984   2.207   7.071
 3981SOL    HW212840   2.054   2.098   7.170
 3982SOL     OW12841   3.494   3.239   5.667
 3982SOL    HW112842   3.462   3.333   5.657
 3982SOL    HW212843   3.418   3.176   5.655
 3983SOL     OW12844   2.326   3.605   5.909
 3983SOL    HW112845   2.359   3.644   5.995
 3983SOL    HW212846   2.402   3.598   5.844
 3984SOL     OW12847   3.262   1.969   6.012
 3984SOL    HW112848   3.238   1.932   5.922
 3984SOL    HW212849   3.361   1.985   6.016
 3985SOL     OW12850   2.111   3.647   6.827
 3985SOL    HW112851   2.168   3.582   6.877
 3985SOL    HW212852   2.095   3.614   6.734
 3986SOL     OW12853   2.802   3.560   6.490
 3986SOL    HW112854   2.882   3.503   6.511
 3986SOL    HW212855   2.753   3.520   6.413
 3987SOL     OW12856   2.244   2.562   6.066
 3987SOL    HW112857   2.289   2.472   6.063
 3987SOL    HW212858   2.150   2.551   6.099
 3988SOL     OW12859   3.409   2.084   7.315
 3988SOL    HW112860   3.404   2.121   7.407
 3988SOL    HW212861   3.337   2.015   7.303
 3989SOL     OW12862   2.476   1.984   5.703
 3989SOL    HW112863   2.574   1.962   5.710
 3989SOL    HW212864   2.445   1.967   5.610
 3990SOL     OW12865   2.643   2.126   7.335
 3990SOL    HW112866   2.710   2.065   7.378
 3990SOL    HW212867   2.570   2.145   7.400
 3991SOL     OW12868   2.750   3.376   6.781
 3991SOL    HW112869   2.727   3.351   6.687
 3991SOL    HW212870   2.811   3.307   6.820
 3992SOL     OW12871   3.213   2.452   7.019
 3992SOL    HW112872   3.241   2.409   7.104
 3992SOL    HW212873   3.238   2.548   7.020
 3993SOL     OW12874   2.665   3.264   6.510
 3993SOL    HW112875   2.755   3.278   6.468
 3993SOL    HW212876   2.594   3.266   6.439
 3994SOL     OW12877   2.784   2.365   6.485
 3994SOL    HW112878   2.759   2.356   6.389
 3994SOL    HW212879   2.832   2.283   6.516
 3995SOL     OW12880   2.401   1.926   6.098
 3995SOL    HW112881   2.320   1.927   6.156
 3995SOL    HW212882   2.404   2.009   6.043
 3996SOL     OW12883   3.296   3.050   5.627
 3996SOL    HW112884   3.328   2.974   5.684
 3996SOL    HW212885   3.204   3.077   5.657
 3997SOL     OW12886   2.159   1.897   5.757
 3997SOL    HW112887   2.208   1.981   5.736
 3997SOL    HW212888   2.221   1.832   5.802
 3998SOL     OW12889   2.797   2.098   6.066
 3998SOL    HW112890   2.749   2.139   5.988
 3998SOL    HW212891   2.896   2.096   6.047
 3999SOL     OW12892   2.938   2.545   7.050
 3999SOL    HW112893   2.858   2.484   7.053
 3999SOL    HW212894   3.019   2.492   7.026
 4000SOL     OW12895   3.089   3.432   6.379
 4000SOL    HW112896   3.110   3.506   6.314
 4000SOL    HW212897   3.157   3.432   6.452
 4001SOL     OW12898   2.321   3.014   6.327
 4001SOL    HW112899   2.250   2.987   6.392
 4001SOL    HW212900   2.295   2.986   6.234
 4002SOL     OW12901   3.133   3.659   6.177
 4002SOL    HW112902   3.177   3.723   6.113
 4002SOL    HW212903   3.083   3.711   6.247
 4003SOL     OW12904   1.940   2.418   6.972
 4003SOL    HW112905   2.032   2.417   6.931
 4003SOL    HW212906   1.934   2.492   7.039
 4004SOL     OW12907   2.423   2.084   6.733
 4004SOL    HW112908   2.461   2.000   6.770
 4004SOL    HW212909   2.335   2.103   6.777
 4005SOL     OW12910   2.728   2.316   6.228
 4005SOL    HW112911   2.696   2.388   6.166
 4005SOL    HW212912   2.752   2.235   6.175
 4006SOL     OW12913   2.879   1.901   6.339
 4006SOL    HW112914   2.807   1.906   6.270
 4006SOL    HW212915   2.855   1.832   6.408
 4007SOL     OW12916   3.291   3.035   6.453
 4007SOL    HW112917   3.236   2.951   6.446
 4007SOL    HW212918   3.317   3.064   6.361
 4008SOL     OW12919   3.328   2.452   6.578
 4008SOL    HW112920   3.298   2.357   6.585
 4008SOL    HW212921   3.401   2.468   6.644
 4009SOL     OW12922   3.719   2.695   5.963
 4009SOL    HW112923   3.761   2.631   6.027
 4009SOL    HW212924   3.681   2.644   5.885
 4010SOL     OW12925   2.350   3.247   5.760
 4010SOL    HW112926   2.263   3.232   5.807
 4010SOL    HW212927   2.333   3.273   5.665
 4011SOL     OW12928   3.526   3.142   6.243
 4011SOL    HW112929   3.625   3.150   6.257
 4011SOL    HW212930   3.481   3.226   6.274
 4012SOL     OW12931   3.252   2.437   5.664
 4012SOL    HW112932   3.198   2.416   5.745
 4012SOL    HW212933   3.343   2.396   5.673
 4013SOL     OW12934   2.389   2.118   5.914
 4013SOL    HW112935   2.416   2.059   5.839
 4013SOL    HW212936   2.389   2.213   5.883
 4014SOL     OW12937   3.616   3.085   7.174
 4014SOL    HW112938   3.707   3.046   7.161
 4014SOL    HW212939   3.624   3.181   7.198
 4015SOL     OW12940   2.926   3.209   6.926
 4015SOL    HW112941   2.846   3.186   6.981
 4015SOL    HW212942   3.009   3.183   6.975
 4016SOL     OW12943   3.454   3.491   7.211
 4016SOL    HW112944   3.481   3.525   7.121
 4016SOL    HW212945   3.533   3.453   7.257
 4017SOL     OW12946   2.973   3.057   6.686
 4017SOL    HW112947   2.933   3.101   6.767
 4017SOL    HW212948   2.932   3.094   6.603
 4018SOL     OW12949   3.500   2.961   6.665
 4018SOL    HW112950   3.505   3.042   6.724
 4018SOL    HW212951   3.414   2.963   6.614
 4019SOL     OW12952   2.777   1.951   6.988
 4019SOL    HW112953   2.802   1.931   6.893
 4019SOL    HW212954   2.849   2.007   7.030
 4020SOL     OW12955   2.842   2.978   7.305
 4020SOL    HW112956   2.743   2.984   7.315
 4020SOL    HW212957   2.865   2.898   7.249
 4021SOL     OW12958   2.272   2.675   6.837
 4021SOL    HW112959   2.358   2.687   6.887
 4021SOL    HW212960   2.230   2.588   6.864
 4022SOL     OW12961   3.136   2.248   6.848
 4022SOL    HW112962   3.157   2.322   6.912
 4022SOL    HW212963   3.047   2.265   6.805
 4023SOL     OW12964   1.926   3.426   6.917
 4023SOL    HW112965   1.880   3.508   6.883
 4023SOL    HW212966   2.024   3.445   6.926
 4024SOL     OW12967   2.229   2.962   6.087
 4024SOL    HW112968   2.222   3.045   6.031
 4024SOL    HW212969   2.233   2.882   6.027
 4025SOL     OW12970   3.114   3.210   5.974
 4025SOL    HW112971   3.164   3.287   6.014
 4025SOL    HW212972   3.019   3.212   6.006
 4026SOL     OW12973   3.134   3.307   6.728
 4026SOL    HW112974   3.181   3.320   6.815
 4026SOL    HW212975   3.068   3.233   6.737
 4027SOL     OW12976   3.444   2.501   6.058
 4027SOL    HW112977   3.413   2.562   6.131
 4027SOL    HW212978   3.494   2.553   5.989
 4028SOL     OW12979   2.216   3.372   6.915
 4028SOL    HW112980   2.195   3.328   6.828
 4028SOL    HW212981   2.313   3.398   6.918
 4029SOL     OW12982   3.449   2.641   7.256
 4029SOL    HW112983   3.357   2.679   7.251
 4029SOL    HW212984   3.509   2.688   7.191
 4030SOL     OW12985   2.875   1.967   7.356
 4030SOL    HW112986   2.881   2.052   7.304
 4030SOL    HW212987   2.907   1.891   7.299
 4031SOL     OW12988   2.366   1.912   7.326
 4031SOL    HW112989   2.324   1.855   7.256
 4031SOL    HW212990   2.300   1.981   7.358
 4032SOL     OW12991   3.222   2.724   6.631
 4032SOL    HW112992   3.147   2.724   6.565
 4032SOL    HW212993   3.259   2.632   6.640
 4033SOL     OW12994   3.071   2.387   5.861
 4033SOL    HW112995   3.084   2.303   5.915
 4033SOL    HW212996   3.042   2.461   5.921
 4034SOL     OW12997   2.169   2.075   6.817
 4034SOL    HW112998   2.146   2.112   6.907
 4034SOL    HW212999   2.139   1.980   6.811
 4035SOL     OW13000   1.899   3.172   6.868
 4035SOL    HW113001   1.952   3.123   6.936
 4035SOL    HW213002   1.921   3.270   6.873
 4036SOL     OW13003   3.590   2.797   7.440
 4036SOL    HW113004   3.544   2.790   7.351
 4036SOL    HW213005   3.528   2.841   7.506
 4037SOL     OW13006   2.169   1.925   6.204
 4037SOL    HW113007   2.158   2.019   6.237
 4037SOL    HW213008   2.164   1.862   6.281
 4038SOL     OW13009   3.484   2.229   5.960
 4038SOL    HW113010   3.486   2.153   6.024
 4038SOL    HW213011   3.436   2.306   6.000
 4039SOL     OW13012   2.842   3.435   7.286
 4039SOL    HW113013   2.822   3.479   7.198
 4039SOL    HW213014   2.881   3.344   7.270
 4040SOL     OW13015   3.721   3.380   7.191
 4040SOL    HW113016   3.735   3.407   7.096
 4040SOL    HW213017   3.804   3.402   7.244
 4041SOL     OW13018   2.212   2.760   7.390
 4041SOL    HW113019   2.288   2.804   7.438
 4041SOL    HW213020   2.247   2.713   7.308
 4042SOL     OW13021   3.402   2.136   5.711
 4042SOL    HW113022   3.341   2.061   5.734
 4042SOL    HW213023   3.424   2.188   5.794
 4043SOL     OW13024   3.165   2.700   5.628
 4043SOL    HW113025   3.199   2.607   5.643
 4043SOL    HW213026   3.183   2.727   5.533
 4044SOL     OW13027   2.930   3.195   6.435
 4044SOL    HW113028   2.937   3.111   6.380
 4044SOL    HW213029   2.992   3.264   6.399
 4045SOL     OW13030   2.181   2.672   6.535
 4045SOL    HW113031   2.274   2.708   6.540
 4045SOL    HW213032   2.175   2.587   6.587
 4046SOL     OW13033   2.201   2.371   6.592
 4046SOL    HW113034   2.149   2.288   6.575
 4046SOL    HW213035   2.278   2.376   6.528
 4047SOL     OW13036   3.000   2.242   7.264
 4047SOL    HW113037   2.955   2.305   7.328
 4047SOL    HW213038   3.093   2.273   7.247
 4048SOL     OW13039   3.022   2.069   7.063
 4048SOL    HW113040   3.022   2.133   7.140
 4048SOL    HW213041   3.050   2.117   6.980
 4049SOL     OW13042   1.870   3.188   5.786
 4049SOL    HW113043   1.777   3.209   5.755
 4049SOL    HW213044   1.880   3.089   5.799
 4050SOL     OW13045   1.950   3.663   6.513
 4050SOL    HW113046   1.908   3.577   6.486
 4050SOL    HW213047   2.044   3.666   6.479
 4051SOL     OW13048   2.366   3.430   6.496
 4051SOL    HW113049   2.432   3.504   6.505
 4051SOL    HW213050   2.410   3.351   6.454
 4052SOL     OW13051   1.902   2.406   6.700
 4052SOL    HW113052   1.987   2.373   6.659
 4052SOL    HW213053   1.915   2.421   6.798
 4053SOL     OW13054   2.051   2.382   7.308
 4053SOL    HW113055   2.110   2.342   7.238
 4053SOL    HW213056   1.993   2.453   7.267
 4054SOL     OW13057   3.231   2.812   7.246
 4054SOL    HW113058   3.270   2.901   7.266
 4054SOL    HW213059   3.241   2.792   7.149
 4055SOL     OW13060   3.519   2.466   6.792
 4055SOL    HW113061   3.481   2.397   6.854
 4055SOL    HW213062   3.601   2.430   6.748
 4056SOL     OW13063   2.114   3.426   7.330
 4056SOL    HW113064   2.084   3.483   7.406
 4056SOL    HW213065   2.107   3.329   7.356
 4057SOL     OW13066   2.792   3.540   7.051
 4057SOL    HW113067   2.768   3.522   6.956
 4057SOL    HW213068   2.822   3.634   7.061
 4058SOL     OW13069   2.021   2.999   7.052
 4058SOL    HW113070   2.043   2.938   7.128
 4058SOL    HW213071   2.031   2.950   6.966
 4059SOL     OW13072   3.209   2.921   6.820
 4059SOL    HW113073   3.233   2.858   6.746
 4059SOL    HW213074   3.119   2.961   6.802
 4060SOL     OW13075   3.164   2.717   5.895
 4060SOL    HW113076   3.078   2.686   5.937
 4060SOL    HW213077   3.160   2.703   5.796
 4061SOL     OW13078   3.621   3.609   6.740
 4061SOL    HW113079   3.682   3.639   6.667
 4061SOL    HW213080   3.583   3.520   6.718
 4062SOL     OW13081   3.114   3.593   6.714
 4062SOL    HW113082   3.198   3.598   6.660
 4062SOL    HW213083   3.091   3.497   6.732
 4063SOL     OW13084   1.945   3.120   6.608
 4063SOL    HW113085   1.940   3.119   6.708
 4063SOL    HW213086   1.862   3.079   6.570
 4064SOL     OW13087   2.550   3.524   7.302
 4064SOL    HW113088   2.494   3.605   7.311
 4064SOL    HW213089   2.602   3.528   7.216
 4065SOL     OW13090   3.588   1.997   6.109
 4065SOL    HW113091   3.661   1.980   6.042
 4065SOL    HW213092   3.557   1.910   6.147
 4066SOL     OW13093   3.250   3.435   6.063
 4066SOL    HW113094   3.317   3.447   5.989
 4066SOL    HW213095   3.210   3.524   6.086
 4067SOL     OW13096   1.992   3.656   7.437
 4067SOL    HW113097   1.951   3.582   7.490
 4067SOL    HW213098   2.056   3.707   7.495
 4068SOL     OW13099   3.142   2.789   6.258
 4068SOL    HW113100   3.202   2.708   6.260
 4068SOL    HW213101   3.182   2.858   6.198
 4069SOL     OW13102   2.692   3.135   7.008
 4069SOL    HW113103   2.687   3.168   7.103
 4069SOL    HW213104   2.606   3.154   6.962
 4070SOL     OW13105   2.534   3.478   5.740
 4070SOL    HW113106   2.543   3.488   5.641
 4070SOL    HW213107   2.494   3.389   5.761
 4071SOL     OW13108   3.512   3.582   6.980
 4071SOL    HW113109   3.565   3.592   6.896
 4071SOL    HW213110   3.485   3.672   7.014
 4072SOL     OW13111   3.703   2.037   6.549
 4072SOL    HW113112   3.742   1.952   6.513
 4072SOL    HW213113   3.605   2.039   6.530
 4073SOL     OW13114   2.125   2.188   6.306
 4073SOL    HW113115   2.046   2.239   6.272
 4073SOL    HW213116   2.116   2.173   6.404
 4074SOL     OW13117   3.056   3.474   5.617
 4074SOL    HW113118   3.062   3.381   5.654
 4074SOL    HW213119   2.997   3.474   5.537
 4075SOL     OW13120   3.366   3.469   5.630
 4075SOL    HW113121   3.274   3.506   5.637
 4075SOL    HW213122   3.404   3.489   5.540
 4076SOL     OW13123   2.234   3.150   7.076
 4076SOL    HW113124   2.221   3.243   7.042
 4076SOL    HW213125   2.150   3.098   7.063
 4077SOL     OW13126   3.476   3.154   6.875
 4077SOL    HW113127   3.536   3.157   6.955
 4077SOL    HW213128   3.401   3.218   6.888
 4078SOL     OW13129   2.876   2.098   6.557
 4078SOL    HW113130   2.868   2.062   6.464
 4078SOL    HW213131   2.874   2.022   6.622
 4079SOL     OW13132   2.452   3.349   6.077
 4079SOL    HW113133   2.494   3.291   6.007
 4079SOL    HW213134   2.408   3.428   6.033
 4080SOL     OW13135   3.571   2.247   6.967
 4080SOL    HW113136   3.644   2.316   6.971
 4080SOL    HW213137   3.599   2.172   6.908
 4081SOL     OW13138   2.117   3.210   5.876
 4081SOL    HW113139   2.021   3.211   5.849
 4081SOL    HW213140   2.129   3.263   5.960
 4082SOL     OW13141   1.967   2.875   7.312
 4082SOL    HW113142   1.890   2.842   7.366
 4082SOL    HW213143   2.052   2.845   7.354
 4083SOL     OW13144   2.534   2.065   7.075
 4083SOL    HW113145   2.624   2.049   7.035
 4083SOL    HW213146   2.542   2.070   7.174
 4084SOL     OW13147   1.937   2.207   5.619
 4084SOL    HW113148   1.845   2.179   5.590
 4084SOL    HW213149   1.968   2.284   5.563
 4085SOL     OW13150   3.302   2.718   6.984
 4085SOL    HW113151   3.245   2.770   6.921
 4085SOL    HW213152   3.398   2.730   6.960
 4086SOL     OW13153   1.934   2.028   5.904
 4086SOL    HW113154   1.917   2.111   5.850
 4086SOL    HW213155   2.024   1.991   5.882
 4087SOL     OW13156   3.045   3.197   5.705
 4087SOL    HW113157   2.946   3.186   5.707
 4087SOL    HW213158   3.079   3.212   5.798
 4088SOL     OW13159   3.355   3.629   6.545
 4088SOL    HW113160   3.388   3.693   6.476
 4088SOL    HW213161   3.421   3.623   6.620
 4089SOL     OW13162   3.312   3.082   7.219
 4089SOL    HW113163   3.303   3.072   7.318
 4089SOL    HW213164   3.408   3.075   7.193
 4090SOL     OW13165   2.252   3.603   7.146
 4090SOL    HW113166   2.161   3.644   7.144
 4090SOL    HW213167   2.245   3.509   7.178
 4091SOL     OW13168   3.536   2.745   6.840
 4091SOL    HW113169   3.509   2.656   6.803
 4091SOL    HW213170   3.537   2.813   6.767
 4092SOL     OW13171   3.087   2.187   6.035
 4092SOL    HW113172   3.152   2.113   6.024
 4092SOL    HW213173   3.107   2.237   6.119
 4093SOL     OW13174   3.639   2.204   7.228
 4093SOL    HW113175   3.622   2.235   7.134
 4093SOL    HW213176   3.555   2.167   7.266
 4094SOL     OW13177   3.592   2.796   7.103
 4094SOL    HW113178   3.630   2.887   7.118
 4094SOL    HW213179   3.584   2.779   7.004
 4095SOL     OW13180   2.721   3.236   5.602
 4095SOL    HW113181   2.675   3.251   5.690
 4095SOL    HW213182   2.765   3.321   5.572
 4096SOL     OW13183   2.523   3.652   6.539
 4096SOL    HW113184   2.477   3.740   6.526
 4096SOL    HW213185   2.622   3.664   6.532
 4097SOL     OW13186   3.723   3.431   6.437
 4097SOL    HW113187   3.652   3.419   6.367
 4097SOL    HW213188   3.724   3.352   6.497
 4098SOL     OW13189   2.083   3.176   7.430
 4098SOL    HW113190   2.018   3.103   7.409
 4098SOL    HW213191   2.087   3.190   7.528
 4099SOL     OW13192   1.941   3.102   6.239
 4099SOL    HW113193   1.940   3.055   6.327
 4099SOL    HW213194   2.023   3.074   6.188
 4100SOL     OW13195   2.534   3.253   7.210
 4100SOL    HW113196   2.456   3.203   7.248
 4100SOL    HW213197   2.531   3.348   7.241
 4101SOL     OW13198   3.686   2.054   6.813
 4101SOL    HW113199   3.682   1.964   6.857
 4101SOL    HW213200   3.689   2.043   6.714
 4102SOL     OW13201   2.290   2.286   6.106
 4102SOL    HW113202   2.320   2.214   6.044
 4102SOL    HW213203   2.251   2.246   6.189
 4103SOL     OW13204   3.567   3.349   6.690
 4103SOL    HW113205   3.474   3.324   6.663
 4103SOL    HW213206   3.593   3.299   6.772
 4104SOL     OW13207   2.179   2.409   6.866
 4104SOL    HW113208   2.217   2.350   6.938
 4104SOL    HW213209   2.219   2.383   6.778
 4105SOL     OW13210   2.674   3.448   6.273
 4105SOL    HW113211   2.706   3.458   6.179
 4105SOL    HW213212   2.595   3.386   6.275
 4106SOL     OW13213   3.286   2.076   6.698
 4106SOL    HW113214   3.338   2.011   6.753
 4106SOL    HW213215   3.237   2.139   6.759
 4107SOL     OW13216   2.863   1.896   6.740
 4107SOL    HW113217   2.800   1.824   6.709
 4107SOL    HW213218   2.956   1.860   6.740
 4108SOL     OW13219   2.632   3.192   5.887
 4108SOL    HW113220   2.586   3.105   5.904
 4108SOL    HW213221   2.723   3.189   5.928
 4109SOL     OW13222   2.480   3.429   6.870
 4109SOL    HW113223   2.475   3.511   6.927
 4109SOL    HW213224   2.569   3.426   6.825
 4110SOL     OW13225   3.214   1.914   5.754
 4110SOL    HW113226   3.249   1.873   5.670
 4110SOL    HW213227   3.124   1.876   5.774
 4111SOL     OW13228   3.162   2.315   6.277
 4111SOL    HW113229   3.103   2.395   6.281
 4111SOL    HW213230   3.177   2.280   6.370
 4112SOL     OW13231   3.455   2.083   6.468
 4112SOL    HW113232   3.371   2.082   6.522
 4112SOL    HW213233   3.457   2.166   6.412
 4113SOL     OW13234   1.901   2.939   5.886
 4113SOL    HW113235   2.000   2.928   5.877
 4113SOL    HW213236   1.861   2.853   5.918
 4114SOL     OW13237   2.737   3.508   5.923
 4114SOL    HW113238   2.660   3.473   5.869
 4114SOL    HW213239   2.705   3.579   5.985
 4115SOL     OW13240   2.092   2.490   7.561
 4115SOL    HW113241   1.999   2.488   7.598
 4115SOL    HW213242   2.093   2.451   7.469
 4116SOL     OW13243   3.617   2.469   7.679
 4116SOL    HW113244   3.605   2.456   7.580
 4116SOL    HW213245   3.587   2.388   7.728
 4117SOL     OW13246   2.093   3.575   7.931
 4117SOL    HW113247   2.127   3.652   7.985
 4117SOL    HW213248   2.137   3.575   7.841
 4118SOL     OW13249   2.092   3.296   7.986
 4118SOL    HW113250   2.066   3.392   7.986
 4118SOL    HW213251   2.021   3.242   8.031
 4119SOL     OW13252   2.468   2.826   7.571
 4119SOL    HW113253   2.475   2.910   7.517
 4119SOL    HW213254   2.514   2.839   7.659
 4120SOL     OW13255   3.704   3.629   7.807
 4120SOL    HW113256   3.758   3.600   7.887
 4120SOL    HW213257   3.734   3.719   7.778
 4121SOL     OW13258   1.889   3.458   7.565
 4121SOL    HW113259   1.870   3.362   7.586
 4121SOL    HW213260   1.856   3.516   7.640
 4122SOL     OW13261   3.551   2.784   8.060
 4122SOL    HW113262   3.646   2.755   8.068
 4122SOL    HW213263   3.543   2.849   7.985
 4123SOL     OW13264   3.503   2.970   7.880
 4123SOL    HW113265   3.589   2.972   7.828
 4123SOL    HW213266   3.517   3.017   7.968
 4124SOL     OW13267   2.671   1.866   7.950
 4124SOL    HW113268   2.711   1.957   7.941
 4124SOL    HW213269   2.571   1.874   7.956
 4125SOL     OW13270   3.387   2.861   7.638
 4125SOL    HW113271   3.324   2.785   7.651
 4125SOL    HW213272   3.435   2.879   7.724
 4126SOL     OW13273   3.438   3.524   7.755
 4126SOL    HW113274   3.527   3.570   7.758
 4126SOL    HW213275   3.417   3.500   7.660
 4127SOL     OW13276   1.938   2.673   8.237
 4127SOL    HW113277   2.037   2.661   8.246
 4127SOL    HW213278   1.914   2.768   8.258
 4128SOL     OW13279   2.727   2.210   7.643
 4128SOL    HW113280   2.786   2.273   7.594
 4128SOL    HW213281   2.746   2.116   7.614
 4129SOL     OW13282   2.183   2.805   7.690
 4129SOL    HW113283   2.265   2.844   7.648
 4129SOL    HW213284   2.156   2.723   7.641
 4130SOL     OW13285   2.973   3.638   7.685
 4130SOL    HW113286   2.913   3.576   7.735
 4130SOL    HW213287   3.004   3.594   7.600
 4131SOL     OW13288   3.494   3.239   7.529
 4131SOL    HW113289   3.462   3.333   7.519
 4131SOL    HW213290   3.418   3.176   7.517
 4132SOL     OW13291   2.326   3.605   7.771
 4132SOL    HW113292   2.359   3.644   7.857
 4132SOL    HW213293   2.402   3.598   7.706
 4133SOL     OW13294   3.262   1.969   7.874
 4133SOL    HW113295   3.238   1.932   7.784
 4133SOL    HW213296   3.361   1.985   7.878
 4134SOL     OW13297   2.476   1.984   7.565
 4134SOL    HW113298   2.574   1.962   7.572
 4134SOL    HW213299   2.445   1.967   7.472
 4135SOL     OW13300   2.401   1.926   7.960
 4135SOL    HW113301   2.320   1.927   8.018
 4135SOL    HW213302   2.404   2.009   7.905
 4136SOL     OW13303   3.296   3.050   7.489
 4136SOL    HW113304   3.328   2.974   7.546
 4136SOL    HW213305   3.204   3.077   7.519
 4137SOL     OW13306   2.159   1.897   7.619
 4137SOL    HW113307   2.208   1.981   7.598
 4137SOL    HW213308   2.221   1.832   7.664
 4138SOL     OW13309   2.797   2.098   7.928
 4138SOL    HW113310   2.749   2.139   7.850
 4138SOL    HW213311   2.896   2.096   7.909
 4139SOL     OW13312   2.321   3.014   8.189
 4139SOL    HW113313   2.250   2.987   8.254
 4139SOL    HW213314   2.295   2.986   8.096
 4140SOL     OW13315   3.133   3.659   8.039
 4140SOL    HW113316   3.177   3.723   7.975
 4140SOL    HW213317   3.083   3.711   8.109
 4141SOL     OW13318   2.894   2.411   7.464
 4141SOL    HW113319   2.853   2.493   7.425
 4141SOL    HW213320   2.958   2.437   7.537
 4142SOL     OW13321   3.719   2.695   7.825
 4142SOL    HW113322   3.761   2.631   7.889
 4142SOL    HW213323   3.681   2.644   7.747
 4143SOL     OW13324   2.350   3.247   7.622
 4143SOL    HW113325   2.263   3.232   7.669
 4143SOL    HW213326   2.333   3.273   7.527
 4144SOL     OW13327   3.252   2.437   7.526
 4144SOL    HW113328   3.198   2.416   7.607
 4144SOL    HW213329   3.343   2.396   7.535
 4145SOL     OW13330   2.389   2.118   7.776
 4145SOL    HW113331   2.416   2.059   7.701
 4145SOL    HW213332   2.389   2.213   7.745
 4146SOL     OW13333   2.229   2.962   7.949
 4146SOL    HW113334   2.222   3.045   7.893
 4146SOL    HW213335   2.233   2.882   7.889
 4147SOL     OW13336   3.114   3.210   7.836
 4147SOL    HW113337   3.164   3.287   7.876
 4147SOL    HW213338   3.019   3.212   7.868
 4148SOL     OW13339   3.444   2.501   7.920
 4148SOL    HW113340   3.413   2.562   7.993
 4148SOL    HW213341   3.494   2.553   7.851
 4149SOL     OW13342   3.071   2.387   7.723
 4149SOL    HW113343   3.084   2.303   7.777
 4149SOL    HW213344   3.042   2.461   7.783
 4150SOL     OW13345   3.484   2.229   7.822
 4150SOL    HW113346   3.486   2.153   7.886
 4150SOL    HW213347   3.436   2.306   7.862
 4151SOL     OW13348   3.402   2.136   7.573
 4151SOL    HW113349   3.341   2.061   7.596
 4151SOL    HW213350   3.424   2.188   7.656
 4152SOL     OW13351   3.165   2.700   7.490
 4152SOL    HW113352   3.199   2.607   7.505
 4152SOL    HW213353   3.183   2.727   7.395
 4153SOL     OW13354   1.870   3.188   7.648
 4153SOL    HW113355   1.777   3.209   7.617
 4153SOL    HW213356   1.880   3.089   7.661
 4154SOL     OW13357   3.164   2.717   7.757
 4154SOL    HW113358   3.078   2.686   7.799
 4154SOL    HW213359   3.160   2.703   7.658
 4155SOL     OW13360   3.588   1.997   7.971
 4155SOL    HW113361   3.661   1.980   7.904
 4155SOL    HW213362   3.557   1.910   8.009
 4156SOL     OW13363   3.250   3.435   7.925
 4156SOL    HW113364   3.317   3.447   7.851
 4156SOL    HW213365   3.210   3.524   7.948
 4157SOL     OW13366   2.534   3.478   7.602
 4157SOL    HW113367   2.543   3.488   7.503
 4157SOL    HW213368   2.494   3.389   7.623
 4158SOL     OW13369   3.056   3.474   7.479
 4158SOL    HW113370   3.062   3.381   7.516
 4158SOL    HW213371   2.997   3.474   7.399
 4159SOL     OW13372   3.366   3.469   7.492
 4159SOL    HW113373   3.274   3.506   7.499
 4159SOL    HW213374   3.404   3.489   7.402
 4160SOL     OW13375   2.452   3.349   7.939
 4160SOL    HW113376   2.494   3.291   7.869
 4160SOL    HW213377   2.408   3.428   7.895
 4161SOL     OW13378   2.117   3.210   7.738
 4161SOL    HW113379   2.021   3.211   7.711
 4161SOL    HW213380   2.129   3.263   7.822
 4162SOL     OW13381   1.937   2.207   7.481
 4162SOL    HW113382   1.845   2.179   7.452
 4162SOL    HW213383   1.968   2.284   7.425
 4163SOL     OW13384   1.934   2.028   7.766
 4163SOL    HW113385   1.917   2.111   7.712
 4163SOL    HW213386   2.024   1.991   7.744
 4164SOL     OW13387   3.045   3.197   7.567
 4164SOL    HW113388   2.946   3.186   7.569
 4164SOL    HW213389   3.079   3.212   7.660
 4165SOL     OW13390   3.087   2.187   7.897
 4165SOL    HW113391   3.152   2.113   7.886
 4165SOL    HW213392   3.107   2.237   7.981
 4166SOL     OW13393   2.721   3.236   7.464
 4166SOL    HW113394   2.675   3.251   7.552
 4166SOL    HW213395   2.765   3.321   7.434
 4167SOL     OW13396   2.945   2.846   7.535
 4167SOL    HW113397   2.922   2.899   7.453
 4167SOL    HW213398   3.026   2.790   7.516
 4168SOL     OW13399   2.290   2.286   7.968
 4168SOL    HW113400   2.320   2.214   7.906
 4168SOL    HW213401   2.251   2.246   8.051
 4169SOL     OW13402   2.632   3.192   7.749
 4169SOL    HW113403   2.586   3.105   7.766
 4169SOL    HW213404   2.723   3.189   7.790
 4170SOL     OW13405   3.214   1.914   7.616
 4170SOL    HW113406   3.249   1.873   7.532
 4170SOL    HW213407   3.124   1.876   7.636
 4171SOL     OW13408   1.901   2.939   7.748
 4171SOL    HW113409   2.000   2.928   7.739
 4171SOL    HW213410   1.861   2.853   7.780
 4172SOL     OW13411   2.737   3.508   7.785
 4172SOL    HW113412   2.660   3.473   7.731
 4172SOL    HW213413   2.705   3.579   7.847
 4173SOL     OW13414   2.092   4.352   0.113
 4173SOL    HW113415   1.999   4.350   0.150
 4173SOL    HW213416   2.093   4.313   0.021
 4174SOL     OW13417   2.087   3.999   0.996
 4174SOL    HW113418   2.122   3.982   1.088
 4174SOL    HW213419   1.999   3.954   0.984
 4175SOL     OW13420   1.881   4.092   0.647
 4175SOL    HW113421   1.799   4.135   0.686
 4175SOL    HW213422   1.853   4.019   0.584
 4176SOL     OW13423   2.431   4.999   1.165
 4176SOL    HW113424   2.338   4.992   1.128
 4176SOL    HW213425   2.442   5.088   1.209
 4177SOL     OW13426   3.417   5.235   0.703
 4177SOL    HW113427   3.360   5.219   0.784
 4177SOL    HW213428   3.358   5.245   0.623
 4178SOL     OW13429   2.997   4.427   0.717
 4178SOL    HW113430   3.054   4.505   0.692
 4178SOL    HW213431   2.937   4.453   0.793
 4179SOL     OW13432   3.617   4.331   0.231
 4179SOL    HW113433   3.605   4.318   0.132
 4179SOL    HW213434   3.587   4.250   0.280
 4180SOL     OW13435   2.630   4.868   1.023
 4180SOL    HW113436   2.552   4.885   1.083
 4180SOL    HW213437   2.664   4.955   0.987
 4181SOL     OW13438   2.712   4.522   1.823
 4181SOL    HW113439   2.708   4.598   1.888
 4181SOL    HW213440   2.734   4.558   1.732
 4182SOL     OW13441   2.547   4.736   0.665
 4182SOL    HW113442   2.616   4.720   0.735
 4182SOL    HW213443   2.474   4.793   0.703
 4183SOL     OW13444   2.548   4.885   1.803
 4183SOL    HW113445   2.608   4.964   1.817
 4183SOL    HW213446   2.462   4.916   1.762
 4184SOL     OW13447   2.197   5.159   1.061
 4184SOL    HW113448   2.119   5.128   1.008
 4184SOL    HW213449   2.255   5.217   1.004
 4185SOL     OW13450   3.322   5.229   1.339
 4185SOL    HW113451   3.346   5.323   1.365
 4185SOL    HW213452   3.306   5.175   1.421
 4186SOL     OW13453   2.300   4.116   1.499
 4186SOL    HW113454   2.382   4.060   1.508
 4186SOL    HW213455   2.219   4.058   1.503
 4187SOL     OW13456   3.465   4.171   0.737
 4187SOL    HW113457   3.391   4.217   0.687
 4187SOL    HW213458   3.516   4.239   0.790
 4188SOL     OW13459   2.989   5.065   1.690
 4188SOL    HW113460   3.036   5.065   1.778
 4188SOL    HW213461   2.941   4.978   1.679
 4189SOL     OW13462   2.092   5.158   0.538
 4189SOL    HW113463   2.066   5.254   0.538
 4189SOL    HW213464   2.021   5.104   0.583
 4190SOL     OW13465   2.102   4.815   0.886
 4190SOL    HW113466   2.116   4.731   0.938
 4190SOL    HW213467   2.047   4.879   0.941
 4191SOL     OW13468   2.468   4.688   0.123
 4191SOL    HW113469   2.475   4.772   0.069
 4191SOL    HW213470   2.514   4.701   0.211
 4192SOL     OW13471   3.456   3.838   1.480
 4192SOL    HW113472   3.438   3.905   1.408
 4192SOL    HW213473   3.453   3.884   1.569
 4193SOL     OW13474   1.984   4.367   0.563
 4193SOL    HW113475   1.939   4.279   0.580
 4193SOL    HW213476   1.983   4.421   0.647
 4194SOL     OW13477   1.889   5.320   0.117
 4194SOL    HW113478   1.870   5.224   0.138
 4194SOL    HW213479   1.856   5.378   0.192
 4195SOL     OW13480   3.551   4.646   0.612
 4195SOL    HW113481   3.646   4.617   0.620
 4195SOL    HW213482   3.543   4.711   0.537
 4196SOL     OW13483   3.503   4.832   0.432
 4196SOL    HW113484   3.589   4.834   0.380
 4196SOL    HW213485   3.517   4.879   0.520
 4197SOL     OW13486   1.975   4.461   1.597
 4197SOL    HW113487   2.063   4.448   1.642
 4197SOL    HW213488   1.962   4.558   1.575
 4198SOL     OW13489   2.475   5.089   0.726
 4198SOL    HW113490   2.426   5.002   0.735
 4198SOL    HW213491   2.452   5.132   0.639
 4199SOL     OW13492   3.155   4.952   1.423
 4199SOL    HW113493   3.192   4.879   1.365
 4199SOL    HW213494   3.207   4.957   1.508
 4200SOL     OW13495   2.671   3.728   0.502
 4200SOL    HW113496   2.711   3.819   0.493
 4200SOL    HW213497   2.571   3.736   0.508
 4201SOL     OW13498   2.059   4.700   1.264
 4201SOL    HW113499   2.148   4.655   1.250
 4201SOL    HW213500   1.986   4.635   1.245
 4202SOL     OW13501   3.387   4.723   0.190
 4202SOL    HW113502   3.324   4.647   0.203
 4202SOL    HW213503   3.435   4.741   0.276
 4203SOL     OW13504   2.179   3.975   1.801
 4203SOL    HW113505   2.250   4.046   1.807
 4203SOL    HW213506   2.091   4.014   1.829
 4204SOL     OW13507   3.328   5.141   0.953
 4204SOL    HW113508   3.269   5.147   1.033
 4204SOL    HW213509   3.313   5.053   0.907
 4205SOL     OW13510   2.460   4.453   0.270
 4205SOL    HW113511   2.484   4.522   0.202
 4205SOL    HW213512   2.382   4.486   0.324
 4206SOL     OW13513   3.143   4.069   0.944
 4206SOL    HW113514   3.057   4.019   0.931
 4206SOL    HW213515   3.205   4.015   1.000
 4207SOL     OW13516   2.669   4.329   1.465
 4207SOL    HW113517   2.622   4.326   1.554
 4207SOL    HW213518   2.618   4.274   1.399
 4208SOL     OW13519   3.256   4.193   1.674
 4208SOL    HW113520   3.236   4.236   1.762
 4208SOL    HW213521   3.334   4.131   1.683
 4209SOL     OW13522   2.835   4.614   1.572
 4209SOL    HW113523   2.881   4.530   1.543
 4209SOL    HW213524   2.779   4.648   1.497
 4210SOL     OW13525   2.853   4.134   1.242
 4210SOL    HW113526   2.776   4.168   1.296
 4210SOL    HW213527   2.819   4.083   1.163
 4211SOL     OW13528   2.903   4.425   0.429
 4211SOL    HW113529   2.929   4.421   0.525
 4211SOL    HW213530   2.818   4.374   0.415
 4212SOL     OW13531   1.938   4.535   0.789
 4212SOL    HW113532   2.037   4.523   0.798
 4212SOL    HW213533   1.914   4.630   0.810
 4213SOL     OW13534   2.727   4.072   0.195
 4213SOL    HW113535   2.786   4.135   0.146
 4213SOL    HW213536   2.746   3.978   0.166
 4214SOL     OW13537   3.581   4.309   1.831
 4214SOL    HW113538   3.555   4.398   1.795
 4214SOL    HW213539   3.579   4.241   1.758
 4215SOL     OW13540   3.224   4.868   0.545
 4215SOL    HW113541   3.307   4.839   0.497
 4215SOL    HW213542   3.175   4.935   0.489
 4216SOL     OW13543   2.412   3.920   0.885
 4216SOL    HW113544   2.407   3.915   0.985
 4216SOL    HW213545   2.414   4.016   0.856
 4217SOL     OW13546   2.870   5.180   0.477
 4217SOL    HW113547   2.824   5.252   0.425
 4217SOL    HW213548   2.866   5.200   0.575
 4218SOL     OW13549   3.657   4.790   0.873
 4218SOL    HW113550   3.595   4.775   0.797
 4218SOL    HW213551   3.605   4.801   0.958
 4219SOL     OW13552   3.089   5.274   1.506
 4219SOL    HW113553   3.095   5.197   1.570
 4219SOL    HW213554   3.037   5.248   1.426
 4220SOL     OW13555   2.183   4.667   0.242
 4220SOL    HW113556   2.265   4.706   0.200
 4220SOL    HW213557   2.156   4.585   0.193
 4221SOL     OW13558   3.320   4.459   0.728
 4221SOL    HW113559   3.315   4.394   0.803
 4221SOL    HW213560   3.400   4.518   0.741
 4222SOL     OW13561   2.323   4.990   1.727
 4222SOL    HW113562   2.273   4.991   1.641
 4222SOL    HW213563   2.260   4.972   1.803
 4223SOL     OW13564   2.973   5.500   0.237
 4223SOL    HW113565   2.913   5.438   0.287
 4223SOL    HW213566   3.004   5.456   0.152
 4224SOL     OW13567   2.064   4.009   1.498
 4224SOL    HW113568   1.984   4.069   1.485
 4224SOL    HW213569   2.054   3.960   1.584
 4225SOL     OW13570   3.494   5.101   0.081
 4225SOL    HW113571   3.462   5.195   0.071
 4225SOL    HW213572   3.418   5.038   0.069
 4226SOL     OW13573   3.262   3.831   0.426
 4226SOL    HW113574   3.238   3.794   0.336
 4226SOL    HW213575   3.361   3.847   0.430
 4227SOL     OW13576   2.244   4.424   0.480
 4227SOL    HW113577   2.289   4.334   0.477
 4227SOL    HW213578   2.150   4.413   0.513
 4228SOL     OW13579   3.409   3.946   1.729
 4228SOL    HW113580   3.404   3.983   1.821
 4228SOL    HW213581   3.337   3.877   1.717
 4229SOL     OW13582   2.476   3.846   0.117
 4229SOL    HW113583   2.574   3.824   0.124
 4229SOL    HW213584   2.445   3.829   0.024
 4230SOL     OW13585   2.643   3.988   1.749
 4230SOL    HW113586   2.710   3.927   1.792
 4230SOL    HW213587   2.570   4.007   1.814
 4231SOL     OW13588   3.213   4.314   1.433
 4231SOL    HW113589   3.241   4.271   1.518
 4231SOL    HW213590   3.238   4.410   1.434
 4232SOL     OW13591   2.665   5.126   0.924
 4232SOL    HW113592   2.755   5.140   0.882
 4232SOL    HW213593   2.594   5.128   0.853
 4233SOL     OW13594   2.784   4.227   0.899
 4233SOL    HW113595   2.759   4.218   0.803
 4233SOL    HW213596   2.832   4.145   0.930
 4234SOL     OW13597   2.401   3.788   0.512
 4234SOL    HW113598   2.320   3.789   0.570
 4234SOL    HW213599   2.404   3.871   0.457
 4235SOL     OW13600   3.296   4.912   0.041
 4235SOL    HW113601   3.328   4.836   0.098
 4235SOL    HW213602   3.204   4.939   0.071
 4236SOL     OW13603   2.159   3.759   0.171
 4236SOL    HW113604   2.208   3.843   0.150
 4236SOL    HW213605   2.221   3.694   0.216
 4237SOL     OW13606   2.797   3.960   0.480
 4237SOL    HW113607   2.749   4.001   0.402
 4237SOL    HW213608   2.896   3.958   0.461
 4238SOL     OW13609   2.938   4.407   1.464
 4238SOL    HW113610   2.858   4.346   1.467
 4238SOL    HW213611   3.019   4.354   1.440
 4239SOL     OW13612   3.089   5.294   0.793
 4239SOL    HW113613   3.110   5.368   0.728
 4239SOL    HW213614   3.157   5.294   0.866
 4240SOL     OW13615   2.321   4.876   0.741
 4240SOL    HW113616   2.250   4.849   0.806
 4240SOL    HW213617   2.295   4.848   0.648
 4241SOL     OW13618   2.894   4.273   0.016
 4241SOL    HW113619   2.853   4.355  -0.023
 4241SOL    HW213620   2.958   4.299   0.089
 4242SOL     OW13621   1.940   4.280   1.386
 4242SOL    HW113622   2.032   4.279   1.345
 4242SOL    HW213623   1.934   4.354   1.453
 4243SOL     OW13624   2.423   3.946   1.147
 4243SOL    HW113625   2.461   3.862   1.184
 4243SOL    HW213626   2.335   3.965   1.191
 4244SOL     OW13627   2.728   4.178   0.642
 4244SOL    HW113628   2.696   4.250   0.580
 4244SOL    HW213629   2.752   4.097   0.589
 4245SOL     OW13630   2.879   3.763   0.753
 4245SOL    HW113631   2.807   3.768   0.684
 4245SOL    HW213632   2.855   3.694   0.822
 4246SOL     OW13633   3.291   4.897   0.867
 4246SOL    HW113634   3.236   4.813   0.860
 4246SOL    HW213635   3.317   4.926   0.775
 4247SOL     OW13636   3.328   4.314   0.992
 4247SOL    HW113637   3.298   4.219   0.999
 4247SOL    HW213638   3.401   4.330   1.058
 4248SOL     OW13639   3.719   4.557   0.377
 4248SOL    HW113640   3.761   4.493   0.441
 4248SOL    HW213641   3.681   4.506   0.299
 4249SOL     OW13642   2.350   5.109   0.174
 4249SOL    HW113643   2.263   5.094   0.221
 4249SOL    HW213644   2.333   5.135   0.079
 4250SOL     OW13645   3.526   5.004   0.657
 4250SOL    HW113646   3.625   5.012   0.671
 4250SOL    HW213647   3.481   5.088   0.688
 4251SOL     OW13648   3.252   4.299   0.078
 4251SOL    HW113649   3.198   4.278   0.159
 4251SOL    HW213650   3.343   4.258   0.087
 4252SOL     OW13651   2.389   3.980   0.328
 4252SOL    HW113652   2.416   3.921   0.253
 4252SOL    HW213653   2.389   4.075   0.297
 4253SOL     OW13654   3.616   4.947   1.588
 4253SOL    HW113655   3.707   4.908   1.575
 4253SOL    HW213656   3.624   5.043   1.612
 4254SOL     OW13657   2.926   5.071   1.340
 4254SOL    HW113658   2.846   5.048   1.395
 4254SOL    HW213659   3.009   5.045   1.389
 4255SOL     OW13660   2.973   4.919   1.100
 4255SOL    HW113661   2.933   4.963   1.181
 4255SOL    HW213662   2.932   4.956   1.017
 4256SOL     OW13663   3.500   4.823   1.079
 4256SOL    HW113664   3.505   4.904   1.138
 4256SOL    HW213665   3.414   4.825   1.028
 4257SOL     OW13666   2.777   3.813   1.402
 4257SOL    HW113667   2.802   3.793   1.307
 4257SOL    HW213668   2.849   3.869   1.444
 4258SOL     OW13669   2.842   4.840   1.719
 4258SOL    HW113670   2.743   4.846   1.729
 4258SOL    HW213671   2.865   4.760   1.663
 4259SOL     OW13672   2.567   4.774   0.368
 4259SOL    HW113673   2.553   4.781   0.467
 4259SOL    HW213674   2.651   4.723   0.350
 4260SOL     OW13675   2.272   4.537   1.251
 4260SOL    HW113676   2.358   4.549   1.301
 4260SOL    HW213677   2.230   4.450   1.278
 4261SOL     OW13678   3.136   4.110   1.262
 4261SOL    HW113679   3.157   4.184   1.326
 4261SOL    HW213680   3.047   4.127   1.219
 4262SOL     OW13681   2.229   4.824   0.501
 4262SOL    HW113682   2.222   4.907   0.445
 4262SOL    HW213683   2.233   4.744   0.441
 4263SOL     OW13684   2.428   4.261   0.865
 4263SOL    HW113685   2.440   4.327   0.791
 4263SOL    HW213686   2.474   4.295   0.948
 4264SOL     OW13687   3.114   5.072   0.388
 4264SOL    HW113688   3.164   5.149   0.428
 4264SOL    HW213689   3.019   5.074   0.420
 4265SOL     OW13690   3.134   5.169   1.142
 4265SOL    HW113691   3.181   5.182   1.229
 4265SOL    HW213692   3.068   5.095   1.151
 4266SOL     OW13693   3.444   4.363   0.472
 4266SOL    HW113694   3.413   4.424   0.545
 4266SOL    HW213695   3.494   4.415   0.403
 4267SOL     OW13696   2.216   5.234   1.329
 4267SOL    HW113697   2.195   5.190   1.242
 4267SOL    HW213698   2.313   5.260   1.332
 4268SOL     OW13699   2.264   4.475   1.598
 4268SOL    HW113700   2.332   4.530   1.551
 4268SOL    HW213701   2.304   4.387   1.625
 4269SOL     OW13702   3.449   4.503   1.670
 4269SOL    HW113703   3.357   4.541   1.665
 4269SOL    HW213704   3.509   4.550   1.605
 4270SOL     OW13705   2.875   3.829   1.770
 4270SOL    HW113706   2.881   3.914   1.718
 4270SOL    HW213707   2.907   3.753   1.713
 4271SOL     OW13708   2.366   3.774   1.740
 4271SOL    HW113709   2.324   3.717   1.670
 4271SOL    HW213710   2.300   3.843   1.772
 4272SOL     OW13711   2.435   4.594   1.029
 4272SOL    HW113712   2.479   4.683   1.020
 4272SOL    HW213713   2.372   4.594   1.106
 4273SOL     OW13714   3.222   4.586   1.045
 4273SOL    HW113715   3.147   4.586   0.979
 4273SOL    HW213716   3.259   4.494   1.054
 4274SOL     OW13717   3.071   4.249   0.275
 4274SOL    HW113718   3.084   4.165   0.329
 4274SOL    HW213719   3.042   4.323   0.335
 4275SOL     OW13720   2.169   3.937   1.231
 4275SOL    HW113721   2.146   3.974   1.321
 4275SOL    HW213722   2.139   3.842   1.225
 4276SOL     OW13723   1.899   5.034   1.282
 4276SOL    HW113724   1.952   4.985   1.350
 4276SOL    HW213725   1.921   5.132   1.287
 4277SOL     OW13726   2.594   4.358   1.064
 4277SOL    HW113727   2.653   4.332   0.988
 4277SOL    HW213728   2.566   4.454   1.053
 4278SOL     OW13729   3.590   4.659   1.854
 4278SOL    HW113730   3.544   4.652   1.765
 4278SOL    HW213731   3.528   4.703   1.920
 4279SOL     OW13732   2.169   3.787   0.618
 4279SOL    HW113733   2.158   3.881   0.651
 4279SOL    HW213734   2.164   3.724   0.695
 4280SOL     OW13735   3.484   4.091   0.374
 4280SOL    HW113736   3.486   4.015   0.438
 4280SOL    HW213737   3.436   4.168   0.414
 4281SOL     OW13738   2.885   4.490   0.966
 4281SOL    HW113739   2.900   4.511   1.062
 4281SOL    HW213740   2.855   4.395   0.957
 4282SOL     OW13741   3.721   5.242   1.605
 4282SOL    HW113742   3.735   5.269   1.510
 4282SOL    HW213743   3.804   5.264   1.658
 4283SOL     OW13744   2.212   4.622   1.804
 4283SOL    HW113745   2.288   4.666   1.852
 4283SOL    HW213746   2.247   4.575   1.722
 4284SOL     OW13747   3.402   3.998   0.125
 4284SOL    HW113748   3.341   3.923   0.148
 4284SOL    HW213749   3.424   4.050   0.208
 4285SOL     OW13750   3.165   4.562   0.042
 4285SOL    HW113751   3.199   4.469   0.057
 4285SOL    HW213752   3.183   4.589  -0.053
 4286SOL     OW13753   2.930   5.057   0.849
 4286SOL    HW113754   2.937   4.973   0.794
 4286SOL    HW213755   2.992   5.126   0.813
 4287SOL     OW13756   2.181   4.534   0.949
 4287SOL    HW113757   2.274   4.570   0.954
 4287SOL    HW213758   2.175   4.449   1.001
 4288SOL     OW13759   2.201   4.233   1.006
 4288SOL    HW113760   2.149   4.150   0.989
 4288SOL    HW213761   2.278   4.238   0.942
 4289SOL     OW13762   3.000   4.104   1.678
 4289SOL    HW113763   2.955   4.167   1.742
 4289SOL    HW213764   3.093   4.135   1.661
 4290SOL     OW13765   3.022   3.931   1.477
 4290SOL    HW113766   3.022   3.995   1.554
 4290SOL    HW213767   3.050   3.979   1.394
 4291SOL     OW13768   1.870   5.050   0.200
 4291SOL    HW113769   1.777   5.071   0.169
 4291SOL    HW213770   1.880   4.951   0.213
 4292SOL     OW13771   2.864   4.520   1.238
 4292SOL    HW113772   2.905   4.488   1.324
 4292SOL    HW213773   2.768   4.493   1.235
 4293SOL     OW13774   1.902   4.268   1.114
 4293SOL    HW113775   1.987   4.235   1.073
 4293SOL    HW213776   1.915   4.283   1.212
 4294SOL     OW13777   2.051   4.244   1.722
 4294SOL    HW113778   2.110   4.204   1.652
 4294SOL    HW213779   1.993   4.315   1.681
 4295SOL     OW13780   3.231   4.674   1.660
 4295SOL    HW113781   3.270   4.763   1.680
 4295SOL    HW213782   3.241   4.654   1.563
 4296SOL     OW13783   2.677   4.296   0.325
 4296SOL    HW113784   2.684   4.207   0.279
 4296SOL    HW213785   2.583   4.330   0.317
 4297SOL     OW13786   3.519   4.328   1.206
 4297SOL    HW113787   3.481   4.259   1.268
 4297SOL    HW213788   3.601   4.292   1.162
 4298SOL     OW13789   2.114   5.288   1.744
 4298SOL    HW113790   2.084   5.345   1.820
 4298SOL    HW213791   2.107   5.191   1.770
 4299SOL     OW13792   2.533   4.188   1.269
 4299SOL    HW113793   2.499   4.099   1.239
 4299SOL    HW213794   2.559   4.242   1.189
 4300SOL     OW13795   2.335   4.224   0.191
 4300SOL    HW113796   2.396   4.304   0.195
 4300SOL    HW213797   2.240   4.255   0.198
 4301SOL     OW13798   2.021   4.861   1.466
 4301SOL    HW113799   2.043   4.800   1.542
 4301SOL    HW213800   2.031   4.812   1.380
 4302SOL     OW13801   3.209   4.783   1.234
 4302SOL    HW113802   3.233   4.720   1.160
 4302SOL    HW213803   3.119   4.823   1.216
 4303SOL     OW13804   3.164   4.579   0.309
 4303SOL    HW113805   3.078   4.548   0.351
 4303SOL    HW213806   3.160   4.565   0.210
 4304SOL     OW13807   1.945   4.982   1.022
 4304SOL    HW113808   1.940   4.981   1.122
 4304SOL    HW213809   1.862   4.941   0.984
 4305SOL     OW13810   2.550   5.386   1.716
 4305SOL    HW113811   2.494   5.467   1.725
 4305SOL    HW213812   2.602   5.390   1.630
 4306SOL     OW13813   2.765   3.810   0.133
 4306SOL    HW113814   2.816   3.811   0.047
 4306SOL    HW213815   2.821   3.768   0.204
 4307SOL     OW13816   3.588   3.859   0.523
 4307SOL    HW113817   3.661   3.842   0.456
 4307SOL    HW213818   3.557   3.772   0.561
 4308SOL     OW13819   3.142   4.651   0.672
 4308SOL    HW113820   3.202   4.570   0.674
 4308SOL    HW213821   3.182   4.720   0.612
 4309SOL     OW13822   2.692   4.997   1.422
 4309SOL    HW113823   2.687   5.030   1.517
 4309SOL    HW213824   2.606   5.016   1.376
 4310SOL     OW13825   3.703   3.899   0.963
 4310SOL    HW113826   3.742   3.814   0.927
 4310SOL    HW213827   3.605   3.901   0.944
 4311SOL     OW13828   2.125   4.050   0.720
 4311SOL    HW113829   2.046   4.101   0.686
 4311SOL    HW213830   2.116   4.035   0.818
 4312SOL     OW13831   3.056   5.336   0.031
 4312SOL    HW113832   3.062   5.243   0.068
 4312SOL    HW213833   2.997   5.336  -0.049
 4313SOL     OW13834   2.684   4.726   1.372
 4313SOL    HW113835   2.724   4.725   1.280
 4313SOL    HW213836   2.694   4.818   1.412
 4314SOL     OW13837   2.778   4.634   0.291
 4314SOL    HW113838   2.841   4.672   0.223
 4314SOL    HW213839   2.818   4.551   0.330
 4315SOL     OW13840   2.234   5.012   1.490
 4315SOL    HW113841   2.221   5.105   1.456
 4315SOL    HW213842   2.150   4.960   1.477
 4316SOL     OW13843   3.476   5.016   1.289
 4316SOL    HW113844   3.536   5.019   1.369
 4316SOL    HW213845   3.401   5.080   1.302
 4317SOL     OW13846   2.901   4.822   0.696
 4317SOL    HW113847   2.831   4.775   0.750
 4317SOL    HW213848   2.960   4.754   0.653
 4318SOL     OW13849   2.876   3.960   0.971
 4318SOL    HW113850   2.868   3.924   0.878
 4318SOL    HW213851   2.874   3.884   1.036
 4319SOL     OW13852   3.571   4.109   1.381
 4319SOL    HW113853   3.644   4.178   1.385
 4319SOL    HW213854   3.599   4.034   1.322
 4320SOL     OW13855   2.117   5.072   0.290
 4320SOL    HW113856   2.021   5.073   0.263
 4320SOL    HW213857   2.129   5.125   0.374
 4321SOL     OW13858   1.967   4.737   1.726
 4321SOL    HW113859   1.890   4.704   1.780
 4321SOL    HW213860   2.052   4.707   1.768
 4322SOL     OW13861   2.534   3.927   1.489
 4322SOL    HW113862   2.624   3.911   1.449
 4322SOL    HW213863   2.542   3.932   1.588
 4323SOL     OW13864   1.937   4.069   0.033
 4323SOL    HW113865   1.845   4.041   0.004
 4323SOL    HW213866   1.968   4.146  -0.023
 4324SOL     OW13867   3.302   4.580   1.398
 4324SOL    HW113868   3.245   4.632   1.335
 4324SOL    HW213869   3.398   4.592   1.374
 4325SOL     OW13870   1.934   3.890   0.318
 4325SOL    HW113871   1.917   3.973   0.264
 4325SOL    HW213872   2.024   3.853   0.296
 4326SOL     OW13873   3.045   5.059   0.119
 4326SOL    HW113874   2.946   5.048   0.121
 4326SOL    HW213875   3.079   5.074   0.212
 4327SOL     OW13876   2.475   4.566   1.431
 4327SOL    HW113877   2.531   4.647   1.414
 4327SOL    HW213878   2.534   4.486   1.434
 4328SOL     OW13879   2.578   4.289   1.708
 4328SOL    HW113880   2.597   4.354   1.782
 4328SOL    HW213881   2.638   4.209   1.717
 4329SOL     OW13882   3.312   4.944   1.633
 4329SOL    HW113883   3.303   4.934   1.732
 4329SOL    HW213884   3.408   4.937   1.607
 4330SOL     OW13885   3.536   4.607   1.254
 4330SOL    HW113886   3.509   4.518   1.217
 4330SOL    HW213887   3.537   4.675   1.181
 4331SOL     OW13888   3.087   4.049   0.449
 4331SOL    HW113889   3.152   3.975   0.438
 4331SOL    HW213890   3.107   4.099   0.533
 4332SOL     OW13891   2.456   4.469   0.652
 4332SOL    HW113892   2.506   4.554   0.633
 4332SOL    HW213893   2.368   4.471   0.604
 4333SOL     OW13894   3.639   4.066   1.642
 4333SOL    HW113895   3.622   4.097   1.548
 4333SOL    HW213896   3.555   4.029   1.680
 4334SOL     OW13897   3.592   4.658   1.517
 4334SOL    HW113898   3.630   4.749   1.532
 4334SOL    HW213899   3.584   4.641   1.418
 4335SOL     OW13900   2.721   5.098   0.016
 4335SOL    HW113901   2.675   5.113   0.104
 4335SOL    HW213902   2.765   5.183  -0.014
 4336SOL     OW13903   2.721   4.680   0.861
 4336SOL    HW113904   2.775   4.611   0.909
 4336SOL    HW213905   2.689   4.749   0.927
 4337SOL     OW13906   2.945   4.708   0.087
 4337SOL    HW113907   2.922   4.761   0.005
 4337SOL    HW213908   3.026   4.652   0.068
 4338SOL     OW13909   2.083   5.038   1.844
 4338SOL    HW113910   2.018   4.965   1.823
 4338SOL    HW213911   2.087   5.052   1.942
 4339SOL     OW13912   1.941   4.964   0.653
 4339SOL    HW113913   1.940   4.917   0.741
 4339SOL    HW213914   2.023   4.936   0.602
 4340SOL     OW13915   2.534   5.115   1.624
 4340SOL    HW113916   2.456   5.065   1.662
 4340SOL    HW213917   2.531   5.210   1.655
 4341SOL     OW13918   3.686   3.916   1.227
 4341SOL    HW113919   3.682   3.826   1.271
 4341SOL    HW213920   3.689   3.905   1.128
 4342SOL     OW13921   2.290   4.148   0.520
 4342SOL    HW113922   2.320   4.076   0.458
 4342SOL    HW213923   2.251   4.108   0.603
 4343SOL     OW13924   3.567   5.211   1.104
 4343SOL    HW113925   3.474   5.186   1.077
 4343SOL    HW213926   3.593   5.161   1.186
 4344SOL     OW13927   2.179   4.271   1.280
 4344SOL    HW113928   2.217   4.212   1.352
 4344SOL    HW213929   2.219   4.245   1.192
 4345SOL     OW13930   3.286   3.938   1.112
 4345SOL    HW113931   3.338   3.873   1.167
 4345SOL    HW213932   3.237   4.001   1.173
 4346SOL     OW13933   2.863   3.758   1.154
 4346SOL    HW113934   2.800   3.686   1.123
 4346SOL    HW213935   2.956   3.722   1.154
 4347SOL     OW13936   2.632   5.054   0.301
 4347SOL    HW113937   2.586   4.967   0.318
 4347SOL    HW213938   2.723   5.051   0.342
 4348SOL     OW13939   2.480   5.291   1.284
 4348SOL    HW113940   2.475   5.373   1.341
 4348SOL    HW213941   2.569   5.288   1.239
 4349SOL     OW13942   3.214   3.776   0.168
 4349SOL    HW113943   3.249   3.735   0.084
 4349SOL    HW213944   3.124   3.738   0.188
 4350SOL     OW13945   3.162   4.177   0.691
 4350SOL    HW113946   3.103   4.257   0.695
 4350SOL    HW213947   3.177   4.142   0.784
 4351SOL     OW13948   3.455   3.945   0.882
 4351SOL    HW113949   3.371   3.944   0.936
 4351SOL    HW213950   3.457   4.028   0.826
 4352SOL     OW13951   1.901   4.801   0.300
 4352SOL    HW113952   2.000   4.790   0.291
 4352SOL    HW213953   1.861   4.715   0.332
 4353SOL     OW13954   2.092   4.352   1.975
 4353SOL    HW113955   1.999   4.350   2.012
 4353SOL    HW213956   2.093   4.313   1.883
 4354SOL     OW13957   2.087   3.999   2.858
 4354SOL    HW113958   2.122   3.982   2.950
 4354SOL    HW213959   1.999   3.954   2.846
 4355SOL     OW13960   1.881   4.092   2.509
 4355SOL    HW113961   1.799   4.135   2.548
 4355SOL    HW213962   1.853   4.019   2.446
 4356SOL     OW13963   2.431   4.999   3.027
 4356SOL    HW113964   2.338   4.992   2.990
 4356SOL    HW213965   2.442   5.088   3.071
 4357SOL     OW13966   3.417   5.235   2.565
 4357SOL    HW113967   3.360   5.219   2.646
 4357SOL    HW213968   3.358   5.245   2.485
 4358SOL     OW13969   2.997   4.427   2.579
 4358SOL    HW113970   3.054   4.505   2.554
 4358SOL    HW213971   2.937   4.453   2.655
 4359SOL     OW13972   3.617   4.331   2.093
 4359SOL    HW113973   3.605   4.318   1.994
 4359SOL    HW213974   3.587   4.250   2.142
 4360SOL     OW13975   2.630   4.868   2.885
 4360SOL    HW113976   2.552   4.885   2.945
 4360SOL    HW213977   2.664   4.955   2.849
 4361SOL     OW13978   2.712   4.522   3.685
 4361SOL    HW113979   2.708   4.598   3.750
 4361SOL    HW213980   2.734   4.558   3.594
 4362SOL     OW13981   2.547   4.736   2.527
 4362SOL    HW113982   2.616   4.720   2.597
 4362SOL    HW213983   2.474   4.793   2.565
 4363SOL     OW13984   2.548   4.885   3.665
 4363SOL    HW113985   2.608   4.964   3.679
 4363SOL    HW213986   2.462   4.916   3.624
 4364SOL     OW13987   2.197   5.159   2.923
 4364SOL    HW113988   2.119   5.128   2.870
 4364SOL    HW213989   2.255   5.217   2.866
 4365SOL     OW13990   3.322   5.229   3.201
 4365SOL    HW113991   3.346   5.323   3.227
 4365SOL    HW213992   3.306   5.175   3.283
 4366SOL     OW13993   2.300   4.116   3.361
 4366SOL    HW113994   2.382   4.060   3.370
 4366SOL    HW213995   2.219   4.058   3.365
 4367SOL     OW13996   3.465   4.171   2.599
 4367SOL    HW113997   3.391   4.217   2.549
 4367SOL    HW213998   3.516   4.239   2.652
 4368SOL     OW13999   2.989   5.065   3.552
 4368SOL    HW114000   3.036   5.065   3.640
 4368SOL    HW214001   2.941   4.978   3.541
 4369SOL     OW14002   2.092   5.158   2.400
 4369SOL    HW114003   2.066   5.254   2.400
 4369SOL    HW214004   2.021   5.104   2.445
 4370SOL     OW14005   2.102   4.815   2.748
 4370SOL    HW114006   2.116   4.731   2.800
 4370SOL    HW214007   2.047   4.879   2.803
 4371SOL     OW14008   2.468   4.688   1.985
 4371SOL    HW114009   2.475   4.772   1.931
 4371SOL    HW214010   2.514   4.701   2.073
 4372SOL     OW14011   3.456   3.838   3.342
 4372SOL    HW114012   3.438   3.905   3.270
 4372SOL    HW214013   3.453   3.884   3.431
 4373SOL     OW14014   1.984   4.367   2.425
 4373SOL    HW114015   1.939   4.279   2.442
 4373SOL    HW214016   1.983   4.421   2.509
 4374SOL     OW14017   1.889   5.320   1.979
 4374SOL    HW114018   1.870   5.224   2.000
 4374SOL    HW214019   1.856   5.378   2.054
 4375SOL     OW14020   3.551   4.646   2.474
 4375SOL    HW114021   3.646   4.617   2.482
 4375SOL    HW214022   3.543   4.711   2.399
 4376SOL     OW14023   3.503   4.832   2.294
 4376SOL    HW114024   3.589   4.834   2.242
 4376SOL    HW214025   3.517   4.879   2.382
 4377SOL     OW14026   1.975   4.461   3.459
 4377SOL    HW114027   2.063   4.448   3.504
 4377SOL    HW214028   1.962   4.558   3.437
 4378SOL     OW14029   2.475   5.089   2.588
 4378SOL    HW114030   2.426   5.002   2.597
 4378SOL    HW214031   2.452   5.132   2.501
 4379SOL     OW14032   3.155   4.952   3.285
 4379SOL    HW114033   3.192   4.879   3.227
 4379SOL    HW214034   3.207   4.957   3.370
 4380SOL     OW14035   2.671   3.728   2.364
 4380SOL    HW114036   2.711   3.819   2.355
 4380SOL    HW214037   2.571   3.736   2.370
 4381SOL     OW14038   2.059   4.700   3.126
 4381SOL    HW114039   2.148   4.655   3.112
 4381SOL    HW214040   1.986   4.635   3.107
 4382SOL     OW14041   3.387   4.723   2.052
 4382SOL    HW114042   3.324   4.647   2.065
 4382SOL    HW214043   3.435   4.741   2.138
 4383SOL     OW14044   2.179   3.975   3.663
 4383SOL    HW114045   2.250   4.046   3.669
 4383SOL    HW214046   2.091   4.014   3.691
 4384SOL     OW14047   3.328   5.141   2.815
 4384SOL    HW114048   3.269   5.147   2.895
 4384SOL    HW214049   3.313   5.053   2.769
 4385SOL     OW14050   2.460   4.453   2.132
 4385SOL    HW114051   2.484   4.522   2.064
 4385SOL    HW214052   2.382   4.486   2.186
 4386SOL     OW14053   3.143   4.069   2.806
 4386SOL    HW114054   3.057   4.019   2.793
 4386SOL    HW214055   3.205   4.015   2.862
 4387SOL     OW14056   2.669   4.329   3.327
 4387SOL    HW114057   2.622   4.326   3.416
 4387SOL    HW214058   2.618   4.274   3.261
 4388SOL     OW14059   3.256   4.193   3.536
 4388SOL    HW114060   3.236   4.236   3.624
 4388SOL    HW214061   3.334   4.131   3.545
 4389SOL     OW14062   2.835   4.614   3.434
 4389SOL    HW114063   2.881   4.530   3.405
 4389SOL    HW214064   2.779   4.648   3.359
 4390SOL     OW14065   2.853   4.134   3.104
 4390SOL    HW114066   2.776   4.168   3.158
 4390SOL    HW214067   2.819   4.083   3.025
 4391SOL     OW14068   2.903   4.425   2.291
 4391SOL    HW114069   2.929   4.421   2.387
 4391SOL    HW214070   2.818   4.374   2.277
 4392SOL     OW14071   1.938   4.535   2.651
 4392SOL    HW114072   2.037   4.523   2.660
 4392SOL    HW214073   1.914   4.630   2.672
 4393SOL     OW14074   2.727   4.072   2.057
 4393SOL    HW114075   2.786   4.135   2.008
 4393SOL    HW214076   2.746   3.978   2.028
 4394SOL     OW14077   3.581   4.309   3.693
 4394SOL    HW114078   3.555   4.398   3.657
 4394SOL    HW214079   3.579   4.241   3.620
 4395SOL     OW14080   3.224   4.868   2.407
 4395SOL    HW114081   3.307   4.839   2.359
 4395SOL    HW214082   3.175   4.935   2.351
 4396SOL     OW14083   2.412   3.920   2.747
 4396SOL    HW114084   2.407   3.915   2.847
 4396SOL    HW214085   2.414   4.016   2.718
 4397SOL     OW14086   2.870   5.180   2.339
 4397SOL    HW114087   2.824   5.252   2.287
 4397SOL    HW214088   2.866   5.200   2.437
 4398SOL     OW14089   3.657   4.790   2.735
 4398SOL    HW114090   3.595   4.775   2.659
 4398SOL    HW214091   3.605   4.801   2.820
 4399SOL     OW14092   3.089   5.274   3.368
 4399SOL    HW114093   3.095   5.197   3.432
 4399SOL    HW214094   3.037   5.248   3.288
 4400SOL     OW14095   2.183   4.667   2.104
 4400SOL    HW114096   2.265   4.706   2.062
 4400SOL    HW214097   2.156   4.585   2.055
 4401SOL     OW14098   3.320   4.459   2.590
 4401SOL    HW114099   3.315   4.394   2.665
 4401SOL    HW214100   3.400   4.518   2.603
 4402SOL     OW14101   2.323   4.990   3.589
 4402SOL    HW114102   2.273   4.991   3.503
 4402SOL    HW214103   2.260   4.972   3.665
 4403SOL     OW14104   2.973   5.500   2.099
 4403SOL    HW114105   2.913   5.438   2.149
 4403SOL    HW214106   3.004   5.456   2.014
 4404SOL     OW14107   2.064   4.009   3.360
 4404SOL    HW114108   1.984   4.069   3.347
 4404SOL    HW214109   2.054   3.960   3.446
 4405SOL     OW14110   3.494   5.101   1.943
 4405SOL    HW114111   3.462   5.195   1.933
 4405SOL    HW214112   3.418   5.038   1.931
 4406SOL     OW14113   3.262   3.831   2.288
 4406SOL    HW114114   3.238   3.794   2.198
 4406SOL    HW214115   3.361   3.847   2.292
 4407SOL     OW14116   2.244   4.424   2.342
 4407SOL    HW114117   2.289   4.334   2.339
 4407SOL    HW214118   2.150   4.413   2.375
 4408SOL     OW14119   3.409   3.946   3.591
 4408SOL    HW114120   3.404   3.983   3.683
 4408SOL    HW214121   3.337   3.877   3.579
 4409SOL     OW14122   2.476   3.846   1.979
 4409SOL    HW114123   2.574   3.824   1.986
 4409SOL    HW214124   2.445   3.829   1.886
 4410SOL     OW14125   2.643   3.988   3.611
 4410SOL    HW114126   2.710   3.927   3.654
 4410SOL    HW214127   2.570   4.007   3.676
 4411SOL     OW14128   3.213   4.314   3.295
 4411SOL    HW114129   3.241   4.271   3.380
 4411SOL    HW214130   3.238   4.410   3.296
 4412SOL     OW14131   2.665   5.126   2.786
 4412SOL    HW114132   2.755   5.140   2.744
 4412SOL    HW214133   2.594   5.128   2.715
 4413SOL     OW14134   2.784   4.227   2.761
 4413SOL    HW114135   2.759   4.218   2.665
 4413SOL    HW214136   2.832   4.145   2.792
 4414SOL     OW14137   2.401   3.788   2.374
 4414SOL    HW114138   2.320   3.789   2.432
 4414SOL    HW214139   2.404   3.871   2.319
 4415SOL     OW14140   3.296   4.912   1.903
 4415SOL    HW114141   3.328   4.836   1.960
 4415SOL    HW214142   3.204   4.939   1.933
 4416SOL     OW14143   2.159   3.759   2.033
 4416SOL    HW114144   2.208   3.843   2.012
 4416SOL    HW214145   2.221   3.694   2.078
 4417SOL     OW14146   2.797   3.960   2.342
 4417SOL    HW114147   2.749   4.001   2.264
 4417SOL    HW214148   2.896   3.958   2.323
 4418SOL     OW14149   2.938   4.407   3.326
 4418SOL    HW114150   2.858   4.346   3.329
 4418SOL    HW214151   3.019   4.354   3.302
 4419SOL     OW14152   3.089   5.294   2.655
 4419SOL    HW114153   3.110   5.368   2.590
 4419SOL    HW214154   3.157   5.294   2.728
 4420SOL     OW14155   2.321   4.876   2.603
 4420SOL    HW114156   2.250   4.849   2.668
 4420SOL    HW214157   2.295   4.848   2.510
 4421SOL     OW14158   2.894   4.273   1.878
 4421SOL    HW114159   2.853   4.355   1.839
 4421SOL    HW214160   2.958   4.299   1.951
 4422SOL     OW14161   1.940   4.280   3.248
 4422SOL    HW114162   2.032   4.279   3.207
 4422SOL    HW214163   1.934   4.354   3.315
 4423SOL     OW14164   2.423   3.946   3.009
 4423SOL    HW114165   2.461   3.862   3.046
 4423SOL    HW214166   2.335   3.965   3.053
 4424SOL     OW14167   2.728   4.178   2.504
 4424SOL    HW114168   2.696   4.250   2.442
 4424SOL    HW214169   2.752   4.097   2.451
 4425SOL     OW14170   2.879   3.763   2.615
 4425SOL    HW114171   2.807   3.768   2.546
 4425SOL    HW214172   2.855   3.694   2.684
 4426SOL     OW14173   3.291   4.897   2.729
 4426SOL    HW114174   3.236   4.813   2.722
 4426SOL    HW214175   3.317   4.926   2.637
 4427SOL     OW14176   3.328   4.314   2.854
 4427SOL    HW114177   3.298   4.219   2.861
 4427SOL    HW214178   3.401   4.330   2.920
 4428SOL     OW14179   3.719   4.557   2.239
 4428SOL    HW114180   3.761   4.493   2.303
 4428SOL    HW214181   3.681   4.506   2.161
 4429SOL     OW14182   2.350   5.109   2.036
 4429SOL    HW114183   2.263   5.094   2.083
 4429SOL    HW214184   2.333   5.135   1.941
 4430SOL     OW14185   3.526   5.004   2.519
 4430SOL    HW114186   3.625   5.012   2.533
 4430SOL    HW214187   3.481   5.088   2.550
 4431SOL     OW14188   3.252   4.299   1.940
 4431SOL    HW114189   3.198   4.278   2.021
 4431SOL    HW214190   3.343   4.258   1.949
 4432SOL     OW14191   2.389   3.980   2.190
 4432SOL    HW114192   2.416   3.921   2.115
 4432SOL    HW214193   2.389   4.075   2.159
 4433SOL     OW14194   3.616   4.947   3.450
 4433SOL    HW114195   3.707   4.908   3.437
 4433SOL    HW214196   3.624   5.043   3.474
 4434SOL     OW14197   2.926   5.071   3.202
 4434SOL    HW114198   2.846   5.048   3.257
 4434SOL    HW214199   3.009   5.045   3.251
 4435SOL     OW14200   2.973   4.919   2.962
 4435SOL    HW114201   2.933   4.963   3.043
 4435SOL    HW214202   2.932   4.956   2.879
 4436SOL     OW14203   3.500   4.823   2.941
 4436SOL    HW114204   3.505   4.904   3.000
 4436SOL    HW214205   3.414   4.825   2.890
 4437SOL     OW14206   2.777   3.813   3.264
 4437SOL    HW114207   2.802   3.793   3.169
 4437SOL    HW214208   2.849   3.869   3.306
 4438SOL     OW14209   2.842   4.840   3.581
 4438SOL    HW114210   2.743   4.846   3.591
 4438SOL    HW214211   2.865   4.760   3.525
 4439SOL     OW14212   2.567   4.774   2.230
 4439SOL    HW114213   2.553   4.781   2.329
 4439SOL    HW214214   2.651   4.723   2.212
 4440SOL     OW14215   2.272   4.537   3.113
 4440SOL    HW114216   2.358   4.549   3.163
 4440SOL    HW214217   2.230   4.450   3.140
 4441SOL     OW14218   3.136   4.110   3.124
 4441SOL    HW114219   3.157   4.184   3.188
 4441SOL    HW214220   3.047   4.127   3.081
 4442SOL     OW14221   2.229   4.824   2.363
 4442SOL    HW114222   2.222   4.907   2.307
 4442SOL    HW214223   2.233   4.744   2.303
 4443SOL     OW14224   2.428   4.261   2.727
 4443SOL    HW114225   2.440   4.327   2.653
 4443SOL    HW214226   2.474   4.295   2.810
 4444SOL     OW14227   3.114   5.072   2.250
 4444SOL    HW114228   3.164   5.149   2.290
 4444SOL    HW214229   3.019   5.074   2.282
 4445SOL     OW14230   3.134   5.169   3.004
 4445SOL    HW114231   3.181   5.182   3.091
 4445SOL    HW214232   3.068   5.095   3.013
 4446SOL     OW14233   3.444   4.363   2.334
 4446SOL    HW114234   3.413   4.424   2.407
 4446SOL    HW214235   3.494   4.415   2.265
 4447SOL     OW14236   2.216   5.234   3.191
 4447SOL    HW114237   2.195   5.190   3.104
 4447SOL    HW214238   2.313   5.260   3.194
 4448SOL     OW14239   2.264   4.475   3.460
 4448SOL    HW114240   2.332   4.530   3.413
 4448SOL    HW214241   2.304   4.387   3.487
 4449SOL     OW14242   3.449   4.503   3.532
 4449SOL    HW114243   3.357   4.541   3.527
 4449SOL    HW214244   3.509   4.550   3.467
 4450SOL     OW14245   2.875   3.829   3.632
 4450SOL    HW114246   2.881   3.914   3.580
 4450SOL    HW214247   2.907   3.753   3.575
 4451SOL     OW14248   2.366   3.774   3.602
 4451SOL    HW114249   2.324   3.717   3.532
 4451SOL    HW214250   2.300   3.843   3.634
 4452SOL     OW14251   2.435   4.594   2.891
 4452SOL    HW114252   2.479   4.683   2.882
 4452SOL    HW214253   2.372   4.594   2.968
 4453SOL     OW14254   3.222   4.586   2.907
 4453SOL    HW114255   3.147   4.586   2.841
 4453SOL    HW214256   3.259   4.494   2.916
 4454SOL     OW14257   3.071   4.249   2.137
 4454SOL    HW114258   3.084   4.165   2.191
 4454SOL    HW214259   3.042   4.323   2.197
 4455SOL     OW14260   2.169   3.937   3.093
 4455SOL    HW114261   2.146   3.974   3.183
 4455SOL    HW214262   2.139   3.842   3.087
 4456SOL     OW14263   1.899   5.034   3.144
 4456SOL    HW114264   1.952   4.985   3.212
 4456SOL    HW214265   1.921   5.132   3.149
 4457SOL     OW14266   2.594   4.358   2.926
 4457SOL    HW114267   2.653   4.332   2.850
 4457SOL    HW214268   2.566   4.454   2.915
 4458SOL     OW14269   3.590   4.659   3.716
 4458SOL    HW114270   3.544   4.652   3.627
 4458SOL    HW214271   3.528   4.703   3.782
 4459SOL     OW14272   2.169   3.787   2.480
 4459SOL    HW114273   2.158   3.881   2.513
 4459SOL    HW214274   2.164   3.724   2.557
 4460SOL     OW14275   3.484   4.091   2.236
 4460SOL    HW114276   3.486   4.015   2.300
 4460SOL    HW214277   3.436   4.168   2.276
 4461SOL     OW14278   2.885   4.490   2.828
 4461SOL    HW114279   2.900   4.511   2.924
 4461SOL    HW214280   2.855   4.395   2.819
 4462SOL     OW14281   3.721   5.242   3.467
 4462SOL    HW114282   3.735   5.269   3.372
 4462SOL    HW214283   3.804   5.264   3.520
 4463SOL     OW14284   2.212   4.622   3.666
 4463SOL    HW114285   2.288   4.666   3.714
 4463SOL    HW214286   2.247   4.575   3.584
 4464SOL     OW14287   3.402   3.998   1.987
 4464SOL    HW114288   3.341   3.923   2.010
 4464SOL    HW214289   3.424   4.050   2.070
 4465SOL     OW14290   3.165   4.562   1.904
 4465SOL    HW114291   3.199   4.469   1.919
 4465SOL    HW214292   3.183   4.589   1.809
 4466SOL     OW14293   2.930   5.057   2.711
 4466SOL    HW114294   2.937   4.973   2.656
 4466SOL    HW214295   2.992   5.126   2.675
 4467SOL     OW14296   2.181   4.534   2.811
 4467SOL    HW114297   2.274   4.570   2.816
 4467SOL    HW214298   2.175   4.449   2.863
 4468SOL     OW14299   2.201   4.233   2.868
 4468SOL    HW114300   2.149   4.150   2.851
 4468SOL    HW214301   2.278   4.238   2.804
 4469SOL     OW14302   3.000   4.104   3.540
 4469SOL    HW114303   2.955   4.167   3.604
 4469SOL    HW214304   3.093   4.135   3.523
 4470SOL     OW14305   3.022   3.931   3.339
 4470SOL    HW114306   3.022   3.995   3.416
 4470SOL    HW214307   3.050   3.979   3.256
 4471SOL     OW14308   1.870   5.050   2.062
 4471SOL    HW114309   1.777   5.071   2.031
 4471SOL    HW214310   1.880   4.951   2.075
 4472SOL     OW14311   2.864   4.520   3.100
 4472SOL    HW114312   2.905   4.488   3.186
 4472SOL    HW214313   2.768   4.493   3.097
 4473SOL     OW14314   1.902   4.268   2.976
 4473SOL    HW114315   1.987   4.235   2.935
 4473SOL    HW214316   1.915   4.283   3.074
 4474SOL     OW14317   2.051   4.244   3.584
 4474SOL    HW114318   2.110   4.204   3.514
 4474SOL    HW214319   1.993   4.315   3.543
 4475SOL     OW14320   3.231   4.674   3.522
 4475SOL    HW114321   3.270   4.763   3.542
 4475SOL    HW214322   3.241   4.654   3.425
 4476SOL     OW14323   2.677   4.296   2.187
 4476SOL    HW114324   2.684   4.207   2.141
 4476SOL    HW214325   2.583   4.330   2.179
 4477SOL     OW14326   3.519   4.328   3.068
 4477SOL    HW114327   3.481   4.259   3.130
 4477SOL    HW214328   3.601   4.292   3.024
 4478SOL     OW14329   2.114   5.288   3.606
 4478SOL    HW114330   2.084   5.345   3.682
 4478SOL    HW214331   2.107   5.191   3.632
 4479SOL     OW14332   2.533   4.188   3.131
 4479SOL    HW114333   2.499   4.099   3.101
 4479SOL    HW214334   2.559   4.242   3.051
 4480SOL     OW14335   2.335   4.224   2.053
 4480SOL    HW114336   2.396   4.304   2.057
 4480SOL    HW214337   2.240   4.255   2.060
 4481SOL     OW14338   2.021   4.861   3.328
 4481SOL    HW114339   2.043   4.800   3.404
 4481SOL    HW214340   2.031   4.812   3.242
 4482SOL     OW14341   3.209   4.783   3.096
 4482SOL    HW114342   3.233   4.720   3.022
 4482SOL    HW214343   3.119   4.823   3.078
 4483SOL     OW14344   3.164   4.579   2.171
 4483SOL    HW114345   3.078   4.548   2.213
 4483SOL    HW214346   3.160   4.565   2.072
 4484SOL     OW14347   1.945   4.982   2.884
 4484SOL    HW114348   1.940   4.981   2.984
 4484SOL    HW214349   1.862   4.941   2.846
 4485SOL     OW14350   2.550   5.386   3.578
 4485SOL    HW114351   2.494   5.467   3.587
 4485SOL    HW214352   2.602   5.390   3.492
 4486SOL     OW14353   3.588   3.859   2.385
 4486SOL    HW114354   3.661   3.842   2.318
 4486SOL    HW214355   3.557   3.772   2.423
 4487SOL     OW14356   3.142   4.651   2.534
 4487SOL    HW114357   3.202   4.570   2.536
 4487SOL    HW214358   3.182   4.720   2.474
 4488SOL     OW14359   2.692   4.997   3.284
 4488SOL    HW114360   2.687   5.030   3.379
 4488SOL    HW214361   2.606   5.016   3.238
 4489SOL     OW14362   3.703   3.899   2.825
 4489SOL    HW114363   3.742   3.814   2.789
 4489SOL    HW214364   3.605   3.901   2.806
 4490SOL     OW14365   2.125   4.050   2.582
 4490SOL    HW114366   2.046   4.101   2.548
 4490SOL    HW214367   2.116   4.035   2.680
 4491SOL     OW14368   2.684   4.726   3.234
 4491SOL    HW114369   2.724   4.725   3.142
 4491SOL    HW214370   2.694   4.818   3.274
 4492SOL     OW14371   2.778   4.634   2.153
 4492SOL    HW114372   2.841   4.672   2.085
 4492SOL    HW214373   2.818   4.551   2.192
 4493SOL     OW14374   2.234   5.012   3.352
 4493SOL    HW114375   2.221   5.105   3.318
 4493SOL    HW214376   2.150   4.960   3.339
 4494SOL     OW14377   3.476   5.016   3.151
 4494SOL    HW114378   3.536   5.019   3.231
 4494SOL    HW214379   3.401   5.080   3.164
 4495SOL     OW14380   2.901   4.822   2.558
 4495SOL    HW114381   2.831   4.775   2.612
 4495SOL    HW214382   2.960   4.754   2.515
 4496SOL     OW14383   2.876   3.960   2.833
 4496SOL    HW114384   2.868   3.924   2.740
 4496SOL    HW214385   2.874   3.884   2.898
 4497SOL     OW14386   3.571   4.109   3.243
 4497SOL    HW114387   3.644   4.178   3.247
 4497SOL    HW214388   3.599   4.034   3.184
 4498SOL     OW14389   2.117   5.072   2.152
 4498SOL    HW114390   2.021   5.073   2.125
 4498SOL    HW214391   2.129   5.125   2.236
 4499SOL     OW14392   1.967   4.737   3.588
 4499SOL    HW114393   1.890   4.704   3.642
 4499SOL    HW214394   2.052   4.707   3.630
 4500SOL     OW14395   2.534   3.927   3.351
 4500SOL    HW114396   2.624   3.911   3.311
 4500SOL    HW214397   2.542   3.932   3.450
 4501SOL     OW14398   1.937   4.069   1.895
 4501SOL    HW114399   1.845   4.041   1.866
 4501SOL    HW214400   1.968   4.146   1.839
 4502SOL     OW14401   3.302   4.580   3.260
 4502SOL    HW114402   3.245   4.632   3.197
 4502SOL    HW214403   3.398   4.592   3.236
 4503SOL     OW14404   1.934   3.890   2.180
 4503SOL    HW114405   1.917   3.973   2.126
 4503SOL    HW214406   2.024   3.853   2.158
 4504SOL     OW14407   3.045   5.059   1.981
 4504SOL    HW114408   2.946   5.048   1.983
 4504SOL    HW214409   3.079   5.074   2.074
 4505SOL     OW14410   2.475   4.566   3.293
 4505SOL    HW114411   2.531   4.647   3.276
 4505SOL    HW214412   2.534   4.486   3.296
 4506SOL     OW14413   2.578   4.289   3.570
 4506SOL    HW114414   2.597   4.354   3.644
 4506SOL    HW214415   2.638   4.209   3.579
 4507SOL     OW14416   3.312   4.944   3.495
 4507SOL    HW114417   3.303   4.934   3.594
 4507SOL    HW214418   3.408   4.937   3.469
 4508SOL     OW14419   3.536   4.607   3.116
 4508SOL    HW114420   3.509   4.518   3.079
 4508SOL    HW214421   3.537   4.675   3.043
 4509SOL     OW14422   3.087   4.049   2.311
 4509SOL    HW114423   3.152   3.975   2.300
 4509SOL    HW214424   3.107   4.099   2.395
 4510SOL     OW14425   2.456   4.469   2.514
 4510SOL    HW114426   2.506   4.554   2.495
 4510SOL    HW214427   2.368   4.471   2.466
 4511SOL     OW14428   3.639   4.066   3.504
 4511SOL    HW114429   3.622   4.097   3.410
 4511SOL    HW214430   3.555   4.029   3.542
 4512SOL     OW14431   3.592   4.658   3.379
 4512SOL    HW114432   3.630   4.749   3.394
 4512SOL    HW214433   3.584   4.641   3.280
 4513SOL     OW14434   2.721   5.098   1.878
 4513SOL    HW114435   2.675   5.113   1.966
 4513SOL    HW214436   2.765   5.183   1.848
 4514SOL     OW14437   2.721   4.680   2.723
 4514SOL    HW114438   2.775   4.611   2.771
 4514SOL    HW214439   2.689   4.749   2.789
 4515SOL     OW14440   2.945   4.708   1.949
 4515SOL    HW114441   2.922   4.761   1.867
 4515SOL    HW214442   3.026   4.652   1.930
 4516SOL     OW14443   2.083   5.038   3.706
 4516SOL    HW114444   2.018   4.965   3.685
 4516SOL    HW214445   2.087   5.052   3.804
 4517SOL     OW14446   1.941   4.964   2.515
 4517SOL    HW114447   1.940   4.917   2.603
 4517SOL    HW214448   2.023   4.936   2.464
 4518SOL     OW14449   2.534   5.115   3.486
 4518SOL    HW114450   2.456   5.065   3.524
 4518SOL    HW214451   2.531   5.210   3.517
 4519SOL     OW14452   3.686   3.916   3.089
 4519SOL    HW114453   3.682   3.826   3.133
 4519SOL    HW214454   3.689   3.905   2.990
 4520SOL     OW14455   2.290   4.148   2.382
 4520SOL    HW114456   2.320   4.076   2.320
 4520SOL    HW214457   2.251   4.108   2.465
 4521SOL     OW14458   3.567   5.211   2.966
 4521SOL    HW114459   3.474   5.186   2.939
 4521SOL    HW214460   3.593   5.161   3.048
 4522SOL     OW14461   2.179   4.271   3.142
 4522SOL    HW114462   2.217   4.212   3.214
 4522SOL    HW214463   2.219   4.245   3.054
 4523SOL     OW14464   3.286   3.938   2.974
 4523SOL    HW114465   3.338   3.873   3.029
 4523SOL    HW214466   3.237   4.001   3.035
 4524SOL     OW14467   2.863   3.758   3.016
 4524SOL    HW114468   2.800   3.686   2.985
 4524SOL    HW214469   2.956   3.722   3.016
 4525SOL     OW14470   2.632   5.054   2.163
 4525SOL    HW114471   2.586   4.967   2.180
 4525SOL    HW214472   2.723   5.051   2.204
 4526SOL     OW14473   2.480   5.291   3.146
 4526SOL    HW114474   2.475   5.373   3.203
 4526SOL    HW214475   2.569   5.288   3.101
 4527SOL     OW14476   3.214   3.776   2.030
 4527SOL    HW114477   3.249   3.735   1.946
 4527SOL    HW214478   3.124   3.738   2.050
 4528SOL     OW14479   3.162   4.177   2.553
 4528SOL    HW114480   3.103   4.257   2.557
 4528SOL    HW214481   3.177   4.142   2.646
 4529SOL     OW14482   3.455   3.945   2.744
 4529SOL    HW114483   3.371   3.944   2.798
 4529SOL    HW214484   3.457   4.028   2.688
 4530SOL     OW14485   1.901   4.801   2.162
 4530SOL    HW114486   2.000   4.790   2.153
 4530SOL    HW214487   1.861   4.715   2.194
 4531SOL     OW14488   2.092   4.352   3.837
 4531SOL    HW114489   1.999   4.350   3.874
 4531SOL    HW214490   2.093   4.313   3.745
 4532SOL     OW14491   2.087   3.999   4.720
 4532SOL    HW114492   2.122   3.982   4.812
 4532SOL    HW214493   1.999   3.954   4.708
 4533SOL     OW14494   1.881   4.092   4.371
 4533SOL    HW114495   1.799   4.135   4.410
 4533SOL    HW214496   1.853   4.019   4.308
 4534SOL     OW14497   2.431   4.999   4.889
 4534SOL    HW114498   2.338   4.992   4.852
 4534SOL    HW214499   2.442   5.088   4.933
 4535SOL     OW14500   3.417   5.235   4.427
 4535SOL    HW114501   3.360   5.219   4.508
 4535SOL    HW214502   3.358   5.245   4.347
 4536SOL     OW14503   2.997   4.427   4.441
 4536SOL    HW114504   3.054   4.505   4.416
 4536SOL    HW214505   2.937   4.453   4.517
 4537SOL     OW14506   3.617   4.331   3.955
 4537SOL    HW114507   3.605   4.318   3.856
 4537SOL    HW214508   3.587   4.250   4.004
 4538SOL     OW14509   2.630   4.868   4.747
 4538SOL    HW114510   2.552   4.885   4.807
 4538SOL    HW214511   2.664   4.955   4.711
 4539SOL     OW14512   2.712   4.522   5.547
 4539SOL    HW114513   2.708   4.598   5.612
 4539SOL    HW214514   2.734   4.558   5.456
 4540SOL     OW14515   2.547   4.736   4.389
 4540SOL    HW114516   2.616   4.720   4.459
 4540SOL    HW214517   2.474   4.793   4.427
 4541SOL     OW14518   2.548   4.885   5.527
 4541SOL    HW114519   2.608   4.964   5.541
 4541SOL    HW214520   2.462   4.916   5.486
 4542SOL     OW14521   2.197   5.159   4.785
 4542SOL    HW114522   2.119   5.128   4.732
 4542SOL    HW214523   2.255   5.217   4.728
 4543SOL     OW14524   3.322   5.229   5.063
 4543SOL    HW114525   3.346   5.323   5.089
 4543SOL    HW214526   3.306   5.175   5.145
 4544SOL     OW14527   2.300   4.116   5.223
 4544SOL    HW114528   2.382   4.060   5.232
 4544SOL    HW214529   2.219   4.058   5.227
 4545SOL     OW14530   3.465   4.171   4.461
 4545SOL    HW114531   3.391   4.217   4.411
 4545SOL    HW214532   3.516   4.239   4.514
 4546SOL     OW14533   2.989   5.065   5.414
 4546SOL    HW114534   3.036   5.065   5.502
 4546SOL    HW214535   2.941   4.978   5.403
 4547SOL     OW14536   2.092   5.158   4.262
 4547SOL    HW114537   2.066   5.254   4.262
 4547SOL    HW214538   2.021   5.104   4.307
 4548SOL     OW14539   2.102   4.815   4.610
 4548SOL    HW114540   2.116   4.731   4.662
 4548SOL    HW214541   2.047   4.879   4.665
 4549SOL     OW14542   2.468   4.688   3.847
 4549SOL    HW114543   2.475   4.772   3.793
 4549SOL    HW214544   2.514   4.701   3.935
 4550SOL     OW14545   3.456   3.838   5.204
 4550SOL    HW114546   3.438   3.905   5.132
 4550SOL    HW214547   3.453   3.884   5.293
 4551SOL     OW14548   1.984   4.367   4.287
 4551SOL    HW114549   1.939   4.279   4.304
 4551SOL    HW214550   1.983   4.421   4.371
 4552SOL     OW14551   1.889   5.320   3.841
 4552SOL    HW114552   1.870   5.224   3.862
 4552SOL    HW214553   1.856   5.378   3.916
 4553SOL     OW14554   3.551   4.646   4.336
 4553SOL    HW114555   3.646   4.617   4.344
 4553SOL    HW214556   3.543   4.711   4.261
 4554SOL     OW14557   3.503   4.832   4.156
 4554SOL    HW114558   3.589   4.834   4.104
 4554SOL    HW214559   3.517   4.879   4.244
 4555SOL     OW14560   1.975   4.461   5.321
 4555SOL    HW114561   2.063   4.448   5.366
 4555SOL    HW214562   1.962   4.558   5.299
 4556SOL     OW14563   2.475   5.089   4.450
 4556SOL    HW114564   2.426   5.002   4.459
 4556SOL    HW214565   2.452   5.132   4.363
 4557SOL     OW14566   3.155   4.952   5.147
 4557SOL    HW114567   3.192   4.879   5.089
 4557SOL    HW214568   3.207   4.957   5.232
 4558SOL     OW14569   2.671   3.728   4.226
 4558SOL    HW114570   2.711   3.819   4.217
 4558SOL    HW214571   2.571   3.736   4.232
 4559SOL     OW14572   2.059   4.700   4.988
 4559SOL    HW114573   2.148   4.655   4.974
 4559SOL    HW214574   1.986   4.635   4.969
 4560SOL     OW14575   3.387   4.723   3.914
 4560SOL    HW114576   3.324   4.647   3.927
 4560SOL    HW214577   3.435   4.741   4.000
 4561SOL     OW14578   2.179   3.975   5.525
 4561SOL    HW114579   2.250   4.046   5.531
 4561SOL    HW214580   2.091   4.014   5.553
 4562SOL     OW14581   3.328   5.141   4.677
 4562SOL    HW114582   3.269   5.147   4.757
 4562SOL    HW214583   3.313   5.053   4.631
 4563SOL     OW14584   2.460   4.453   3.994
 4563SOL    HW114585   2.484   4.522   3.926
 4563SOL    HW214586   2.382   4.486   4.048
 4564SOL     OW14587   3.143   4.069   4.668
 4564SOL    HW114588   3.057   4.019   4.655
 4564SOL    HW214589   3.205   4.015   4.724
 4565SOL     OW14590   2.669   4.329   5.189
 4565SOL    HW114591   2.622   4.326   5.278
 4565SOL    HW214592   2.618   4.274   5.123
 4566SOL     OW14593   3.256   4.193   5.398
 4566SOL    HW114594   3.236   4.236   5.486
 4566SOL    HW214595   3.334   4.131   5.407
 4567SOL     OW14596   2.835   4.614   5.296
 4567SOL    HW114597   2.881   4.530   5.267
 4567SOL    HW214598   2.779   4.648   5.221
 4568SOL     OW14599   2.853   4.134   4.966
 4568SOL    HW114600   2.776   4.168   5.020
 4568SOL    HW214601   2.819   4.083   4.887
 4569SOL     OW14602   2.903   4.425   4.153
 4569SOL    HW114603   2.929   4.421   4.249
 4569SOL    HW214604   2.818   4.374   4.139
 4570SOL     OW14605   1.938   4.535   4.513
 4570SOL    HW114606   2.037   4.523   4.522
 4570SOL    HW214607   1.914   4.630   4.534
 4571SOL     OW14608   2.727   4.072   3.919
 4571SOL    HW114609   2.786   4.135   3.870
 4571SOL    HW214610   2.746   3.978   3.890
 4572SOL     OW14611   3.581   4.309   5.555
 4572SOL    HW114612   3.555   4.398   5.519
 4572SOL    HW214613   3.579   4.241   5.482
 4573SOL     OW14614   3.224   4.868   4.269
 4573SOL    HW114615   3.307   4.839   4.221
 4573SOL    HW214616   3.175   4.935   4.213
 4574SOL     OW14617   2.412   3.920   4.609
 4574SOL    HW114618   2.407   3.915   4.709
 4574SOL    HW214619   2.414   4.016   4.580
 4575SOL     OW14620   2.870   5.180   4.201
 4575SOL    HW114621   2.824   5.252   4.149
 4575SOL    HW214622   2.866   5.200   4.299
 4576SOL     OW14623   3.657   4.790   4.597
 4576SOL    HW114624   3.595   4.775   4.521
 4576SOL    HW214625   3.605   4.801   4.682
 4577SOL     OW14626   3.089   5.274   5.230
 4577SOL    HW114627   3.095   5.197   5.294
 4577SOL    HW214628   3.037   5.248   5.150
 4578SOL     OW14629   2.183   4.667   3.966
 4578SOL    HW114630   2.265   4.706   3.924
 4578SOL    HW214631   2.156   4.585   3.917
 4579SOL     OW14632   3.320   4.459   4.452
 4579SOL    HW114633   3.315   4.394   4.527
 4579SOL    HW214634   3.400   4.518   4.465
 4580SOL     OW14635   2.323   4.990   5.451
 4580SOL    HW114636   2.273   4.991   5.365
 4580SOL    HW214637   2.260   4.972   5.527
 4581SOL     OW14638   2.973   5.500   3.961
 4581SOL    HW114639   2.913   5.438   4.011
 4581SOL    HW214640   3.004   5.456   3.876
 4582SOL     OW14641   2.064   4.009   5.222
 4582SOL    HW114642   1.984   4.069   5.209
 4582SOL    HW214643   2.054   3.960   5.308
 4583SOL     OW14644   3.494   5.101   3.805
 4583SOL    HW114645   3.462   5.195   3.795
 4583SOL    HW214646   3.418   5.038   3.793
 4584SOL     OW14647   3.262   3.831   4.150
 4584SOL    HW114648   3.238   3.794   4.060
 4584SOL    HW214649   3.361   3.847   4.154
 4585SOL     OW14650   2.244   4.424   4.204
 4585SOL    HW114651   2.289   4.334   4.201
 4585SOL    HW214652   2.150   4.413   4.237
 4586SOL     OW14653   3.409   3.946   5.453
 4586SOL    HW114654   3.404   3.983   5.545
 4586SOL    HW214655   3.337   3.877   5.441
 4587SOL     OW14656   2.476   3.846   3.841
 4587SOL    HW114657   2.574   3.824   3.848
 4587SOL    HW214658   2.445   3.829   3.748
 4588SOL     OW14659   2.643   3.988   5.473
 4588SOL    HW114660   2.710   3.927   5.516
 4588SOL    HW214661   2.570   4.007   5.538
 4589SOL     OW14662   3.213   4.314   5.157
 4589SOL    HW114663   3.241   4.271   5.242
 4589SOL    HW214664   3.238   4.410   5.158
 4590SOL     OW14665   2.665   5.126   4.648
 4590SOL    HW114666   2.755   5.140   4.606
 4590SOL    HW214667   2.594   5.128   4.577
 4591SOL     OW14668   2.784   4.227   4.623
 4591SOL    HW114669   2.759   4.218   4.527
 4591SOL    HW214670   2.832   4.145   4.654
 4592SOL     OW14671   2.401   3.788   4.236
 4592SOL    HW114672   2.320   3.789   4.294
 4592SOL    HW214673   2.404   3.871   4.181
 4593SOL     OW14674   3.296   4.912   3.765
 4593SOL    HW114675   3.328   4.836   3.822
 4593SOL    HW214676   3.204   4.939   3.795
 4594SOL     OW14677   2.159   3.759   3.895
 4594SOL    HW114678   2.208   3.843   3.874
 4594SOL    HW214679   2.221   3.694   3.940
 4595SOL     OW14680   2.797   3.960   4.204
 4595SOL    HW114681   2.749   4.001   4.126
 4595SOL    HW214682   2.896   3.958   4.185
 4596SOL     OW14683   2.938   4.407   5.188
 4596SOL    HW114684   2.858   4.346   5.191
 4596SOL    HW214685   3.019   4.354   5.164
 4597SOL     OW14686   3.089   5.294   4.517
 4597SOL    HW114687   3.110   5.368   4.452
 4597SOL    HW214688   3.157   5.294   4.590
 4598SOL     OW14689   2.321   4.876   4.465
 4598SOL    HW114690   2.250   4.849   4.530
 4598SOL    HW214691   2.295   4.848   4.372
 4599SOL     OW14692   2.894   4.273   3.740
 4599SOL    HW114693   2.853   4.355   3.701
 4599SOL    HW214694   2.958   4.299   3.813
 4600SOL     OW14695   1.940   4.280   5.110
 4600SOL    HW114696   2.032   4.279   5.069
 4600SOL    HW214697   1.934   4.354   5.177
 4601SOL     OW14698   2.423   3.946   4.871
 4601SOL    HW114699   2.461   3.862   4.908
 4601SOL    HW214700   2.335   3.965   4.915
 4602SOL     OW14701   2.728   4.178   4.366
 4602SOL    HW114702   2.696   4.250   4.304
 4602SOL    HW214703   2.752   4.097   4.313
 4603SOL     OW14704   2.879   3.763   4.477
 4603SOL    HW114705   2.807   3.768   4.408
 4603SOL    HW214706   2.855   3.694   4.546
 4604SOL     OW14707   3.291   4.897   4.591
 4604SOL    HW114708   3.236   4.813   4.584
 4604SOL    HW214709   3.317   4.926   4.499
 4605SOL     OW14710   3.328   4.314   4.716
 4605SOL    HW114711   3.298   4.219   4.723
 4605SOL    HW214712   3.401   4.330   4.782
 4606SOL     OW14713   3.719   4.557   4.101
 4606SOL    HW114714   3.761   4.493   4.165
 4606SOL    HW214715   3.681   4.506   4.023
 4607SOL     OW14716   2.350   5.109   3.898
 4607SOL    HW114717   2.263   5.094   3.945
 4607SOL    HW214718   2.333   5.135   3.803
 4608SOL     OW14719   3.526   5.004   4.381
 4608SOL    HW114720   3.625   5.012   4.395
 4608SOL    HW214721   3.481   5.088   4.412
 4609SOL     OW14722   3.252   4.299   3.802
 4609SOL    HW114723   3.198   4.278   3.883
 4609SOL    HW214724   3.343   4.258   3.811
 4610SOL     OW14725   2.389   3.980   4.052
 4610SOL    HW114726   2.416   3.921   3.977
 4610SOL    HW214727   2.389   4.075   4.021
 4611SOL     OW14728   3.616   4.947   5.312
 4611SOL    HW114729   3.707   4.908   5.299
 4611SOL    HW214730   3.624   5.043   5.336
 4612SOL     OW14731   2.926   5.071   5.064
 4612SOL    HW114732   2.846   5.048   5.119
 4612SOL    HW214733   3.009   5.045   5.113
 4613SOL     OW14734   2.973   4.919   4.824
 4613SOL    HW114735   2.933   4.963   4.905
 4613SOL    HW214736   2.932   4.956   4.741
 4614SOL     OW14737   3.500   4.823   4.803
 4614SOL    HW114738   3.505   4.904   4.862
 4614SOL    HW214739   3.414   4.825   4.752
 4615SOL     OW14740   2.777   3.813   5.126
 4615SOL    HW114741   2.802   3.793   5.031
 4615SOL    HW214742   2.849   3.869   5.168
 4616SOL     OW14743   2.842   4.840   5.443
 4616SOL    HW114744   2.743   4.846   5.453
 4616SOL    HW214745   2.865   4.760   5.387
 4617SOL     OW14746   2.567   4.774   4.092
 4617SOL    HW114747   2.553   4.781   4.191
 4617SOL    HW214748   2.651   4.723   4.074
 4618SOL     OW14749   2.272   4.537   4.975
 4618SOL    HW114750   2.358   4.549   5.025
 4618SOL    HW214751   2.230   4.450   5.002
 4619SOL     OW14752   3.136   4.110   4.986
 4619SOL    HW114753   3.157   4.184   5.050
 4619SOL    HW214754   3.047   4.127   4.943
 4620SOL     OW14755   2.229   4.824   4.225
 4620SOL    HW114756   2.222   4.907   4.169
 4620SOL    HW214757   2.233   4.744   4.165
 4621SOL     OW14758   2.428   4.261   4.589
 4621SOL    HW114759   2.440   4.327   4.515
 4621SOL    HW214760   2.474   4.295   4.672
 4622SOL     OW14761   3.114   5.072   4.112
 4622SOL    HW114762   3.164   5.149   4.152
 4622SOL    HW214763   3.019   5.074   4.144
 4623SOL     OW14764   3.134   5.169   4.866
 4623SOL    HW114765   3.181   5.182   4.953
 4623SOL    HW214766   3.068   5.095   4.875
 4624SOL     OW14767   3.444   4.363   4.196
 4624SOL    HW114768   3.413   4.424   4.269
 4624SOL    HW214769   3.494   4.415   4.127
 4625SOL     OW14770   2.216   5.234   5.053
 4625SOL    HW114771   2.195   5.190   4.966
 4625SOL    HW214772   2.313   5.260   5.056
 4626SOL     OW14773   2.264   4.475   5.322
 4626SOL    HW114774   2.332   4.530   5.275
 4626SOL    HW214775   2.304   4.387   5.349
 4627SOL     OW14776   3.449   4.503   5.394
 4627SOL    HW114777   3.357   4.541   5.389
 4627SOL    HW214778   3.509   4.550   5.329
 4628SOL     OW14779   2.875   3.829   5.494
 4628SOL    HW114780   2.881   3.914   5.442
 4628SOL    HW214781   2.907   3.753   5.437
 4629SOL     OW14782   2.366   3.774   5.464
 4629SOL    HW114783   2.324   3.717   5.394
 4629SOL    HW214784   2.300   3.843   5.496
 4630SOL     OW14785   2.435   4.594   4.753
 4630SOL    HW114786   2.479   4.683   4.744
 4630SOL    HW214787   2.372   4.594   4.830
 4631SOL     OW14788   3.222   4.586   4.769
 4631SOL    HW114789   3.147   4.586   4.703
 4631SOL    HW214790   3.259   4.494   4.778
 4632SOL     OW14791   3.071   4.249   3.999
 4632SOL    HW114792   3.084   4.165   4.053
 4632SOL    HW214793   3.042   4.323   4.059
 4633SOL     OW14794   2.169   3.937   4.955
 4633SOL    HW114795   2.146   3.974   5.045
 4633SOL    HW214796   2.139   3.842   4.949
 4634SOL     OW14797   1.899   5.034   5.006
 4634SOL    HW114798   1.952   4.985   5.074
 4634SOL    HW214799   1.921   5.132   5.011
 4635SOL     OW14800   2.594   4.358   4.788
 4635SOL    HW114801   2.653   4.332   4.712
 4635SOL    HW214802   2.566   4.454   4.777
 4636SOL     OW14803   3.590   4.659   5.578
 4636SOL    HW114804   3.544   4.652   5.489
 4636SOL    HW214805   3.528   4.703   5.644
 4637SOL     OW14806   2.169   3.787   4.342
 4637SOL    HW114807   2.158   3.881   4.375
 4637SOL    HW214808   2.164   3.724   4.419
 4638SOL     OW14809   3.484   4.091   4.098
 4638SOL    HW114810   3.486   4.015   4.162
 4638SOL    HW214811   3.436   4.168   4.138
 4639SOL     OW14812   2.885   4.490   4.690
 4639SOL    HW114813   2.900   4.511   4.786
 4639SOL    HW214814   2.855   4.395   4.681
 4640SOL     OW14815   3.721   5.242   5.329
 4640SOL    HW114816   3.735   5.269   5.234
 4640SOL    HW214817   3.804   5.264   5.382
 4641SOL     OW14818   2.212   4.622   5.528
 4641SOL    HW114819   2.288   4.666   5.576
 4641SOL    HW214820   2.247   4.575   5.446
 4642SOL     OW14821   3.402   3.998   3.849
 4642SOL    HW114822   3.341   3.923   3.872
 4642SOL    HW214823   3.424   4.050   3.932
 4643SOL     OW14824   3.165   4.562   3.766
 4643SOL    HW114825   3.199   4.469   3.781
 4643SOL    HW214826   3.183   4.589   3.671
 4644SOL     OW14827   2.930   5.057   4.573
 4644SOL    HW114828   2.937   4.973   4.518
 4644SOL    HW214829   2.992   5.126   4.537
 4645SOL     OW14830   2.181   4.534   4.673
 4645SOL    HW114831   2.274   4.570   4.678
 4645SOL    HW214832   2.175   4.449   4.725
 4646SOL     OW14833   2.201   4.233   4.730
 4646SOL    HW114834   2.149   4.150   4.713
 4646SOL    HW214835   2.278   4.238   4.666
 4647SOL     OW14836   3.000   4.104   5.402
 4647SOL    HW114837   2.955   4.167   5.466
 4647SOL    HW214838   3.093   4.135   5.385
 4648SOL     OW14839   3.022   3.931   5.201
 4648SOL    HW114840   3.022   3.995   5.278
 4648SOL    HW214841   3.050   3.979   5.118
 4649SOL     OW14842   1.870   5.050   3.924
 4649SOL    HW114843   1.777   5.071   3.893
 4649SOL    HW214844   1.880   4.951   3.937
 4650SOL     OW14845   2.864   4.520   4.962
 4650SOL    HW114846   2.905   4.488   5.048
 4650SOL    HW214847   2.768   4.493   4.959
 4651SOL     OW14848   1.902   4.268   4.838
 4651SOL    HW114849   1.987   4.235   4.797
 4651SOL    HW214850   1.915   4.283   4.936
 4652SOL     OW14851   2.051   4.244   5.446
 4652SOL    HW114852   2.110   4.204   5.376
 4652SOL    HW214853   1.993   4.315   5.405
 4653SOL     OW14854   3.231   4.674   5.384
 4653SOL    HW114855   3.270   4.763   5.404
 4653SOL    HW214856   3.241   4.654   5.287
 4654SOL     OW14857   2.677   4.296   4.049
 4654SOL    HW114858   2.684   4.207   4.003
 4654SOL    HW214859   2.583   4.330   4.041
 4655SOL     OW14860   3.519   4.328   4.930
 4655SOL    HW114861   3.481   4.259   4.992
 4655SOL    HW214862   3.601   4.292   4.886
 4656SOL     OW14863   2.114   5.288   5.468
 4656SOL    HW114864   2.084   5.345   5.544
 4656SOL    HW214865   2.107   5.191   5.494
 4657SOL     OW14866   2.533   4.188   4.993
 4657SOL    HW114867   2.499   4.099   4.963
 4657SOL    HW214868   2.559   4.242   4.913
 4658SOL     OW14869   2.335   4.224   3.915
 4658SOL    HW114870   2.396   4.304   3.919
 4658SOL    HW214871   2.240   4.255   3.922
 4659SOL     OW14872   2.021   4.861   5.190
 4659SOL    HW114873   2.043   4.800   5.266
 4659SOL    HW214874   2.031   4.812   5.104
 4660SOL     OW14875   3.209   4.783   4.958
 4660SOL    HW114876   3.233   4.720   4.884
 4660SOL    HW214877   3.119   4.823   4.940
 4661SOL     OW14878   3.164   4.579   4.033
 4661SOL    HW114879   3.078   4.548   4.075
 4661SOL    HW214880   3.160   4.565   3.934
 4662SOL     OW14881   1.945   4.982   4.746
 4662SOL    HW114882   1.940   4.981   4.846
 4662SOL    HW214883   1.862   4.941   4.708
 4663SOL     OW14884   2.550   5.386   5.440
 4663SOL    HW114885   2.494   5.467   5.449
 4663SOL    HW214886   2.602   5.390   5.354
 4664SOL     OW14887   3.588   3.859   4.247
 4664SOL    HW114888   3.661   3.842   4.180
 4664SOL    HW214889   3.557   3.772   4.285
 4665SOL     OW14890   3.142   4.651   4.396
 4665SOL    HW114891   3.202   4.570   4.398
 4665SOL    HW214892   3.182   4.720   4.336
 4666SOL     OW14893   2.692   4.997   5.146
 4666SOL    HW114894   2.687   5.030   5.241
 4666SOL    HW214895   2.606   5.016   5.100
 4667SOL     OW14896   3.703   3.899   4.687
 4667SOL    HW114897   3.742   3.814   4.651
 4667SOL    HW214898   3.605   3.901   4.668
 4668SOL     OW14899   2.125   4.050   4.444
 4668SOL    HW114900   2.046   4.101   4.410
 4668SOL    HW214901   2.116   4.035   4.542
 4669SOL     OW14902   2.684   4.726   5.096
 4669SOL    HW114903   2.724   4.725   5.004
 4669SOL    HW214904   2.694   4.818   5.136
 4670SOL     OW14905   2.778   4.634   4.015
 4670SOL    HW114906   2.841   4.672   3.947
 4670SOL    HW214907   2.818   4.551   4.054
 4671SOL     OW14908   2.234   5.012   5.214
 4671SOL    HW114909   2.221   5.105   5.180
 4671SOL    HW214910   2.150   4.960   5.201
 4672SOL     OW14911   3.476   5.016   5.013
 4672SOL    HW114912   3.536   5.019   5.093
 4672SOL    HW214913   3.401   5.080   5.026
 4673SOL     OW14914   2.901   4.822   4.420
 4673SOL    HW114915   2.831   4.775   4.474
 4673SOL    HW214916   2.960   4.754   4.377
 4674SOL     OW14917   2.876   3.960   4.695
 4674SOL    HW114918   2.868   3.924   4.602
 4674SOL    HW214919   2.874   3.884   4.760
 4675SOL     OW14920   3.571   4.109   5.105
 4675SOL    HW114921   3.644   4.178   5.109
 4675SOL    HW214922   3.599   4.034   5.046
 4676SOL     OW14923   2.117   5.072   4.014
 4676SOL    HW114924   2.021   5.073   3.987
 4676SOL    HW214925   2.129   5.125   4.098
 4677SOL     OW14926   1.967   4.737   5.450
 4677SOL    HW114927   1.890   4.704   5.504
 4677SOL    HW214928   2.052   4.707   5.492
 4678SOL     OW14929   2.534   3.927   5.213
 4678SOL    HW114930   2.624   3.911   5.173
 4678SOL    HW214931   2.542   3.932   5.312
 4679SOL     OW14932   1.937   4.069   3.757
 4679SOL    HW114933   1.845   4.041   3.728
 4679SOL    HW214934   1.968   4.146   3.701
 4680SOL     OW14935   3.302   4.580   5.122
 4680SOL    HW114936   3.245   4.632   5.059
 4680SOL    HW214937   3.398   4.592   5.098
 4681SOL     OW14938   1.934   3.890   4.042
 4681SOL    HW114939   1.917   3.973   3.988
 4681SOL    HW214940   2.024   3.853   4.020
 4682SOL     OW14941   3.045   5.059   3.843
 4682SOL    HW114942   2.946   5.048   3.845
 4682SOL    HW214943   3.079   5.074   3.936
 4683SOL     OW14944   2.475   4.566   5.155
 4683SOL    HW114945   2.531   4.647   5.138
 4683SOL    HW214946   2.534   4.486   5.158
 4684SOL     OW14947   2.578   4.289   5.432
 4684SOL    HW114948   2.597   4.354   5.506
 4684SOL    HW214949   2.638   4.209   5.441
 4685SOL     OW14950   3.312   4.944   5.357
 4685SOL    HW114951   3.303   4.934   5.456
 4685SOL    HW214952   3.408   4.937   5.331
 4686SOL     OW14953   3.536   4.607   4.978
 4686SOL    HW114954   3.509   4.518   4.941
 4686SOL    HW214955   3.537   4.675   4.905
 4687SOL     OW14956   3.087   4.049   4.173
 4687SOL    HW114957   3.152   3.975   4.162
 4687SOL    HW214958   3.107   4.099   4.257
 4688SOL     OW14959   2.456   4.469   4.376
 4688SOL    HW114960   2.506   4.554   4.357
 4688SOL    HW214961   2.368   4.471   4.328
 4689SOL     OW14962   3.639   4.066   5.366
 4689SOL    HW114963   3.622   4.097   5.272
 4689SOL    HW214964   3.555   4.029   5.404
 4690SOL     OW14965   3.592   4.658   5.241
 4690SOL    HW114966   3.630   4.749   5.256
 4690SOL    HW214967   3.584   4.641   5.142
 4691SOL     OW14968   2.721   5.098   3.740
 4691SOL    HW114969   2.675   5.113   3.828
 4691SOL    HW214970   2.765   5.183   3.710
 4692SOL     OW14971   2.721   4.680   4.585
 4692SOL    HW114972   2.775   4.611   4.633
 4692SOL    HW214973   2.689   4.749   4.651
 4693SOL     OW14974   2.945   4.708   3.811
 4693SOL    HW114975   2.922   4.761   3.729
 4693SOL    HW214976   3.026   4.652   3.792
 4694SOL     OW14977   2.083   5.038   5.568
 4694SOL    HW114978   2.018   4.965   5.547
 4694SOL    HW214979   2.087   5.052   5.666
 4695SOL     OW14980   1.941   4.964   4.377
 4695SOL    HW114981   1.940   4.917   4.465
 4695SOL    HW214982   2.023   4.936   4.326
 4696SOL     OW14983   2.534   5.115   5.348
 4696SOL    HW114984   2.456   5.065   5.386
 4696SOL    HW214985   2.531   5.210   5.379
 4697SOL     OW14986   3.686   3.916   4.951
 4697SOL    HW114987   3.682   3.826   4.995
 4697SOL    HW214988   3.689   3.905   4.852
 4698SOL     OW14989   2.290   4.148   4.244
 4698SOL    HW114990   2.320   4.076   4.182
 4698SOL    HW214991   2.251   4.108   4.327
 4699SOL     OW14992   3.567   5.211   4.828
 4699SOL    HW114993   3.474   5.186   4.801
 4699SOL    HW214994   3.593   5.161   4.910
 4700SOL     OW14995   2.179   4.271   5.004
 4700SOL    HW114996   2.217   4.212   5.076
 4700SOL    HW214997   2.219   4.245   4.916
 4701SOL     OW14998   3.286   3.938   4.836
 4701SOL    HW114999   3.338   3.873   4.891
 4701SOL    HW215000   3.237   4.001   4.897
 4702SOL     OW15001   2.863   3.758   4.878
 4702SOL    HW115002   2.800   3.686   4.847
 4702SOL    HW215003   2.956   3.722   4.878
 4703SOL     OW15004   2.632   5.054   4.025
 4703SOL    HW115005   2.586   4.967   4.042
 4703SOL    HW215006   2.723   5.051   4.066
 4704SOL     OW15007   2.480   5.291   5.008
 4704SOL    HW115008   2.475   5.373   5.065
 4704SOL    HW215009   2.569   5.288   4.963
 4705SOL     OW15010   3.214   3.776   3.892
 4705SOL    HW115011   3.249   3.735   3.808
 4705SOL    HW215012   3.124   3.738   3.912
 4706SOL     OW15013   3.162   4.177   4.415
 4706SOL    HW115014   3.103   4.257   4.419
 4706SOL    HW215015   3.177   4.142   4.508
 4707SOL     OW15016   3.455   3.945   4.606
 4707SOL    HW115017   3.371   3.944   4.660
 4707SOL    HW215018   3.457   4.028   4.550
 4708SOL     OW15019   1.901   4.801   4.024
 4708SOL    HW115020   2.000   4.790   4.015
 4708SOL    HW215021   1.861   4.715   4.056
 4709SOL     OW15022   2.092   4.352   5.699
 4709SOL    HW115023   1.999   4.350   5.736
 4709SOL    HW215024   2.093   4.313   5.607
 4710SOL     OW15025   2.087   3.999   6.582
 4710SOL    HW115026   2.122   3.982   6.674
 4710SOL    HW215027   1.999   3.954   6.570
 4711SOL     OW15028   1.881   4.092   6.233
 4711SOL    HW115029   1.799   4.135   6.272
 4711SOL    HW215030   1.853   4.019   6.170
 4712SOL     OW15031   2.431   4.999   6.751
 4712SOL    HW115032   2.338   4.992   6.714
 4712SOL    HW215033   2.442   5.088   6.795
 4713SOL     OW15034   3.417   5.235   6.289
 4713SOL    HW115035   3.360   5.219   6.370
 4713SOL    HW215036   3.358   5.245   6.209
 4714SOL     OW15037   2.997   4.427   6.303
 4714SOL    HW115038   3.054   4.505   6.278
 4714SOL    HW215039   2.937   4.453   6.379
 4715SOL     OW15040   3.617   4.331   5.817
 4715SOL    HW115041   3.605   4.318   5.718
 4715SOL    HW215042   3.587   4.250   5.866
 4716SOL     OW15043   2.630   4.868   6.609
 4716SOL    HW115044   2.552   4.885   6.669
 4716SOL    HW215045   2.664   4.955   6.573
 4717SOL     OW15046   2.712   4.522   7.409
 4717SOL    HW115047   2.708   4.598   7.474
 4717SOL    HW215048   2.734   4.558   7.318
 4718SOL     OW15049   2.547   4.736   6.251
 4718SOL    HW115050   2.616   4.720   6.321
 4718SOL    HW215051   2.474   4.793   6.289
 4719SOL     OW15052   2.548   4.885   7.389
 4719SOL    HW115053   2.608   4.964   7.403
 4719SOL    HW215054   2.462   4.916   7.348
 4720SOL     OW15055   2.197   5.159   6.647
 4720SOL    HW115056   2.119   5.128   6.594
 4720SOL    HW215057   2.255   5.217   6.590
 4721SOL     OW15058   3.322   5.229   6.925
 4721SOL    HW115059   3.346   5.323   6.951
 4721SOL    HW215060   3.306   5.175   7.007
 4722SOL     OW15061   2.300   4.116   7.085
 4722SOL    HW115062   2.382   4.060   7.094
 4722SOL    HW215063   2.219   4.058   7.089
 4723SOL     OW15064   3.465   4.171   6.323
 4723SOL    HW115065   3.391   4.217   6.273
 4723SOL    HW215066   3.516   4.239   6.376
 4724SOL     OW15067   2.989   5.065   7.276
 4724SOL    HW115068   3.036   5.065   7.364
 4724SOL    HW215069   2.941   4.978   7.265
 4725SOL     OW15070   2.092   5.158   6.124
 4725SOL    HW115071   2.066   5.254   6.124
 4725SOL    HW215072   2.021   5.104   6.169
 4726SOL     OW15073   2.102   4.815   6.472
 4726SOL    HW115074   2.116   4.731   6.524
 4726SOL    HW215075   2.047   4.879   6.527
 4727SOL     OW15076   2.468   4.688   5.709
 4727SOL    HW115077   2.475   4.772   5.655
 4727SOL    HW215078   2.514   4.701   5.797
 4728SOL     OW15079   3.456   3.838   7.066
 4728SOL    HW115080   3.438   3.905   6.994
 4728SOL    HW215081   3.453   3.884   7.155
 4729SOL     OW15082   1.984   4.367   6.149
 4729SOL    HW115083   1.939   4.279   6.166
 4729SOL    HW215084   1.983   4.421   6.233
 4730SOL     OW15085   1.889   5.320   5.703
 4730SOL    HW115086   1.870   5.224   5.724
 4730SOL    HW215087   1.856   5.378   5.778
 4731SOL     OW15088   3.551   4.646   6.198
 4731SOL    HW115089   3.646   4.617   6.206
 4731SOL    HW215090   3.543   4.711   6.123
 4732SOL     OW15091   3.503   4.832   6.018
 4732SOL    HW115092   3.589   4.834   5.966
 4732SOL    HW215093   3.517   4.879   6.106
 4733SOL     OW15094   1.975   4.461   7.183
 4733SOL    HW115095   2.063   4.448   7.228
 4733SOL    HW215096   1.962   4.558   7.161
 4734SOL     OW15097   2.475   5.089   6.312
 4734SOL    HW115098   2.426   5.002   6.321
 4734SOL    HW215099   2.452   5.132   6.225
 4735SOL     OW15100   3.155   4.952   7.009
 4735SOL    HW115101   3.192   4.879   6.951
 4735SOL    HW215102   3.207   4.957   7.094
 4736SOL     OW15103   2.671   3.728   6.088
 4736SOL    HW115104   2.711   3.819   6.079
 4736SOL    HW215105   2.571   3.736   6.094
 4737SOL     OW15106   2.059   4.700   6.850
 4737SOL    HW115107   2.148   4.655   6.836
 4737SOL    HW215108   1.986   4.635   6.831
 4738SOL     OW15109   3.387   4.723   5.776
 4738SOL    HW115110   3.324   4.647   5.789
 4738SOL    HW215111   3.435   4.741   5.862
 4739SOL     OW15112   2.179   3.975   7.387
 4739SOL    HW115113   2.250   4.046   7.393
 4739SOL    HW215114   2.091   4.014   7.415
 4740SOL     OW15115   3.328   5.141   6.539
 4740SOL    HW115116   3.269   5.147   6.619
 4740SOL    HW215117   3.313   5.053   6.493
 4741SOL     OW15118   2.460   4.453   5.856
 4741SOL    HW115119   2.484   4.522   5.788
 4741SOL    HW215120   2.382   4.486   5.910
 4742SOL     OW15121   3.143   4.069   6.530
 4742SOL    HW115122   3.057   4.019   6.517
 4742SOL    HW215123   3.205   4.015   6.586
 4743SOL     OW15124   2.669   4.329   7.051
 4743SOL    HW115125   2.622   4.326   7.140
 4743SOL    HW215126   2.618   4.274   6.985
 4744SOL     OW15127   3.256   4.193   7.260
 4744SOL    HW115128   3.236   4.236   7.348
 4744SOL    HW215129   3.334   4.131   7.269
 4745SOL     OW15130   2.835   4.614   7.158
 4745SOL    HW115131   2.881   4.530   7.129
 4745SOL    HW215132   2.779   4.648   7.083
 4746SOL     OW15133   2.853   4.134   6.828
 4746SOL    HW115134   2.776   4.168   6.882
 4746SOL    HW215135   2.819   4.083   6.749
 4747SOL     OW15136   2.903   4.425   6.015
 4747SOL    HW115137   2.929   4.421   6.111
 4747SOL    HW215138   2.818   4.374   6.001
 4748SOL     OW15139   1.938   4.535   6.375
 4748SOL    HW115140   2.037   4.523   6.384
 4748SOL    HW215141   1.914   4.630   6.396
 4749SOL     OW15142   2.727   4.072   5.781
 4749SOL    HW115143   2.786   4.135   5.732
 4749SOL    HW215144   2.746   3.978   5.752
 4750SOL     OW15145   3.581   4.309   7.417
 4750SOL    HW115146   3.555   4.398   7.381
 4750SOL    HW215147   3.579   4.241   7.344
 4751SOL     OW15148   3.224   4.868   6.131
 4751SOL    HW115149   3.307   4.839   6.083
 4751SOL    HW215150   3.175   4.935   6.075
 4752SOL     OW15151   2.412   3.920   6.471
 4752SOL    HW115152   2.407   3.915   6.571
 4752SOL    HW215153   2.414   4.016   6.442
 4753SOL     OW15154   2.870   5.180   6.063
 4753SOL    HW115155   2.824   5.252   6.011
 4753SOL    HW215156   2.866   5.200   6.161
 4754SOL     OW15157   3.657   4.790   6.459
 4754SOL    HW115158   3.595   4.775   6.383
 4754SOL    HW215159   3.605   4.801   6.544
 4755SOL     OW15160   3.089   5.274   7.092
 4755SOL    HW115161   3.095   5.197   7.156
 4755SOL    HW215162   3.037   5.248   7.012
 4756SOL     OW15163   2.183   4.667   5.828
 4756SOL    HW115164   2.265   4.706   5.786
 4756SOL    HW215165   2.156   4.585   5.779
 4757SOL     OW15166   3.320   4.459   6.314
 4757SOL    HW115167   3.315   4.394   6.389
 4757SOL    HW215168   3.400   4.518   6.327
 4758SOL     OW15169   2.323   4.990   7.313
 4758SOL    HW115170   2.273   4.991   7.227
 4758SOL    HW215171   2.260   4.972   7.389
 4759SOL     OW15172   2.973   5.500   5.823
 4759SOL    HW115173   2.913   5.438   5.873
 4759SOL    HW215174   3.004   5.456   5.738
 4760SOL     OW15175   2.064   4.009   7.084
 4760SOL    HW115176   1.984   4.069   7.071
 4760SOL    HW215177   2.054   3.960   7.170
 4761SOL     OW15178   3.494   5.101   5.667
 4761SOL    HW115179   3.462   5.195   5.657
 4761SOL    HW215180   3.418   5.038   5.655
 4762SOL     OW15181   3.262   3.831   6.012
 4762SOL    HW115182   3.238   3.794   5.922
 4762SOL    HW215183   3.361   3.847   6.016
 4763SOL     OW15184   2.244   4.424   6.066
 4763SOL    HW115185   2.289   4.334   6.063
 4763SOL    HW215186   2.150   4.413   6.099
 4764SOL     OW15187   3.409   3.946   7.315
 4764SOL    HW115188   3.404   3.983   7.407
 4764SOL    HW215189   3.337   3.877   7.303
 4765SOL     OW15190   2.476   3.846   5.703
 4765SOL    HW115191   2.574   3.824   5.710
 4765SOL    HW215192   2.445   3.829   5.610
 4766SOL     OW15193   2.643   3.988   7.335
 4766SOL    HW115194   2.710   3.927   7.378
 4766SOL    HW215195   2.570   4.007   7.400
 4767SOL     OW15196   3.213   4.314   7.019
 4767SOL    HW115197   3.241   4.271   7.104
 4767SOL    HW215198   3.238   4.410   7.020
 4768SOL     OW15199   2.665   5.126   6.510
 4768SOL    HW115200   2.755   5.140   6.468
 4768SOL    HW215201   2.594   5.128   6.439
 4769SOL     OW15202   2.784   4.227   6.485
 4769SOL    HW115203   2.759   4.218   6.389
 4769SOL    HW215204   2.832   4.145   6.516
 4770SOL     OW15205   2.401   3.788   6.098
 4770SOL    HW115206   2.320   3.789   6.156
 4770SOL    HW215207   2.404   3.871   6.043
 4771SOL     OW15208   3.296   4.912   5.627
 4771SOL    HW115209   3.328   4.836   5.684
 4771SOL    HW215210   3.204   4.939   5.657
 4772SOL     OW15211   2.159   3.759   5.757
 4772SOL    HW115212   2.208   3.843   5.736
 4772SOL    HW215213   2.221   3.694   5.802
 4773SOL     OW15214   2.797   3.960   6.066
 4773SOL    HW115215   2.749   4.001   5.988
 4773SOL    HW215216   2.896   3.958   6.047
 4774SOL     OW15217   2.938   4.407   7.050
 4774SOL    HW115218   2.858   4.346   7.053
 4774SOL    HW215219   3.019   4.354   7.026
 4775SOL     OW15220   3.089   5.294   6.379
 4775SOL    HW115221   3.110   5.368   6.314
 4775SOL    HW215222   3.157   5.294   6.452
 4776SOL     OW15223   2.321   4.876   6.327
 4776SOL    HW115224   2.250   4.849   6.392
 4776SOL    HW215225   2.295   4.848   6.234
 4777SOL     OW15226   2.894   4.273   5.602
 4777SOL    HW115227   2.853   4.355   5.563
 4777SOL    HW215228   2.958   4.299   5.675
 4778SOL     OW15229   1.940   4.280   6.972
 4778SOL    HW115230   2.032   4.279   6.931
 4778SOL    HW215231   1.934   4.354   7.039
 4779SOL     OW15232   2.423   3.946   6.733
 4779SOL    HW115233   2.461   3.862   6.770
 4779SOL    HW215234   2.335   3.965   6.777
 4780SOL     OW15235   2.728   4.178   6.228
 4780SOL    HW115236   2.696   4.250   6.166
 4780SOL    HW215237   2.752   4.097   6.175
 4781SOL     OW15238   2.879   3.763   6.339
 4781SOL    HW115239   2.807   3.768   6.270
 4781SOL    HW215240   2.855   3.694   6.408
 4782SOL     OW15241   3.291   4.897   6.453
 4782SOL    HW115242   3.236   4.813   6.446
 4782SOL    HW215243   3.317   4.926   6.361
 4783SOL     OW15244   3.328   4.314   6.578
 4783SOL    HW115245   3.298   4.219   6.585
 4783SOL    HW215246   3.401   4.330   6.644
 4784SOL     OW15247   3.719   4.557   5.963
 4784SOL    HW115248   3.761   4.493   6.027
 4784SOL    HW215249   3.681   4.506   5.885
 4785SOL     OW15250   2.350   5.109   5.760
 4785SOL    HW115251   2.263   5.094   5.807
 4785SOL    HW215252   2.333   5.135   5.665
 4786SOL     OW15253   3.526   5.004   6.243
 4786SOL    HW115254   3.625   5.012   6.257
 4786SOL    HW215255   3.481   5.088   6.274
 4787SOL     OW15256   3.252   4.299   5.664
 4787SOL    HW115257   3.198   4.278   5.745
 4787SOL    HW215258   3.343   4.258   5.673
 4788SOL     OW15259   2.389   3.980   5.914
 4788SOL    HW115260   2.416   3.921   5.839
 4788SOL    HW215261   2.389   4.075   5.883
 4789SOL     OW15262   3.616   4.947   7.174
 4789SOL    HW115263   3.707   4.908   7.161
 4789SOL    HW215264   3.624   5.043   7.198
 4790SOL     OW15265   2.926   5.071   6.926
 4790SOL    HW115266   2.846   5.048   6.981
 4790SOL    HW215267   3.009   5.045   6.975
 4791SOL     OW15268   2.973   4.919   6.686
 4791SOL    HW115269   2.933   4.963   6.767
 4791SOL    HW215270   2.932   4.956   6.603
 4792SOL     OW15271   3.500   4.823   6.665
 4792SOL    HW115272   3.505   4.904   6.724
 4792SOL    HW215273   3.414   4.825   6.614
 4793SOL     OW15274   2.777   3.813   6.988
 4793SOL    HW115275   2.802   3.793   6.893
 4793SOL    HW215276   2.849   3.869   7.030
 4794SOL     OW15277   2.842   4.840   7.305
 4794SOL    HW115278   2.743   4.846   7.315
 4794SOL    HW215279   2.865   4.760   7.249
 4795SOL     OW15280   2.567   4.774   5.954
 4795SOL    HW115281   2.553   4.781   6.053
 4795SOL    HW215282   2.651   4.723   5.936
 4796SOL     OW15283   2.272   4.537   6.837
 4796SOL    HW115284   2.358   4.549   6.887
 4796SOL    HW215285   2.230   4.450   6.864
 4797SOL     OW15286   3.136   4.110   6.848
 4797SOL    HW115287   3.157   4.184   6.912
 4797SOL    HW215288   3.047   4.127   6.805
 4798SOL     OW15289   2.229   4.824   6.087
 4798SOL    HW115290   2.222   4.907   6.031
 4798SOL    HW215291   2.233   4.744   6.027
 4799SOL     OW15292   2.428   4.261   6.451
 4799SOL    HW115293   2.440   4.327   6.377
 4799SOL    HW215294   2.474   4.295   6.534
 4800SOL     OW15295   3.114   5.072   5.974
 4800SOL    HW115296   3.164   5.149   6.014
 4800SOL    HW215297   3.019   5.074   6.006
 4801SOL     OW15298   3.134   5.169   6.728
 4801SOL    HW115299   3.181   5.182   6.815
 4801SOL    HW215300   3.068   5.095   6.737
 4802SOL     OW15301   3.444   4.363   6.058
 4802SOL    HW115302   3.413   4.424   6.131
 4802SOL    HW215303   3.494   4.415   5.989
 4803SOL     OW15304   2.216   5.234   6.915
 4803SOL    HW115305   2.195   5.190   6.828
 4803SOL    HW215306   2.313   5.260   6.918
 4804SOL     OW15307   2.264   4.475   7.184
 4804SOL    HW115308   2.332   4.530   7.137
 4804SOL    HW215309   2.304   4.387   7.211
 4805SOL     OW15310   3.449   4.503   7.256
 4805SOL    HW115311   3.357   4.541   7.251
 4805SOL    HW215312   3.509   4.550   7.191
 4806SOL     OW15313   2.875   3.829   7.356
 4806SOL    HW115314   2.881   3.914   7.304
 4806SOL    HW215315   2.907   3.753   7.299
 4807SOL     OW15316   2.366   3.774   7.326
 4807SOL    HW115317   2.324   3.717   7.256
 4807SOL    HW215318   2.300   3.843   7.358
 4808SOL     OW15319   2.435   4.594   6.615
 4808SOL    HW115320   2.479   4.683   6.606
 4808SOL    HW215321   2.372   4.594   6.692
 4809SOL     OW15322   3.222   4.586   6.631
 4809SOL    HW115323   3.147   4.586   6.565
 4809SOL    HW215324   3.259   4.494   6.640
 4810SOL     OW15325   3.071   4.249   5.861
 4810SOL    HW115326   3.084   4.165   5.915
 4810SOL    HW215327   3.042   4.323   5.921
 4811SOL     OW15328   2.169   3.937   6.817
 4811SOL    HW115329   2.146   3.974   6.907
 4811SOL    HW215330   2.139   3.842   6.811
 4812SOL     OW15331   1.899   5.034   6.868
 4812SOL    HW115332   1.952   4.985   6.936
 4812SOL    HW215333   1.921   5.132   6.873
 4813SOL     OW15334   2.594   4.358   6.650
 4813SOL    HW115335   2.653   4.332   6.574
 4813SOL    HW215336   2.566   4.454   6.639
 4814SOL     OW15337   3.590   4.659   7.440
 4814SOL    HW115338   3.544   4.652   7.351
 4814SOL    HW215339   3.528   4.703   7.506
 4815SOL     OW15340   2.169   3.787   6.204
 4815SOL    HW115341   2.158   3.881   6.237
 4815SOL    HW215342   2.164   3.724   6.281
 4816SOL     OW15343   3.484   4.091   5.960
 4816SOL    HW115344   3.486   4.015   6.024
 4816SOL    HW215345   3.436   4.168   6.000
 4817SOL     OW15346   2.885   4.490   6.552
 4817SOL    HW115347   2.900   4.511   6.648
 4817SOL    HW215348   2.855   4.395   6.543
 4818SOL     OW15349   3.721   5.242   7.191
 4818SOL    HW115350   3.735   5.269   7.096
 4818SOL    HW215351   3.804   5.264   7.244
 4819SOL     OW15352   2.212   4.622   7.390
 4819SOL    HW115353   2.288   4.666   7.438
 4819SOL    HW215354   2.247   4.575   7.308
 4820SOL     OW15355   3.402   3.998   5.711
 4820SOL    HW115356   3.341   3.923   5.734
 4820SOL    HW215357   3.424   4.050   5.794
 4821SOL     OW15358   3.165   4.562   5.628
 4821SOL    HW115359   3.199   4.469   5.643
 4821SOL    HW215360   3.183   4.589   5.533
 4822SOL     OW15361   2.930   5.057   6.435
 4822SOL    HW115362   2.937   4.973   6.380
 4822SOL    HW215363   2.992   5.126   6.399
 4823SOL     OW15364   2.181   4.534   6.535
 4823SOL    HW115365   2.274   4.570   6.540
 4823SOL    HW215366   2.175   4.449   6.587
 4824SOL     OW15367   2.201   4.233   6.592
 4824SOL    HW115368   2.149   4.150   6.575
 4824SOL    HW215369   2.278   4.238   6.528
 4825SOL     OW15370   3.000   4.104   7.264
 4825SOL    HW115371   2.955   4.167   7.328
 4825SOL    HW215372   3.093   4.135   7.247
 4826SOL     OW15373   3.022   3.931   7.063
 4826SOL    HW115374   3.022   3.995   7.140
 4826SOL    HW215375   3.050   3.979   6.980
 4827SOL     OW15376   1.870   5.050   5.786
 4827SOL    HW115377   1.777   5.071   5.755
 4827SOL    HW215378   1.880   4.951   5.799
 4828SOL     OW15379   2.864   4.520   6.824
 4828SOL    HW115380   2.905   4.488   6.910
 4828SOL    HW215381   2.768   4.493   6.821
 4829SOL     OW15382   1.902   4.268   6.700
 4829SOL    HW115383   1.987   4.235   6.659
 4829SOL    HW215384   1.915   4.283   6.798
 4830SOL     OW15385   2.051   4.244   7.308
 4830SOL    HW115386   2.110   4.204   7.238
 4830SOL    HW215387   1.993   4.315   7.267
 4831SOL     OW15388   3.231   4.674   7.246
 4831SOL    HW115389   3.270   4.763   7.266
 4831SOL    HW215390   3.241   4.654   7.149
 4832SOL     OW15391   2.677   4.296   5.911
 4832SOL    HW115392   2.684   4.207   5.865
 4832SOL    HW215393   2.583   4.330   5.903
 4833SOL     OW15394   3.519   4.328   6.792
 4833SOL    HW115395   3.481   4.259   6.854
 4833SOL    HW215396   3.601   4.292   6.748
 4834SOL     OW15397   2.114   5.288   7.330
 4834SOL    HW115398   2.084   5.345   7.406
 4834SOL    HW215399   2.107   5.191   7.356
 4835SOL     OW15400   2.533   4.188   6.855
 4835SOL    HW115401   2.499   4.099   6.825
 4835SOL    HW215402   2.559   4.242   6.775
 4836SOL     OW15403   2.335   4.224   5.777
 4836SOL    HW115404   2.396   4.304   5.781
 4836SOL    HW215405   2.240   4.255   5.784
 4837SOL     OW15406   2.021   4.861   7.052
 4837SOL    HW115407   2.043   4.800   7.128
 4837SOL    HW215408   2.031   4.812   6.966
 4838SOL     OW15409   3.209   4.783   6.820
 4838SOL    HW115410   3.233   4.720   6.746
 4838SOL    HW215411   3.119   4.823   6.802
 4839SOL     OW15412   3.164   4.579   5.895
 4839SOL    HW115413   3.078   4.548   5.937
 4839SOL    HW215414   3.160   4.565   5.796
 4840SOL     OW15415   1.945   4.982   6.608
 4840SOL    HW115416   1.940   4.981   6.708
 4840SOL    HW215417   1.862   4.941   6.570
 4841SOL     OW15418   2.550   5.386   7.302
 4841SOL    HW115419   2.494   5.467   7.311
 4841SOL    HW215420   2.602   5.390   7.216
 4842SOL     OW15421   3.588   3.859   6.109
 4842SOL    HW115422   3.661   3.842   6.042
 4842SOL    HW215423   3.557   3.772   6.147
 4843SOL     OW15424   3.142   4.651   6.258
 4843SOL    HW115425   3.202   4.570   6.260
 4843SOL    HW215426   3.182   4.720   6.198
 4844SOL     OW15427   2.692   4.997   7.008
 4844SOL    HW115428   2.687   5.030   7.103
 4844SOL    HW215429   2.606   5.016   6.962
 4845SOL     OW15430   3.703   3.899   6.549
 4845SOL    HW115431   3.742   3.814   6.513
 4845SOL    HW215432   3.605   3.901   6.530
 4846SOL     OW15433   2.125   4.050   6.306
 4846SOL    HW115434   2.046   4.101   6.272
 4846SOL    HW215435   2.116   4.035   6.404
 4847SOL     OW15436   2.684   4.726   6.958
 4847SOL    HW115437   2.724   4.725   6.866
 4847SOL    HW215438   2.694   4.818   6.998
 4848SOL     OW15439   2.778   4.634   5.877
 4848SOL    HW115440   2.841   4.672   5.809
 4848SOL    HW215441   2.818   4.551   5.916
 4849SOL     OW15442   2.234   5.012   7.076
 4849SOL    HW115443   2.221   5.105   7.042
 4849SOL    HW215444   2.150   4.960   7.063
 4850SOL     OW15445   3.476   5.016   6.875
 4850SOL    HW115446   3.536   5.019   6.955
 4850SOL    HW215447   3.401   5.080   6.888
 4851SOL     OW15448   2.901   4.822   6.282
 4851SOL    HW115449   2.831   4.775   6.336
 4851SOL    HW215450   2.960   4.754   6.239
 4852SOL     OW15451   2.876   3.960   6.557
 4852SOL    HW115452   2.868   3.924   6.464
 4852SOL    HW215453   2.874   3.884   6.622
 4853SOL     OW15454   3.571   4.109   6.967
 4853SOL    HW115455   3.644   4.178   6.971
 4853SOL    HW215456   3.599   4.034   6.908
 4854SOL     OW15457   2.117   5.072   5.876
 4854SOL    HW115458   2.021   5.073   5.849
 4854SOL    HW215459   2.129   5.125   5.960
 4855SOL     OW15460   1.967   4.737   7.312
 4855SOL    HW115461   1.890   4.704   7.366
 4855SOL    HW215462   2.052   4.707   7.354
 4856SOL     OW15463   2.534   3.927   7.075
 4856SOL    HW115464   2.624   3.911   7.035
 4856SOL    HW215465   2.542   3.932   7.174
 4857SOL     OW15466   1.937   4.069   5.619
 4857SOL    HW115467   1.845   4.041   5.590
 4857SOL    HW215468   1.968   4.146   5.563
 4858SOL     OW15469   3.302   4.580   6.984
 4858SOL    HW115470   3.245   4.632   6.921
 4858SOL    HW215471   3.398   4.592   6.960
 4859SOL     OW15472   1.934   3.890   5.904
 4859SOL    HW115473   1.917   3.973   5.850
 4859SOL    HW215474   2.024   3.853   5.882
 4860SOL     OW15475   3.045   5.059   5.705
 4860SOL    HW115476   2.946   5.048   5.707
 4860SOL    HW215477   3.079   5.074   5.798
 4861SOL     OW15478   2.475   4.566   7.017
 4861SOL    HW115479   2.531   4.647   7.000
 4861SOL    HW215480   2.534   4.486   7.020
 4862SOL     OW15481   2.578   4.289   7.294
 4862SOL    HW115482   2.597   4.354   7.368
 4862SOL    HW215483   2.638   4.209   7.303
 4863SOL     OW15484   3.312   4.944   7.219
 4863SOL    HW115485   3.303   4.934   7.318
 4863SOL    HW215486   3.408   4.937   7.193
 4864SOL     OW15487   3.536   4.607   6.840
 4864SOL    HW115488   3.509   4.518   6.803
 4864SOL    HW215489   3.537   4.675   6.767
 4865SOL     OW15490   3.087   4.049   6.035
 4865SOL    HW115491   3.152   3.975   6.024
 4865SOL    HW215492   3.107   4.099   6.119
 4866SOL     OW15493   2.456   4.469   6.238
 4866SOL    HW115494   2.506   4.554   6.219
 4866SOL    HW215495   2.368   4.471   6.190
 4867SOL     OW15496   3.639   4.066   7.228
 4867SOL    HW115497   3.622   4.097   7.134
 4867SOL    HW215498   3.555   4.029   7.266
 4868SOL     OW15499   3.592   4.658   7.103
 4868SOL    HW115500   3.630   4.749   7.118
 4868SOL    HW215501   3.584   4.641   7.004
 4869SOL     OW15502   2.721   5.098   5.602
 4869SOL    HW115503   2.675   5.113   5.690
 4869SOL    HW215504   2.765   5.183   5.572
 4870SOL     OW15505   2.721   4.680   6.447
 4870SOL    HW115506   2.775   4.611   6.495
 4870SOL    HW215507   2.689   4.749   6.513
 4871SOL     OW15508   2.945   4.708   5.673
 4871SOL    HW115509   2.922   4.761   5.591
 4871SOL    HW215510   3.026   4.652   5.654
 4872SOL     OW15511   2.083   5.038   7.430
 4872SOL    HW115512   2.018   4.965   7.409
 4872SOL    HW215513   2.087   5.052   7.528
 4873SOL     OW15514   1.941   4.964   6.239
 4873SOL    HW115515   1.940   4.917   6.327
 4873SOL    HW215516   2.023   4.936   6.188
 4874SOL     OW15517   2.534   5.115   7.210
 4874SOL    HW115518   2.456   5.065   7.248
 4874SOL    HW215519   2.531   5.210   7.241
 4875SOL     OW15520   3.686   3.916   6.813
 4875SOL    HW115521   3.682   3.826   6.857
 4875SOL    HW215522   3.689   3.905   6.714
 4876SOL     OW15523   2.290   4.148   6.106
 4876SOL    HW115524   2.320   4.076   6.044
 4876SOL    HW215525   2.251   4.108   6.189
 4877SOL     OW15526   3.567   5.211   6.690
 4877SOL    HW115527   3.474   5.186   6.663
 4877SOL    HW215528   3.593   5.161   6.772
 4878SOL     OW15529   2.179   4.271   6.866
 4878SOL    HW115530   2.217   4.212   6.938
 4878SOL    HW215531   2.219   4.245   6.778
 4879SOL     OW15532   3.286   3.938   6.698
 4879SOL    HW115533   3.338   3.873   6.753
 4879SOL    HW215534   3.237   4.001   6.759
 4880SOL     OW15535   2.863   3.758   6.740
 4880SOL    HW115536   2.800   3.686   6.709
 4880SOL    HW215537   2.956   3.722   6.740
 4881SOL     OW15538   2.632   5.054   5.887
 4881SOL    HW115539   2.586   4.967   5.904
 4881SOL    HW215540   2.723   5.051   5.928
 4882SOL     OW15541   2.480   5.291   6.870
 4882SOL    HW115542   2.475   5.373   6.927
 4882SOL    HW215543   2.569   5.288   6.825
 4883SOL     OW15544   3.214   3.776   5.754
 4883SOL    HW115545   3.249   3.735   5.670
 4883SOL    HW215546   3.124   3.738   5.774
 4884SOL     OW15547   3.162   4.177   6.277
 4884SOL    HW115548   3.103   4.257   6.281
 4884SOL    HW215549   3.177   4.142   6.370
 4885SOL     OW15550   3.455   3.945   6.468
 4885SOL    HW115551   3.371   3.944   6.522
 4885SOL    HW215552   3.457   4.028   6.412
 4886SOL     OW15553   1.901   4.801   5.886
 4886SOL    HW115554   2.000   4.790   5.877
 4886SOL    HW215555   1.861   4.715   5.918
 4887SOL     OW15556   2.092   4.352   7.561
 4887SOL    HW115557   1.999   4.350   7.598
 4887SOL    HW215558   2.093   4.313   7.469
 4888SOL     OW15559   3.617   4.331   7.679
 4888SOL    HW115560   3.605   4.318   7.580
 4888SOL    HW215561   3.587   4.250   7.728
 4889SOL     OW15562   2.093   5.437   7.931
 4889SOL    HW115563   2.127   5.514   7.985
 4889SOL    HW215564   2.137   5.437   7.841
 4890SOL     OW15565   2.092   5.158   7.986
 4890SOL    HW115566   2.066   5.254   7.986
 4890SOL    HW215567   2.021   5.104   8.031
 4891SOL     OW15568   2.468   4.688   7.571
 4891SOL    HW115569   2.475   4.772   7.517
 4891SOL    HW215570   2.514   4.701   7.659
 4892SOL     OW15571   1.889   5.320   7.565
 4892SOL    HW115572   1.870   5.224   7.586
 4892SOL    HW215573   1.856   5.378   7.640
 4893SOL     OW15574   3.551   4.646   8.060
 4893SOL    HW115575   3.646   4.617   8.068
 4893SOL    HW215576   3.543   4.711   7.985
 4894SOL     OW15577   3.503   4.832   7.880
 4894SOL    HW115578   3.589   4.834   7.828
 4894SOL    HW215579   3.517   4.879   7.968
 4895SOL     OW15580   2.671   3.728   7.950
 4895SOL    HW115581   2.711   3.819   7.941
 4895SOL    HW215582   2.571   3.736   7.956
 4896SOL     OW15583   3.387   4.723   7.638
 4896SOL    HW115584   3.324   4.647   7.651
 4896SOL    HW215585   3.435   4.741   7.724
 4897SOL     OW15586   2.460   4.453   7.718
 4897SOL    HW115587   2.484   4.522   7.650
 4897SOL    HW215588   2.382   4.486   7.772
 4898SOL     OW15589   1.938   4.535   8.237
 4898SOL    HW115590   2.037   4.523   8.246
 4898SOL    HW215591   1.914   4.630   8.258
 4899SOL     OW15592   2.727   4.072   7.643
 4899SOL    HW115593   2.786   4.135   7.594
 4899SOL    HW215594   2.746   3.978   7.614
 4900SOL     OW15595   2.183   4.667   7.690
 4900SOL    HW115596   2.265   4.706   7.648
 4900SOL    HW215597   2.156   4.585   7.641
 4901SOL     OW15598   2.973   5.500   7.685
 4901SOL    HW115599   2.913   5.438   7.735
 4901SOL    HW215600   3.004   5.456   7.600
 4902SOL     OW15601   3.494   5.101   7.529
 4902SOL    HW115602   3.462   5.195   7.519
 4902SOL    HW215603   3.418   5.038   7.517
 4903SOL     OW15604   3.262   3.831   7.874
 4903SOL    HW115605   3.238   3.794   7.784
 4903SOL    HW215606   3.361   3.847   7.878
 4904SOL     OW15607   2.244   4.424   7.928
 4904SOL    HW115608   2.289   4.334   7.925
 4904SOL    HW215609   2.150   4.413   7.961
 4905SOL     OW15610   2.476   3.846   7.565
 4905SOL    HW115611   2.574   3.824   7.572
 4905SOL    HW215612   2.445   3.829   7.472
 4906SOL     OW15613   2.401   3.788   7.960
 4906SOL    HW115614   2.320   3.789   8.018
 4906SOL    HW215615   2.404   3.871   7.905
 4907SOL     OW15616   3.296   4.912   7.489
 4907SOL    HW115617   3.328   4.836   7.546
 4907SOL    HW215618   3.204   4.939   7.519
 4908SOL     OW15619   2.159   3.759   7.619
 4908SOL    HW115620   2.208   3.843   7.598
 4908SOL    HW215621   2.221   3.694   7.664
 4909SOL     OW15622   2.797   3.960   7.928
 4909SOL    HW115623   2.749   4.001   7.850
 4909SOL    HW215624   2.896   3.958   7.909
 4910SOL     OW15625   2.321   4.876   8.189
 4910SOL    HW115626   2.250   4.849   8.254
 4910SOL    HW215627   2.295   4.848   8.096
 4911SOL     OW15628   2.894   4.273   7.464
 4911SOL    HW115629   2.853   4.355   7.425
 4911SOL    HW215630   2.958   4.299   7.537
 4912SOL     OW15631   3.719   4.557   7.825
 4912SOL    HW115632   3.761   4.493   7.889
 4912SOL    HW215633   3.681   4.506   7.747
 4913SOL     OW15634   2.350   5.109   7.622
 4913SOL    HW115635   2.263   5.094   7.669
 4913SOL    HW215636   2.333   5.135   7.527
 4914SOL     OW15637   3.252   4.299   7.526
 4914SOL    HW115638   3.198   4.278   7.607
 4914SOL    HW215639   3.343   4.258   7.535
 4915SOL     OW15640   2.389   3.980   7.776
 4915SOL    HW115641   2.416   3.921   7.701
 4915SOL    HW215642   2.389   4.075   7.745
 4916SOL     OW15643   2.567   4.774   7.816
 4916SOL    HW115644   2.553   4.781   7.915
 4916SOL    HW215645   2.651   4.723   7.798
 4917SOL     OW15646   2.229   4.824   7.949
 4917SOL    HW115647   2.222   4.907   7.893
 4917SOL    HW215648   2.233   4.744   7.889
 4918SOL     OW15649   3.114   5.072   7.836
 4918SOL    HW115650   3.164   5.149   7.876
 4918SOL    HW215651   3.019   5.074   7.868
 4919SOL     OW15652   3.444   4.363   7.920
 4919SOL    HW115653   3.413   4.424   7.993
 4919SOL    HW215654   3.494   4.415   7.851
 4920SOL     OW15655   3.071   4.249   7.723
 4920SOL    HW115656   3.084   4.165   7.777
 4920SOL    HW215657   3.042   4.323   7.783
 4921SOL     OW15658   3.484   4.091   7.822
 4921SOL    HW115659   3.486   4.015   7.886
 4921SOL    HW215660   3.436   4.168   7.862
 4922SOL     OW15661   3.402   3.998   7.573
 4922SOL    HW115662   3.341   3.923   7.596
 4922SOL    HW215663   3.424   4.050   7.656
 4923SOL     OW15664   3.165   4.562   7.490
 4923SOL    HW115665   3.199   4.469   7.505
 4923SOL    HW215666   3.183   4.589   7.395
 4924SOL     OW15667   1.870   5.050   7.648
 4924SOL    HW115668   1.777   5.071   7.617
 4924SOL    HW215669   1.880   4.951   7.661
 4925SOL     OW15670   2.677   4.296   7.773
 4925SOL    HW115671   2.684   4.207   7.727
 4925SOL    HW215672   2.583   4.330   7.765
 4926SOL     OW15673   2.335   4.224   7.639
 4926SOL    HW115674   2.396   4.304   7.643
 4926SOL    HW215675   2.240   4.255   7.646
 4927SOL     OW15676   3.164   4.579   7.757
 4927SOL    HW115677   3.078   4.548   7.799
 4927SOL    HW215678   3.160   4.565   7.658
 4928SOL     OW15679   3.588   3.859   7.971
 4928SOL    HW115680   3.661   3.842   7.904
 4928SOL    HW215681   3.557   3.772   8.009
 4929SOL     OW15682   2.778   4.634   7.739
 4929SOL    HW115683   2.841   4.672   7.671
 4929SOL    HW215684   2.818   4.551   7.778
 4930SOL     OW15685   2.117   5.072   7.738
 4930SOL    HW115686   2.021   5.073   7.711
 4930SOL    HW215687   2.129   5.125   7.822
 4931SOL     OW15688   1.937   4.069   7.481
 4931SOL    HW115689   1.845   4.041   7.452
 4931SOL    HW215690   1.968   4.146   7.425
 4932SOL     OW15691   1.934   3.890   7.766
 4932SOL    HW115692   1.917   3.973   7.712
 4932SOL    HW215693   2.024   3.853   7.744
 4933SOL     OW15694   3.045   5.059   7.567
 4933SOL    HW115695   2.946   5.048   7.569
 4933SOL    HW215696   3.079   5.074   7.660
 4934SOL     OW15697   3.087   4.049   7.897
 4934SOL    HW115698   3.152   3.975   7.886
 4934SOL    HW215699   3.107   4.099   7.981
 4935SOL     OW15700   2.456   4.469   8.100
 4935SOL    HW115701   2.506   4.554   8.081
 4935SOL    HW215702   2.368   4.471   8.052
 4936SOL     OW15703   2.721   5.098   7.464
 4936SOL    HW115704   2.675   5.113   7.552
 4936SOL    HW215705   2.765   5.183   7.434
 4937SOL     OW15706   2.945   4.708   7.535
 4937SOL    HW115707   2.922   4.761   7.453
 4937SOL    HW215708   3.026   4.652   7.516
 4938SOL     OW15709   2.290   4.148   7.968
 4938SOL    HW115710   2.320   4.076   7.906
 4938SOL    HW215711   2.251   4.108   8.051
 4939SOL     OW15712   2.632   5.054   7.749
 4939SOL    HW115713   2.586   4.967   7.766
 4939SOL    HW215714   2.723   5.051   7.790
 4940SOL     OW15715   3.214   3.776   7.616
 4940SOL    HW115716   3.249   3.735   7.532
 4940SOL    HW215717   3.124   3.738   7.636
 4941SOL     OW15718   1.901   4.801   7.748
 4941SOL    HW115719   2.000   4.790   7.739
 4941SOL    HW215720   1.861   4.715   7.780
 4942SOL     OW15721   3.954   0.628   0.113
 4942SOL    HW115722   3.861   0.626   0.150
 4942SOL    HW215723   3.955   0.589   0.021
 4943SOL     OW15724   3.949   0.275   0.996
 4943SOL    HW115725   3.984   0.258   1.088
 4943SOL    HW215726   3.861   0.230   0.984
 4944SOL     OW15727   3.743   0.368   0.647
 4944SOL    HW115728   3.661   0.411   0.686
 4944SOL    HW215729   3.715   0.295   0.584
 4945SOL     OW15730   4.293   1.275   1.165
 4945SOL    HW115731   4.200   1.268   1.128
 4945SOL    HW215732   4.304   1.364   1.209
 4946SOL     OW15733   5.279   1.511   0.703
 4946SOL    HW115734   5.222   1.495   0.784
 4946SOL    HW215735   5.220   1.521   0.623
 4947SOL     OW15736   4.859   0.703   0.717
 4947SOL    HW115737   4.916   0.781   0.692
 4947SOL    HW215738   4.799   0.729   0.793
 4948SOL     OW15739   4.492   1.144   1.023
 4948SOL    HW115740   4.414   1.161   1.083
 4948SOL    HW215741   4.526   1.231   0.987
 4949SOL     OW15742   4.574   0.798   1.823
 4949SOL    HW115743   4.570   0.874   1.888
 4949SOL    HW215744   4.596   0.834   1.732
 4950SOL     OW15745   4.409   1.012   0.665
 4950SOL    HW115746   4.478   0.996   0.735
 4950SOL    HW215747   4.336   1.069   0.703
 4951SOL     OW15748   4.410   1.161   1.803
 4951SOL    HW115749   4.470   1.240   1.817
 4951SOL    HW215750   4.324   1.192   1.762
 4952SOL     OW15751   4.059   1.435   1.061
 4952SOL    HW115752   3.981   1.404   1.008
 4952SOL    HW215753   4.117   1.493   1.004
 4953SOL     OW15754   5.184   1.505   1.339
 4953SOL    HW115755   5.208   1.599   1.365
 4953SOL    HW215756   5.168   1.451   1.421
 4954SOL     OW15757   4.162   0.392   1.499
 4954SOL    HW115758   4.244   0.336   1.508
 4954SOL    HW215759   4.081   0.334   1.503
 4955SOL     OW15760   3.955   1.713   0.483
 4955SOL    HW115761   3.989   1.790   0.537
 4955SOL    HW215762   3.999   1.713   0.393
 4956SOL     OW15763   4.851   1.341   1.690
 4956SOL    HW115764   4.898   1.341   1.778
 4956SOL    HW215765   4.803   1.254   1.679
 4957SOL     OW15766   3.954   1.434   0.538
 4957SOL    HW115767   3.928   1.530   0.538
 4957SOL    HW215768   3.883   1.380   0.583
 4958SOL     OW15769   3.964   1.091   0.886
 4958SOL    HW115770   3.978   1.007   0.938
 4958SOL    HW215771   3.909   1.155   0.941
 4959SOL     OW15772   4.344   1.786   1.439
 4959SOL    HW115773   4.252   1.769   1.474
 4959SOL    HW215774   4.372   1.878   1.465
 4960SOL     OW15775   4.330   0.964   0.123
 4960SOL    HW115776   4.337   1.048   0.069
 4960SOL    HW215777   4.376   0.977   0.211
 4961SOL     OW15778   5.318   0.114   1.480
 4961SOL    HW115779   5.300   0.181   1.408
 4961SOL    HW215780   5.315   0.160   1.569
 4962SOL     OW15781   3.846   0.643   0.563
 4962SOL    HW115782   3.801   0.555   0.580
 4962SOL    HW215783   3.845   0.697   0.647
 4963SOL     OW15784   3.751   1.596   0.117
 4963SOL    HW115785   3.732   1.500   0.138
 4963SOL    HW215786   3.718   1.654   0.192
 4964SOL     OW15787   5.413   0.922   0.612
 4964SOL    HW115788   5.508   0.893   0.620
 4964SOL    HW215789   5.405   0.987   0.537
 4965SOL     OW15790   3.837   0.737   1.597
 4965SOL    HW115791   3.925   0.724   1.642
 4965SOL    HW215792   3.824   0.834   1.575
 4966SOL     OW15793   4.337   1.365   0.726
 4966SOL    HW115794   4.288   1.278   0.735
 4966SOL    HW215795   4.314   1.408   0.639
 4967SOL     OW15796   5.017   1.228   1.423
 4967SOL    HW115797   5.054   1.155   1.365
 4967SOL    HW215798   5.069   1.233   1.508
 4968SOL     OW15799   4.533   0.004   0.502
 4968SOL    HW115800   4.573   0.095   0.493
 4968SOL    HW215801   4.433   0.012   0.508
 4969SOL     OW15802   3.921   0.976   1.264
 4969SOL    HW115803   4.010   0.931   1.250
 4969SOL    HW215804   3.848   0.911   1.245
 4970SOL     OW15805   4.911   1.792   1.616
 4970SOL    HW115806   4.935   1.852   1.540
 4970SOL    HW215807   4.918   1.697   1.586
 4971SOL     OW15808   4.041   0.251   1.801
 4971SOL    HW115809   4.112   0.322   1.807
 4971SOL    HW215810   3.953   0.290   1.829
 4972SOL     OW15811   5.190   1.417   0.953
 4972SOL    HW115812   5.131   1.423   1.033
 4972SOL    HW215813   5.175   1.329   0.907
 4973SOL     OW15814   4.322   0.729   0.270
 4973SOL    HW115815   4.346   0.798   0.202
 4973SOL    HW215816   4.244   0.762   0.324
 4974SOL     OW15817   5.005   0.345   0.944
 4974SOL    HW115818   4.919   0.295   0.931
 4974SOL    HW215819   5.067   0.291   1.000
 4975SOL     OW15820   4.531   0.605   1.465
 4975SOL    HW115821   4.484   0.602   1.554
 4975SOL    HW215822   4.480   0.550   1.399
 4976SOL     OW15823   5.118   0.469   1.674
 4976SOL    HW115824   5.098   0.512   1.762
 4976SOL    HW215825   5.196   0.407   1.683
 4977SOL     OW15826   4.697   0.890   1.572
 4977SOL    HW115827   4.743   0.806   1.543
 4977SOL    HW215828   4.641   0.924   1.497
 4978SOL     OW15829   4.715   0.410   1.242
 4978SOL    HW115830   4.638   0.444   1.296
 4978SOL    HW215831   4.681   0.359   1.163
 4979SOL     OW15832   4.765   0.701   0.429
 4979SOL    HW115833   4.791   0.697   0.525
 4979SOL    HW215834   4.680   0.650   0.415
 4980SOL     OW15835   3.800   0.811   0.789
 4980SOL    HW115836   3.899   0.799   0.798
 4980SOL    HW215837   3.776   0.906   0.810
 4981SOL     OW15838   3.854   1.821   1.571
 4981SOL    HW115839   3.844   1.806   1.670
 4981SOL    HW215840   3.768   1.857   1.535
 4982SOL     OW15841   4.589   0.348   0.195
 4982SOL    HW115842   4.648   0.411   0.146
 4982SOL    HW215843   4.608   0.254   0.166
 4983SOL     OW15844   5.086   1.144   0.545
 4983SOL    HW115845   5.169   1.115   0.497
 4983SOL    HW215846   5.037   1.211   0.489
 4984SOL     OW15847   4.274   0.196   0.885
 4984SOL    HW115848   4.269   0.191   0.985
 4984SOL    HW215849   4.276   0.292   0.856
 4985SOL     OW15850   4.732   1.456   0.477
 4985SOL    HW115851   4.686   1.528   0.425
 4985SOL    HW215852   4.728   1.476   0.575
 4986SOL     OW15853   4.075   1.801   0.853
 4986SOL    HW115854   4.125   1.715   0.859
 4986SOL    HW215855   4.140   1.878   0.850
 4987SOL     OW15856   4.951   1.550   1.506
 4987SOL    HW115857   4.957   1.473   1.570
 4987SOL    HW215858   4.899   1.524   1.426
 4988SOL     OW15859   4.045   0.943   0.242
 4988SOL    HW115860   4.127   0.982   0.200
 4988SOL    HW215861   4.018   0.861   0.193
 4989SOL     OW15862   4.185   1.266   1.727
 4989SOL    HW115863   4.135   1.267   1.641
 4989SOL    HW215864   4.122   1.248   1.803
 4990SOL     OW15865   4.835   1.776   0.237
 4990SOL    HW115866   4.775   1.714   0.287
 4990SOL    HW215867   4.866   1.732   0.152
 4991SOL     OW15868   3.926   0.285   1.498
 4991SOL    HW115869   3.846   0.345   1.485
 4991SOL    HW215870   3.916   0.236   1.584
 4992SOL     OW15871   4.188   1.743   0.323
 4992SOL    HW115872   4.221   1.782   0.409
 4992SOL    HW215873   4.264   1.736   0.258
 4993SOL     OW15874   5.124   0.107   0.426
 4993SOL    HW115875   5.100   0.070   0.336
 4993SOL    HW215876   5.223   0.123   0.430
 4994SOL     OW15877   3.973   1.785   1.241
 4994SOL    HW115878   4.030   1.720   1.291
 4994SOL    HW215879   3.957   1.752   1.148
 4995SOL     OW15880   4.664   1.698   0.904
 4995SOL    HW115881   4.744   1.641   0.925
 4995SOL    HW215882   4.615   1.658   0.827
 4996SOL     OW15883   4.106   0.700   0.480
 4996SOL    HW115884   4.151   0.610   0.477
 4996SOL    HW215885   4.012   0.689   0.513
 4997SOL     OW15886   4.338   0.122   0.117
 4997SOL    HW115887   4.436   0.100   0.124
 4997SOL    HW215888   4.307   0.105   0.024
 4998SOL     OW15889   4.505   0.264   1.749
 4998SOL    HW115890   4.572   0.203   1.792
 4998SOL    HW215891   4.432   0.283   1.814
 4999SOL     OW15892   4.612   1.514   1.195
 4999SOL    HW115893   4.589   1.489   1.101
 4999SOL    HW215894   4.673   1.445   1.234
 5000SOL     OW15895   5.075   0.590   1.433
 5000SOL    HW115896   5.103   0.547   1.518
 5000SOL    HW215897   5.100   0.686   1.434
 5001SOL     OW15898   4.527   1.402   0.924
 5001SOL    HW115899   4.617   1.416   0.882
 5001SOL    HW215900   4.456   1.404   0.853
 5002SOL     OW15901   4.646   0.503   0.899
 5002SOL    HW115902   4.621   0.494   0.803
 5002SOL    HW215903   4.694   0.421   0.930
 5003SOL     OW15904   4.263   0.064   0.512
 5003SOL    HW115905   4.182   0.065   0.570
 5003SOL    HW215906   4.266   0.147   0.457
 5004SOL     OW15907   5.158   1.188   0.041
 5004SOL    HW115908   5.190   1.112   0.098
 5004SOL    HW215909   5.066   1.215   0.071
 5005SOL     OW15910   4.021   0.035   0.171
 5005SOL    HW115911   4.070   0.119   0.150
 5005SOL    HW215912   4.083  -0.030   0.216
 5006SOL     OW15913   4.659   0.236   0.480
 5006SOL    HW115914   4.611   0.277   0.402
 5006SOL    HW215915   4.758   0.234   0.461
 5007SOL     OW15916   4.800   0.683   1.464
 5007SOL    HW115917   4.720   0.622   1.467
 5007SOL    HW215918   4.881   0.630   1.440
 5008SOL     OW15919   4.951   1.570   0.793
 5008SOL    HW115920   4.972   1.644   0.728
 5008SOL    HW215921   5.019   1.570   0.866
 5009SOL     OW15922   4.183   1.152   0.741
 5009SOL    HW115923   4.112   1.125   0.806
 5009SOL    HW215924   4.157   1.124   0.648
 5010SOL     OW15925   4.995   1.797   0.591
 5010SOL    HW115926   5.039   1.861   0.527
 5010SOL    HW215927   4.945   1.849   0.661
 5011SOL     OW15928   4.756   0.549   0.016
 5011SOL    HW115929   4.715   0.631  -0.023
 5011SOL    HW215930   4.820   0.575   0.089
 5012SOL     OW15931   3.802   0.556   1.386
 5012SOL    HW115932   3.894   0.555   1.345
 5012SOL    HW215933   3.796   0.630   1.453
 5013SOL     OW15934   4.285   0.222   1.147
 5013SOL    HW115935   4.323   0.138   1.184
 5013SOL    HW215936   4.197   0.241   1.191
 5014SOL     OW15937   4.590   0.454   0.642
 5014SOL    HW115938   4.558   0.526   0.580
 5014SOL    HW215939   4.614   0.373   0.589
 5015SOL     OW15940   4.741   0.039   0.753
 5015SOL    HW115941   4.669   0.044   0.684
 5015SOL    HW215942   4.717  -0.030   0.822
 5016SOL     OW15943   5.153   1.173   0.867
 5016SOL    HW115944   5.098   1.089   0.860
 5016SOL    HW215945   5.179   1.202   0.775
 5017SOL     OW15946   4.212   1.385   0.174
 5017SOL    HW115947   4.125   1.370   0.221
 5017SOL    HW215948   4.195   1.411   0.079
 5018SOL     OW15949   5.114   0.575   0.078
 5018SOL    HW115950   5.060   0.554   0.159
 5018SOL    HW215951   5.205   0.534   0.087
 5019SOL     OW15952   4.251   0.256   0.328
 5019SOL    HW115953   4.278   0.197   0.253
 5019SOL    HW215954   4.251   0.351   0.297
 5020SOL     OW15955   4.788   1.347   1.340
 5020SOL    HW115956   4.708   1.324   1.395
 5020SOL    HW215957   4.871   1.321   1.389
 5021SOL     OW15958   5.316   1.629   1.625
 5021SOL    HW115959   5.343   1.663   1.535
 5021SOL    HW215960   5.395   1.591   1.671
 5022SOL     OW15961   4.835   1.195   1.100
 5022SOL    HW115962   4.795   1.239   1.181
 5022SOL    HW215963   4.794   1.232   1.017
 5023SOL     OW15964   4.639   0.089   1.402
 5023SOL    HW115965   4.664   0.069   1.307
 5023SOL    HW215966   4.711   0.145   1.444
 5024SOL     OW15967   4.704   1.116   1.719
 5024SOL    HW115968   4.605   1.122   1.729
 5024SOL    HW215969   4.727   1.036   1.663
 5025SOL     OW15970   4.429   1.050   0.368
 5025SOL    HW115971   4.415   1.057   0.467
 5025SOL    HW215972   4.513   0.999   0.350
 5026SOL     OW15973   4.134   0.813   1.251
 5026SOL    HW115974   4.220   0.825   1.301
 5026SOL    HW215975   4.092   0.726   1.278
 5027SOL     OW15976   4.998   0.386   1.262
 5027SOL    HW115977   5.019   0.460   1.326
 5027SOL    HW215978   4.909   0.403   1.219
 5028SOL     OW15979   3.788   1.564   1.331
 5028SOL    HW115980   3.742   1.646   1.297
 5028SOL    HW215981   3.886   1.583   1.340
 5029SOL     OW15982   4.091   1.100   0.501
 5029SOL    HW115983   4.084   1.183   0.445
 5029SOL    HW215984   4.095   1.020   0.441
 5030SOL     OW15985   4.290   0.537   0.865
 5030SOL    HW115986   4.302   0.603   0.791
 5030SOL    HW215987   4.336   0.571   0.948
 5031SOL     OW15988   4.976   1.348   0.388
 5031SOL    HW115989   5.026   1.425   0.428
 5031SOL    HW215990   4.881   1.350   0.420
 5032SOL     OW15991   4.996   1.445   1.142
 5032SOL    HW115992   5.043   1.458   1.229
 5032SOL    HW215993   4.930   1.371   1.151
 5033SOL     OW15994   4.078   1.510   1.329
 5033SOL    HW115995   4.057   1.466   1.242
 5033SOL    HW215996   4.175   1.536   1.332
 5034SOL     OW15997   4.126   0.751   1.598
 5034SOL    HW115998   4.194   0.806   1.551
 5034SOL    HW215999   4.166   0.663   1.625
 5035SOL     OW16000   4.737   0.105   1.770
 5035SOL    HW116001   4.743   0.190   1.718
 5035SOL    HW216002   4.769   0.029   1.713
 5036SOL     OW16003   4.228   0.050   1.740
 5036SOL    HW116004   4.186  -0.007   1.670
 5036SOL    HW216005   4.162   0.119   1.772
 5037SOL     OW16006   4.297   0.870   1.029
 5037SOL    HW116007   4.341   0.959   1.020
 5037SOL    HW216008   4.234   0.870   1.106
 5038SOL     OW16009   5.084   0.862   1.045
 5038SOL    HW116010   5.009   0.862   0.979
 5038SOL    HW216011   5.121   0.770   1.054
 5039SOL     OW16012   4.933   0.525   0.275
 5039SOL    HW116013   4.946   0.441   0.329
 5039SOL    HW216014   4.904   0.599   0.335
 5040SOL     OW16015   4.031   0.213   1.231
 5040SOL    HW116016   4.008   0.250   1.321
 5040SOL    HW216017   4.001   0.118   1.225
 5041SOL     OW16018   3.761   1.310   1.282
 5041SOL    HW116019   3.814   1.261   1.350
 5041SOL    HW216020   3.783   1.408   1.287
 5042SOL     OW16021   4.456   0.634   1.064
 5042SOL    HW116022   4.515   0.608   0.988
 5042SOL    HW216023   4.428   0.730   1.053
 5043SOL     OW16024   4.031   0.063   0.618
 5043SOL    HW116025   4.020   0.157   0.651
 5043SOL    HW216026   4.026   0.000   0.695
 5044SOL     OW16027   5.346   0.367   0.374
 5044SOL    HW116028   5.348   0.291   0.438
 5044SOL    HW216029   5.298   0.444   0.414
 5045SOL     OW16030   4.747   0.766   0.966
 5045SOL    HW116031   4.762   0.787   1.062
 5045SOL    HW216032   4.717   0.671   0.957
 5046SOL     OW16033   4.704   1.573   1.700
 5046SOL    HW116034   4.684   1.617   1.612
 5046SOL    HW216035   4.743   1.482   1.684
 5047SOL     OW16036   4.074   0.898   1.804
 5047SOL    HW116037   4.150   0.942   1.852
 5047SOL    HW216038   4.109   0.851   1.722
 5048SOL     OW16039   5.027   0.838   0.042
 5048SOL    HW116040   5.061   0.745   0.057
 5048SOL    HW216041   5.045   0.865  -0.053
 5049SOL     OW16042   4.792   1.333   0.849
 5049SOL    HW116043   4.799   1.249   0.794
 5049SOL    HW216044   4.854   1.402   0.813
 5050SOL     OW16045   4.043   0.810   0.949
 5050SOL    HW116046   4.136   0.846   0.954
 5050SOL    HW216047   4.037   0.725   1.001
 5051SOL     OW16048   4.063   0.509   1.006
 5051SOL    HW116049   4.011   0.426   0.989
 5051SOL    HW216050   4.140   0.514   0.942
 5052SOL     OW16051   4.862   0.380   1.678
 5052SOL    HW116052   4.817   0.443   1.742
 5052SOL    HW216053   4.955   0.411   1.661
 5053SOL     OW16054   4.884   0.207   1.477
 5053SOL    HW116055   4.884   0.271   1.554
 5053SOL    HW216056   4.912   0.255   1.394
 5054SOL     OW16057   3.732   1.326   0.200
 5054SOL    HW116058   3.639   1.347   0.169
 5054SOL    HW216059   3.742   1.227   0.213
 5055SOL     OW16060   3.812   1.801   0.927
 5055SOL    HW116061   3.770   1.715   0.900
 5055SOL    HW216062   3.906   1.804   0.893
 5056SOL     OW16063   4.228   1.568   0.910
 5056SOL    HW116064   4.294   1.642   0.919
 5056SOL    HW216065   4.272   1.489   0.868
 5057SOL     OW16066   4.726   0.796   1.238
 5057SOL    HW116067   4.767   0.764   1.324
 5057SOL    HW216068   4.630   0.769   1.235
 5058SOL     OW16069   3.764   0.544   1.114
 5058SOL    HW116070   3.849   0.511   1.073
 5058SOL    HW216071   3.777   0.559   1.212
 5059SOL     OW16072   3.913   0.520   1.722
 5059SOL    HW116073   3.972   0.480   1.652
 5059SOL    HW216074   3.855   0.591   1.681
 5060SOL     OW16075   5.093   0.950   1.660
 5060SOL    HW116076   5.132   1.039   1.680
 5060SOL    HW216077   5.103   0.930   1.563
 5061SOL     OW16078   4.539   0.572   0.325
 5061SOL    HW116079   4.546   0.483   0.279
 5061SOL    HW216080   4.445   0.606   0.317
 5062SOL     OW16081   3.976   1.564   1.744
 5062SOL    HW116082   3.946   1.621   1.820
 5062SOL    HW216083   3.969   1.467   1.770
 5063SOL     OW16084   4.395   0.464   1.269
 5063SOL    HW116085   4.361   0.375   1.239
 5063SOL    HW216086   4.421   0.518   1.189
 5064SOL     OW16087   4.654   1.678   1.465
 5064SOL    HW116088   4.630   1.660   1.370
 5064SOL    HW216089   4.684   1.772   1.475
 5065SOL     OW16090   4.197   0.500   0.191
 5065SOL    HW116091   4.258   0.580   0.195
 5065SOL    HW216092   4.102   0.531   0.198
 5066SOL     OW16093   3.883   1.137   1.466
 5066SOL    HW116094   3.905   1.076   1.542
 5066SOL    HW216095   3.893   1.088   1.380
 5067SOL     OW16096   5.071   1.059   1.234
 5067SOL    HW116097   5.095   0.996   1.160
 5067SOL    HW216098   4.981   1.099   1.216
 5068SOL     OW16099   5.026   0.855   0.309
 5068SOL    HW116100   4.940   0.824   0.351
 5068SOL    HW216101   5.022   0.841   0.210
 5069SOL     OW16102   4.976   1.731   1.128
 5069SOL    HW116103   5.060   1.736   1.074
 5069SOL    HW216104   4.953   1.635   1.146
 5070SOL     OW16105   3.807   1.258   1.022
 5070SOL    HW116106   3.802   1.257   1.122
 5070SOL    HW216107   3.724   1.217   0.984
 5071SOL     OW16108   4.412   1.662   1.716
 5071SOL    HW116109   4.356   1.743   1.725
 5071SOL    HW216110   4.464   1.666   1.630
 5072SOL     OW16111   4.627   0.086   0.133
 5072SOL    HW116112   4.678   0.087   0.047
 5072SOL    HW216113   4.683   0.044   0.204
 5073SOL     OW16114   5.112   1.573   0.477
 5073SOL    HW116115   5.179   1.585   0.403
 5073SOL    HW216116   5.072   1.662   0.500
 5074SOL     OW16117   3.854   1.794   1.851
 5074SOL    HW116118   3.813   1.720   1.904
 5074SOL    HW216119   3.918   1.845   1.909
 5075SOL     OW16120   5.004   0.927   0.672
 5075SOL    HW116121   5.064   0.846   0.674
 5075SOL    HW216122   5.044   0.996   0.612
 5076SOL     OW16123   4.554   1.273   1.422
 5076SOL    HW116124   4.549   1.306   1.517
 5076SOL    HW216125   4.468   1.292   1.376
 5077SOL     OW16126   4.396   1.616   0.154
 5077SOL    HW116127   4.405   1.626   0.055
 5077SOL    HW216128   4.356   1.527   0.175
 5078SOL     OW16129   3.987   0.326   0.720
 5078SOL    HW116130   3.908   0.377   0.686
 5078SOL    HW216131   3.978   0.311   0.818
 5079SOL     OW16132   4.918   1.612   0.031
 5079SOL    HW116133   4.924   1.519   0.068
 5079SOL    HW216134   4.859   1.612  -0.049
 5080SOL     OW16135   4.546   1.002   1.372
 5080SOL    HW116136   4.586   1.001   1.280
 5080SOL    HW216137   4.556   1.094   1.412
 5081SOL     OW16138   4.640   0.910   0.291
 5081SOL    HW116139   4.703   0.948   0.223
 5081SOL    HW216140   4.680   0.827   0.330
 5082SOL     OW16141   4.096   1.288   1.490
 5082SOL    HW116142   4.083   1.381   1.456
 5082SOL    HW216143   4.012   1.236   1.477
 5083SOL     OW16144   4.763   1.098   0.696
 5083SOL    HW116145   4.693   1.051   0.750
 5083SOL    HW216146   4.822   1.030   0.653
 5084SOL     OW16147   4.738   0.236   0.971
 5084SOL    HW116148   4.730   0.200   0.878
 5084SOL    HW216149   4.736   0.160   1.036
 5085SOL     OW16150   4.314   1.487   0.491
 5085SOL    HW116151   4.356   1.429   0.421
 5085SOL    HW216152   4.270   1.566   0.447
 5086SOL     OW16153   3.979   1.348   0.290
 5086SOL    HW116154   3.883   1.349   0.263
 5086SOL    HW216155   3.991   1.401   0.374
 5087SOL     OW16156   3.829   1.013   1.726
 5087SOL    HW116157   3.752   0.980   1.780
 5087SOL    HW216158   3.914   0.983   1.768
 5088SOL     OW16159   4.396   0.203   1.489
 5088SOL    HW116160   4.486   0.187   1.449
 5088SOL    HW216161   4.404   0.208   1.588
 5089SOL     OW16162   3.799   0.345   0.033
 5089SOL    HW116163   3.707   0.317   0.004
 5089SOL    HW216164   3.830   0.422  -0.023
 5090SOL     OW16165   5.164   0.856   1.398
 5090SOL    HW116166   5.107   0.908   1.335
 5090SOL    HW216167   5.260   0.868   1.374
 5091SOL     OW16168   3.796   0.166   0.318
 5091SOL    HW116169   3.779   0.249   0.264
 5091SOL    HW216170   3.886   0.129   0.296
 5092SOL     OW16171   4.907   1.335   0.119
 5092SOL    HW116172   4.808   1.324   0.121
 5092SOL    HW216173   4.941   1.350   0.212
 5093SOL     OW16174   4.337   0.842   1.431
 5093SOL    HW116175   4.393   0.923   1.414
 5093SOL    HW216176   4.396   0.762   1.434
 5094SOL     OW16177   4.440   0.565   1.708
 5094SOL    HW116178   4.459   0.630   1.782
 5094SOL    HW216179   4.500   0.485   1.717
 5095SOL     OW16180   5.174   1.220   1.633
 5095SOL    HW116181   5.165   1.210   1.732
 5095SOL    HW216182   5.270   1.213   1.607
 5096SOL     OW16183   4.114   1.741   1.560
 5096SOL    HW116184   4.023   1.782   1.558
 5096SOL    HW216185   4.107   1.647   1.592
 5097SOL     OW16186   4.949   0.325   0.449
 5097SOL    HW116187   5.014   0.251   0.438
 5097SOL    HW216188   4.969   0.375   0.533
 5098SOL     OW16189   4.318   0.745   0.652
 5098SOL    HW116190   4.368   0.830   0.633
 5098SOL    HW216191   4.230   0.747   0.604
 5099SOL     OW16192   4.583   1.374   0.016
 5099SOL    HW116193   4.537   1.389   0.104
 5099SOL    HW216194   4.627   1.459  -0.014
 5100SOL     OW16195   4.385   1.790   0.953
 5100SOL    HW116196   4.339   1.878   0.940
 5100SOL    HW216197   4.484   1.802   0.946
 5101SOL     OW16198   4.583   0.956   0.861
 5101SOL    HW116199   4.637   0.887   0.909
 5101SOL    HW216200   4.551   1.025   0.927
 5102SOL     OW16201   4.807   0.984   0.087
 5102SOL    HW116202   4.784   1.037   0.005
 5102SOL    HW216203   4.888   0.928   0.068
 5103SOL     OW16204   3.945   1.314   1.844
 5103SOL    HW116205   3.880   1.241   1.823
 5103SOL    HW216206   3.949   1.328   1.942
 5104SOL     OW16207   3.803   1.240   0.653
 5104SOL    HW116208   3.802   1.193   0.741
 5104SOL    HW216209   3.885   1.212   0.602
 5105SOL     OW16210   4.396   1.391   1.624
 5105SOL    HW116211   4.318   1.341   1.662
 5105SOL    HW216212   4.393   1.486   1.655
 5106SOL     OW16213   4.152   0.424   0.520
 5106SOL    HW116214   4.182   0.352   0.458
 5106SOL    HW216215   4.113   0.384   0.603
 5107SOL     OW16216   5.429   1.487   1.104
 5107SOL    HW116217   5.336   1.462   1.077
 5107SOL    HW216218   5.455   1.437   1.186
 5108SOL     OW16219   4.041   0.547   1.280
 5108SOL    HW116220   4.079   0.488   1.352
 5108SOL    HW216221   4.081   0.521   1.192
 5109SOL     OW16222   4.536   1.586   0.687
 5109SOL    HW116223   4.568   1.596   0.593
 5109SOL    HW216224   4.457   1.524   0.689
 5110SOL     OW16225   5.148   0.214   1.112
 5110SOL    HW116226   5.200   0.149   1.167
 5110SOL    HW216227   5.099   0.277   1.173
 5111SOL     OW16228   4.725   0.034   1.154
 5111SOL    HW116229   4.662  -0.038   1.123
 5111SOL    HW216230   4.818  -0.002   1.154
 5112SOL     OW16231   4.494   1.330   0.301
 5112SOL    HW116232   4.448   1.243   0.318
 5112SOL    HW216233   4.585   1.327   0.342
 5113SOL     OW16234   4.342   1.567   1.284
 5113SOL    HW116235   4.337   1.649   1.341
 5113SOL    HW216236   4.431   1.564   1.239
 5114SOL     OW16237   5.076   0.052   0.168
 5114SOL    HW116238   5.111   0.011   0.084
 5114SOL    HW216239   4.986   0.014   0.188
 5115SOL     OW16240   5.024   0.453   0.691
 5115SOL    HW116241   4.965   0.533   0.695
 5115SOL    HW216242   5.039   0.418   0.784
 5116SOL     OW16243   5.317   0.221   0.882
 5116SOL    HW116244   5.233   0.220   0.936
 5116SOL    HW216245   5.319   0.304   0.826
 5117SOL     OW16246   3.763   1.077   0.300
 5117SOL    HW116247   3.862   1.066   0.291
 5117SOL    HW216248   3.723   0.991   0.332
 5118SOL     OW16249   4.599   1.646   0.337
 5118SOL    HW116250   4.522   1.611   0.283
 5118SOL    HW216251   4.567   1.717   0.399
 5119SOL     OW16252   3.954   0.628   1.975
 5119SOL    HW116253   3.861   0.626   2.012
 5119SOL    HW216254   3.955   0.589   1.883
 5120SOL     OW16255   3.949   0.275   2.858
 5120SOL    HW116256   3.984   0.258   2.950
 5120SOL    HW216257   3.861   0.230   2.846
 5121SOL     OW16258   3.743   0.368   2.509
 5121SOL    HW116259   3.661   0.411   2.548
 5121SOL    HW216260   3.715   0.295   2.446
 5122SOL     OW16261   4.293   1.275   3.027
 5122SOL    HW116262   4.200   1.268   2.990
 5122SOL    HW216263   4.304   1.364   3.071
 5123SOL     OW16264   5.279   1.511   2.565
 5123SOL    HW116265   5.222   1.495   2.646
 5123SOL    HW216266   5.220   1.521   2.485
 5124SOL     OW16267   4.859   0.703   2.579
 5124SOL    HW116268   4.916   0.781   2.554
 5124SOL    HW216269   4.799   0.729   2.655
 5125SOL     OW16270   4.492   1.144   2.885
 5125SOL    HW116271   4.414   1.161   2.945
 5125SOL    HW216272   4.526   1.231   2.849
 5126SOL     OW16273   4.574   0.798   3.685
 5126SOL    HW116274   4.570   0.874   3.750
 5126SOL    HW216275   4.596   0.834   3.594
 5127SOL     OW16276   4.409   1.012   2.527
 5127SOL    HW116277   4.478   0.996   2.597
 5127SOL    HW216278   4.336   1.069   2.565
 5128SOL     OW16279   4.410   1.161   3.665
 5128SOL    HW116280   4.470   1.240   3.679
 5128SOL    HW216281   4.324   1.192   3.624
 5129SOL     OW16282   4.059   1.435   2.923
 5129SOL    HW116283   3.981   1.404   2.870
 5129SOL    HW216284   4.117   1.493   2.866
 5130SOL     OW16285   5.184   1.505   3.201
 5130SOL    HW116286   5.208   1.599   3.227
 5130SOL    HW216287   5.168   1.451   3.283
 5131SOL     OW16288   4.162   0.392   3.361
 5131SOL    HW116289   4.244   0.336   3.370
 5131SOL    HW216290   4.081   0.334   3.365
 5132SOL     OW16291   3.955   1.713   2.345
 5132SOL    HW116292   3.989   1.790   2.399
 5132SOL    HW216293   3.999   1.713   2.255
 5133SOL     OW16294   4.851   1.341   3.552
 5133SOL    HW116295   4.898   1.341   3.640
 5133SOL    HW216296   4.803   1.254   3.541
 5134SOL     OW16297   3.954   1.434   2.400
 5134SOL    HW116298   3.928   1.530   2.400
 5134SOL    HW216299   3.883   1.380   2.445
 5135SOL     OW16300   3.964   1.091   2.748
 5135SOL    HW116301   3.978   1.007   2.800
 5135SOL    HW216302   3.909   1.155   2.803
 5136SOL     OW16303   4.344   1.786   3.301
 5136SOL    HW116304   4.252   1.769   3.336
 5136SOL    HW216305   4.372   1.878   3.327
 5137SOL     OW16306   4.330   0.964   1.985
 5137SOL    HW116307   4.337   1.048   1.931
 5137SOL    HW216308   4.376   0.977   2.073
 5138SOL     OW16309   5.318   0.114   3.342
 5138SOL    HW116310   5.300   0.181   3.270
 5138SOL    HW216311   5.315   0.160   3.431
 5139SOL     OW16312   3.846   0.643   2.425
 5139SOL    HW116313   3.801   0.555   2.442
 5139SOL    HW216314   3.845   0.697   2.509
 5140SOL     OW16315   3.751   1.596   1.979
 5140SOL    HW116316   3.732   1.500   2.000
 5140SOL    HW216317   3.718   1.654   2.054
 5141SOL     OW16318   5.413   0.922   2.474
 5141SOL    HW116319   5.508   0.893   2.482
 5141SOL    HW216320   5.405   0.987   2.399
 5142SOL     OW16321   3.837   0.737   3.459
 5142SOL    HW116322   3.925   0.724   3.504
 5142SOL    HW216323   3.824   0.834   3.437
 5143SOL     OW16324   4.337   1.365   2.588
 5143SOL    HW116325   4.288   1.278   2.597
 5143SOL    HW216326   4.314   1.408   2.501
 5144SOL     OW16327   5.017   1.228   3.285
 5144SOL    HW116328   5.054   1.155   3.227
 5144SOL    HW216329   5.069   1.233   3.370
 5145SOL     OW16330   4.533   0.004   2.364
 5145SOL    HW116331   4.573   0.095   2.355
 5145SOL    HW216332   4.433   0.012   2.370
 5146SOL     OW16333   3.921   0.976   3.126
 5146SOL    HW116334   4.010   0.931   3.112
 5146SOL    HW216335   3.848   0.911   3.107
 5147SOL     OW16336   4.911   1.792   3.478
 5147SOL    HW116337   4.935   1.852   3.402
 5147SOL    HW216338   4.918   1.697   3.448
 5148SOL     OW16339   4.041   0.251   3.663
 5148SOL    HW116340   4.112   0.322   3.669
 5148SOL    HW216341   3.953   0.290   3.691
 5149SOL     OW16342   5.190   1.417   2.815
 5149SOL    HW116343   5.131   1.423   2.895
 5149SOL    HW216344   5.175   1.329   2.769
 5150SOL     OW16345   4.322   0.729   2.132
 5150SOL    HW116346   4.346   0.798   2.064
 5150SOL    HW216347   4.244   0.762   2.186
 5151SOL     OW16348   5.005   0.345   2.806
 5151SOL    HW116349   4.919   0.295   2.793
 5151SOL    HW216350   5.067   0.291   2.862
 5152SOL     OW16351   4.531   0.605   3.327
 5152SOL    HW116352   4.484   0.602   3.416
 5152SOL    HW216353   4.480   0.550   3.261
 5153SOL     OW16354   5.118   0.469   3.536
 5153SOL    HW116355   5.098   0.512   3.624
 5153SOL    HW216356   5.196   0.407   3.545
 5154SOL     OW16357   4.697   0.890   3.434
 5154SOL    HW116358   4.743   0.806   3.405
 5154SOL    HW216359   4.641   0.924   3.359
 5155SOL     OW16360   4.715   0.410   3.104
 5155SOL    HW116361   4.638   0.444   3.158
 5155SOL    HW216362   4.681   0.359   3.025
 5156SOL     OW16363   4.765   0.701   2.291
 5156SOL    HW116364   4.791   0.697   2.387
 5156SOL    HW216365   4.680   0.650   2.277
 5157SOL     OW16366   3.800   0.811   2.651
 5157SOL    HW116367   3.899   0.799   2.660
 5157SOL    HW216368   3.776   0.906   2.672
 5158SOL     OW16369   3.854   1.821   3.433
 5158SOL    HW116370   3.844   1.806   3.532
 5158SOL    HW216371   3.768   1.857   3.397
 5159SOL     OW16372   4.589   0.348   2.057
 5159SOL    HW116373   4.648   0.411   2.008
 5159SOL    HW216374   4.608   0.254   2.028
 5160SOL     OW16375   5.086   1.144   2.407
 5160SOL    HW116376   5.169   1.115   2.359
 5160SOL    HW216377   5.037   1.211   2.351
 5161SOL     OW16378   4.274   0.196   2.747
 5161SOL    HW116379   4.269   0.191   2.847
 5161SOL    HW216380   4.276   0.292   2.718
 5162SOL     OW16381   4.732   1.456   2.339
 5162SOL    HW116382   4.686   1.528   2.287
 5162SOL    HW216383   4.728   1.476   2.437
 5163SOL     OW16384   4.075   1.801   2.715
 5163SOL    HW116385   4.125   1.715   2.721
 5163SOL    HW216386   4.140   1.878   2.712
 5164SOL     OW16387   4.951   1.550   3.368
 5164SOL    HW116388   4.957   1.473   3.432
 5164SOL    HW216389   4.899   1.524   3.288
 5165SOL     OW16390   4.045   0.943   2.104
 5165SOL    HW116391   4.127   0.982   2.062
 5165SOL    HW216392   4.018   0.861   2.055
 5166SOL     OW16393   4.185   1.266   3.589
 5166SOL    HW116394   4.135   1.267   3.503
 5166SOL    HW216395   4.122   1.248   3.665
 5167SOL     OW16396   4.835   1.776   2.099
 5167SOL    HW116397   4.775   1.714   2.149
 5167SOL    HW216398   4.866   1.732   2.014
 5168SOL     OW16399   3.926   0.285   3.360
 5168SOL    HW116400   3.846   0.345   3.347
 5168SOL    HW216401   3.916   0.236   3.446
 5169SOL     OW16402   4.188   1.743   2.185
 5169SOL    HW116403   4.221   1.782   2.271
 5169SOL    HW216404   4.264   1.736   2.120
 5170SOL     OW16405   5.124   0.107   2.288
 5170SOL    HW116406   5.100   0.070   2.198
 5170SOL    HW216407   5.223   0.123   2.292
 5171SOL     OW16408   3.973   1.785   3.103
 5171SOL    HW116409   4.030   1.720   3.153
 5171SOL    HW216410   3.957   1.752   3.010
 5172SOL     OW16411   4.664   1.698   2.766
 5172SOL    HW116412   4.744   1.641   2.787
 5172SOL    HW216413   4.615   1.658   2.689
 5173SOL     OW16414   4.106   0.700   2.342
 5173SOL    HW116415   4.151   0.610   2.339
 5173SOL    HW216416   4.012   0.689   2.375
 5174SOL     OW16417   4.338   0.122   1.979
 5174SOL    HW116418   4.436   0.100   1.986
 5174SOL    HW216419   4.307   0.105   1.886
 5175SOL     OW16420   4.505   0.264   3.611
 5175SOL    HW116421   4.572   0.203   3.654
 5175SOL    HW216422   4.432   0.283   3.676
 5176SOL     OW16423   4.612   1.514   3.057
 5176SOL    HW116424   4.589   1.489   2.963
 5176SOL    HW216425   4.673   1.445   3.096
 5177SOL     OW16426   5.075   0.590   3.295
 5177SOL    HW116427   5.103   0.547   3.380
 5177SOL    HW216428   5.100   0.686   3.296
 5178SOL     OW16429   4.527   1.402   2.786
 5178SOL    HW116430   4.617   1.416   2.744
 5178SOL    HW216431   4.456   1.404   2.715
 5179SOL     OW16432   4.646   0.503   2.761
 5179SOL    HW116433   4.621   0.494   2.665
 5179SOL    HW216434   4.694   0.421   2.792
 5180SOL     OW16435   4.263   0.064   2.374
 5180SOL    HW116436   4.182   0.065   2.432
 5180SOL    HW216437   4.266   0.147   2.319
 5181SOL     OW16438   5.158   1.188   1.903
 5181SOL    HW116439   5.190   1.112   1.960
 5181SOL    HW216440   5.066   1.215   1.933
 5182SOL     OW16441   4.021   0.035   2.033
 5182SOL    HW116442   4.070   0.119   2.012
 5182SOL    HW216443   4.083  -0.030   2.078
 5183SOL     OW16444   4.659   0.236   2.342
 5183SOL    HW116445   4.611   0.277   2.264
 5183SOL    HW216446   4.758   0.234   2.323
 5184SOL     OW16447   4.800   0.683   3.326
 5184SOL    HW116448   4.720   0.622   3.329
 5184SOL    HW216449   4.881   0.630   3.302
 5185SOL     OW16450   4.951   1.570   2.655
 5185SOL    HW116451   4.972   1.644   2.590
 5185SOL    HW216452   5.019   1.570   2.728
 5186SOL     OW16453   4.183   1.152   2.603
 5186SOL    HW116454   4.112   1.125   2.668
 5186SOL    HW216455   4.157   1.124   2.510
 5187SOL     OW16456   4.995   1.797   2.453
 5187SOL    HW116457   5.039   1.861   2.389
 5187SOL    HW216458   4.945   1.849   2.523
 5188SOL     OW16459   4.756   0.549   1.878
 5188SOL    HW116460   4.715   0.631   1.839
 5188SOL    HW216461   4.820   0.575   1.951
 5189SOL     OW16462   3.802   0.556   3.248
 5189SOL    HW116463   3.894   0.555   3.207
 5189SOL    HW216464   3.796   0.630   3.315
 5190SOL     OW16465   4.285   0.222   3.009
 5190SOL    HW116466   4.323   0.138   3.046
 5190SOL    HW216467   4.197   0.241   3.053
 5191SOL     OW16468   4.590   0.454   2.504
 5191SOL    HW116469   4.558   0.526   2.442
 5191SOL    HW216470   4.614   0.373   2.451
 5192SOL     OW16471   4.741   0.039   2.615
 5192SOL    HW116472   4.669   0.044   2.546
 5192SOL    HW216473   4.717  -0.030   2.684
 5193SOL     OW16474   5.153   1.173   2.729
 5193SOL    HW116475   5.098   1.089   2.722
 5193SOL    HW216476   5.179   1.202   2.637
 5194SOL     OW16477   4.212   1.385   2.036
 5194SOL    HW116478   4.125   1.370   2.083
 5194SOL    HW216479   4.195   1.411   1.941
 5195SOL     OW16480   5.114   0.575   1.940
 5195SOL    HW116481   5.060   0.554   2.021
 5195SOL    HW216482   5.205   0.534   1.949
 5196SOL     OW16483   4.251   0.256   2.190
 5196SOL    HW116484   4.278   0.197   2.115
 5196SOL    HW216485   4.251   0.351   2.159
 5197SOL     OW16486   4.788   1.347   3.202
 5197SOL    HW116487   4.708   1.324   3.257
 5197SOL    HW216488   4.871   1.321   3.251
 5198SOL     OW16489   5.316   1.629   3.487
 5198SOL    HW116490   5.343   1.663   3.397
 5198SOL    HW216491   5.395   1.591   3.533
 5199SOL     OW16492   4.835   1.195   2.962
 5199SOL    HW116493   4.795   1.239   3.043
 5199SOL    HW216494   4.794   1.232   2.879
 5200SOL     OW16495   4.639   0.089   3.264
 5200SOL    HW116496   4.664   0.069   3.169
 5200SOL    HW216497   4.711   0.145   3.306
 5201SOL     OW16498   4.704   1.116   3.581
 5201SOL    HW116499   4.605   1.122   3.591
 5201SOL    HW216500   4.727   1.036   3.525
 5202SOL     OW16501   4.429   1.050   2.230
 5202SOL    HW116502   4.415   1.057   2.329
 5202SOL    HW216503   4.513   0.999   2.212
 5203SOL     OW16504   4.134   0.813   3.113
 5203SOL    HW116505   4.220   0.825   3.163
 5203SOL    HW216506   4.092   0.726   3.140
 5204SOL     OW16507   4.998   0.386   3.124
 5204SOL    HW116508   5.019   0.460   3.188
 5204SOL    HW216509   4.909   0.403   3.081
 5205SOL     OW16510   3.788   1.564   3.193
 5205SOL    HW116511   3.742   1.646   3.159
 5205SOL    HW216512   3.886   1.583   3.202
 5206SOL     OW16513   4.091   1.100   2.363
 5206SOL    HW116514   4.084   1.183   2.307
 5206SOL    HW216515   4.095   1.020   2.303
 5207SOL     OW16516   4.290   0.537   2.727
 5207SOL    HW116517   4.302   0.603   2.653
 5207SOL    HW216518   4.336   0.571   2.810
 5208SOL     OW16519   4.976   1.348   2.250
 5208SOL    HW116520   5.026   1.425   2.290
 5208SOL    HW216521   4.881   1.350   2.282
 5209SOL     OW16522   4.996   1.445   3.004
 5209SOL    HW116523   5.043   1.458   3.091
 5209SOL    HW216524   4.930   1.371   3.013
 5210SOL     OW16525   4.078   1.510   3.191
 5210SOL    HW116526   4.057   1.466   3.104
 5210SOL    HW216527   4.175   1.536   3.194
 5211SOL     OW16528   4.126   0.751   3.460
 5211SOL    HW116529   4.194   0.806   3.413
 5211SOL    HW216530   4.166   0.663   3.487
 5212SOL     OW16531   4.737   0.105   3.632
 5212SOL    HW116532   4.743   0.190   3.580
 5212SOL    HW216533   4.769   0.029   3.575
 5213SOL     OW16534   4.228   0.050   3.602
 5213SOL    HW116535   4.186  -0.007   3.532
 5213SOL    HW216536   4.162   0.119   3.634
 5214SOL     OW16537   4.297   0.870   2.891
 5214SOL    HW116538   4.341   0.959   2.882
 5214SOL    HW216539   4.234   0.870   2.968
 5215SOL     OW16540   5.084   0.862   2.907
 5215SOL    HW116541   5.009   0.862   2.841
 5215SOL    HW216542   5.121   0.770   2.916
 5216SOL     OW16543   4.933   0.525   2.137
 5216SOL    HW116544   4.946   0.441   2.191
 5216SOL    HW216545   4.904   0.599   2.197
 5217SOL     OW16546   4.031   0.213   3.093
 5217SOL    HW116547   4.008   0.250   3.183
 5217SOL    HW216548   4.001   0.118   3.087
 5218SOL     OW16549   3.761   1.310   3.144
 5218SOL    HW116550   3.814   1.261   3.212
 5218SOL    HW216551   3.783   1.408   3.149
 5219SOL     OW16552   4.456   0.634   2.926
 5219SOL    HW116553   4.515   0.608   2.850
 5219SOL    HW216554   4.428   0.730   2.915
 5220SOL     OW16555   4.031   0.063   2.480
 5220SOL    HW116556   4.020   0.157   2.513
 5220SOL    HW216557   4.026   0.000   2.557
 5221SOL     OW16558   5.346   0.367   2.236
 5221SOL    HW116559   5.348   0.291   2.300
 5221SOL    HW216560   5.298   0.444   2.276
 5222SOL     OW16561   4.747   0.766   2.828
 5222SOL    HW116562   4.762   0.787   2.924
 5222SOL    HW216563   4.717   0.671   2.819
 5223SOL     OW16564   4.704   1.573   3.562
 5223SOL    HW116565   4.684   1.617   3.474
 5223SOL    HW216566   4.743   1.482   3.546
 5224SOL     OW16567   4.074   0.898   3.666
 5224SOL    HW116568   4.150   0.942   3.714
 5224SOL    HW216569   4.109   0.851   3.584
 5225SOL     OW16570   5.027   0.838   1.904
 5225SOL    HW116571   5.061   0.745   1.919
 5225SOL    HW216572   5.045   0.865   1.809
 5226SOL     OW16573   4.792   1.333   2.711
 5226SOL    HW116574   4.799   1.249   2.656
 5226SOL    HW216575   4.854   1.402   2.675
 5227SOL     OW16576   4.043   0.810   2.811
 5227SOL    HW116577   4.136   0.846   2.816
 5227SOL    HW216578   4.037   0.725   2.863
 5228SOL     OW16579   4.063   0.509   2.868
 5228SOL    HW116580   4.011   0.426   2.851
 5228SOL    HW216581   4.140   0.514   2.804
 5229SOL     OW16582   4.862   0.380   3.540
 5229SOL    HW116583   4.817   0.443   3.604
 5229SOL    HW216584   4.955   0.411   3.523
 5230SOL     OW16585   4.884   0.207   3.339
 5230SOL    HW116586   4.884   0.271   3.416
 5230SOL    HW216587   4.912   0.255   3.256
 5231SOL     OW16588   3.732   1.326   2.062
 5231SOL    HW116589   3.639   1.347   2.031
 5231SOL    HW216590   3.742   1.227   2.075
 5232SOL     OW16591   3.812   1.801   2.789
 5232SOL    HW116592   3.770   1.715   2.762
 5232SOL    HW216593   3.906   1.804   2.755
 5233SOL     OW16594   4.228   1.568   2.772
 5233SOL    HW116595   4.294   1.642   2.781
 5233SOL    HW216596   4.272   1.489   2.730
 5234SOL     OW16597   4.726   0.796   3.100
 5234SOL    HW116598   4.767   0.764   3.186
 5234SOL    HW216599   4.630   0.769   3.097
 5235SOL     OW16600   3.764   0.544   2.976
 5235SOL    HW116601   3.849   0.511   2.935
 5235SOL    HW216602   3.777   0.559   3.074
 5236SOL     OW16603   3.913   0.520   3.584
 5236SOL    HW116604   3.972   0.480   3.514
 5236SOL    HW216605   3.855   0.591   3.543
 5237SOL     OW16606   5.093   0.950   3.522
 5237SOL    HW116607   5.132   1.039   3.542
 5237SOL    HW216608   5.103   0.930   3.425
 5238SOL     OW16609   4.539   0.572   2.187
 5238SOL    HW116610   4.546   0.483   2.141
 5238SOL    HW216611   4.445   0.606   2.179
 5239SOL     OW16612   3.976   1.564   3.606
 5239SOL    HW116613   3.946   1.621   3.682
 5239SOL    HW216614   3.969   1.467   3.632
 5240SOL     OW16615   4.395   0.464   3.131
 5240SOL    HW116616   4.361   0.375   3.101
 5240SOL    HW216617   4.421   0.518   3.051
 5241SOL     OW16618   4.654   1.678   3.327
 5241SOL    HW116619   4.630   1.660   3.232
 5241SOL    HW216620   4.684   1.772   3.337
 5242SOL     OW16621   4.197   0.500   2.053
 5242SOL    HW116622   4.258   0.580   2.057
 5242SOL    HW216623   4.102   0.531   2.060
 5243SOL     OW16624   3.883   1.137   3.328
 5243SOL    HW116625   3.905   1.076   3.404
 5243SOL    HW216626   3.893   1.088   3.242
 5244SOL     OW16627   5.071   1.059   3.096
 5244SOL    HW116628   5.095   0.996   3.022
 5244SOL    HW216629   4.981   1.099   3.078
 5245SOL     OW16630   5.026   0.855   2.171
 5245SOL    HW116631   4.940   0.824   2.213
 5245SOL    HW216632   5.022   0.841   2.072
 5246SOL     OW16633   4.976   1.731   2.990
 5246SOL    HW116634   5.060   1.736   2.936
 5246SOL    HW216635   4.953   1.635   3.008
 5247SOL     OW16636   3.807   1.258   2.884
 5247SOL    HW116637   3.802   1.257   2.984
 5247SOL    HW216638   3.724   1.217   2.846
 5248SOL     OW16639   4.412   1.662   3.578
 5248SOL    HW116640   4.356   1.743   3.587
 5248SOL    HW216641   4.464   1.666   3.492
 5249SOL     OW16642   5.112   1.573   2.339
 5249SOL    HW116643   5.179   1.585   2.265
 5249SOL    HW216644   5.072   1.662   2.362
 5250SOL     OW16645   3.854   1.794   3.713
 5250SOL    HW116646   3.813   1.720   3.766
 5250SOL    HW216647   3.918   1.845   3.771
 5251SOL     OW16648   5.004   0.927   2.534
 5251SOL    HW116649   5.064   0.846   2.536
 5251SOL    HW216650   5.044   0.996   2.474
 5252SOL     OW16651   4.554   1.273   3.284
 5252SOL    HW116652   4.549   1.306   3.379
 5252SOL    HW216653   4.468   1.292   3.238
 5253SOL     OW16654   4.396   1.616   2.016
 5253SOL    HW116655   4.405   1.626   1.917
 5253SOL    HW216656   4.356   1.527   2.037
 5254SOL     OW16657   3.987   0.326   2.582
 5254SOL    HW116658   3.908   0.377   2.548
 5254SOL    HW216659   3.978   0.311   2.680
 5255SOL     OW16660   4.918   1.612   1.893
 5255SOL    HW116661   4.924   1.519   1.930
 5255SOL    HW216662   4.859   1.612   1.813
 5256SOL     OW16663   4.546   1.002   3.234
 5256SOL    HW116664   4.586   1.001   3.142
 5256SOL    HW216665   4.556   1.094   3.274
 5257SOL     OW16666   4.640   0.910   2.153
 5257SOL    HW116667   4.703   0.948   2.085
 5257SOL    HW216668   4.680   0.827   2.192
 5258SOL     OW16669   4.096   1.288   3.352
 5258SOL    HW116670   4.083   1.381   3.318
 5258SOL    HW216671   4.012   1.236   3.339
 5259SOL     OW16672   4.763   1.098   2.558
 5259SOL    HW116673   4.693   1.051   2.612
 5259SOL    HW216674   4.822   1.030   2.515
 5260SOL     OW16675   4.738   0.236   2.833
 5260SOL    HW116676   4.730   0.200   2.740
 5260SOL    HW216677   4.736   0.160   2.898
 5261SOL     OW16678   4.314   1.487   2.353
 5261SOL    HW116679   4.356   1.429   2.283
 5261SOL    HW216680   4.270   1.566   2.309
 5262SOL     OW16681   3.979   1.348   2.152
 5262SOL    HW116682   3.883   1.349   2.125
 5262SOL    HW216683   3.991   1.401   2.236
 5263SOL     OW16684   3.829   1.013   3.588
 5263SOL    HW116685   3.752   0.980   3.642
 5263SOL    HW216686   3.914   0.983   3.630
 5264SOL     OW16687   4.396   0.203   3.351
 5264SOL    HW116688   4.486   0.187   3.311
 5264SOL    HW216689   4.404   0.208   3.450
 5265SOL     OW16690   3.799   0.345   1.895
 5265SOL    HW116691   3.707   0.317   1.866
 5265SOL    HW216692   3.830   0.422   1.839
 5266SOL     OW16693   5.164   0.856   3.260
 5266SOL    HW116694   5.107   0.908   3.197
 5266SOL    HW216695   5.260   0.868   3.236
 5267SOL     OW16696   3.796   0.166   2.180
 5267SOL    HW116697   3.779   0.249   2.126
 5267SOL    HW216698   3.886   0.129   2.158
 5268SOL     OW16699   4.907   1.335   1.981
 5268SOL    HW116700   4.808   1.324   1.983
 5268SOL    HW216701   4.941   1.350   2.074
 5269SOL     OW16702   4.337   0.842   3.293
 5269SOL    HW116703   4.393   0.923   3.276
 5269SOL    HW216704   4.396   0.762   3.296
 5270SOL     OW16705   4.440   0.565   3.570
 5270SOL    HW116706   4.459   0.630   3.644
 5270SOL    HW216707   4.500   0.485   3.579
 5271SOL     OW16708   5.174   1.220   3.495
 5271SOL    HW116709   5.165   1.210   3.594
 5271SOL    HW216710   5.270   1.213   3.469
 5272SOL     OW16711   4.114   1.741   3.422
 5272SOL    HW116712   4.023   1.782   3.420
 5272SOL    HW216713   4.107   1.647   3.454
 5273SOL     OW16714   4.949   0.325   2.311
 5273SOL    HW116715   5.014   0.251   2.300
 5273SOL    HW216716   4.969   0.375   2.395
 5274SOL     OW16717   4.318   0.745   2.514
 5274SOL    HW116718   4.368   0.830   2.495
 5274SOL    HW216719   4.230   0.747   2.466
 5275SOL     OW16720   4.583   1.374   1.878
 5275SOL    HW116721   4.537   1.389   1.966
 5275SOL    HW216722   4.627   1.459   1.848
 5276SOL     OW16723   4.385   1.790   2.815
 5276SOL    HW116724   4.339   1.878   2.802
 5276SOL    HW216725   4.484   1.802   2.808
 5277SOL     OW16726   4.583   0.956   2.723
 5277SOL    HW116727   4.637   0.887   2.771
 5277SOL    HW216728   4.551   1.025   2.789
 5278SOL     OW16729   4.807   0.984   1.949
 5278SOL    HW116730   4.784   1.037   1.867
 5278SOL    HW216731   4.888   0.928   1.930
 5279SOL     OW16732   3.945   1.314   3.706
 5279SOL    HW116733   3.880   1.241   3.685
 5279SOL    HW216734   3.949   1.328   3.804
 5280SOL     OW16735   3.803   1.240   2.515
 5280SOL    HW116736   3.802   1.193   2.603
 5280SOL    HW216737   3.885   1.212   2.464
 5281SOL     OW16738   4.396   1.391   3.486
 5281SOL    HW116739   4.318   1.341   3.524
 5281SOL    HW216740   4.393   1.486   3.517
 5282SOL     OW16741   4.152   0.424   2.382
 5282SOL    HW116742   4.182   0.352   2.320
 5282SOL    HW216743   4.113   0.384   2.465
 5283SOL     OW16744   5.429   1.487   2.966
 5283SOL    HW116745   5.336   1.462   2.939
 5283SOL    HW216746   5.455   1.437   3.048
 5284SOL     OW16747   4.041   0.547   3.142
 5284SOL    HW116748   4.079   0.488   3.214
 5284SOL    HW216749   4.081   0.521   3.054
 5285SOL     OW16750   4.536   1.586   2.549
 5285SOL    HW116751   4.568   1.596   2.455
 5285SOL    HW216752   4.457   1.524   2.551
 5286SOL     OW16753   5.148   0.214   2.974
 5286SOL    HW116754   5.200   0.149   3.029
 5286SOL    HW216755   5.099   0.277   3.035
 5287SOL     OW16756   4.725   0.034   3.016
 5287SOL    HW116757   4.662  -0.038   2.985
 5287SOL    HW216758   4.818  -0.002   3.016
 5288SOL     OW16759   4.494   1.330   2.163
 5288SOL    HW116760   4.448   1.243   2.180
 5288SOL    HW216761   4.585   1.327   2.204
 5289SOL     OW16762   4.342   1.567   3.146
 5289SOL    HW116763   4.337   1.649   3.203
 5289SOL    HW216764   4.431   1.564   3.101
 5290SOL     OW16765   5.076   0.052   2.030
 5290SOL    HW116766   5.111   0.011   1.946
 5290SOL    HW216767   4.986   0.014   2.050
 5291SOL     OW16768   5.024   0.453   2.553
 5291SOL    HW116769   4.965   0.533   2.557
 5291SOL    HW216770   5.039   0.418   2.646
 5292SOL     OW16771   5.317   0.221   2.744
 5292SOL    HW116772   5.233   0.220   2.798
 5292SOL    HW216773   5.319   0.304   2.688
 5293SOL     OW16774   3.763   1.077   2.162
 5293SOL    HW116775   3.862   1.066   2.153
 5293SOL    HW216776   3.723   0.991   2.194
 5294SOL     OW16777   4.599   1.646   2.199
 5294SOL    HW116778   4.522   1.611   2.145
 5294SOL    HW216779   4.567   1.717   2.261
 5295SOL     OW16780   3.954   0.628   3.837
 5295SOL    HW116781   3.861   0.626   3.874
 5295SOL    HW216782   3.955   0.589   3.745
 5296SOL     OW16783   3.949   0.275   4.720
 5296SOL    HW116784   3.984   0.258   4.812
 5296SOL    HW216785   3.861   0.230   4.708
 5297SOL     OW16786   3.743   0.368   4.371
 5297SOL    HW116787   3.661   0.411   4.410
 5297SOL    HW216788   3.715   0.295   4.308
 5298SOL     OW16789   4.293   1.275   4.889
 5298SOL    HW116790   4.200   1.268   4.852
 5298SOL    HW216791   4.304   1.364   4.933
 5299SOL     OW16792   5.279   1.511   4.427
 5299SOL    HW116793   5.222   1.495   4.508
 5299SOL    HW216794   5.220   1.521   4.347
 5300SOL     OW16795   4.859   0.703   4.441
 5300SOL    HW116796   4.916   0.781   4.416
 5300SOL    HW216797   4.799   0.729   4.517
 5301SOL     OW16798   4.492   1.144   4.747
 5301SOL    HW116799   4.414   1.161   4.807
 5301SOL    HW216800   4.526   1.231   4.711
 5302SOL     OW16801   4.574   0.798   5.547
 5302SOL    HW116802   4.570   0.874   5.612
 5302SOL    HW216803   4.596   0.834   5.456
 5303SOL     OW16804   4.409   1.012   4.389
 5303SOL    HW116805   4.478   0.996   4.459
 5303SOL    HW216806   4.336   1.069   4.427
 5304SOL     OW16807   4.410   1.161   5.527
 5304SOL    HW116808   4.470   1.240   5.541
 5304SOL    HW216809   4.324   1.192   5.486
 5305SOL     OW16810   4.059   1.435   4.785
 5305SOL    HW116811   3.981   1.404   4.732
 5305SOL    HW216812   4.117   1.493   4.728
 5306SOL     OW16813   5.184   1.505   5.063
 5306SOL    HW116814   5.208   1.599   5.089
 5306SOL    HW216815   5.168   1.451   5.145
 5307SOL     OW16816   4.162   0.392   5.223
 5307SOL    HW116817   4.244   0.336   5.232
 5307SOL    HW216818   4.081   0.334   5.227
 5308SOL     OW16819   3.955   1.713   4.207
 5308SOL    HW116820   3.989   1.790   4.261
 5308SOL    HW216821   3.999   1.713   4.117
 5309SOL     OW16822   4.851   1.341   5.414
 5309SOL    HW116823   4.898   1.341   5.502
 5309SOL    HW216824   4.803   1.254   5.403
 5310SOL     OW16825   3.954   1.434   4.262
 5310SOL    HW116826   3.928   1.530   4.262
 5310SOL    HW216827   3.883   1.380   4.307
 5311SOL     OW16828   3.964   1.091   4.610
 5311SOL    HW116829   3.978   1.007   4.662
 5311SOL    HW216830   3.909   1.155   4.665
 5312SOL     OW16831   4.344   1.786   5.163
 5312SOL    HW116832   4.252   1.769   5.198
 5312SOL    HW216833   4.372   1.878   5.189
 5313SOL     OW16834   4.330   0.964   3.847
 5313SOL    HW116835   4.337   1.048   3.793
 5313SOL    HW216836   4.376   0.977   3.935
 5314SOL     OW16837   5.318   0.114   5.204
 5314SOL    HW116838   5.300   0.181   5.132
 5314SOL    HW216839   5.315   0.160   5.293
 5315SOL     OW16840   3.846   0.643   4.287
 5315SOL    HW116841   3.801   0.555   4.304
 5315SOL    HW216842   3.845   0.697   4.371
 5316SOL     OW16843   3.751   1.596   3.841
 5316SOL    HW116844   3.732   1.500   3.862
 5316SOL    HW216845   3.718   1.654   3.916
 5317SOL     OW16846   5.413   0.922   4.336
 5317SOL    HW116847   5.508   0.893   4.344
 5317SOL    HW216848   5.405   0.987   4.261
 5318SOL     OW16849   3.837   0.737   5.321
 5318SOL    HW116850   3.925   0.724   5.366
 5318SOL    HW216851   3.824   0.834   5.299
 5319SOL     OW16852   4.337   1.365   4.450
 5319SOL    HW116853   4.288   1.278   4.459
 5319SOL    HW216854   4.314   1.408   4.363
 5320SOL     OW16855   5.017   1.228   5.147
 5320SOL    HW116856   5.054   1.155   5.089
 5320SOL    HW216857   5.069   1.233   5.232
 5321SOL     OW16858   4.533   0.004   4.226
 5321SOL    HW116859   4.573   0.095   4.217
 5321SOL    HW216860   4.433   0.012   4.232
 5322SOL     OW16861   3.921   0.976   4.988
 5322SOL    HW116862   4.010   0.931   4.974
 5322SOL    HW216863   3.848   0.911   4.969
 5323SOL     OW16864   4.911   1.792   5.340
 5323SOL    HW116865   4.935   1.852   5.264
 5323SOL    HW216866   4.918   1.697   5.310
 5324SOL     OW16867   4.041   0.251   5.525
 5324SOL    HW116868   4.112   0.322   5.531
 5324SOL    HW216869   3.953   0.290   5.553
 5325SOL     OW16870   5.190   1.417   4.677
 5325SOL    HW116871   5.131   1.423   4.757
 5325SOL    HW216872   5.175   1.329   4.631
 5326SOL     OW16873   4.322   0.729   3.994
 5326SOL    HW116874   4.346   0.798   3.926
 5326SOL    HW216875   4.244   0.762   4.048
 5327SOL     OW16876   5.005   0.345   4.668
 5327SOL    HW116877   4.919   0.295   4.655
 5327SOL    HW216878   5.067   0.291   4.724
 5328SOL     OW16879   4.531   0.605   5.189
 5328SOL    HW116880   4.484   0.602   5.278
 5328SOL    HW216881   4.480   0.550   5.123
 5329SOL     OW16882   5.118   0.469   5.398
 5329SOL    HW116883   5.098   0.512   5.486
 5329SOL    HW216884   5.196   0.407   5.407
 5330SOL     OW16885   4.697   0.890   5.296
 5330SOL    HW116886   4.743   0.806   5.267
 5330SOL    HW216887   4.641   0.924   5.221
 5331SOL     OW16888   4.715   0.410   4.966
 5331SOL    HW116889   4.638   0.444   5.020
 5331SOL    HW216890   4.681   0.359   4.887
 5332SOL     OW16891   4.765   0.701   4.153
 5332SOL    HW116892   4.791   0.697   4.249
 5332SOL    HW216893   4.680   0.650   4.139
 5333SOL     OW16894   3.800   0.811   4.513
 5333SOL    HW116895   3.899   0.799   4.522
 5333SOL    HW216896   3.776   0.906   4.534
 5334SOL     OW16897   3.854   1.821   5.295
 5334SOL    HW116898   3.844   1.806   5.394
 5334SOL    HW216899   3.768   1.857   5.259
 5335SOL     OW16900   4.589   0.348   3.919
 5335SOL    HW116901   4.648   0.411   3.870
 5335SOL    HW216902   4.608   0.254   3.890
 5336SOL     OW16903   5.086   1.144   4.269
 5336SOL    HW116904   5.169   1.115   4.221
 5336SOL    HW216905   5.037   1.211   4.213
 5337SOL     OW16906   4.274   0.196   4.609
 5337SOL    HW116907   4.269   0.191   4.709
 5337SOL    HW216908   4.276   0.292   4.580
 5338SOL     OW16909   4.732   1.456   4.201
 5338SOL    HW116910   4.686   1.528   4.149
 5338SOL    HW216911   4.728   1.476   4.299
 5339SOL     OW16912   4.075   1.801   4.577
 5339SOL    HW116913   4.125   1.715   4.583
 5339SOL    HW216914   4.140   1.878   4.574
 5340SOL     OW16915   4.951   1.550   5.230
 5340SOL    HW116916   4.957   1.473   5.294
 5340SOL    HW216917   4.899   1.524   5.150
 5341SOL     OW16918   4.045   0.943   3.966
 5341SOL    HW116919   4.127   0.982   3.924
 5341SOL    HW216920   4.018   0.861   3.917
 5342SOL     OW16921   4.185   1.266   5.451
 5342SOL    HW116922   4.135   1.267   5.365
 5342SOL    HW216923   4.122   1.248   5.527
 5343SOL     OW16924   4.835   1.776   3.961
 5343SOL    HW116925   4.775   1.714   4.011
 5343SOL    HW216926   4.866   1.732   3.876
 5344SOL     OW16927   3.926   0.285   5.222
 5344SOL    HW116928   3.846   0.345   5.209
 5344SOL    HW216929   3.916   0.236   5.308
 5345SOL     OW16930   4.188   1.743   4.047
 5345SOL    HW116931   4.221   1.782   4.133
 5345SOL    HW216932   4.264   1.736   3.982
 5346SOL     OW16933   5.124   0.107   4.150
 5346SOL    HW116934   5.100   0.070   4.060
 5346SOL    HW216935   5.223   0.123   4.154
 5347SOL     OW16936   3.973   1.785   4.965
 5347SOL    HW116937   4.030   1.720   5.015
 5347SOL    HW216938   3.957   1.752   4.872
 5348SOL     OW16939   4.664   1.698   4.628
 5348SOL    HW116940   4.744   1.641   4.649
 5348SOL    HW216941   4.615   1.658   4.551
 5349SOL     OW16942   4.106   0.700   4.204
 5349SOL    HW116943   4.151   0.610   4.201
 5349SOL    HW216944   4.012   0.689   4.237
 5350SOL     OW16945   4.338   0.122   3.841
 5350SOL    HW116946   4.436   0.100   3.848
 5350SOL    HW216947   4.307   0.105   3.748
 5351SOL     OW16948   4.505   0.264   5.473
 5351SOL    HW116949   4.572   0.203   5.516
 5351SOL    HW216950   4.432   0.283   5.538
 5352SOL     OW16951   4.612   1.514   4.919
 5352SOL    HW116952   4.589   1.489   4.825
 5352SOL    HW216953   4.673   1.445   4.958
 5353SOL     OW16954   5.075   0.590   5.157
 5353SOL    HW116955   5.103   0.547   5.242
 5353SOL    HW216956   5.100   0.686   5.158
 5354SOL     OW16957   4.527   1.402   4.648
 5354SOL    HW116958   4.617   1.416   4.606
 5354SOL    HW216959   4.456   1.404   4.577
 5355SOL     OW16960   4.646   0.503   4.623
 5355SOL    HW116961   4.621   0.494   4.527
 5355SOL    HW216962   4.694   0.421   4.654
 5356SOL     OW16963   4.263   0.064   4.236
 5356SOL    HW116964   4.182   0.065   4.294
 5356SOL    HW216965   4.266   0.147   4.181
 5357SOL     OW16966   5.158   1.188   3.765
 5357SOL    HW116967   5.190   1.112   3.822
 5357SOL    HW216968   5.066   1.215   3.795
 5358SOL     OW16969   4.021   0.035   3.895
 5358SOL    HW116970   4.070   0.119   3.874
 5358SOL    HW216971   4.083  -0.030   3.940
 5359SOL     OW16972   4.659   0.236   4.204
 5359SOL    HW116973   4.611   0.277   4.126
 5359SOL    HW216974   4.758   0.234   4.185
 5360SOL     OW16975   4.800   0.683   5.188
 5360SOL    HW116976   4.720   0.622   5.191
 5360SOL    HW216977   4.881   0.630   5.164
 5361SOL     OW16978   4.951   1.570   4.517
 5361SOL    HW116979   4.972   1.644   4.452
 5361SOL    HW216980   5.019   1.570   4.590
 5362SOL     OW16981   4.183   1.152   4.465
 5362SOL    HW116982   4.112   1.125   4.530
 5362SOL    HW216983   4.157   1.124   4.372
 5363SOL     OW16984   4.995   1.797   4.315
 5363SOL    HW116985   5.039   1.861   4.251
 5363SOL    HW216986   4.945   1.849   4.385
 5364SOL     OW16987   4.756   0.549   3.740
 5364SOL    HW116988   4.715   0.631   3.701
 5364SOL    HW216989   4.820   0.575   3.813
 5365SOL     OW16990   3.802   0.556   5.110
 5365SOL    HW116991   3.894   0.555   5.069
 5365SOL    HW216992   3.796   0.630   5.177
 5366SOL     OW16993   4.285   0.222   4.871
 5366SOL    HW116994   4.323   0.138   4.908
 5366SOL    HW216995   4.197   0.241   4.915
 5367SOL     OW16996   4.590   0.454   4.366
 5367SOL    HW116997   4.558   0.526   4.304
 5367SOL    HW216998   4.614   0.373   4.313
 5368SOL     OW16999   4.741   0.039   4.477
 5368SOL    HW117000   4.669   0.044   4.408
 5368SOL    HW217001   4.717  -0.030   4.546
 5369SOL     OW17002   5.153   1.173   4.591
 5369SOL    HW117003   5.098   1.089   4.584
 5369SOL    HW217004   5.179   1.202   4.499
 5370SOL     OW17005   4.212   1.385   3.898
 5370SOL    HW117006   4.125   1.370   3.945
 5370SOL    HW217007   4.195   1.411   3.803
 5371SOL     OW17008   5.114   0.575   3.802
 5371SOL    HW117009   5.060   0.554   3.883
 5371SOL    HW217010   5.205   0.534   3.811
 5372SOL     OW17011   4.251   0.256   4.052
 5372SOL    HW117012   4.278   0.197   3.977
 5372SOL    HW217013   4.251   0.351   4.021
 5373SOL     OW17014   4.788   1.347   5.064
 5373SOL    HW117015   4.708   1.324   5.119
 5373SOL    HW217016   4.871   1.321   5.113
 5374SOL     OW17017   5.316   1.629   5.349
 5374SOL    HW117018   5.343   1.663   5.259
 5374SOL    HW217019   5.395   1.591   5.395
 5375SOL     OW17020   4.835   1.195   4.824
 5375SOL    HW117021   4.795   1.239   4.905
 5375SOL    HW217022   4.794   1.232   4.741
 5376SOL     OW17023   4.639   0.089   5.126
 5376SOL    HW117024   4.664   0.069   5.031
 5376SOL    HW217025   4.711   0.145   5.168
 5377SOL     OW17026   4.704   1.116   5.443
 5377SOL    HW117027   4.605   1.122   5.453
 5377SOL    HW217028   4.727   1.036   5.387
 5378SOL     OW17029   4.429   1.050   4.092
 5378SOL    HW117030   4.415   1.057   4.191
 5378SOL    HW217031   4.513   0.999   4.074
 5379SOL     OW17032   4.134   0.813   4.975
 5379SOL    HW117033   4.220   0.825   5.025
 5379SOL    HW217034   4.092   0.726   5.002
 5380SOL     OW17035   4.998   0.386   4.986
 5380SOL    HW117036   5.019   0.460   5.050
 5380SOL    HW217037   4.909   0.403   4.943
 5381SOL     OW17038   3.788   1.564   5.055
 5381SOL    HW117039   3.742   1.646   5.021
 5381SOL    HW217040   3.886   1.583   5.064
 5382SOL     OW17041   4.091   1.100   4.225
 5382SOL    HW117042   4.084   1.183   4.169
 5382SOL    HW217043   4.095   1.020   4.165
 5383SOL     OW17044   4.290   0.537   4.589
 5383SOL    HW117045   4.302   0.603   4.515
 5383SOL    HW217046   4.336   0.571   4.672
 5384SOL     OW17047   4.976   1.348   4.112
 5384SOL    HW117048   5.026   1.425   4.152
 5384SOL    HW217049   4.881   1.350   4.144
 5385SOL     OW17050   4.996   1.445   4.866
 5385SOL    HW117051   5.043   1.458   4.953
 5385SOL    HW217052   4.930   1.371   4.875
 5386SOL     OW17053   4.078   1.510   5.053
 5386SOL    HW117054   4.057   1.466   4.966
 5386SOL    HW217055   4.175   1.536   5.056
 5387SOL     OW17056   4.126   0.751   5.322
 5387SOL    HW117057   4.194   0.806   5.275
 5387SOL    HW217058   4.166   0.663   5.349
 5388SOL     OW17059   4.737   0.105   5.494
 5388SOL    HW117060   4.743   0.190   5.442
 5388SOL    HW217061   4.769   0.029   5.437
 5389SOL     OW17062   4.228   0.050   5.464
 5389SOL    HW117063   4.186  -0.007   5.394
 5389SOL    HW217064   4.162   0.119   5.496
 5390SOL     OW17065   4.297   0.870   4.753
 5390SOL    HW117066   4.341   0.959   4.744
 5390SOL    HW217067   4.234   0.870   4.830
 5391SOL     OW17068   5.084   0.862   4.769
 5391SOL    HW117069   5.009   0.862   4.703
 5391SOL    HW217070   5.121   0.770   4.778
 5392SOL     OW17071   4.933   0.525   3.999
 5392SOL    HW117072   4.946   0.441   4.053
 5392SOL    HW217073   4.904   0.599   4.059
 5393SOL     OW17074   4.031   0.213   4.955
 5393SOL    HW117075   4.008   0.250   5.045
 5393SOL    HW217076   4.001   0.118   4.949
 5394SOL     OW17077   3.761   1.310   5.006
 5394SOL    HW117078   3.814   1.261   5.074
 5394SOL    HW217079   3.783   1.408   5.011
 5395SOL     OW17080   4.456   0.634   4.788
 5395SOL    HW117081   4.515   0.608   4.712
 5395SOL    HW217082   4.428   0.730   4.777
 5396SOL     OW17083   4.031   0.063   4.342
 5396SOL    HW117084   4.020   0.157   4.375
 5396SOL    HW217085   4.026   0.000   4.419
 5397SOL     OW17086   5.346   0.367   4.098
 5397SOL    HW117087   5.348   0.291   4.162
 5397SOL    HW217088   5.298   0.444   4.138
 5398SOL     OW17089   4.747   0.766   4.690
 5398SOL    HW117090   4.762   0.787   4.786
 5398SOL    HW217091   4.717   0.671   4.681
 5399SOL     OW17092   4.704   1.573   5.424
 5399SOL    HW117093   4.684   1.617   5.336
 5399SOL    HW217094   4.743   1.482   5.408
 5400SOL     OW17095   4.074   0.898   5.528
 5400SOL    HW117096   4.150   0.942   5.576
 5400SOL    HW217097   4.109   0.851   5.446
 5401SOL     OW17098   5.027   0.838   3.766
 5401SOL    HW117099   5.061   0.745   3.781
 5401SOL    HW217100   5.045   0.865   3.671
 5402SOL     OW17101   4.792   1.333   4.573
 5402SOL    HW117102   4.799   1.249   4.518
 5402SOL    HW217103   4.854   1.402   4.537
 5403SOL     OW17104   4.043   0.810   4.673
 5403SOL    HW117105   4.136   0.846   4.678
 5403SOL    HW217106   4.037   0.725   4.725
 5404SOL     OW17107   4.063   0.509   4.730
 5404SOL    HW117108   4.011   0.426   4.713
 5404SOL    HW217109   4.140   0.514   4.666
 5405SOL     OW17110   4.862   0.380   5.402
 5405SOL    HW117111   4.817   0.443   5.466
 5405SOL    HW217112   4.955   0.411   5.385
 5406SOL     OW17113   4.884   0.207   5.201
 5406SOL    HW117114   4.884   0.271   5.278
 5406SOL    HW217115   4.912   0.255   5.118
 5407SOL     OW17116   3.732   1.326   3.924
 5407SOL    HW117117   3.639   1.347   3.893
 5407SOL    HW217118   3.742   1.227   3.937
 5408SOL     OW17119   3.812   1.801   4.651
 5408SOL    HW117120   3.770   1.715   4.624
 5408SOL    HW217121   3.906   1.804   4.617
 5409SOL     OW17122   4.228   1.568   4.634
 5409SOL    HW117123   4.294   1.642   4.643
 5409SOL    HW217124   4.272   1.489   4.592
 5410SOL     OW17125   4.726   0.796   4.962
 5410SOL    HW117126   4.767   0.764   5.048
 5410SOL    HW217127   4.630   0.769   4.959
 5411SOL     OW17128   3.764   0.544   4.838
 5411SOL    HW117129   3.849   0.511   4.797
 5411SOL    HW217130   3.777   0.559   4.936
 5412SOL     OW17131   3.913   0.520   5.446
 5412SOL    HW117132   3.972   0.480   5.376
 5412SOL    HW217133   3.855   0.591   5.405
 5413SOL     OW17134   5.093   0.950   5.384
 5413SOL    HW117135   5.132   1.039   5.404
 5413SOL    HW217136   5.103   0.930   5.287
 5414SOL     OW17137   4.539   0.572   4.049
 5414SOL    HW117138   4.546   0.483   4.003
 5414SOL    HW217139   4.445   0.606   4.041
 5415SOL     OW17140   3.976   1.564   5.468
 5415SOL    HW117141   3.946   1.621   5.544
 5415SOL    HW217142   3.969   1.467   5.494
 5416SOL     OW17143   4.395   0.464   4.993
 5416SOL    HW117144   4.361   0.375   4.963
 5416SOL    HW217145   4.421   0.518   4.913
 5417SOL     OW17146   4.654   1.678   5.189
 5417SOL    HW117147   4.630   1.660   5.094
 5417SOL    HW217148   4.684   1.772   5.199
 5418SOL     OW17149   4.197   0.500   3.915
 5418SOL    HW117150   4.258   0.580   3.919
 5418SOL    HW217151   4.102   0.531   3.922
 5419SOL     OW17152   3.883   1.137   5.190
 5419SOL    HW117153   3.905   1.076   5.266
 5419SOL    HW217154   3.893   1.088   5.104
 5420SOL     OW17155   5.071   1.059   4.958
 5420SOL    HW117156   5.095   0.996   4.884
 5420SOL    HW217157   4.981   1.099   4.940
 5421SOL     OW17158   5.026   0.855   4.033
 5421SOL    HW117159   4.940   0.824   4.075
 5421SOL    HW217160   5.022   0.841   3.934
 5422SOL     OW17161   4.976   1.731   4.852
 5422SOL    HW117162   5.060   1.736   4.798
 5422SOL    HW217163   4.953   1.635   4.870
 5423SOL     OW17164   3.807   1.258   4.746
 5423SOL    HW117165   3.802   1.257   4.846
 5423SOL    HW217166   3.724   1.217   4.708
 5424SOL     OW17167   4.412   1.662   5.440
 5424SOL    HW117168   4.356   1.743   5.449
 5424SOL    HW217169   4.464   1.666   5.354
 5425SOL     OW17170   5.112   1.573   4.201
 5425SOL    HW117171   5.179   1.585   4.127
 5425SOL    HW217172   5.072   1.662   4.224
 5426SOL     OW17173   3.854   1.794   5.575
 5426SOL    HW117174   3.813   1.720   5.628
 5426SOL    HW217175   3.918   1.845   5.633
 5427SOL     OW17176   5.004   0.927   4.396
 5427SOL    HW117177   5.064   0.846   4.398
 5427SOL    HW217178   5.044   0.996   4.336
 5428SOL     OW17179   4.554   1.273   5.146
 5428SOL    HW117180   4.549   1.306   5.241
 5428SOL    HW217181   4.468   1.292   5.100
 5429SOL     OW17182   4.396   1.616   3.878
 5429SOL    HW117183   4.405   1.626   3.779
 5429SOL    HW217184   4.356   1.527   3.899
 5430SOL     OW17185   3.987   0.326   4.444
 5430SOL    HW117186   3.908   0.377   4.410
 5430SOL    HW217187   3.978   0.311   4.542
 5431SOL     OW17188   4.918   1.612   3.755
 5431SOL    HW117189   4.924   1.519   3.792
 5431SOL    HW217190   4.859   1.612   3.675
 5432SOL     OW17191   4.546   1.002   5.096
 5432SOL    HW117192   4.586   1.001   5.004
 5432SOL    HW217193   4.556   1.094   5.136
 5433SOL     OW17194   4.640   0.910   4.015
 5433SOL    HW117195   4.703   0.948   3.947
 5433SOL    HW217196   4.680   0.827   4.054
 5434SOL     OW17197   4.096   1.288   5.214
 5434SOL    HW117198   4.083   1.381   5.180
 5434SOL    HW217199   4.012   1.236   5.201
 5435SOL     OW17200   4.763   1.098   4.420
 5435SOL    HW117201   4.693   1.051   4.474
 5435SOL    HW217202   4.822   1.030   4.377
 5436SOL     OW17203   4.738   0.236   4.695
 5436SOL    HW117204   4.730   0.200   4.602
 5436SOL    HW217205   4.736   0.160   4.760
 5437SOL     OW17206   4.314   1.487   4.215
 5437SOL    HW117207   4.356   1.429   4.145
 5437SOL    HW217208   4.270   1.566   4.171
 5438SOL     OW17209   3.979   1.348   4.014
 5438SOL    HW117210   3.883   1.349   3.987
 5438SOL    HW217211   3.991   1.401   4.098
 5439SOL     OW17212   3.829   1.013   5.450
 5439SOL    HW117213   3.752   0.980   5.504
 5439SOL    HW217214   3.914   0.983   5.492
 5440SOL     OW17215   4.396   0.203   5.213
 5440SOL    HW117216   4.486   0.187   5.173
 5440SOL    HW217217   4.404   0.208   5.312
 5441SOL     OW17218   3.799   0.345   3.757
 5441SOL    HW117219   3.707   0.317   3.728
 5441SOL    HW217220   3.830   0.422   3.701
 5442SOL     OW17221   5.164   0.856   5.122
 5442SOL    HW117222   5.107   0.908   5.059
 5442SOL    HW217223   5.260   0.868   5.098
 5443SOL     OW17224   3.796   0.166   4.042
 5443SOL    HW117225   3.779   0.249   3.988
 5443SOL    HW217226   3.886   0.129   4.020
 5444SOL     OW17227   4.907   1.335   3.843
 5444SOL    HW117228   4.808   1.324   3.845
 5444SOL    HW217229   4.941   1.350   3.936
 5445SOL     OW17230   4.337   0.842   5.155
 5445SOL    HW117231   4.393   0.923   5.138
 5445SOL    HW217232   4.396   0.762   5.158
 5446SOL     OW17233   4.440   0.565   5.432
 5446SOL    HW117234   4.459   0.630   5.506
 5446SOL    HW217235   4.500   0.485   5.441
 5447SOL     OW17236   5.174   1.220   5.357
 5447SOL    HW117237   5.165   1.210   5.456
 5447SOL    HW217238   5.270   1.213   5.331
 5448SOL     OW17239   4.114   1.741   5.284
 5448SOL    HW117240   4.023   1.782   5.282
 5448SOL    HW217241   4.107   1.647   5.316
 5449SOL     OW17242   4.949   0.325   4.173
 5449SOL    HW117243   5.014   0.251   4.162
 5449SOL    HW217244   4.969   0.375   4.257
 5450SOL     OW17245   4.318   0.745   4.376
 5450SOL    HW117246   4.368   0.830   4.357
 5450SOL    HW217247   4.230   0.747   4.328
 5451SOL     OW17248   4.583   1.374   3.740
 5451SOL    HW117249   4.537   1.389   3.828
 5451SOL    HW217250   4.627   1.459   3.710
 5452SOL     OW17251   4.385   1.790   4.677
 5452SOL    HW117252   4.339   1.878   4.664
 5452SOL    HW217253   4.484   1.802   4.670
 5453SOL     OW17254   4.583   0.956   4.585
 5453SOL    HW117255   4.637   0.887   4.633
 5453SOL    HW217256   4.551   1.025   4.651
 5454SOL     OW17257   4.807   0.984   3.811
 5454SOL    HW117258   4.784   1.037   3.729
 5454SOL    HW217259   4.888   0.928   3.792
 5455SOL     OW17260   3.945   1.314   5.568
 5455SOL    HW117261   3.880   1.241   5.547
 5455SOL    HW217262   3.949   1.328   5.666
 5456SOL     OW17263   3.803   1.240   4.377
 5456SOL    HW117264   3.802   1.193   4.465
 5456SOL    HW217265   3.885   1.212   4.326
 5457SOL     OW17266   4.396   1.391   5.348
 5457SOL    HW117267   4.318   1.341   5.386
 5457SOL    HW217268   4.393   1.486   5.379
 5458SOL     OW17269   4.152   0.424   4.244
 5458SOL    HW117270   4.182   0.352   4.182
 5458SOL    HW217271   4.113   0.384   4.327
 5459SOL     OW17272   5.429   1.487   4.828
 5459SOL    HW117273   5.336   1.462   4.801
 5459SOL    HW217274   5.455   1.437   4.910
 5460SOL     OW17275   4.041   0.547   5.004
 5460SOL    HW117276   4.079   0.488   5.076
 5460SOL    HW217277   4.081   0.521   4.916
 5461SOL     OW17278   4.536   1.586   4.411
 5461SOL    HW117279   4.568   1.596   4.317
 5461SOL    HW217280   4.457   1.524   4.413
 5462SOL     OW17281   5.148   0.214   4.836
 5462SOL    HW117282   5.200   0.149   4.891
 5462SOL    HW217283   5.099   0.277   4.897
 5463SOL     OW17284   4.725   0.034   4.878
 5463SOL    HW117285   4.662  -0.038   4.847
 5463SOL    HW217286   4.818  -0.002   4.878
 5464SOL     OW17287   4.494   1.330   4.025
 5464SOL    HW117288   4.448   1.243   4.042
 5464SOL    HW217289   4.585   1.327   4.066
 5465SOL     OW17290   4.342   1.567   5.008
 5465SOL    HW117291   4.337   1.649   5.065
 5465SOL    HW217292   4.431   1.564   4.963
 5466SOL     OW17293   5.076   0.052   3.892
 5466SOL    HW117294   5.111   0.011   3.808
 5466SOL    HW217295   4.986   0.014   3.912
 5467SOL     OW17296   5.024   0.453   4.415
 5467SOL    HW117297   4.965   0.533   4.419
 5467SOL    HW217298   5.039   0.418   4.508
 5468SOL     OW17299   5.317   0.221   4.606
 5468SOL    HW117300   5.233   0.220   4.660
 5468SOL    HW217301   5.319   0.304   4.550
 5469SOL     OW17302   3.763   1.077   4.024
 5469SOL    HW117303   3.862   1.066   4.015
 5469SOL    HW217304   3.723   0.991   4.056
 5470SOL     OW17305   4.599   1.646   4.061
 5470SOL    HW117306   4.522   1.611   4.007
 5470SOL    HW217307   4.567   1.717   4.123
 5471SOL     OW17308   3.954   0.628   5.699
 5471SOL    HW117309   3.861   0.626   5.736
 5471SOL    HW217310   3.955   0.589   5.607
 5472SOL     OW17311   3.949   0.275   6.582
 5472SOL    HW117312   3.984   0.258   6.674
 5472SOL    HW217313   3.861   0.230   6.570
 5473SOL     OW17314   3.743   0.368   6.233
 5473SOL    HW117315   3.661   0.411   6.272
 5473SOL    HW217316   3.715   0.295   6.170
 5474SOL     OW17317   4.293   1.275   6.751
 5474SOL    HW117318   4.200   1.268   6.714
 5474SOL    HW217319   4.304   1.364   6.795
 5475SOL     OW17320   5.279   1.511   6.289
 5475SOL    HW117321   5.222   1.495   6.370
 5475SOL    HW217322   5.220   1.521   6.209
 5476SOL     OW17323   4.859   0.703   6.303
 5476SOL    HW117324   4.916   0.781   6.278
 5476SOL    HW217325   4.799   0.729   6.379
 5477SOL     OW17326   4.492   1.144   6.609
 5477SOL    HW117327   4.414   1.161   6.669
 5477SOL    HW217328   4.526   1.231   6.573
 5478SOL     OW17329   4.574   0.798   7.409
 5478SOL    HW117330   4.570   0.874   7.474
 5478SOL    HW217331   4.596   0.834   7.318
 5479SOL     OW17332   4.409   1.012   6.251
 5479SOL    HW117333   4.478   0.996   6.321
 5479SOL    HW217334   4.336   1.069   6.289
 5480SOL     OW17335   4.410   1.161   7.389
 5480SOL    HW117336   4.470   1.240   7.403
 5480SOL    HW217337   4.324   1.192   7.348
 5481SOL     OW17338   4.059   1.435   6.647
 5481SOL    HW117339   3.981   1.404   6.594
 5481SOL    HW217340   4.117   1.493   6.590
 5482SOL     OW17341   5.184   1.505   6.925
 5482SOL    HW117342   5.208   1.599   6.951
 5482SOL    HW217343   5.168   1.451   7.007
 5483SOL     OW17344   4.162   0.392   7.085
 5483SOL    HW117345   4.244   0.336   7.094
 5483SOL    HW217346   4.081   0.334   7.089
 5484SOL     OW17347   3.955   1.713   6.069
 5484SOL    HW117348   3.989   1.790   6.123
 5484SOL    HW217349   3.999   1.713   5.979
 5485SOL     OW17350   4.851   1.341   7.276
 5485SOL    HW117351   4.898   1.341   7.364
 5485SOL    HW217352   4.803   1.254   7.265
 5486SOL     OW17353   3.954   1.434   6.124
 5486SOL    HW117354   3.928   1.530   6.124
 5486SOL    HW217355   3.883   1.380   6.169
 5487SOL     OW17356   3.964   1.091   6.472
 5487SOL    HW117357   3.978   1.007   6.524
 5487SOL    HW217358   3.909   1.155   6.527
 5488SOL     OW17359   4.344   1.786   7.025
 5488SOL    HW117360   4.252   1.769   7.060
 5488SOL    HW217361   4.372   1.878   7.051
 5489SOL     OW17362   4.330   0.964   5.709
 5489SOL    HW117363   4.337   1.048   5.655
 5489SOL    HW217364   4.376   0.977   5.797
 5490SOL     OW17365   5.318   0.114   7.066
 5490SOL    HW117366   5.300   0.181   6.994
 5490SOL    HW217367   5.315   0.160   7.155
 5491SOL     OW17368   3.846   0.643   6.149
 5491SOL    HW117369   3.801   0.555   6.166
 5491SOL    HW217370   3.845   0.697   6.233
 5492SOL     OW17371   3.751   1.596   5.703
 5492SOL    HW117372   3.732   1.500   5.724
 5492SOL    HW217373   3.718   1.654   5.778
 5493SOL     OW17374   5.413   0.922   6.198
 5493SOL    HW117375   5.508   0.893   6.206
 5493SOL    HW217376   5.405   0.987   6.123
 5494SOL     OW17377   3.837   0.737   7.183
 5494SOL    HW117378   3.925   0.724   7.228
 5494SOL    HW217379   3.824   0.834   7.161
 5495SOL     OW17380   4.337   1.365   6.312
 5495SOL    HW117381   4.288   1.278   6.321
 5495SOL    HW217382   4.314   1.408   6.225
 5496SOL     OW17383   5.017   1.228   7.009
 5496SOL    HW117384   5.054   1.155   6.951
 5496SOL    HW217385   5.069   1.233   7.094
 5497SOL     OW17386   4.533   0.004   6.088
 5497SOL    HW117387   4.573   0.095   6.079
 5497SOL    HW217388   4.433   0.012   6.094
 5498SOL     OW17389   3.921   0.976   6.850
 5498SOL    HW117390   4.010   0.931   6.836
 5498SOL    HW217391   3.848   0.911   6.831
 5499SOL     OW17392   4.911   1.792   7.202
 5499SOL    HW117393   4.935   1.852   7.126
 5499SOL    HW217394   4.918   1.697   7.172
 5500SOL     OW17395   4.041   0.251   7.387
 5500SOL    HW117396   4.112   0.322   7.393
 5500SOL    HW217397   3.953   0.290   7.415
 5501SOL     OW17398   5.190   1.417   6.539
 5501SOL    HW117399   5.131   1.423   6.619
 5501SOL    HW217400   5.175   1.329   6.493
 5502SOL     OW17401   4.322   0.729   5.856
 5502SOL    HW117402   4.346   0.798   5.788
 5502SOL    HW217403   4.244   0.762   5.910
 5503SOL     OW17404   5.005   0.345   6.530
 5503SOL    HW117405   4.919   0.295   6.517
 5503SOL    HW217406   5.067   0.291   6.586
 5504SOL     OW17407   4.531   0.605   7.051
 5504SOL    HW117408   4.484   0.602   7.140
 5504SOL    HW217409   4.480   0.550   6.985
 5505SOL     OW17410   5.118   0.469   7.260
 5505SOL    HW117411   5.098   0.512   7.348
 5505SOL    HW217412   5.196   0.407   7.269
 5506SOL     OW17413   4.697   0.890   7.158
 5506SOL    HW117414   4.743   0.806   7.129
 5506SOL    HW217415   4.641   0.924   7.083
 5507SOL     OW17416   4.715   0.410   6.828
 5507SOL    HW117417   4.638   0.444   6.882
 5507SOL    HW217418   4.681   0.359   6.749
 5508SOL     OW17419   4.765   0.701   6.015
 5508SOL    HW117420   4.791   0.697   6.111
 5508SOL    HW217421   4.680   0.650   6.001
 5509SOL     OW17422   3.800   0.811   6.375
 5509SOL    HW117423   3.899   0.799   6.384
 5509SOL    HW217424   3.776   0.906   6.396
 5510SOL     OW17425   3.854   1.821   7.157
 5510SOL    HW117426   3.844   1.806   7.256
 5510SOL    HW217427   3.768   1.857   7.121
 5511SOL     OW17428   4.589   0.348   5.781
 5511SOL    HW117429   4.648   0.411   5.732
 5511SOL    HW217430   4.608   0.254   5.752
 5512SOL     OW17431   5.086   1.144   6.131
 5512SOL    HW117432   5.169   1.115   6.083
 5512SOL    HW217433   5.037   1.211   6.075
 5513SOL     OW17434   4.274   0.196   6.471
 5513SOL    HW117435   4.269   0.191   6.571
 5513SOL    HW217436   4.276   0.292   6.442
 5514SOL     OW17437   4.732   1.456   6.063
 5514SOL    HW117438   4.686   1.528   6.011
 5514SOL    HW217439   4.728   1.476   6.161
 5515SOL     OW17440   4.075   1.801   6.439
 5515SOL    HW117441   4.125   1.715   6.445
 5515SOL    HW217442   4.140   1.878   6.436
 5516SOL     OW17443   4.951   1.550   7.092
 5516SOL    HW117444   4.957   1.473   7.156
 5516SOL    HW217445   4.899   1.524   7.012
 5517SOL     OW17446   4.045   0.943   5.828
 5517SOL    HW117447   4.127   0.982   5.786
 5517SOL    HW217448   4.018   0.861   5.779
 5518SOL     OW17449   4.185   1.266   7.313
 5518SOL    HW117450   4.135   1.267   7.227
 5518SOL    HW217451   4.122   1.248   7.389
 5519SOL     OW17452   4.835   1.776   5.823
 5519SOL    HW117453   4.775   1.714   5.873
 5519SOL    HW217454   4.866   1.732   5.738
 5520SOL     OW17455   3.926   0.285   7.084
 5520SOL    HW117456   3.846   0.345   7.071
 5520SOL    HW217457   3.916   0.236   7.170
 5521SOL     OW17458   4.188   1.743   5.909
 5521SOL    HW117459   4.221   1.782   5.995
 5521SOL    HW217460   4.264   1.736   5.844
 5522SOL     OW17461   5.124   0.107   6.012
 5522SOL    HW117462   5.100   0.070   5.922
 5522SOL    HW217463   5.223   0.123   6.016
 5523SOL     OW17464   3.973   1.785   6.827
 5523SOL    HW117465   4.030   1.720   6.877
 5523SOL    HW217466   3.957   1.752   6.734
 5524SOL     OW17467   4.664   1.698   6.490
 5524SOL    HW117468   4.744   1.641   6.511
 5524SOL    HW217469   4.615   1.658   6.413
 5525SOL     OW17470   4.106   0.700   6.066
 5525SOL    HW117471   4.151   0.610   6.063
 5525SOL    HW217472   4.012   0.689   6.099
 5526SOL     OW17473   4.338   0.122   5.703
 5526SOL    HW117474   4.436   0.100   5.710
 5526SOL    HW217475   4.307   0.105   5.610
 5527SOL     OW17476   4.505   0.264   7.335
 5527SOL    HW117477   4.572   0.203   7.378
 5527SOL    HW217478   4.432   0.283   7.400
 5528SOL     OW17479   4.612   1.514   6.781
 5528SOL    HW117480   4.589   1.489   6.687
 5528SOL    HW217481   4.673   1.445   6.820
 5529SOL     OW17482   5.075   0.590   7.019
 5529SOL    HW117483   5.103   0.547   7.104
 5529SOL    HW217484   5.100   0.686   7.020
 5530SOL     OW17485   4.527   1.402   6.510
 5530SOL    HW117486   4.617   1.416   6.468
 5530SOL    HW217487   4.456   1.404   6.439
 5531SOL     OW17488   4.646   0.503   6.485
 5531SOL    HW117489   4.621   0.494   6.389
 5531SOL    HW217490   4.694   0.421   6.516
 5532SOL     OW17491   4.263   0.064   6.098
 5532SOL    HW117492   4.182   0.065   6.156
 5532SOL    HW217493   4.266   0.147   6.043
 5533SOL     OW17494   5.158   1.188   5.627
 5533SOL    HW117495   5.190   1.112   5.684
 5533SOL    HW217496   5.066   1.215   5.657
 5534SOL     OW17497   4.021   0.035   5.757
 5534SOL    HW117498   4.070   0.119   5.736
 5534SOL    HW217499   4.083  -0.030   5.802
 5535SOL     OW17500   4.659   0.236   6.066
 5535SOL    HW117501   4.611   0.277   5.988
 5535SOL    HW217502   4.758   0.234   6.047
 5536SOL     OW17503   4.800   0.683   7.050
 5536SOL    HW117504   4.720   0.622   7.053
 5536SOL    HW217505   4.881   0.630   7.026
 5537SOL     OW17506   4.951   1.570   6.379
 5537SOL    HW117507   4.972   1.644   6.314
 5537SOL    HW217508   5.019   1.570   6.452
 5538SOL     OW17509   4.183   1.152   6.327
 5538SOL    HW117510   4.112   1.125   6.392
 5538SOL    HW217511   4.157   1.124   6.234
 5539SOL     OW17512   4.995   1.797   6.177
 5539SOL    HW117513   5.039   1.861   6.113
 5539SOL    HW217514   4.945   1.849   6.247
 5540SOL     OW17515   4.756   0.549   5.602
 5540SOL    HW117516   4.715   0.631   5.563
 5540SOL    HW217517   4.820   0.575   5.675
 5541SOL     OW17518   3.802   0.556   6.972
 5541SOL    HW117519   3.894   0.555   6.931
 5541SOL    HW217520   3.796   0.630   7.039
 5542SOL     OW17521   4.285   0.222   6.733
 5542SOL    HW117522   4.323   0.138   6.770
 5542SOL    HW217523   4.197   0.241   6.777
 5543SOL     OW17524   4.590   0.454   6.228
 5543SOL    HW117525   4.558   0.526   6.166
 5543SOL    HW217526   4.614   0.373   6.175
 5544SOL     OW17527   4.741   0.039   6.339
 5544SOL    HW117528   4.669   0.044   6.270
 5544SOL    HW217529   4.717  -0.030   6.408
 5545SOL     OW17530   5.153   1.173   6.453
 5545SOL    HW117531   5.098   1.089   6.446
 5545SOL    HW217532   5.179   1.202   6.361
 5546SOL     OW17533   4.212   1.385   5.760
 5546SOL    HW117534   4.125   1.370   5.807
 5546SOL    HW217535   4.195   1.411   5.665
 5547SOL     OW17536   5.114   0.575   5.664
 5547SOL    HW117537   5.060   0.554   5.745
 5547SOL    HW217538   5.205   0.534   5.673
 5548SOL     OW17539   4.251   0.256   5.914
 5548SOL    HW117540   4.278   0.197   5.839
 5548SOL    HW217541   4.251   0.351   5.883
 5549SOL     OW17542   4.788   1.347   6.926
 5549SOL    HW117543   4.708   1.324   6.981
 5549SOL    HW217544   4.871   1.321   6.975
 5550SOL     OW17545   5.316   1.629   7.211
 5550SOL    HW117546   5.343   1.663   7.121
 5550SOL    HW217547   5.395   1.591   7.257
 5551SOL     OW17548   4.835   1.195   6.686
 5551SOL    HW117549   4.795   1.239   6.767
 5551SOL    HW217550   4.794   1.232   6.603
 5552SOL     OW17551   4.639   0.089   6.988
 5552SOL    HW117552   4.664   0.069   6.893
 5552SOL    HW217553   4.711   0.145   7.030
 5553SOL     OW17554   4.704   1.116   7.305
 5553SOL    HW117555   4.605   1.122   7.315
 5553SOL    HW217556   4.727   1.036   7.249
 5554SOL     OW17557   4.429   1.050   5.954
 5554SOL    HW117558   4.415   1.057   6.053
 5554SOL    HW217559   4.513   0.999   5.936
 5555SOL     OW17560   4.134   0.813   6.837
 5555SOL    HW117561   4.220   0.825   6.887
 5555SOL    HW217562   4.092   0.726   6.864
 5556SOL     OW17563   4.998   0.386   6.848
 5556SOL    HW117564   5.019   0.460   6.912
 5556SOL    HW217565   4.909   0.403   6.805
 5557SOL     OW17566   3.788   1.564   6.917
 5557SOL    HW117567   3.742   1.646   6.883
 5557SOL    HW217568   3.886   1.583   6.926
 5558SOL     OW17569   4.091   1.100   6.087
 5558SOL    HW117570   4.084   1.183   6.031
 5558SOL    HW217571   4.095   1.020   6.027
 5559SOL     OW17572   4.290   0.537   6.451
 5559SOL    HW117573   4.302   0.603   6.377
 5559SOL    HW217574   4.336   0.571   6.534
 5560SOL     OW17575   4.976   1.348   5.974
 5560SOL    HW117576   5.026   1.425   6.014
 5560SOL    HW217577   4.881   1.350   6.006
 5561SOL     OW17578   4.996   1.445   6.728
 5561SOL    HW117579   5.043   1.458   6.815
 5561SOL    HW217580   4.930   1.371   6.737
 5562SOL     OW17581   4.078   1.510   6.915
 5562SOL    HW117582   4.057   1.466   6.828
 5562SOL    HW217583   4.175   1.536   6.918
 5563SOL     OW17584   4.126   0.751   7.184
 5563SOL    HW117585   4.194   0.806   7.137
 5563SOL    HW217586   4.166   0.663   7.211
 5564SOL     OW17587   4.737   0.105   7.356
 5564SOL    HW117588   4.743   0.190   7.304
 5564SOL    HW217589   4.769   0.029   7.299
 5565SOL     OW17590   4.228   0.050   7.326
 5565SOL    HW117591   4.186  -0.007   7.256
 5565SOL    HW217592   4.162   0.119   7.358
 5566SOL     OW17593   4.297   0.870   6.615
 5566SOL    HW117594   4.341   0.959   6.606
 5566SOL    HW217595   4.234   0.870   6.692
 5567SOL     OW17596   5.084   0.862   6.631
 5567SOL    HW117597   5.009   0.862   6.565
 5567SOL    HW217598   5.121   0.770   6.640
 5568SOL     OW17599   4.933   0.525   5.861
 5568SOL    HW117600   4.946   0.441   5.915
 5568SOL    HW217601   4.904   0.599   5.921
 5569SOL     OW17602   4.031   0.213   6.817
 5569SOL    HW117603   4.008   0.250   6.907
 5569SOL    HW217604   4.001   0.118   6.811
 5570SOL     OW17605   3.761   1.310   6.868
 5570SOL    HW117606   3.814   1.261   6.936
 5570SOL    HW217607   3.783   1.408   6.873
 5571SOL     OW17608   4.456   0.634   6.650
 5571SOL    HW117609   4.515   0.608   6.574
 5571SOL    HW217610   4.428   0.730   6.639
 5572SOL     OW17611   4.031   0.063   6.204
 5572SOL    HW117612   4.020   0.157   6.237
 5572SOL    HW217613   4.026   0.000   6.281
 5573SOL     OW17614   5.346   0.367   5.960
 5573SOL    HW117615   5.348   0.291   6.024
 5573SOL    HW217616   5.298   0.444   6.000
 5574SOL     OW17617   4.747   0.766   6.552
 5574SOL    HW117618   4.762   0.787   6.648
 5574SOL    HW217619   4.717   0.671   6.543
 5575SOL     OW17620   4.704   1.573   7.286
 5575SOL    HW117621   4.684   1.617   7.198
 5575SOL    HW217622   4.743   1.482   7.270
 5576SOL     OW17623   4.074   0.898   7.390
 5576SOL    HW117624   4.150   0.942   7.438
 5576SOL    HW217625   4.109   0.851   7.308
 5577SOL     OW17626   5.027   0.838   5.628
 5577SOL    HW117627   5.061   0.745   5.643
 5577SOL    HW217628   5.045   0.865   5.533
 5578SOL     OW17629   4.792   1.333   6.435
 5578SOL    HW117630   4.799   1.249   6.380
 5578SOL    HW217631   4.854   1.402   6.399
 5579SOL     OW17632   4.043   0.810   6.535
 5579SOL    HW117633   4.136   0.846   6.540
 5579SOL    HW217634   4.037   0.725   6.587
 5580SOL     OW17635   4.063   0.509   6.592
 5580SOL    HW117636   4.011   0.426   6.575
 5580SOL    HW217637   4.140   0.514   6.528
 5581SOL     OW17638   4.862   0.380   7.264
 5581SOL    HW117639   4.817   0.443   7.328
 5581SOL    HW217640   4.955   0.411   7.247
 5582SOL     OW17641   4.884   0.207   7.063
 5582SOL    HW117642   4.884   0.271   7.140
 5582SOL    HW217643   4.912   0.255   6.980
 5583SOL     OW17644   3.732   1.326   5.786
 5583SOL    HW117645   3.639   1.347   5.755
 5583SOL    HW217646   3.742   1.227   5.799
 5584SOL     OW17647   3.812   1.801   6.513
 5584SOL    HW117648   3.770   1.715   6.486
 5584SOL    HW217649   3.906   1.804   6.479
 5585SOL     OW17650   4.228   1.568   6.496
 5585SOL    HW117651   4.294   1.642   6.505
 5585SOL    HW217652   4.272   1.489   6.454
 5586SOL     OW17653   4.726   0.796   6.824
 5586SOL    HW117654   4.767   0.764   6.910
 5586SOL    HW217655   4.630   0.769   6.821
 5587SOL     OW17656   3.764   0.544   6.700
 5587SOL    HW117657   3.849   0.511   6.659
 5587SOL    HW217658   3.777   0.559   6.798
 5588SOL     OW17659   3.913   0.520   7.308
 5588SOL    HW117660   3.972   0.480   7.238
 5588SOL    HW217661   3.855   0.591   7.267
 5589SOL     OW17662   5.093   0.950   7.246
 5589SOL    HW117663   5.132   1.039   7.266
 5589SOL    HW217664   5.103   0.930   7.149
 5590SOL     OW17665   4.539   0.572   5.911
 5590SOL    HW117666   4.546   0.483   5.865
 5590SOL    HW217667   4.445   0.606   5.903
 5591SOL     OW17668   3.976   1.564   7.330
 5591SOL    HW117669   3.946   1.621   7.406
 5591SOL    HW217670   3.969   1.467   7.356
 5592SOL     OW17671   4.395   0.464   6.855
 5592SOL    HW117672   4.361   0.375   6.825
 5592SOL    HW217673   4.421   0.518   6.775
 5593SOL     OW17674   4.654   1.678   7.051
 5593SOL    HW117675   4.630   1.660   6.956
 5593SOL    HW217676   4.684   1.772   7.061
 5594SOL     OW17677   4.197   0.500   5.777
 5594SOL    HW117678   4.258   0.580   5.781
 5594SOL    HW217679   4.102   0.531   5.784
 5595SOL     OW17680   3.883   1.137   7.052
 5595SOL    HW117681   3.905   1.076   7.128
 5595SOL    HW217682   3.893   1.088   6.966
 5596SOL     OW17683   5.071   1.059   6.820
 5596SOL    HW117684   5.095   0.996   6.746
 5596SOL    HW217685   4.981   1.099   6.802
 5597SOL     OW17686   5.026   0.855   5.895
 5597SOL    HW117687   4.940   0.824   5.937
 5597SOL    HW217688   5.022   0.841   5.796
 5598SOL     OW17689   4.976   1.731   6.714
 5598SOL    HW117690   5.060   1.736   6.660
 5598SOL    HW217691   4.953   1.635   6.732
 5599SOL     OW17692   3.807   1.258   6.608
 5599SOL    HW117693   3.802   1.257   6.708
 5599SOL    HW217694   3.724   1.217   6.570
 5600SOL     OW17695   4.412   1.662   7.302
 5600SOL    HW117696   4.356   1.743   7.311
 5600SOL    HW217697   4.464   1.666   7.216
 5601SOL     OW17698   5.112   1.573   6.063
 5601SOL    HW117699   5.179   1.585   5.989
 5601SOL    HW217700   5.072   1.662   6.086
 5602SOL     OW17701   3.854   1.794   7.437
 5602SOL    HW117702   3.813   1.720   7.490
 5602SOL    HW217703   3.918   1.845   7.495
 5603SOL     OW17704   5.004   0.927   6.258
 5603SOL    HW117705   5.064   0.846   6.260
 5603SOL    HW217706   5.044   0.996   6.198
 5604SOL     OW17707   4.554   1.273   7.008
 5604SOL    HW117708   4.549   1.306   7.103
 5604SOL    HW217709   4.468   1.292   6.962
 5605SOL     OW17710   4.396   1.616   5.740
 5605SOL    HW117711   4.405   1.626   5.641
 5605SOL    HW217712   4.356   1.527   5.761
 5606SOL     OW17713   3.987   0.326   6.306
 5606SOL    HW117714   3.908   0.377   6.272
 5606SOL    HW217715   3.978   0.311   6.404
 5607SOL     OW17716   4.918   1.612   5.617
 5607SOL    HW117717   4.924   1.519   5.654
 5607SOL    HW217718   4.859   1.612   5.537
 5608SOL     OW17719   4.546   1.002   6.958
 5608SOL    HW117720   4.586   1.001   6.866
 5608SOL    HW217721   4.556   1.094   6.998
 5609SOL     OW17722   4.640   0.910   5.877
 5609SOL    HW117723   4.703   0.948   5.809
 5609SOL    HW217724   4.680   0.827   5.916
 5610SOL     OW17725   4.096   1.288   7.076
 5610SOL    HW117726   4.083   1.381   7.042
 5610SOL    HW217727   4.012   1.236   7.063
 5611SOL     OW17728   4.763   1.098   6.282
 5611SOL    HW117729   4.693   1.051   6.336
 5611SOL    HW217730   4.822   1.030   6.239
 5612SOL     OW17731   4.738   0.236   6.557
 5612SOL    HW117732   4.730   0.200   6.464
 5612SOL    HW217733   4.736   0.160   6.622
 5613SOL     OW17734   4.314   1.487   6.077
 5613SOL    HW117735   4.356   1.429   6.007
 5613SOL    HW217736   4.270   1.566   6.033
 5614SOL     OW17737   3.979   1.348   5.876
 5614SOL    HW117738   3.883   1.349   5.849
 5614SOL    HW217739   3.991   1.401   5.960
 5615SOL     OW17740   3.829   1.013   7.312
 5615SOL    HW117741   3.752   0.980   7.366
 5615SOL    HW217742   3.914   0.983   7.354
 5616SOL     OW17743   4.396   0.203   7.075
 5616SOL    HW117744   4.486   0.187   7.035
 5616SOL    HW217745   4.404   0.208   7.174
 5617SOL     OW17746   3.799   0.345   5.619
 5617SOL    HW117747   3.707   0.317   5.590
 5617SOL    HW217748   3.830   0.422   5.563
 5618SOL     OW17749   5.164   0.856   6.984
 5618SOL    HW117750   5.107   0.908   6.921
 5618SOL    HW217751   5.260   0.868   6.960
 5619SOL     OW17752   3.796   0.166   5.904
 5619SOL    HW117753   3.779   0.249   5.850
 5619SOL    HW217754   3.886   0.129   5.882
 5620SOL     OW17755   4.907   1.335   5.705
 5620SOL    HW117756   4.808   1.324   5.707
 5620SOL    HW217757   4.941   1.350   5.798
 5621SOL     OW17758   4.337   0.842   7.017
 5621SOL    HW117759   4.393   0.923   7.000
 5621SOL    HW217760   4.396   0.762   7.020
 5622SOL     OW17761   4.440   0.565   7.294
 5622SOL    HW117762   4.459   0.630   7.368
 5622SOL    HW217763   4.500   0.485   7.303
 5623SOL     OW17764   5.174   1.220   7.219
 5623SOL    HW117765   5.165   1.210   7.318
 5623SOL    HW217766   5.270   1.213   7.193
 5624SOL     OW17767   4.114   1.741   7.146
 5624SOL    HW117768   4.023   1.782   7.144
 5624SOL    HW217769   4.107   1.647   7.178
 5625SOL     OW17770   4.949   0.325   6.035
 5625SOL    HW117771   5.014   0.251   6.024
 5625SOL    HW217772   4.969   0.375   6.119
 5626SOL     OW17773   4.318   0.745   6.238
 5626SOL    HW117774   4.368   0.830   6.219
 5626SOL    HW217775   4.230   0.747   6.190
 5627SOL     OW17776   4.583   1.374   5.602
 5627SOL    HW117777   4.537   1.389   5.690
 5627SOL    HW217778   4.627   1.459   5.572
 5628SOL     OW17779   4.385   1.790   6.539
 5628SOL    HW117780   4.339   1.878   6.526
 5628SOL    HW217781   4.484   1.802   6.532
 5629SOL     OW17782   4.583   0.956   6.447
 5629SOL    HW117783   4.637   0.887   6.495
 5629SOL    HW217784   4.551   1.025   6.513
 5630SOL     OW17785   4.807   0.984   5.673
 5630SOL    HW117786   4.784   1.037   5.591
 5630SOL    HW217787   4.888   0.928   5.654
 5631SOL     OW17788   3.945   1.314   7.430
 5631SOL    HW117789   3.880   1.241   7.409
 5631SOL    HW217790   3.949   1.328   7.528
 5632SOL     OW17791   3.803   1.240   6.239
 5632SOL    HW117792   3.802   1.193   6.327
 5632SOL    HW217793   3.885   1.212   6.188
 5633SOL     OW17794   4.396   1.391   7.210
 5633SOL    HW117795   4.318   1.341   7.248
 5633SOL    HW217796   4.393   1.486   7.241
 5634SOL     OW17797   4.152   0.424   6.106
 5634SOL    HW117798   4.182   0.352   6.044
 5634SOL    HW217799   4.113   0.384   6.189
 5635SOL     OW17800   5.429   1.487   6.690
 5635SOL    HW117801   5.336   1.462   6.663
 5635SOL    HW217802   5.455   1.437   6.772
 5636SOL     OW17803   4.041   0.547   6.866
 5636SOL    HW117804   4.079   0.488   6.938
 5636SOL    HW217805   4.081   0.521   6.778
 5637SOL     OW17806   4.536   1.586   6.273
 5637SOL    HW117807   4.568   1.596   6.179
 5637SOL    HW217808   4.457   1.524   6.275
 5638SOL     OW17809   5.148   0.214   6.698
 5638SOL    HW117810   5.200   0.149   6.753
 5638SOL    HW217811   5.099   0.277   6.759
 5639SOL     OW17812   4.725   0.034   6.740
 5639SOL    HW117813   4.662  -0.038   6.709
 5639SOL    HW217814   4.818  -0.002   6.740
 5640SOL     OW17815   4.494   1.330   5.887
 5640SOL    HW117816   4.448   1.243   5.904
 5640SOL    HW217817   4.585   1.327   5.928
 5641SOL     OW17818   4.342   1.567   6.870
 5641SOL    HW117819   4.337   1.649   6.927
 5641SOL    HW217820   4.431   1.564   6.825
 5642SOL     OW17821   5.076   0.052   5.754
 5642SOL    HW117822   5.111   0.011   5.670
 5642SOL    HW217823   4.986   0.014   5.774
 5643SOL     OW17824   5.024   0.453   6.277
 5643SOL    HW117825   4.965   0.533   6.281
 5643SOL    HW217826   5.039   0.418   6.370
 5644SOL     OW17827   5.317   0.221   6.468
 5644SOL    HW117828   5.233   0.220   6.522
 5644SOL    HW217829   5.319   0.304   6.412
 5645SOL     OW17830   3.763   1.077   5.886
 5645SOL    HW117831   3.862   1.066   5.877
 5645SOL    HW217832   3.723   0.991   5.918
 5646SOL     OW17833   4.599   1.646   5.923
 5646SOL    HW117834   4.522   1.611   5.869
 5646SOL    HW217835   4.567   1.717   5.985
 5647SOL     OW17836   3.954   0.628   7.561
 5647SOL    HW117837   3.861   0.626   7.598
 5647SOL    HW217838   3.955   0.589   7.469
 5648SOL     OW17839   3.955   1.713   7.931
 5648SOL    HW117840   3.989   1.790   7.985
 5648SOL    HW217841   3.999   1.713   7.841
 5649SOL     OW17842   3.954   1.434   7.986
 5649SOL    HW117843   3.928   1.530   7.986
 5649SOL    HW217844   3.883   1.380   8.031
 5650SOL     OW17845   4.330   0.964   7.571
 5650SOL    HW117846   4.337   1.048   7.517
 5650SOL    HW217847   4.376   0.977   7.659
 5651SOL     OW17848   3.751   1.596   7.565
 5651SOL    HW117849   3.732   1.500   7.586
 5651SOL    HW217850   3.718   1.654   7.640
 5652SOL     OW17851   5.413   0.922   8.060
 5652SOL    HW117852   5.508   0.893   8.068
 5652SOL    HW217853   5.405   0.987   7.985
 5653SOL     OW17854   4.533   0.004   7.950
 5653SOL    HW117855   4.573   0.095   7.941
 5653SOL    HW217856   4.433   0.012   7.956
 5654SOL     OW17857   4.322   0.729   7.718
 5654SOL    HW117858   4.346   0.798   7.650
 5654SOL    HW217859   4.244   0.762   7.772
 5655SOL     OW17860   3.800   0.811   8.237
 5655SOL    HW117861   3.899   0.799   8.246
 5655SOL    HW217862   3.776   0.906   8.258
 5656SOL     OW17863   4.589   0.348   7.643
 5656SOL    HW117864   4.648   0.411   7.594
 5656SOL    HW217865   4.608   0.254   7.614
 5657SOL     OW17866   4.045   0.943   7.690
 5657SOL    HW117867   4.127   0.982   7.648
 5657SOL    HW217868   4.018   0.861   7.641
 5658SOL     OW17869   4.835   1.776   7.685
 5658SOL    HW117870   4.775   1.714   7.735
 5658SOL    HW217871   4.866   1.732   7.600
 5659SOL     OW17872   4.188   1.743   7.771
 5659SOL    HW117873   4.221   1.782   7.857
 5659SOL    HW217874   4.264   1.736   7.706
 5660SOL     OW17875   5.124   0.107   7.874
 5660SOL    HW117876   5.100   0.070   7.784
 5660SOL    HW217877   5.223   0.123   7.878
 5661SOL     OW17878   4.106   0.700   7.928
 5661SOL    HW117879   4.151   0.610   7.925
 5661SOL    HW217880   4.012   0.689   7.961
 5662SOL     OW17881   4.338   0.122   7.565
 5662SOL    HW117882   4.436   0.100   7.572
 5662SOL    HW217883   4.307   0.105   7.472
 5663SOL     OW17884   4.263   0.064   7.960
 5663SOL    HW117885   4.182   0.065   8.018
 5663SOL    HW217886   4.266   0.147   7.905
 5664SOL     OW17887   5.158   1.188   7.489
 5664SOL    HW117888   5.190   1.112   7.546
 5664SOL    HW217889   5.066   1.215   7.519
 5665SOL     OW17890   4.021   0.035   7.619
 5665SOL    HW117891   4.070   0.119   7.598
 5665SOL    HW217892   4.083  -0.030   7.664
 5666SOL     OW17893   4.659   0.236   7.928
 5666SOL    HW117894   4.611   0.277   7.850
 5666SOL    HW217895   4.758   0.234   7.909
 5667SOL     OW17896   4.183   1.152   8.189
 5667SOL    HW117897   4.112   1.125   8.254
 5667SOL    HW217898   4.157   1.124   8.096
 5668SOL     OW17899   4.995   1.797   8.039
 5668SOL    HW117900   5.039   1.861   7.975
 5668SOL    HW217901   4.945   1.849   8.109
 5669SOL     OW17902   4.756   0.549   7.464
 5669SOL    HW117903   4.715   0.631   7.425
 5669SOL    HW217904   4.820   0.575   7.537
 5670SOL     OW17905   4.212   1.385   7.622
 5670SOL    HW117906   4.125   1.370   7.669
 5670SOL    HW217907   4.195   1.411   7.527
 5671SOL     OW17908   5.114   0.575   7.526
 5671SOL    HW117909   5.060   0.554   7.607
 5671SOL    HW217910   5.205   0.534   7.535
 5672SOL     OW17911   4.251   0.256   7.776
 5672SOL    HW117912   4.278   0.197   7.701
 5672SOL    HW217913   4.251   0.351   7.745
 5673SOL     OW17914   4.429   1.050   7.816
 5673SOL    HW117915   4.415   1.057   7.915
 5673SOL    HW217916   4.513   0.999   7.798
 5674SOL     OW17917   4.091   1.100   7.949
 5674SOL    HW117918   4.084   1.183   7.893
 5674SOL    HW217919   4.095   1.020   7.889
 5675SOL     OW17920   4.976   1.348   7.836
 5675SOL    HW117921   5.026   1.425   7.876
 5675SOL    HW217922   4.881   1.350   7.868
 5676SOL     OW17923   5.306   0.639   7.920
 5676SOL    HW117924   5.275   0.700   7.993
 5676SOL    HW217925   5.356   0.691   7.851
 5677SOL     OW17926   4.933   0.525   7.723
 5677SOL    HW117927   4.946   0.441   7.777
 5677SOL    HW217928   4.904   0.599   7.783
 5678SOL     OW17929   5.346   0.367   7.822
 5678SOL    HW117930   5.348   0.291   7.886
 5678SOL    HW217931   5.298   0.444   7.862
 5679SOL     OW17932   5.027   0.838   7.490
 5679SOL    HW117933   5.061   0.745   7.505
 5679SOL    HW217934   5.045   0.865   7.395
 5680SOL     OW17935   3.732   1.326   7.648
 5680SOL    HW117936   3.639   1.347   7.617
 5680SOL    HW217937   3.742   1.227   7.661
 5681SOL     OW17938   4.539   0.572   7.773
 5681SOL    HW117939   4.546   0.483   7.727
 5681SOL    HW217940   4.445   0.606   7.765
 5682SOL     OW17941   4.197   0.500   7.639
 5682SOL    HW117942   4.258   0.580   7.643
 5682SOL    HW217943   4.102   0.531   7.646
 5683SOL     OW17944   5.026   0.855   7.757
 5683SOL    HW117945   4.940   0.824   7.799
 5683SOL    HW217946   5.022   0.841   7.658
 5684SOL     OW17947   5.112   1.573   7.925
 5684SOL    HW117948   5.179   1.585   7.851
 5684SOL    HW217949   5.072   1.662   7.948
 5685SOL     OW17950   4.396   1.616   7.602
 5685SOL    HW117951   4.405   1.626   7.503
 5685SOL    HW217952   4.356   1.527   7.623
 5686SOL     OW17953   4.918   1.612   7.479
 5686SOL    HW117954   4.924   1.519   7.516
 5686SOL    HW217955   4.859   1.612   7.399
 5687SOL     OW17956   4.640   0.910   7.739
 5687SOL    HW117957   4.703   0.948   7.671
 5687SOL    HW217958   4.680   0.827   7.778
 5688SOL     OW17959   4.314   1.487   7.939
 5688SOL    HW117960   4.356   1.429   7.869
 5688SOL    HW217961   4.270   1.566   7.895
 5689SOL     OW17962   3.979   1.348   7.738
 5689SOL    HW117963   3.883   1.349   7.711
 5689SOL    HW217964   3.991   1.401   7.822
 5690SOL     OW17965   3.799   0.345   7.481
 5690SOL    HW117966   3.707   0.317   7.452
 5690SOL    HW217967   3.830   0.422   7.425
 5691SOL     OW17968   3.796   0.166   7.766
 5691SOL    HW117969   3.779   0.249   7.712
 5691SOL    HW217970   3.886   0.129   7.744
 5692SOL     OW17971   4.907   1.335   7.567
 5692SOL    HW117972   4.808   1.324   7.569
 5692SOL    HW217973   4.941   1.350   7.660
 5693SOL     OW17974   5.217   1.767   8.407
 5693SOL    HW117975   5.250   1.831   8.338
 5693SOL    HW217976   5.283   1.761   8.482
 5694SOL     OW17977   4.949   0.325   7.897
 5694SOL    HW117978   5.014   0.251   7.886
 5694SOL    HW217979   4.969   0.375   7.981
 5695SOL     OW17980   4.318   0.745   8.100
 5695SOL    HW117981   4.368   0.830   8.081
 5695SOL    HW217982   4.230   0.747   8.052
 5696SOL     OW17983   4.583   1.374   7.464
 5696SOL    HW117984   4.537   1.389   7.552
 5696SOL    HW217985   4.627   1.459   7.434
 5697SOL     OW17986   4.807   0.984   7.535
 5697SOL    HW117987   4.784   1.037   7.453
 5697SOL    HW217988   4.888   0.928   7.516
 5698SOL     OW17989   4.152   0.424   7.968
 5698SOL    HW117990   4.182   0.352   7.906
 5698SOL    HW217991   4.113   0.384   8.051
 5699SOL     OW17992   4.494   1.330   7.749
 5699SOL    HW117993   4.448   1.243   7.766
 5699SOL    HW217994   4.585   1.327   7.790
 5700SOL     OW17995   5.076   0.052   7.616
 5700SOL    HW117996   5.111   0.011   7.532
 5700SOL    HW217997   4.986   0.014   7.636
 5701SOL     OW17998   3.763   1.077   7.748
 5701SOL    HW117999   3.862   1.066   7.739
 5701SOL    HW218000   3.723   0.991   7.780
 5702SOL     OW18001   4.599   1.646   7.785
 5702SOL    HW118002   4.522   1.611   7.731
 5702SOL    HW218003   4.567   1.717   7.847
 5703SOL     OW18004   3.954   2.490   0.113
 5703SOL    HW118005   3.861   2.488   0.150
 5703SOL    HW218006   3.955   2.451   0.021
 5704SOL     OW18007   3.949   2.137   0.996
 5704SOL    HW118008   3.984   2.120   1.088
 5704SOL    HW218009   3.861   2.092   0.984
 5705SOL     OW18010   3.743   2.230   0.647
 5705SOL    HW118011   3.661   2.273   0.686
 5705SOL    HW218012   3.715   2.157   0.584
 5706SOL     OW18013   4.293   3.137   1.165
 5706SOL    HW118014   4.200   3.130   1.128
 5706SOL    HW218015   4.304   3.226   1.209
 5707SOL     OW18016   5.279   3.373   0.703
 5707SOL    HW118017   5.222   3.357   0.784
 5707SOL    HW218018   5.220   3.383   0.623
 5708SOL     OW18019   4.859   2.565   0.717
 5708SOL    HW118020   4.916   2.643   0.692
 5708SOL    HW218021   4.799   2.591   0.793
 5709SOL     OW18022   4.492   3.006   1.023
 5709SOL    HW118023   4.414   3.023   1.083
 5709SOL    HW218024   4.526   3.093   0.987
 5710SOL     OW18025   4.574   2.660   1.823
 5710SOL    HW118026   4.570   2.736   1.888
 5710SOL    HW218027   4.596   2.696   1.732
 5711SOL     OW18028   4.409   2.874   0.665
 5711SOL    HW118029   4.478   2.858   0.735
 5711SOL    HW218030   4.336   2.931   0.703
 5712SOL     OW18031   4.410   3.023   1.803
 5712SOL    HW118032   4.470   3.102   1.817
 5712SOL    HW218033   4.324   3.054   1.762
 5713SOL     OW18034   4.059   3.297   1.061
 5713SOL    HW118035   3.981   3.266   1.008
 5713SOL    HW218036   4.117   3.355   1.004
 5714SOL     OW18037   5.184   3.367   1.339
 5714SOL    HW118038   5.208   3.461   1.365
 5714SOL    HW218039   5.168   3.313   1.421
 5715SOL     OW18040   4.162   2.254   1.499
 5715SOL    HW118041   4.244   2.198   1.508
 5715SOL    HW218042   4.081   2.196   1.503
 5716SOL     OW18043   3.955   3.575   0.483
 5716SOL    HW118044   3.989   3.652   0.537
 5716SOL    HW218045   3.999   3.575   0.393
 5717SOL     OW18046   4.851   3.203   1.690
 5717SOL    HW118047   4.898   3.203   1.778
 5717SOL    HW218048   4.803   3.116   1.679
 5718SOL     OW18049   3.954   3.296   0.538
 5718SOL    HW118050   3.928   3.392   0.538
 5718SOL    HW218051   3.883   3.242   0.583
 5719SOL     OW18052   3.964   2.953   0.886
 5719SOL    HW118053   3.978   2.869   0.938
 5719SOL    HW218054   3.909   3.017   0.941
 5720SOL     OW18055   4.344   3.648   1.439
 5720SOL    HW118056   4.252   3.631   1.474
 5720SOL    HW218057   4.372   3.740   1.465
 5721SOL     OW18058   4.330   2.826   0.123
 5721SOL    HW118059   4.337   2.910   0.069
 5721SOL    HW218060   4.376   2.839   0.211
 5722SOL     OW18061   3.846   2.505   0.563
 5722SOL    HW118062   3.801   2.417   0.580
 5722SOL    HW218063   3.845   2.559   0.647
 5723SOL     OW18064   3.751   3.458   0.117
 5723SOL    HW118065   3.732   3.362   0.138
 5723SOL    HW218066   3.718   3.516   0.192
 5724SOL     OW18067   5.413   2.784   0.612
 5724SOL    HW118068   5.508   2.755   0.620
 5724SOL    HW218069   5.405   2.849   0.537
 5725SOL     OW18070   3.837   2.599   1.597
 5725SOL    HW118071   3.925   2.586   1.642
 5725SOL    HW218072   3.824   2.696   1.575
 5726SOL     OW18073   4.337   3.227   0.726
 5726SOL    HW118074   4.288   3.140   0.735
 5726SOL    HW218075   4.314   3.270   0.639
 5727SOL     OW18076   5.017   3.090   1.423
 5727SOL    HW118077   5.054   3.017   1.365
 5727SOL    HW218078   5.069   3.095   1.508
 5728SOL     OW18079   4.533   1.866   0.502
 5728SOL    HW118080   4.573   1.957   0.493
 5728SOL    HW218081   4.433   1.874   0.508
 5729SOL     OW18082   3.921   2.838   1.264
 5729SOL    HW118083   4.010   2.793   1.250
 5729SOL    HW218084   3.848   2.773   1.245
 5730SOL     OW18085   4.911   3.654   1.616
 5730SOL    HW118086   4.935   3.714   1.540
 5730SOL    HW218087   4.918   3.559   1.586
 5731SOL     OW18088   4.041   2.113   1.801
 5731SOL    HW118089   4.112   2.184   1.807
 5731SOL    HW218090   3.953   2.152   1.829
 5732SOL     OW18091   5.190   3.279   0.953
 5732SOL    HW118092   5.131   3.285   1.033
 5732SOL    HW218093   5.175   3.191   0.907
 5733SOL     OW18094   4.322   2.591   0.270
 5733SOL    HW118095   4.346   2.660   0.202
 5733SOL    HW218096   4.244   2.624   0.324
 5734SOL     OW18097   5.005   2.207   0.944
 5734SOL    HW118098   4.919   2.157   0.931
 5734SOL    HW218099   5.067   2.153   1.000
 5735SOL     OW18100   4.531   2.467   1.465
 5735SOL    HW118101   4.484   2.464   1.554
 5735SOL    HW218102   4.480   2.412   1.399
 5736SOL     OW18103   5.118   2.331   1.674
 5736SOL    HW118104   5.098   2.374   1.762
 5736SOL    HW218105   5.196   2.269   1.683
 5737SOL     OW18106   4.697   2.752   1.572
 5737SOL    HW118107   4.743   2.668   1.543
 5737SOL    HW218108   4.641   2.786   1.497
 5738SOL     OW18109   4.715   2.272   1.242
 5738SOL    HW118110   4.638   2.306   1.296
 5738SOL    HW218111   4.681   2.221   1.163
 5739SOL     OW18112   4.765   2.563   0.429
 5739SOL    HW118113   4.791   2.559   0.525
 5739SOL    HW218114   4.680   2.512   0.415
 5740SOL     OW18115   3.800   2.673   0.789
 5740SOL    HW118116   3.899   2.661   0.798
 5740SOL    HW218117   3.776   2.768   0.810
 5741SOL     OW18118   3.854   3.683   1.571
 5741SOL    HW118119   3.844   3.668   1.670
 5741SOL    HW218120   3.768   3.719   1.535
 5742SOL     OW18121   4.589   2.210   0.195
 5742SOL    HW118122   4.648   2.273   0.146
 5742SOL    HW218123   4.608   2.116   0.166
 5743SOL     OW18124   5.086   3.006   0.545
 5743SOL    HW118125   5.169   2.977   0.497
 5743SOL    HW218126   5.037   3.073   0.489
 5744SOL     OW18127   4.274   2.058   0.885
 5744SOL    HW118128   4.269   2.053   0.985
 5744SOL    HW218129   4.276   2.154   0.856
 5745SOL     OW18130   4.732   3.318   0.477
 5745SOL    HW118131   4.686   3.390   0.425
 5745SOL    HW218132   4.728   3.338   0.575
 5746SOL     OW18133   4.075   3.663   0.853
 5746SOL    HW118134   4.125   3.577   0.859
 5746SOL    HW218135   4.140   3.740   0.850
 5747SOL     OW18136   4.951   3.412   1.506
 5747SOL    HW118137   4.957   3.335   1.570
 5747SOL    HW218138   4.899   3.386   1.426
 5748SOL     OW18139   4.045   2.805   0.242
 5748SOL    HW118140   4.127   2.844   0.200
 5748SOL    HW218141   4.018   2.723   0.193
 5749SOL     OW18142   4.185   3.128   1.727
 5749SOL    HW118143   4.135   3.129   1.641
 5749SOL    HW218144   4.122   3.110   1.803
 5750SOL     OW18145   4.835   3.638   0.237
 5750SOL    HW118146   4.775   3.576   0.287
 5750SOL    HW218147   4.866   3.594   0.152
 5751SOL     OW18148   3.926   2.147   1.498
 5751SOL    HW118149   3.846   2.207   1.485
 5751SOL    HW218150   3.916   2.098   1.584
 5752SOL     OW18151   4.188   3.605   0.323
 5752SOL    HW118152   4.221   3.644   0.409
 5752SOL    HW218153   4.264   3.598   0.258
 5753SOL     OW18154   5.124   1.969   0.426
 5753SOL    HW118155   5.100   1.932   0.336
 5753SOL    HW218156   5.223   1.985   0.430
 5754SOL     OW18157   3.973   3.647   1.241
 5754SOL    HW118158   4.030   3.582   1.291
 5754SOL    HW218159   3.957   3.614   1.148
 5755SOL     OW18160   4.664   3.560   0.904
 5755SOL    HW118161   4.744   3.503   0.925
 5755SOL    HW218162   4.615   3.520   0.827
 5756SOL     OW18163   4.106   2.562   0.480
 5756SOL    HW118164   4.151   2.472   0.477
 5756SOL    HW218165   4.012   2.551   0.513
 5757SOL     OW18166   4.338   1.984   0.117
 5757SOL    HW118167   4.436   1.962   0.124
 5757SOL    HW218168   4.307   1.967   0.024
 5758SOL     OW18169   4.505   2.126   1.749
 5758SOL    HW118170   4.572   2.065   1.792
 5758SOL    HW218171   4.432   2.145   1.814
 5759SOL     OW18172   4.612   3.376   1.195
 5759SOL    HW118173   4.589   3.351   1.101
 5759SOL    HW218174   4.673   3.307   1.234
 5760SOL     OW18175   5.075   2.452   1.433
 5760SOL    HW118176   5.103   2.409   1.518
 5760SOL    HW218177   5.100   2.548   1.434
 5761SOL     OW18178   4.527   3.264   0.924
 5761SOL    HW118179   4.617   3.278   0.882
 5761SOL    HW218180   4.456   3.266   0.853
 5762SOL     OW18181   4.646   2.365   0.899
 5762SOL    HW118182   4.621   2.356   0.803
 5762SOL    HW218183   4.694   2.283   0.930
 5763SOL     OW18184   4.263   1.926   0.512
 5763SOL    HW118185   4.182   1.927   0.570
 5763SOL    HW218186   4.266   2.009   0.457
 5764SOL     OW18187   5.158   3.050   0.041
 5764SOL    HW118188   5.190   2.974   0.098
 5764SOL    HW218189   5.066   3.077   0.071
 5765SOL     OW18190   4.021   1.897   0.171
 5765SOL    HW118191   4.070   1.981   0.150
 5765SOL    HW218192   4.083   1.832   0.216
 5766SOL     OW18193   4.659   2.098   0.480
 5766SOL    HW118194   4.611   2.139   0.402
 5766SOL    HW218195   4.758   2.096   0.461
 5767SOL     OW18196   4.800   2.545   1.464
 5767SOL    HW118197   4.720   2.484   1.467
 5767SOL    HW218198   4.881   2.492   1.440
 5768SOL     OW18199   4.951   3.432   0.793
 5768SOL    HW118200   4.972   3.506   0.728
 5768SOL    HW218201   5.019   3.432   0.866
 5769SOL     OW18202   4.183   3.014   0.741
 5769SOL    HW118203   4.112   2.987   0.806
 5769SOL    HW218204   4.157   2.986   0.648
 5770SOL     OW18205   4.995   3.659   0.591
 5770SOL    HW118206   5.039   3.723   0.527
 5770SOL    HW218207   4.945   3.711   0.661
 5771SOL     OW18208   4.756   2.411   0.016
 5771SOL    HW118209   4.715   2.493  -0.023
 5771SOL    HW218210   4.820   2.437   0.089
 5772SOL     OW18211   3.802   2.418   1.386
 5772SOL    HW118212   3.894   2.417   1.345
 5772SOL    HW218213   3.796   2.492   1.453
 5773SOL     OW18214   4.285   2.084   1.147
 5773SOL    HW118215   4.323   2.000   1.184
 5773SOL    HW218216   4.197   2.103   1.191
 5774SOL     OW18217   4.590   2.316   0.642
 5774SOL    HW118218   4.558   2.388   0.580
 5774SOL    HW218219   4.614   2.235   0.589
 5775SOL     OW18220   4.741   1.901   0.753
 5775SOL    HW118221   4.669   1.906   0.684
 5775SOL    HW218222   4.717   1.832   0.822
 5776SOL     OW18223   5.153   3.035   0.867
 5776SOL    HW118224   5.098   2.951   0.860
 5776SOL    HW218225   5.179   3.064   0.775
 5777SOL     OW18226   4.212   3.247   0.174
 5777SOL    HW118227   4.125   3.232   0.221
 5777SOL    HW218228   4.195   3.273   0.079
 5778SOL     OW18229   5.114   2.437   0.078
 5778SOL    HW118230   5.060   2.416   0.159
 5778SOL    HW218231   5.205   2.396   0.087
 5779SOL     OW18232   4.251   2.118   0.328
 5779SOL    HW118233   4.278   2.059   0.253
 5779SOL    HW218234   4.251   2.213   0.297
 5780SOL     OW18235   4.788   3.209   1.340
 5780SOL    HW118236   4.708   3.186   1.395
 5780SOL    HW218237   4.871   3.183   1.389
 5781SOL     OW18238   5.316   3.491   1.625
 5781SOL    HW118239   5.343   3.525   1.535
 5781SOL    HW218240   5.395   3.453   1.671
 5782SOL     OW18241   4.835   3.057   1.100
 5782SOL    HW118242   4.795   3.101   1.181
 5782SOL    HW218243   4.794   3.094   1.017
 5783SOL     OW18244   4.639   1.951   1.402
 5783SOL    HW118245   4.664   1.931   1.307
 5783SOL    HW218246   4.711   2.007   1.444
 5784SOL     OW18247   4.704   2.978   1.719
 5784SOL    HW118248   4.605   2.984   1.729
 5784SOL    HW218249   4.727   2.898   1.663
 5785SOL     OW18250   4.429   2.912   0.368
 5785SOL    HW118251   4.415   2.919   0.467
 5785SOL    HW218252   4.513   2.861   0.350
 5786SOL     OW18253   4.134   2.675   1.251
 5786SOL    HW118254   4.220   2.687   1.301
 5786SOL    HW218255   4.092   2.588   1.278
 5787SOL     OW18256   4.998   2.248   1.262
 5787SOL    HW118257   5.019   2.322   1.326
 5787SOL    HW218258   4.909   2.265   1.219
 5788SOL     OW18259   3.788   3.426   1.331
 5788SOL    HW118260   3.742   3.508   1.297
 5788SOL    HW218261   3.886   3.445   1.340
 5789SOL     OW18262   4.091   2.962   0.501
 5789SOL    HW118263   4.084   3.045   0.445
 5789SOL    HW218264   4.095   2.882   0.441
 5790SOL     OW18265   4.290   2.399   0.865
 5790SOL    HW118266   4.302   2.465   0.791
 5790SOL    HW218267   4.336   2.433   0.948
 5791SOL     OW18268   4.976   3.210   0.388
 5791SOL    HW118269   5.026   3.287   0.428
 5791SOL    HW218270   4.881   3.212   0.420
 5792SOL     OW18271   4.996   3.307   1.142
 5792SOL    HW118272   5.043   3.320   1.229
 5792SOL    HW218273   4.930   3.233   1.151
 5793SOL     OW18274   4.078   3.372   1.329
 5793SOL    HW118275   4.057   3.328   1.242
 5793SOL    HW218276   4.175   3.398   1.332
 5794SOL     OW18277   4.126   2.613   1.598
 5794SOL    HW118278   4.194   2.668   1.551
 5794SOL    HW218279   4.166   2.525   1.625
 5795SOL     OW18280   4.737   1.967   1.770
 5795SOL    HW118281   4.743   2.052   1.718
 5795SOL    HW218282   4.769   1.891   1.713
 5796SOL     OW18283   4.228   1.912   1.740
 5796SOL    HW118284   4.186   1.855   1.670
 5796SOL    HW218285   4.162   1.981   1.772
 5797SOL     OW18286   4.297   2.732   1.029
 5797SOL    HW118287   4.341   2.821   1.020
 5797SOL    HW218288   4.234   2.732   1.106
 5798SOL     OW18289   5.084   2.724   1.045
 5798SOL    HW118290   5.009   2.724   0.979
 5798SOL    HW218291   5.121   2.632   1.054
 5799SOL     OW18292   4.933   2.387   0.275
 5799SOL    HW118293   4.946   2.303   0.329
 5799SOL    HW218294   4.904   2.461   0.335
 5800SOL     OW18295   4.031   2.075   1.231
 5800SOL    HW118296   4.008   2.112   1.321
 5800SOL    HW218297   4.001   1.980   1.225
 5801SOL     OW18298   3.761   3.172   1.282
 5801SOL    HW118299   3.814   3.123   1.350
 5801SOL    HW218300   3.783   3.270   1.287
 5802SOL     OW18301   4.456   2.496   1.064
 5802SOL    HW118302   4.515   2.470   0.988
 5802SOL    HW218303   4.428   2.592   1.053
 5803SOL     OW18304   4.031   1.925   0.618
 5803SOL    HW118305   4.020   2.019   0.651
 5803SOL    HW218306   4.026   1.862   0.695
 5804SOL     OW18307   5.346   2.229   0.374
 5804SOL    HW118308   5.348   2.153   0.438
 5804SOL    HW218309   5.298   2.306   0.414
 5805SOL     OW18310   4.747   2.628   0.966
 5805SOL    HW118311   4.762   2.649   1.062
 5805SOL    HW218312   4.717   2.533   0.957
 5806SOL     OW18313   4.704   3.435   1.700
 5806SOL    HW118314   4.684   3.479   1.612
 5806SOL    HW218315   4.743   3.344   1.684
 5807SOL     OW18316   4.074   2.760   1.804
 5807SOL    HW118317   4.150   2.804   1.852
 5807SOL    HW218318   4.109   2.713   1.722
 5808SOL     OW18319   5.027   2.700   0.042
 5808SOL    HW118320   5.061   2.607   0.057
 5808SOL    HW218321   5.045   2.727  -0.053
 5809SOL     OW18322   4.792   3.195   0.849
 5809SOL    HW118323   4.799   3.111   0.794
 5809SOL    HW218324   4.854   3.264   0.813
 5810SOL     OW18325   4.043   2.672   0.949
 5810SOL    HW118326   4.136   2.708   0.954
 5810SOL    HW218327   4.037   2.587   1.001
 5811SOL     OW18328   4.063   2.371   1.006
 5811SOL    HW118329   4.011   2.288   0.989
 5811SOL    HW218330   4.140   2.376   0.942
 5812SOL     OW18331   4.862   2.242   1.678
 5812SOL    HW118332   4.817   2.305   1.742
 5812SOL    HW218333   4.955   2.273   1.661
 5813SOL     OW18334   4.884   2.069   1.477
 5813SOL    HW118335   4.884   2.133   1.554
 5813SOL    HW218336   4.912   2.117   1.394
 5814SOL     OW18337   3.732   3.188   0.200
 5814SOL    HW118338   3.639   3.209   0.169
 5814SOL    HW218339   3.742   3.089   0.213
 5815SOL     OW18340   3.812   3.663   0.927
 5815SOL    HW118341   3.770   3.577   0.900
 5815SOL    HW218342   3.906   3.666   0.893
 5816SOL     OW18343   4.228   3.430   0.910
 5816SOL    HW118344   4.294   3.504   0.919
 5816SOL    HW218345   4.272   3.351   0.868
 5817SOL     OW18346   4.726   2.658   1.238
 5817SOL    HW118347   4.767   2.626   1.324
 5817SOL    HW218348   4.630   2.631   1.235
 5818SOL     OW18349   3.764   2.406   1.114
 5818SOL    HW118350   3.849   2.373   1.073
 5818SOL    HW218351   3.777   2.421   1.212
 5819SOL     OW18352   3.913   2.382   1.722
 5819SOL    HW118353   3.972   2.342   1.652
 5819SOL    HW218354   3.855   2.453   1.681
 5820SOL     OW18355   5.093   2.812   1.660
 5820SOL    HW118356   5.132   2.901   1.680
 5820SOL    HW218357   5.103   2.792   1.563
 5821SOL     OW18358   4.539   2.434   0.325
 5821SOL    HW118359   4.546   2.345   0.279
 5821SOL    HW218360   4.445   2.468   0.317
 5822SOL     OW18361   3.976   3.426   1.744
 5822SOL    HW118362   3.946   3.483   1.820
 5822SOL    HW218363   3.969   3.329   1.770
 5823SOL     OW18364   4.395   2.326   1.269
 5823SOL    HW118365   4.361   2.237   1.239
 5823SOL    HW218366   4.421   2.380   1.189
 5824SOL     OW18367   4.654   3.540   1.465
 5824SOL    HW118368   4.630   3.522   1.370
 5824SOL    HW218369   4.684   3.634   1.475
 5825SOL     OW18370   4.197   2.362   0.191
 5825SOL    HW118371   4.258   2.442   0.195
 5825SOL    HW218372   4.102   2.393   0.198
 5826SOL     OW18373   3.883   2.999   1.466
 5826SOL    HW118374   3.905   2.938   1.542
 5826SOL    HW218375   3.893   2.950   1.380
 5827SOL     OW18376   5.071   2.921   1.234
 5827SOL    HW118377   5.095   2.858   1.160
 5827SOL    HW218378   4.981   2.961   1.216
 5828SOL     OW18379   5.026   2.717   0.309
 5828SOL    HW118380   4.940   2.686   0.351
 5828SOL    HW218381   5.022   2.703   0.210
 5829SOL     OW18382   4.976   3.593   1.128
 5829SOL    HW118383   5.060   3.598   1.074
 5829SOL    HW218384   4.953   3.497   1.146
 5830SOL     OW18385   3.807   3.120   1.022
 5830SOL    HW118386   3.802   3.119   1.122
 5830SOL    HW218387   3.724   3.079   0.984
 5831SOL     OW18388   4.412   3.524   1.716
 5831SOL    HW118389   4.356   3.605   1.725
 5831SOL    HW218390   4.464   3.528   1.630
 5832SOL     OW18391   4.627   1.948   0.133
 5832SOL    HW118392   4.678   1.949   0.047
 5832SOL    HW218393   4.683   1.906   0.204
 5833SOL     OW18394   5.450   1.997   0.523
 5833SOL    HW118395   5.523   1.980   0.456
 5833SOL    HW218396   5.419   1.910   0.561
 5834SOL     OW18397   5.112   3.435   0.477
 5834SOL    HW118398   5.179   3.447   0.403
 5834SOL    HW218399   5.072   3.524   0.500
 5835SOL     OW18400   3.854   3.656   1.851
 5835SOL    HW118401   3.813   3.582   1.904
 5835SOL    HW218402   3.918   3.707   1.909
 5836SOL     OW18403   5.004   2.789   0.672
 5836SOL    HW118404   5.064   2.708   0.674
 5836SOL    HW218405   5.044   2.858   0.612
 5837SOL     OW18406   4.554   3.135   1.422
 5837SOL    HW118407   4.549   3.168   1.517
 5837SOL    HW218408   4.468   3.154   1.376
 5838SOL     OW18409   4.396   3.478   0.154
 5838SOL    HW118410   4.405   3.488   0.055
 5838SOL    HW218411   4.356   3.389   0.175
 5839SOL     OW18412   3.987   2.188   0.720
 5839SOL    HW118413   3.908   2.239   0.686
 5839SOL    HW218414   3.978   2.173   0.818
 5840SOL     OW18415   4.918   3.474   0.031
 5840SOL    HW118416   4.924   3.381   0.068
 5840SOL    HW218417   4.859   3.474  -0.049
 5841SOL     OW18418   4.546   2.864   1.372
 5841SOL    HW118419   4.586   2.863   1.280
 5841SOL    HW218420   4.556   2.956   1.412
 5842SOL     OW18421   4.640   2.772   0.291
 5842SOL    HW118422   4.703   2.810   0.223
 5842SOL    HW218423   4.680   2.689   0.330
 5843SOL     OW18424   4.096   3.150   1.490
 5843SOL    HW118425   4.083   3.243   1.456
 5843SOL    HW218426   4.012   3.098   1.477
 5844SOL     OW18427   4.763   2.960   0.696
 5844SOL    HW118428   4.693   2.913   0.750
 5844SOL    HW218429   4.822   2.892   0.653
 5845SOL     OW18430   4.738   2.098   0.971
 5845SOL    HW118431   4.730   2.062   0.878
 5845SOL    HW218432   4.736   2.022   1.036
 5846SOL     OW18433   4.314   3.349   0.491
 5846SOL    HW118434   4.356   3.291   0.421
 5846SOL    HW218435   4.270   3.428   0.447
 5847SOL     OW18436   3.979   3.210   0.290
 5847SOL    HW118437   3.883   3.211   0.263
 5847SOL    HW218438   3.991   3.263   0.374
 5848SOL     OW18439   3.829   2.875   1.726
 5848SOL    HW118440   3.752   2.842   1.780
 5848SOL    HW218441   3.914   2.845   1.768
 5849SOL     OW18442   4.396   2.065   1.489
 5849SOL    HW118443   4.486   2.049   1.449
 5849SOL    HW218444   4.404   2.070   1.588
 5850SOL     OW18445   3.799   2.207   0.033
 5850SOL    HW118446   3.707   2.179   0.004
 5850SOL    HW218447   3.830   2.284  -0.023
 5851SOL     OW18448   5.164   2.718   1.398
 5851SOL    HW118449   5.107   2.770   1.335
 5851SOL    HW218450   5.260   2.730   1.374
 5852SOL     OW18451   3.796   2.028   0.318
 5852SOL    HW118452   3.779   2.111   0.264
 5852SOL    HW218453   3.886   1.991   0.296
 5853SOL     OW18454   4.907   3.197   0.119
 5853SOL    HW118455   4.808   3.186   0.121
 5853SOL    HW218456   4.941   3.212   0.212
 5854SOL     OW18457   4.337   2.704   1.431
 5854SOL    HW118458   4.393   2.785   1.414
 5854SOL    HW218459   4.396   2.624   1.434
 5855SOL     OW18460   4.440   2.427   1.708
 5855SOL    HW118461   4.459   2.492   1.782
 5855SOL    HW218462   4.500   2.347   1.717
 5856SOL     OW18463   5.174   3.082   1.633
 5856SOL    HW118464   5.165   3.072   1.732
 5856SOL    HW218465   5.270   3.075   1.607
 5857SOL     OW18466   4.114   3.603   1.560
 5857SOL    HW118467   4.023   3.644   1.558
 5857SOL    HW218468   4.107   3.509   1.592
 5858SOL     OW18469   4.949   2.187   0.449
 5858SOL    HW118470   5.014   2.113   0.438
 5858SOL    HW218471   4.969   2.237   0.533
 5859SOL     OW18472   4.318   2.607   0.652
 5859SOL    HW118473   4.368   2.692   0.633
 5859SOL    HW218474   4.230   2.609   0.604
 5860SOL     OW18475   4.583   3.236   0.016
 5860SOL    HW118476   4.537   3.251   0.104
 5860SOL    HW218477   4.627   3.321  -0.014
 5861SOL     OW18478   4.385   3.652   0.953
 5861SOL    HW118479   4.339   3.740   0.940
 5861SOL    HW218480   4.484   3.664   0.946
 5862SOL     OW18481   4.583   2.818   0.861
 5862SOL    HW118482   4.637   2.749   0.909
 5862SOL    HW218483   4.551   2.887   0.927
 5863SOL     OW18484   4.807   2.846   0.087
 5863SOL    HW118485   4.784   2.899   0.005
 5863SOL    HW218486   4.888   2.790   0.068
 5864SOL     OW18487   3.945   3.176   1.844
 5864SOL    HW118488   3.880   3.103   1.823
 5864SOL    HW218489   3.949   3.190   1.942
 5865SOL     OW18490   3.803   3.102   0.653
 5865SOL    HW118491   3.802   3.055   0.741
 5865SOL    HW218492   3.885   3.074   0.602
 5866SOL     OW18493   4.396   3.253   1.624
 5866SOL    HW118494   4.318   3.203   1.662
 5866SOL    HW218495   4.393   3.348   1.655
 5867SOL     OW18496   4.152   2.286   0.520
 5867SOL    HW118497   4.182   2.214   0.458
 5867SOL    HW218498   4.113   2.246   0.603
 5868SOL     OW18499   5.429   3.349   1.104
 5868SOL    HW118500   5.336   3.324   1.077
 5868SOL    HW218501   5.455   3.299   1.186
 5869SOL     OW18502   4.041   2.409   1.280
 5869SOL    HW118503   4.079   2.350   1.352
 5869SOL    HW218504   4.081   2.383   1.192
 5870SOL     OW18505   4.536   3.448   0.687
 5870SOL    HW118506   4.568   3.458   0.593
 5870SOL    HW218507   4.457   3.386   0.689
 5871SOL     OW18508   5.148   2.076   1.112
 5871SOL    HW118509   5.200   2.011   1.167
 5871SOL    HW218510   5.099   2.139   1.173
 5872SOL     OW18511   4.725   1.896   1.154
 5872SOL    HW118512   4.662   1.824   1.123
 5872SOL    HW218513   4.818   1.860   1.154
 5873SOL     OW18514   4.494   3.192   0.301
 5873SOL    HW118515   4.448   3.105   0.318
 5873SOL    HW218516   4.585   3.189   0.342
 5874SOL     OW18517   4.342   3.429   1.284
 5874SOL    HW118518   4.337   3.511   1.341
 5874SOL    HW218519   4.431   3.426   1.239
 5875SOL     OW18520   5.076   1.914   0.168
 5875SOL    HW118521   5.111   1.873   0.084
 5875SOL    HW218522   4.986   1.876   0.188
 5876SOL     OW18523   5.024   2.315   0.691
 5876SOL    HW118524   4.965   2.395   0.695
 5876SOL    HW218525   5.039   2.280   0.784
 5877SOL     OW18526   5.317   2.083   0.882
 5877SOL    HW118527   5.233   2.082   0.936
 5877SOL    HW218528   5.319   2.166   0.826
 5878SOL     OW18529   3.763   2.939   0.300
 5878SOL    HW118530   3.862   2.928   0.291
 5878SOL    HW218531   3.723   2.853   0.332
 5879SOL     OW18532   4.599   3.508   0.337
 5879SOL    HW118533   4.522   3.473   0.283
 5879SOL    HW218534   4.567   3.579   0.399
 5880SOL     OW18535   3.954   2.490   1.975
 5880SOL    HW118536   3.861   2.488   2.012
 5880SOL    HW218537   3.955   2.451   1.883
 5881SOL     OW18538   3.949   2.137   2.858
 5881SOL    HW118539   3.984   2.120   2.950
 5881SOL    HW218540   3.861   2.092   2.846
 5882SOL     OW18541   3.743   2.230   2.509
 5882SOL    HW118542   3.661   2.273   2.548
 5882SOL    HW218543   3.715   2.157   2.446
 5883SOL     OW18544   4.293   3.137   3.027
 5883SOL    HW118545   4.200   3.130   2.990
 5883SOL    HW218546   4.304   3.226   3.071
 5884SOL     OW18547   5.279   3.373   2.565
 5884SOL    HW118548   5.222   3.357   2.646
 5884SOL    HW218549   5.220   3.383   2.485
 5885SOL     OW18550   4.859   2.565   2.579
 5885SOL    HW118551   4.916   2.643   2.554
 5885SOL    HW218552   4.799   2.591   2.655
 5886SOL     OW18553   4.492   3.006   2.885
 5886SOL    HW118554   4.414   3.023   2.945
 5886SOL    HW218555   4.526   3.093   2.849
 5887SOL     OW18556   4.574   2.660   3.685
 5887SOL    HW118557   4.570   2.736   3.750
 5887SOL    HW218558   4.596   2.696   3.594
 5888SOL     OW18559   4.409   2.874   2.527
 5888SOL    HW118560   4.478   2.858   2.597
 5888SOL    HW218561   4.336   2.931   2.565
 5889SOL     OW18562   4.410   3.023   3.665
 5889SOL    HW118563   4.470   3.102   3.679
 5889SOL    HW218564   4.324   3.054   3.624
 5890SOL     OW18565   4.059   3.297   2.923
 5890SOL    HW118566   3.981   3.266   2.870
 5890SOL    HW218567   4.117   3.355   2.866
 5891SOL     OW18568   5.184   3.367   3.201
 5891SOL    HW118569   5.208   3.461   3.227
 5891SOL    HW218570   5.168   3.313   3.283
 5892SOL     OW18571   4.162   2.254   3.361
 5892SOL    HW118572   4.244   2.198   3.370
 5892SOL    HW218573   4.081   2.196   3.365
 5893SOL     OW18574   3.955   3.575   2.345
 5893SOL    HW118575   3.989   3.652   2.399
 5893SOL    HW218576   3.999   3.575   2.255
 5894SOL     OW18577   4.851   3.203   3.552
 5894SOL    HW118578   4.898   3.203   3.640
 5894SOL    HW218579   4.803   3.116   3.541
 5895SOL     OW18580   3.954   3.296   2.400
 5895SOL    HW118581   3.928   3.392   2.400
 5895SOL    HW218582   3.883   3.242   2.445
 5896SOL     OW18583   3.964   2.953   2.748
 5896SOL    HW118584   3.978   2.869   2.800
 5896SOL    HW218585   3.909   3.017   2.803
 5897SOL     OW18586   4.344   3.648   3.301
 5897SOL    HW118587   4.252   3.631   3.336
 5897SOL    HW218588   4.372   3.740   3.327
 5898SOL     OW18589   4.330   2.826   1.985
 5898SOL    HW118590   4.337   2.910   1.931
 5898SOL    HW218591   4.376   2.839   2.073
 5899SOL     OW18592   3.846   2.505   2.425
 5899SOL    HW118593   3.801   2.417   2.442
 5899SOL    HW218594   3.845   2.559   2.509
 5900SOL     OW18595   3.751   3.458   1.979
 5900SOL    HW118596   3.732   3.362   2.000
 5900SOL    HW218597   3.718   3.516   2.054
 5901SOL     OW18598   5.413   2.784   2.474
 5901SOL    HW118599   5.508   2.755   2.482
 5901SOL    HW218600   5.405   2.849   2.399
 5902SOL     OW18601   3.837   2.599   3.459
 5902SOL    HW118602   3.925   2.586   3.504
 5902SOL    HW218603   3.824   2.696   3.437
 5903SOL     OW18604   4.337   3.227   2.588
 5903SOL    HW118605   4.288   3.140   2.597
 5903SOL    HW218606   4.314   3.270   2.501
 5904SOL     OW18607   5.017   3.090   3.285
 5904SOL    HW118608   5.054   3.017   3.227
 5904SOL    HW218609   5.069   3.095   3.370
 5905SOL     OW18610   4.533   1.866   2.364
 5905SOL    HW118611   4.573   1.957   2.355
 5905SOL    HW218612   4.433   1.874   2.370
 5906SOL     OW18613   3.921   2.838   3.126
 5906SOL    HW118614   4.010   2.793   3.112
 5906SOL    HW218615   3.848   2.773   3.107
 5907SOL     OW18616   4.911   3.654   3.478
 5907SOL    HW118617   4.935   3.714   3.402
 5907SOL    HW218618   4.918   3.559   3.448
 5908SOL     OW18619   4.041   2.113   3.663
 5908SOL    HW118620   4.112   2.184   3.669
 5908SOL    HW218621   3.953   2.152   3.691
 5909SOL     OW18622   5.190   3.279   2.815
 5909SOL    HW118623   5.131   3.285   2.895
 5909SOL    HW218624   5.175   3.191   2.769
 5910SOL     OW18625   4.322   2.591   2.132
 5910SOL    HW118626   4.346   2.660   2.064
 5910SOL    HW218627   4.244   2.624   2.186
 5911SOL     OW18628   5.005   2.207   2.806
 5911SOL    HW118629   4.919   2.157   2.793
 5911SOL    HW218630   5.067   2.153   2.862
 5912SOL     OW18631   4.531   2.467   3.327
 5912SOL    HW118632   4.484   2.464   3.416
 5912SOL    HW218633   4.480   2.412   3.261
 5913SOL     OW18634   5.118   2.331   3.536
 5913SOL    HW118635   5.098   2.374   3.624
 5913SOL    HW218636   5.196   2.269   3.545
 5914SOL     OW18637   4.697   2.752   3.434
 5914SOL    HW118638   4.743   2.668   3.405
 5914SOL    HW218639   4.641   2.786   3.359
 5915SOL     OW18640   4.715   2.272   3.104
 5915SOL    HW118641   4.638   2.306   3.158
 5915SOL    HW218642   4.681   2.221   3.025
 5916SOL     OW18643   4.765   2.563   2.291
 5916SOL    HW118644   4.791   2.559   2.387
 5916SOL    HW218645   4.680   2.512   2.277
 5917SOL     OW18646   3.800   2.673   2.651
 5917SOL    HW118647   3.899   2.661   2.660
 5917SOL    HW218648   3.776   2.768   2.672
 5918SOL     OW18649   3.854   3.683   3.433
 5918SOL    HW118650   3.844   3.668   3.532
 5918SOL    HW218651   3.768   3.719   3.397
 5919SOL     OW18652   4.589   2.210   2.057
 5919SOL    HW118653   4.648   2.273   2.008
 5919SOL    HW218654   4.608   2.116   2.028
 5920SOL     OW18655   5.086   3.006   2.407
 5920SOL    HW118656   5.169   2.977   2.359
 5920SOL    HW218657   5.037   3.073   2.351
 5921SOL     OW18658   4.274   2.058   2.747
 5921SOL    HW118659   4.269   2.053   2.847
 5921SOL    HW218660   4.276   2.154   2.718
 5922SOL     OW18661   4.732   3.318   2.339
 5922SOL    HW118662   4.686   3.390   2.287
 5922SOL    HW218663   4.728   3.338   2.437
 5923SOL     OW18664   4.075   3.663   2.715
 5923SOL    HW118665   4.125   3.577   2.721
 5923SOL    HW218666   4.140   3.740   2.712
 5924SOL     OW18667   4.951   3.412   3.368
 5924SOL    HW118668   4.957   3.335   3.432
 5924SOL    HW218669   4.899   3.386   3.288
 5925SOL     OW18670   4.045   2.805   2.104
 5925SOL    HW118671   4.127   2.844   2.062
 5925SOL    HW218672   4.018   2.723   2.055
 5926SOL     OW18673   4.185   3.128   3.589
 5926SOL    HW118674   4.135   3.129   3.503
 5926SOL    HW218675   4.122   3.110   3.665
 5927SOL     OW18676   4.835   3.638   2.099
 5927SOL    HW118677   4.775   3.576   2.149
 5927SOL    HW218678   4.866   3.594   2.014
 5928SOL     OW18679   3.926   2.147   3.360
 5928SOL    HW118680   3.846   2.207   3.347
 5928SOL    HW218681   3.916   2.098   3.446
 5929SOL     OW18682   4.188   3.605   2.185
 5929SOL    HW118683   4.221   3.644   2.271
 5929SOL    HW218684   4.264   3.598   2.120
 5930SOL     OW18685   5.124   1.969   2.288
 5930SOL    HW118686   5.100   1.932   2.198
 5930SOL    HW218687   5.223   1.985   2.292
 5931SOL     OW18688   3.973   3.647   3.103
 5931SOL    HW118689   4.030   3.582   3.153
 5931SOL    HW218690   3.957   3.614   3.010
 5932SOL     OW18691   4.664   3.560   2.766
 5932SOL    HW118692   4.744   3.503   2.787
 5932SOL    HW218693   4.615   3.520   2.689
 5933SOL     OW18694   4.106   2.562   2.342
 5933SOL    HW118695   4.151   2.472   2.339
 5933SOL    HW218696   4.012   2.551   2.375
 5934SOL     OW18697   4.338   1.984   1.979
 5934SOL    HW118698   4.436   1.962   1.986
 5934SOL    HW218699   4.307   1.967   1.886
 5935SOL     OW18700   4.505   2.126   3.611
 5935SOL    HW118701   4.572   2.065   3.654
 5935SOL    HW218702   4.432   2.145   3.676
 5936SOL     OW18703   4.612   3.376   3.057
 5936SOL    HW118704   4.589   3.351   2.963
 5936SOL    HW218705   4.673   3.307   3.096
 5937SOL     OW18706   5.075   2.452   3.295
 5937SOL    HW118707   5.103   2.409   3.380
 5937SOL    HW218708   5.100   2.548   3.296
 5938SOL     OW18709   4.527   3.264   2.786
 5938SOL    HW118710   4.617   3.278   2.744
 5938SOL    HW218711   4.456   3.266   2.715
 5939SOL     OW18712   4.646   2.365   2.761
 5939SOL    HW118713   4.621   2.356   2.665
 5939SOL    HW218714   4.694   2.283   2.792
 5940SOL     OW18715   4.263   1.926   2.374
 5940SOL    HW118716   4.182   1.927   2.432
 5940SOL    HW218717   4.266   2.009   2.319
 5941SOL     OW18718   5.158   3.050   1.903
 5941SOL    HW118719   5.190   2.974   1.960
 5941SOL    HW218720   5.066   3.077   1.933
 5942SOL     OW18721   4.021   1.897   2.033
 5942SOL    HW118722   4.070   1.981   2.012
 5942SOL    HW218723   4.083   1.832   2.078
 5943SOL     OW18724   4.659   2.098   2.342
 5943SOL    HW118725   4.611   2.139   2.264
 5943SOL    HW218726   4.758   2.096   2.323
 5944SOL     OW18727   4.800   2.545   3.326
 5944SOL    HW118728   4.720   2.484   3.329
 5944SOL    HW218729   4.881   2.492   3.302
 5945SOL     OW18730   4.951   3.432   2.655
 5945SOL    HW118731   4.972   3.506   2.590
 5945SOL    HW218732   5.019   3.432   2.728
 5946SOL     OW18733   4.183   3.014   2.603
 5946SOL    HW118734   4.112   2.987   2.668
 5946SOL    HW218735   4.157   2.986   2.510
 5947SOL     OW18736   4.995   3.659   2.453
 5947SOL    HW118737   5.039   3.723   2.389
 5947SOL    HW218738   4.945   3.711   2.523
 5948SOL     OW18739   4.756   2.411   1.878
 5948SOL    HW118740   4.715   2.493   1.839
 5948SOL    HW218741   4.820   2.437   1.951
 5949SOL     OW18742   3.802   2.418   3.248
 5949SOL    HW118743   3.894   2.417   3.207
 5949SOL    HW218744   3.796   2.492   3.315
 5950SOL     OW18745   4.285   2.084   3.009
 5950SOL    HW118746   4.323   2.000   3.046
 5950SOL    HW218747   4.197   2.103   3.053
 5951SOL     OW18748   4.590   2.316   2.504
 5951SOL    HW118749   4.558   2.388   2.442
 5951SOL    HW218750   4.614   2.235   2.451
 5952SOL     OW18751   4.741   1.901   2.615
 5952SOL    HW118752   4.669   1.906   2.546
 5952SOL    HW218753   4.717   1.832   2.684
 5953SOL     OW18754   5.153   3.035   2.729
 5953SOL    HW118755   5.098   2.951   2.722
 5953SOL    HW218756   5.179   3.064   2.637
 5954SOL     OW18757   4.212   3.247   2.036
 5954SOL    HW118758   4.125   3.232   2.083
 5954SOL    HW218759   4.195   3.273   1.941
 5955SOL     OW18760   5.114   2.437   1.940
 5955SOL    HW118761   5.060   2.416   2.021
 5955SOL    HW218762   5.205   2.396   1.949
 5956SOL     OW18763   4.251   2.118   2.190
 5956SOL    HW118764   4.278   2.059   2.115
 5956SOL    HW218765   4.251   2.213   2.159
 5957SOL     OW18766   4.788   3.209   3.202
 5957SOL    HW118767   4.708   3.186   3.257
 5957SOL    HW218768   4.871   3.183   3.251
 5958SOL     OW18769   5.316   3.491   3.487
 5958SOL    HW118770   5.343   3.525   3.397
 5958SOL    HW218771   5.395   3.453   3.533
 5959SOL     OW18772   4.835   3.057   2.962
 5959SOL    HW118773   4.795   3.101   3.043
 5959SOL    HW218774   4.794   3.094   2.879
 5960SOL     OW18775   4.639   1.951   3.264
 5960SOL    HW118776   4.664   1.931   3.169
 5960SOL    HW218777   4.711   2.007   3.306
 5961SOL     OW18778   4.704   2.978   3.581
 5961SOL    HW118779   4.605   2.984   3.591
 5961SOL    HW218780   4.727   2.898   3.525
 5962SOL     OW18781   4.429   2.912   2.230
 5962SOL    HW118782   4.415   2.919   2.329
 5962SOL    HW218783   4.513   2.861   2.212
 5963SOL     OW18784   4.134   2.675   3.113
 5963SOL    HW118785   4.220   2.687   3.163
 5963SOL    HW218786   4.092   2.588   3.140
 5964SOL     OW18787   4.998   2.248   3.124
 5964SOL    HW118788   5.019   2.322   3.188
 5964SOL    HW218789   4.909   2.265   3.081
 5965SOL     OW18790   3.788   3.426   3.193
 5965SOL    HW118791   3.742   3.508   3.159
 5965SOL    HW218792   3.886   3.445   3.202
 5966SOL     OW18793   4.091   2.962   2.363
 5966SOL    HW118794   4.084   3.045   2.307
 5966SOL    HW218795   4.095   2.882   2.303
 5967SOL     OW18796   4.290   2.399   2.727
 5967SOL    HW118797   4.302   2.465   2.653
 5967SOL    HW218798   4.336   2.433   2.810
 5968SOL     OW18799   4.976   3.210   2.250
 5968SOL    HW118800   5.026   3.287   2.290
 5968SOL    HW218801   4.881   3.212   2.282
 5969SOL     OW18802   4.996   3.307   3.004
 5969SOL    HW118803   5.043   3.320   3.091
 5969SOL    HW218804   4.930   3.233   3.013
 5970SOL     OW18805   4.078   3.372   3.191
 5970SOL    HW118806   4.057   3.328   3.104
 5970SOL    HW218807   4.175   3.398   3.194
 5971SOL     OW18808   4.126   2.613   3.460
 5971SOL    HW118809   4.194   2.668   3.413
 5971SOL    HW218810   4.166   2.525   3.487
 5972SOL     OW18811   4.737   1.967   3.632
 5972SOL    HW118812   4.743   2.052   3.580
 5972SOL    HW218813   4.769   1.891   3.575
 5973SOL     OW18814   4.228   1.912   3.602
 5973SOL    HW118815   4.186   1.855   3.532
 5973SOL    HW218816   4.162   1.981   3.634
 5974SOL     OW18817   4.297   2.732   2.891
 5974SOL    HW118818   4.341   2.821   2.882
 5974SOL    HW218819   4.234   2.732   2.968
 5975SOL     OW18820   5.084   2.724   2.907
 5975SOL    HW118821   5.009   2.724   2.841
 5975SOL    HW218822   5.121   2.632   2.916
 5976SOL     OW18823   4.933   2.387   2.137
 5976SOL    HW118824   4.946   2.303   2.191
 5976SOL    HW218825   4.904   2.461   2.197
 5977SOL     OW18826   4.031   2.075   3.093
 5977SOL    HW118827   4.008   2.112   3.183
 5977SOL    HW218828   4.001   1.980   3.087
 5978SOL     OW18829   3.761   3.172   3.144
 5978SOL    HW118830   3.814   3.123   3.212
 5978SOL    HW218831   3.783   3.270   3.149
 5979SOL     OW18832   4.456   2.496   2.926
 5979SOL    HW118833   4.515   2.470   2.850
 5979SOL    HW218834   4.428   2.592   2.915
 5980SOL     OW18835   4.031   1.925   2.480
 5980SOL    HW118836   4.020   2.019   2.513
 5980SOL    HW218837   4.026   1.862   2.557
 5981SOL     OW18838   5.346   2.229   2.236
 5981SOL    HW118839   5.348   2.153   2.300
 5981SOL    HW218840   5.298   2.306   2.276
 5982SOL     OW18841   4.747   2.628   2.828
 5982SOL    HW118842   4.762   2.649   2.924
 5982SOL    HW218843   4.717   2.533   2.819
 5983SOL     OW18844   4.704   3.435   3.562
 5983SOL    HW118845   4.684   3.479   3.474
 5983SOL    HW218846   4.743   3.344   3.546
 5984SOL     OW18847   4.074   2.760   3.666
 5984SOL    HW118848   4.150   2.804   3.714
 5984SOL    HW218849   4.109   2.713   3.584
 5985SOL     OW18850   5.027   2.700   1.904
 5985SOL    HW118851   5.061   2.607   1.919
 5985SOL    HW218852   5.045   2.727   1.809
 5986SOL     OW18853   4.792   3.195   2.711
 5986SOL    HW118854   4.799   3.111   2.656
 5986SOL    HW218855   4.854   3.264   2.675
 5987SOL     OW18856   4.043   2.672   2.811
 5987SOL    HW118857   4.136   2.708   2.816
 5987SOL    HW218858   4.037   2.587   2.863
 5988SOL     OW18859   4.063   2.371   2.868
 5988SOL    HW118860   4.011   2.288   2.851
 5988SOL    HW218861   4.140   2.376   2.804
 5989SOL     OW18862   4.862   2.242   3.540
 5989SOL    HW118863   4.817   2.305   3.604
 5989SOL    HW218864   4.955   2.273   3.523
 5990SOL     OW18865   4.884   2.069   3.339
 5990SOL    HW118866   4.884   2.133   3.416
 5990SOL    HW218867   4.912   2.117   3.256
 5991SOL     OW18868   3.732   3.188   2.062
 5991SOL    HW118869   3.639   3.209   2.031
 5991SOL    HW218870   3.742   3.089   2.075
 5992SOL     OW18871   3.812   3.663   2.789
 5992SOL    HW118872   3.770   3.577   2.762
 5992SOL    HW218873   3.906   3.666   2.755
 5993SOL     OW18874   4.228   3.430   2.772
 5993SOL    HW118875   4.294   3.504   2.781
 5993SOL    HW218876   4.272   3.351   2.730
 5994SOL     OW18877   4.726   2.658   3.100
 5994SOL    HW118878   4.767   2.626   3.186
 5994SOL    HW218879   4.630   2.631   3.097
 5995SOL     OW18880   3.764   2.406   2.976
 5995SOL    HW118881   3.849   2.373   2.935
 5995SOL    HW218882   3.777   2.421   3.074
 5996SOL     OW18883   3.913   2.382   3.584
 5996SOL    HW118884   3.972   2.342   3.514
 5996SOL    HW218885   3.855   2.453   3.543
 5997SOL     OW18886   5.093   2.812   3.522
 5997SOL    HW118887   5.132   2.901   3.542
 5997SOL    HW218888   5.103   2.792   3.425
 5998SOL     OW18889   4.539   2.434   2.187
 5998SOL    HW118890   4.546   2.345   2.141
 5998SOL    HW218891   4.445   2.468   2.179
 5999SOL     OW18892   3.976   3.426   3.606
 5999SOL    HW118893   3.946   3.483   3.682
 5999SOL    HW218894   3.969   3.329   3.632
 6000SOL     OW18895   4.395   2.326   3.131
 6000SOL    HW118896   4.361   2.237   3.101
 6000SOL    HW218897   4.421   2.380   3.051
 6001SOL     OW18898   4.654   3.540   3.327
 6001SOL    HW118899   4.630   3.522   3.232
 6001SOL    HW218900   4.684   3.634   3.337
 6002SOL     OW18901   4.197   2.362   2.053
 6002SOL    HW118902   4.258   2.442   2.057
 6002SOL    HW218903   4.102   2.393   2.060
 6003SOL     OW18904   3.883   2.999   3.328
 6003SOL    HW118905   3.905   2.938   3.404
 6003SOL    HW218906   3.893   2.950   3.242
 6004SOL     OW18907   5.071   2.921   3.096
 6004SOL    HW118908   5.095   2.858   3.022
 6004SOL    HW218909   4.981   2.961   3.078
 6005SOL     OW18910   5.026   2.717   2.171
 6005SOL    HW118911   4.940   2.686   2.213
 6005SOL    HW218912   5.022   2.703   2.072
 6006SOL     OW18913   4.976   3.593   2.990
 6006SOL    HW118914   5.060   3.598   2.936
 6006SOL    HW218915   4.953   3.497   3.008
 6007SOL     OW18916   3.807   3.120   2.884
 6007SOL    HW118917   3.802   3.119   2.984
 6007SOL    HW218918   3.724   3.079   2.846
 6008SOL     OW18919   4.412   3.524   3.578
 6008SOL    HW118920   4.356   3.605   3.587
 6008SOL    HW218921   4.464   3.528   3.492
 6009SOL     OW18922   5.450   1.997   2.385
 6009SOL    HW118923   5.523   1.980   2.318
 6009SOL    HW218924   5.419   1.910   2.423
 6010SOL     OW18925   5.112   3.435   2.339
 6010SOL    HW118926   5.179   3.447   2.265
 6010SOL    HW218927   5.072   3.524   2.362
 6011SOL     OW18928   3.854   3.656   3.713
 6011SOL    HW118929   3.813   3.582   3.766
 6011SOL    HW218930   3.918   3.707   3.771
 6012SOL     OW18931   5.004   2.789   2.534
 6012SOL    HW118932   5.064   2.708   2.536
 6012SOL    HW218933   5.044   2.858   2.474
 6013SOL     OW18934   4.554   3.135   3.284
 6013SOL    HW118935   4.549   3.168   3.379
 6013SOL    HW218936   4.468   3.154   3.238
 6014SOL     OW18937   4.396   3.478   2.016
 6014SOL    HW118938   4.405   3.488   1.917
 6014SOL    HW218939   4.356   3.389   2.037
 6015SOL     OW18940   3.987   2.188   2.582
 6015SOL    HW118941   3.908   2.239   2.548
 6015SOL    HW218942   3.978   2.173   2.680
 6016SOL     OW18943   4.918   3.474   1.893
 6016SOL    HW118944   4.924   3.381   1.930
 6016SOL    HW218945   4.859   3.474   1.813
 6017SOL     OW18946   4.546   2.864   3.234
 6017SOL    HW118947   4.586   2.863   3.142
 6017SOL    HW218948   4.556   2.956   3.274
 6018SOL     OW18949   4.640   2.772   2.153
 6018SOL    HW118950   4.703   2.810   2.085
 6018SOL    HW218951   4.680   2.689   2.192
 6019SOL     OW18952   4.096   3.150   3.352
 6019SOL    HW118953   4.083   3.243   3.318
 6019SOL    HW218954   4.012   3.098   3.339
 6020SOL     OW18955   4.763   2.960   2.558
 6020SOL    HW118956   4.693   2.913   2.612
 6020SOL    HW218957   4.822   2.892   2.515
 6021SOL     OW18958   4.738   2.098   2.833
 6021SOL    HW118959   4.730   2.062   2.740
 6021SOL    HW218960   4.736   2.022   2.898
 6022SOL     OW18961   4.314   3.349   2.353
 6022SOL    HW118962   4.356   3.291   2.283
 6022SOL    HW218963   4.270   3.428   2.309
 6023SOL     OW18964   3.979   3.210   2.152
 6023SOL    HW118965   3.883   3.211   2.125
 6023SOL    HW218966   3.991   3.263   2.236
 6024SOL     OW18967   3.829   2.875   3.588
 6024SOL    HW118968   3.752   2.842   3.642
 6024SOL    HW218969   3.914   2.845   3.630
 6025SOL     OW18970   4.396   2.065   3.351
 6025SOL    HW118971   4.486   2.049   3.311
 6025SOL    HW218972   4.404   2.070   3.450
 6026SOL     OW18973   3.799   2.207   1.895
 6026SOL    HW118974   3.707   2.179   1.866
 6026SOL    HW218975   3.830   2.284   1.839
 6027SOL     OW18976   5.164   2.718   3.260
 6027SOL    HW118977   5.107   2.770   3.197
 6027SOL    HW218978   5.260   2.730   3.236
 6028SOL     OW18979   3.796   2.028   2.180
 6028SOL    HW118980   3.779   2.111   2.126
 6028SOL    HW218981   3.886   1.991   2.158
 6029SOL     OW18982   4.907   3.197   1.981
 6029SOL    HW118983   4.808   3.186   1.983
 6029SOL    HW218984   4.941   3.212   2.074
 6030SOL     OW18985   4.337   2.704   3.293
 6030SOL    HW118986   4.393   2.785   3.276
 6030SOL    HW218987   4.396   2.624   3.296
 6031SOL     OW18988   4.440   2.427   3.570
 6031SOL    HW118989   4.459   2.492   3.644
 6031SOL    HW218990   4.500   2.347   3.579
 6032SOL     OW18991   5.174   3.082   3.495
 6032SOL    HW118992   5.165   3.072   3.594
 6032SOL    HW218993   5.270   3.075   3.469
 6033SOL     OW18994   4.114   3.603   3.422
 6033SOL    HW118995   4.023   3.644   3.420
 6033SOL    HW218996   4.107   3.509   3.454
 6034SOL     OW18997   4.949   2.187   2.311
 6034SOL    HW118998   5.014   2.113   2.300
 6034SOL    HW218999   4.969   2.237   2.395
 6035SOL     OW19000   4.318   2.607   2.514
 6035SOL    HW119001   4.368   2.692   2.495
 6035SOL    HW219002   4.230   2.609   2.466
 6036SOL     OW19003   4.583   3.236   1.878
 6036SOL    HW119004   4.537   3.251   1.966
 6036SOL    HW219005   4.627   3.321   1.848
 6037SOL     OW19006   4.385   3.652   2.815
 6037SOL    HW119007   4.339   3.740   2.802
 6037SOL    HW219008   4.484   3.664   2.808
 6038SOL     OW19009   4.583   2.818   2.723
 6038SOL    HW119010   4.637   2.749   2.771
 6038SOL    HW219011   4.551   2.887   2.789
 6039SOL     OW19012   4.807   2.846   1.949
 6039SOL    HW119013   4.784   2.899   1.867
 6039SOL    HW219014   4.888   2.790   1.930
 6040SOL     OW19015   3.945   3.176   3.706
 6040SOL    HW119016   3.880   3.103   3.685
 6040SOL    HW219017   3.949   3.190   3.804
 6041SOL     OW19018   3.803   3.102   2.515
 6041SOL    HW119019   3.802   3.055   2.603
 6041SOL    HW219020   3.885   3.074   2.464
 6042SOL     OW19021   4.396   3.253   3.486
 6042SOL    HW119022   4.318   3.203   3.524
 6042SOL    HW219023   4.393   3.348   3.517
 6043SOL     OW19024   4.152   2.286   2.382
 6043SOL    HW119025   4.182   2.214   2.320
 6043SOL    HW219026   4.113   2.246   2.465
 6044SOL     OW19027   5.429   3.349   2.966
 6044SOL    HW119028   5.336   3.324   2.939
 6044SOL    HW219029   5.455   3.299   3.048
 6045SOL     OW19030   4.041   2.409   3.142
 6045SOL    HW119031   4.079   2.350   3.214
 6045SOL    HW219032   4.081   2.383   3.054
 6046SOL     OW19033   4.536   3.448   2.549
 6046SOL    HW119034   4.568   3.458   2.455
 6046SOL    HW219035   4.457   3.386   2.551
 6047SOL     OW19036   5.148   2.076   2.974
 6047SOL    HW119037   5.200   2.011   3.029
 6047SOL    HW219038   5.099   2.139   3.035
 6048SOL     OW19039   4.725   1.896   3.016
 6048SOL    HW119040   4.662   1.824   2.985
 6048SOL    HW219041   4.818   1.860   3.016
 6049SOL     OW19042   4.494   3.192   2.163
 6049SOL    HW119043   4.448   3.105   2.180
 6049SOL    HW219044   4.585   3.189   2.204
 6050SOL     OW19045   4.342   3.429   3.146
 6050SOL    HW119046   4.337   3.511   3.203
 6050SOL    HW219047   4.431   3.426   3.101
 6051SOL     OW19048   5.076   1.914   2.030
 6051SOL    HW119049   5.111   1.873   1.946
 6051SOL    HW219050   4.986   1.876   2.050
 6052SOL     OW19051   5.024   2.315   2.553
 6052SOL    HW119052   4.965   2.395   2.557
 6052SOL    HW219053   5.039   2.280   2.646
 6053SOL     OW19054   5.317   2.083   2.744
 6053SOL    HW119055   5.233   2.082   2.798
 6053SOL    HW219056   5.319   2.166   2.688
 6054SOL     OW19057   3.763   2.939   2.162
 6054SOL    HW119058   3.862   2.928   2.153
 6054SOL    HW219059   3.723   2.853   2.194
 6055SOL     OW19060   4.599   3.508   2.199
 6055SOL    HW119061   4.522   3.473   2.145
 6055SOL    HW219062   4.567   3.579   2.261
 6056SOL     OW19063   3.954   2.490   3.837
 6056SOL    HW119064   3.861   2.488   3.874
 6056SOL    HW219065   3.955   2.451   3.745
 6057SOL     OW19066   3.949   2.137   4.720
 6057SOL    HW119067   3.984   2.120   4.812
 6057SOL    HW219068   3.861   2.092   4.708
 6058SOL     OW19069   3.743   2.230   4.371
 6058SOL    HW119070   3.661   2.273   4.410
 6058SOL    HW219071   3.715   2.157   4.308
 6059SOL     OW19072   4.293   3.137   4.889
 6059SOL    HW119073   4.200   3.130   4.852
 6059SOL    HW219074   4.304   3.226   4.933
 6060SOL     OW19075   5.279   3.373   4.427
 6060SOL    HW119076   5.222   3.357   4.508
 6060SOL    HW219077   5.220   3.383   4.347
 6061SOL     OW19078   4.859   2.565   4.441
 6061SOL    HW119079   4.916   2.643   4.416
 6061SOL    HW219080   4.799   2.591   4.517
 6062SOL     OW19081   4.492   3.006   4.747
 6062SOL    HW119082   4.414   3.023   4.807
 6062SOL    HW219083   4.526   3.093   4.711
 6063SOL     OW19084   4.574   2.660   5.547
 6063SOL    HW119085   4.570   2.736   5.612
 6063SOL    HW219086   4.596   2.696   5.456
 6064SOL     OW19087   4.409   2.874   4.389
 6064SOL    HW119088   4.478   2.858   4.459
 6064SOL    HW219089   4.336   2.931   4.427
 6065SOL     OW19090   4.410   3.023   5.527
 6065SOL    HW119091   4.470   3.102   5.541
 6065SOL    HW219092   4.324   3.054   5.486
 6066SOL     OW19093   4.059   3.297   4.785
 6066SOL    HW119094   3.981   3.266   4.732
 6066SOL    HW219095   4.117   3.355   4.728
 6067SOL     OW19096   5.184   3.367   5.063
 6067SOL    HW119097   5.208   3.461   5.089
 6067SOL    HW219098   5.168   3.313   5.145
 6068SOL     OW19099   4.162   2.254   5.223
 6068SOL    HW119100   4.244   2.198   5.232
 6068SOL    HW219101   4.081   2.196   5.227
 6069SOL     OW19102   3.955   3.575   4.207
 6069SOL    HW119103   3.989   3.652   4.261
 6069SOL    HW219104   3.999   3.575   4.117
 6070SOL     OW19105   4.851   3.203   5.414
 6070SOL    HW119106   4.898   3.203   5.502
 6070SOL    HW219107   4.803   3.116   5.403
 6071SOL     OW19108   3.954   3.296   4.262
 6071SOL    HW119109   3.928   3.392   4.262
 6071SOL    HW219110   3.883   3.242   4.307
 6072SOL     OW19111   3.964   2.953   4.610
 6072SOL    HW119112   3.978   2.869   4.662
 6072SOL    HW219113   3.909   3.017   4.665
 6073SOL     OW19114   4.344   3.648   5.163
 6073SOL    HW119115   4.252   3.631   5.198
 6073SOL    HW219116   4.372   3.740   5.189
 6074SOL     OW19117   4.330   2.826   3.847
 6074SOL    HW119118   4.337   2.910   3.793
 6074SOL    HW219119   4.376   2.839   3.935
 6075SOL     OW19120   3.846   2.505   4.287
 6075SOL    HW119121   3.801   2.417   4.304
 6075SOL    HW219122   3.845   2.559   4.371
 6076SOL     OW19123   3.751   3.458   3.841
 6076SOL    HW119124   3.732   3.362   3.862
 6076SOL    HW219125   3.718   3.516   3.916
 6077SOL     OW19126   5.413   2.784   4.336
 6077SOL    HW119127   5.508   2.755   4.344
 6077SOL    HW219128   5.405   2.849   4.261
 6078SOL     OW19129   3.837   2.599   5.321
 6078SOL    HW119130   3.925   2.586   5.366
 6078SOL    HW219131   3.824   2.696   5.299
 6079SOL     OW19132   4.337   3.227   4.450
 6079SOL    HW119133   4.288   3.140   4.459
 6079SOL    HW219134   4.314   3.270   4.363
 6080SOL     OW19135   5.017   3.090   5.147
 6080SOL    HW119136   5.054   3.017   5.089
 6080SOL    HW219137   5.069   3.095   5.232
 6081SOL     OW19138   4.533   1.866   4.226
 6081SOL    HW119139   4.573   1.957   4.217
 6081SOL    HW219140   4.433   1.874   4.232
 6082SOL     OW19141   3.921   2.838   4.988
 6082SOL    HW119142   4.010   2.793   4.974
 6082SOL    HW219143   3.848   2.773   4.969
 6083SOL     OW19144   4.911   3.654   5.340
 6083SOL    HW119145   4.935   3.714   5.264
 6083SOL    HW219146   4.918   3.559   5.310
 6084SOL     OW19147   4.041   2.113   5.525
 6084SOL    HW119148   4.112   2.184   5.531
 6084SOL    HW219149   3.953   2.152   5.553
 6085SOL     OW19150   5.190   3.279   4.677
 6085SOL    HW119151   5.131   3.285   4.757
 6085SOL    HW219152   5.175   3.191   4.631
 6086SOL     OW19153   4.322   2.591   3.994
 6086SOL    HW119154   4.346   2.660   3.926
 6086SOL    HW219155   4.244   2.624   4.048
 6087SOL     OW19156   5.005   2.207   4.668
 6087SOL    HW119157   4.919   2.157   4.655
 6087SOL    HW219158   5.067   2.153   4.724
 6088SOL     OW19159   4.531   2.467   5.189
 6088SOL    HW119160   4.484   2.464   5.278
 6088SOL    HW219161   4.480   2.412   5.123
 6089SOL     OW19162   5.118   2.331   5.398
 6089SOL    HW119163   5.098   2.374   5.486
 6089SOL    HW219164   5.196   2.269   5.407
 6090SOL     OW19165   4.697   2.752   5.296
 6090SOL    HW119166   4.743   2.668   5.267
 6090SOL    HW219167   4.641   2.786   5.221
 6091SOL     OW19168   4.715   2.272   4.966
 6091SOL    HW119169   4.638   2.306   5.020
 6091SOL    HW219170   4.681   2.221   4.887
 6092SOL     OW19171   4.765   2.563   4.153
 6092SOL    HW119172   4.791   2.559   4.249
 6092SOL    HW219173   4.680   2.512   4.139
 6093SOL     OW19174   3.800   2.673   4.513
 6093SOL    HW119175   3.899   2.661   4.522
 6093SOL    HW219176   3.776   2.768   4.534
 6094SOL     OW19177   3.854   3.683   5.295
 6094SOL    HW119178   3.844   3.668   5.394
 6094SOL    HW219179   3.768   3.719   5.259
 6095SOL     OW19180   4.589   2.210   3.919
 6095SOL    HW119181   4.648   2.273   3.870
 6095SOL    HW219182   4.608   2.116   3.890
 6096SOL     OW19183   5.086   3.006   4.269
 6096SOL    HW119184   5.169   2.977   4.221
 6096SOL    HW219185   5.037   3.073   4.213
 6097SOL     OW19186   4.274   2.058   4.609
 6097SOL    HW119187   4.269   2.053   4.709
 6097SOL    HW219188   4.276   2.154   4.580
 6098SOL     OW19189   4.732   3.318   4.201
 6098SOL    HW119190   4.686   3.390   4.149
 6098SOL    HW219191   4.728   3.338   4.299
 6099SOL     OW19192   4.075   3.663   4.577
 6099SOL    HW119193   4.125   3.577   4.583
 6099SOL    HW219194   4.140   3.740   4.574
 6100SOL     OW19195   4.951   3.412   5.230
 6100SOL    HW119196   4.957   3.335   5.294
 6100SOL    HW219197   4.899   3.386   5.150
 6101SOL     OW19198   4.045   2.805   3.966
 6101SOL    HW119199   4.127   2.844   3.924
 6101SOL    HW219200   4.018   2.723   3.917
 6102SOL     OW19201   4.185   3.128   5.451
 6102SOL    HW119202   4.135   3.129   5.365
 6102SOL    HW219203   4.122   3.110   5.527
 6103SOL     OW19204   4.835   3.638   3.961
 6103SOL    HW119205   4.775   3.576   4.011
 6103SOL    HW219206   4.866   3.594   3.876
 6104SOL     OW19207   3.926   2.147   5.222
 6104SOL    HW119208   3.846   2.207   5.209
 6104SOL    HW219209   3.916   2.098   5.308
 6105SOL     OW19210   4.188   3.605   4.047
 6105SOL    HW119211   4.221   3.644   4.133
 6105SOL    HW219212   4.264   3.598   3.982
 6106SOL     OW19213   5.124   1.969   4.150
 6106SOL    HW119214   5.100   1.932   4.060
 6106SOL    HW219215   5.223   1.985   4.154
 6107SOL     OW19216   3.973   3.647   4.965
 6107SOL    HW119217   4.030   3.582   5.015
 6107SOL    HW219218   3.957   3.614   4.872
 6108SOL     OW19219   4.664   3.560   4.628
 6108SOL    HW119220   4.744   3.503   4.649
 6108SOL    HW219221   4.615   3.520   4.551
 6109SOL     OW19222   4.106   2.562   4.204
 6109SOL    HW119223   4.151   2.472   4.201
 6109SOL    HW219224   4.012   2.551   4.237
 6110SOL     OW19225   4.338   1.984   3.841
 6110SOL    HW119226   4.436   1.962   3.848
 6110SOL    HW219227   4.307   1.967   3.748
 6111SOL     OW19228   4.505   2.126   5.473
 6111SOL    HW119229   4.572   2.065   5.516
 6111SOL    HW219230   4.432   2.145   5.538
 6112SOL     OW19231   4.612   3.376   4.919
 6112SOL    HW119232   4.589   3.351   4.825
 6112SOL    HW219233   4.673   3.307   4.958
 6113SOL     OW19234   5.075   2.452   5.157
 6113SOL    HW119235   5.103   2.409   5.242
 6113SOL    HW219236   5.100   2.548   5.158
 6114SOL     OW19237   4.527   3.264   4.648
 6114SOL    HW119238   4.617   3.278   4.606
 6114SOL    HW219239   4.456   3.266   4.577
 6115SOL     OW19240   4.646   2.365   4.623
 6115SOL    HW119241   4.621   2.356   4.527
 6115SOL    HW219242   4.694   2.283   4.654
 6116SOL     OW19243   4.263   1.926   4.236
 6116SOL    HW119244   4.182   1.927   4.294
 6116SOL    HW219245   4.266   2.009   4.181
 6117SOL     OW19246   5.158   3.050   3.765
 6117SOL    HW119247   5.190   2.974   3.822
 6117SOL    HW219248   5.066   3.077   3.795
 6118SOL     OW19249   4.021   1.897   3.895
 6118SOL    HW119250   4.070   1.981   3.874
 6118SOL    HW219251   4.083   1.832   3.940
 6119SOL     OW19252   4.659   2.098   4.204
 6119SOL    HW119253   4.611   2.139   4.126
 6119SOL    HW219254   4.758   2.096   4.185
 6120SOL     OW19255   4.800   2.545   5.188
 6120SOL    HW119256   4.720   2.484   5.191
 6120SOL    HW219257   4.881   2.492   5.164
 6121SOL     OW19258   4.951   3.432   4.517
 6121SOL    HW119259   4.972   3.506   4.452
 6121SOL    HW219260   5.019   3.432   4.590
 6122SOL     OW19261   4.183   3.014   4.465
 6122SOL    HW119262   4.112   2.987   4.530
 6122SOL    HW219263   4.157   2.986   4.372
 6123SOL     OW19264   4.995   3.659   4.315
 6123SOL    HW119265   5.039   3.723   4.251
 6123SOL    HW219266   4.945   3.711   4.385
 6124SOL     OW19267   4.756   2.411   3.740
 6124SOL    HW119268   4.715   2.493   3.701
 6124SOL    HW219269   4.820   2.437   3.813
 6125SOL     OW19270   3.802   2.418   5.110
 6125SOL    HW119271   3.894   2.417   5.069
 6125SOL    HW219272   3.796   2.492   5.177
 6126SOL     OW19273   4.285   2.084   4.871
 6126SOL    HW119274   4.323   2.000   4.908
 6126SOL    HW219275   4.197   2.103   4.915
 6127SOL     OW19276   4.590   2.316   4.366
 6127SOL    HW119277   4.558   2.388   4.304
 6127SOL    HW219278   4.614   2.235   4.313
 6128SOL     OW19279   4.741   1.901   4.477
 6128SOL    HW119280   4.669   1.906   4.408
 6128SOL    HW219281   4.717   1.832   4.546
 6129SOL     OW19282   5.153   3.035   4.591
 6129SOL    HW119283   5.098   2.951   4.584
 6129SOL    HW219284   5.179   3.064   4.499
 6130SOL     OW19285   4.212   3.247   3.898
 6130SOL    HW119286   4.125   3.232   3.945
 6130SOL    HW219287   4.195   3.273   3.803
 6131SOL     OW19288   5.114   2.437   3.802
 6131SOL    HW119289   5.060   2.416   3.883
 6131SOL    HW219290   5.205   2.396   3.811
 6132SOL     OW19291   4.251   2.118   4.052
 6132SOL    HW119292   4.278   2.059   3.977
 6132SOL    HW219293   4.251   2.213   4.021
 6133SOL     OW19294   4.788   3.209   5.064
 6133SOL    HW119295   4.708   3.186   5.119
 6133SOL    HW219296   4.871   3.183   5.113
 6134SOL     OW19297   5.316   3.491   5.349
 6134SOL    HW119298   5.343   3.525   5.259
 6134SOL    HW219299   5.395   3.453   5.395
 6135SOL     OW19300   4.835   3.057   4.824
 6135SOL    HW119301   4.795   3.101   4.905
 6135SOL    HW219302   4.794   3.094   4.741
 6136SOL     OW19303   4.639   1.951   5.126
 6136SOL    HW119304   4.664   1.931   5.031
 6136SOL    HW219305   4.711   2.007   5.168
 6137SOL     OW19306   4.704   2.978   5.443
 6137SOL    HW119307   4.605   2.984   5.453
 6137SOL    HW219308   4.727   2.898   5.387
 6138SOL     OW19309   4.429   2.912   4.092
 6138SOL    HW119310   4.415   2.919   4.191
 6138SOL    HW219311   4.513   2.861   4.074
 6139SOL     OW19312   4.134   2.675   4.975
 6139SOL    HW119313   4.220   2.687   5.025
 6139SOL    HW219314   4.092   2.588   5.002
 6140SOL     OW19315   4.998   2.248   4.986
 6140SOL    HW119316   5.019   2.322   5.050
 6140SOL    HW219317   4.909   2.265   4.943
 6141SOL     OW19318   3.788   3.426   5.055
 6141SOL    HW119319   3.742   3.508   5.021
 6141SOL    HW219320   3.886   3.445   5.064
 6142SOL     OW19321   4.091   2.962   4.225
 6142SOL    HW119322   4.084   3.045   4.169
 6142SOL    HW219323   4.095   2.882   4.165
 6143SOL     OW19324   4.290   2.399   4.589
 6143SOL    HW119325   4.302   2.465   4.515
 6143SOL    HW219326   4.336   2.433   4.672
 6144SOL     OW19327   4.976   3.210   4.112
 6144SOL    HW119328   5.026   3.287   4.152
 6144SOL    HW219329   4.881   3.212   4.144
 6145SOL     OW19330   4.996   3.307   4.866
 6145SOL    HW119331   5.043   3.320   4.953
 6145SOL    HW219332   4.930   3.233   4.875
 6146SOL     OW19333   4.078   3.372   5.053
 6146SOL    HW119334   4.057   3.328   4.966
 6146SOL    HW219335   4.175   3.398   5.056
 6147SOL     OW19336   4.126   2.613   5.322
 6147SOL    HW119337   4.194   2.668   5.275
 6147SOL    HW219338   4.166   2.525   5.349
 6148SOL     OW19339   4.737   1.967   5.494
 6148SOL    HW119340   4.743   2.052   5.442
 6148SOL    HW219341   4.769   1.891   5.437
 6149SOL     OW19342   4.228   1.912   5.464
 6149SOL    HW119343   4.186   1.855   5.394
 6149SOL    HW219344   4.162   1.981   5.496
 6150SOL     OW19345   4.297   2.732   4.753
 6150SOL    HW119346   4.341   2.821   4.744
 6150SOL    HW219347   4.234   2.732   4.830
 6151SOL     OW19348   5.084   2.724   4.769
 6151SOL    HW119349   5.009   2.724   4.703
 6151SOL    HW219350   5.121   2.632   4.778
 6152SOL     OW19351   4.933   2.387   3.999
 6152SOL    HW119352   4.946   2.303   4.053
 6152SOL    HW219353   4.904   2.461   4.059
 6153SOL     OW19354   4.031   2.075   4.955
 6153SOL    HW119355   4.008   2.112   5.045
 6153SOL    HW219356   4.001   1.980   4.949
 6154SOL     OW19357   3.761   3.172   5.006
 6154SOL    HW119358   3.814   3.123   5.074
 6154SOL    HW219359   3.783   3.270   5.011
 6155SOL     OW19360   4.456   2.496   4.788
 6155SOL    HW119361   4.515   2.470   4.712
 6155SOL    HW219362   4.428   2.592   4.777
 6156SOL     OW19363   4.031   1.925   4.342
 6156SOL    HW119364   4.020   2.019   4.375
 6156SOL    HW219365   4.026   1.862   4.419
 6157SOL     OW19366   5.346   2.229   4.098
 6157SOL    HW119367   5.348   2.153   4.162
 6157SOL    HW219368   5.298   2.306   4.138
 6158SOL     OW19369   4.747   2.628   4.690
 6158SOL    HW119370   4.762   2.649   4.786
 6158SOL    HW219371   4.717   2.533   4.681
 6159SOL     OW19372   4.704   3.435   5.424
 6159SOL    HW119373   4.684   3.479   5.336
 6159SOL    HW219374   4.743   3.344   5.408
 6160SOL     OW19375   4.074   2.760   5.528
 6160SOL    HW119376   4.150   2.804   5.576
 6160SOL    HW219377   4.109   2.713   5.446
 6161SOL     OW19378   5.027   2.700   3.766
 6161SOL    HW119379   5.061   2.607   3.781
 6161SOL    HW219380   5.045   2.727   3.671
 6162SOL     OW19381   4.792   3.195   4.573
 6162SOL    HW119382   4.799   3.111   4.518
 6162SOL    HW219383   4.854   3.264   4.537
 6163SOL     OW19384   4.043   2.672   4.673
 6163SOL    HW119385   4.136   2.708   4.678
 6163SOL    HW219386   4.037   2.587   4.725
 6164SOL     OW19387   4.063   2.371   4.730
 6164SOL    HW119388   4.011   2.288   4.713
 6164SOL    HW219389   4.140   2.376   4.666
 6165SOL     OW19390   4.862   2.242   5.402
 6165SOL    HW119391   4.817   2.305   5.466
 6165SOL    HW219392   4.955   2.273   5.385
 6166SOL     OW19393   4.884   2.069   5.201
 6166SOL    HW119394   4.884   2.133   5.278
 6166SOL    HW219395   4.912   2.117   5.118
 6167SOL     OW19396   3.732   3.188   3.924
 6167SOL    HW119397   3.639   3.209   3.893
 6167SOL    HW219398   3.742   3.089   3.937
 6168SOL     OW19399   3.812   3.663   4.651
 6168SOL    HW119400   3.770   3.577   4.624
 6168SOL    HW219401   3.906   3.666   4.617
 6169SOL     OW19402   4.228   3.430   4.634
 6169SOL    HW119403   4.294   3.504   4.643
 6169SOL    HW219404   4.272   3.351   4.592
 6170SOL     OW19405   4.726   2.658   4.962
 6170SOL    HW119406   4.767   2.626   5.048
 6170SOL    HW219407   4.630   2.631   4.959
 6171SOL     OW19408   3.764   2.406   4.838
 6171SOL    HW119409   3.849   2.373   4.797
 6171SOL    HW219410   3.777   2.421   4.936
 6172SOL     OW19411   3.913   2.382   5.446
 6172SOL    HW119412   3.972   2.342   5.376
 6172SOL    HW219413   3.855   2.453   5.405
 6173SOL     OW19414   5.093   2.812   5.384
 6173SOL    HW119415   5.132   2.901   5.404
 6173SOL    HW219416   5.103   2.792   5.287
 6174SOL     OW19417   4.539   2.434   4.049
 6174SOL    HW119418   4.546   2.345   4.003
 6174SOL    HW219419   4.445   2.468   4.041
 6175SOL     OW19420   3.976   3.426   5.468
 6175SOL    HW119421   3.946   3.483   5.544
 6175SOL    HW219422   3.969   3.329   5.494
 6176SOL     OW19423   4.395   2.326   4.993
 6176SOL    HW119424   4.361   2.237   4.963
 6176SOL    HW219425   4.421   2.380   4.913
 6177SOL     OW19426   4.654   3.540   5.189
 6177SOL    HW119427   4.630   3.522   5.094
 6177SOL    HW219428   4.684   3.634   5.199
 6178SOL     OW19429   4.197   2.362   3.915
 6178SOL    HW119430   4.258   2.442   3.919
 6178SOL    HW219431   4.102   2.393   3.922
 6179SOL     OW19432   3.883   2.999   5.190
 6179SOL    HW119433   3.905   2.938   5.266
 6179SOL    HW219434   3.893   2.950   5.104
 6180SOL     OW19435   5.071   2.921   4.958
 6180SOL    HW119436   5.095   2.858   4.884
 6180SOL    HW219437   4.981   2.961   4.940
 6181SOL     OW19438   5.026   2.717   4.033
 6181SOL    HW119439   4.940   2.686   4.075
 6181SOL    HW219440   5.022   2.703   3.934
 6182SOL     OW19441   4.976   3.593   4.852
 6182SOL    HW119442   5.060   3.598   4.798
 6182SOL    HW219443   4.953   3.497   4.870
 6183SOL     OW19444   3.807   3.120   4.746
 6183SOL    HW119445   3.802   3.119   4.846
 6183SOL    HW219446   3.724   3.079   4.708
 6184SOL     OW19447   4.412   3.524   5.440
 6184SOL    HW119448   4.356   3.605   5.449
 6184SOL    HW219449   4.464   3.528   5.354
 6185SOL     OW19450   5.450   1.997   4.247
 6185SOL    HW119451   5.523   1.980   4.180
 6185SOL    HW219452   5.419   1.910   4.285
 6186SOL     OW19453   5.112   3.435   4.201
 6186SOL    HW119454   5.179   3.447   4.127
 6186SOL    HW219455   5.072   3.524   4.224
 6187SOL     OW19456   3.854   3.656   5.575
 6187SOL    HW119457   3.813   3.582   5.628
 6187SOL    HW219458   3.918   3.707   5.633
 6188SOL     OW19459   5.004   2.789   4.396
 6188SOL    HW119460   5.064   2.708   4.398
 6188SOL    HW219461   5.044   2.858   4.336
 6189SOL     OW19462   4.554   3.135   5.146
 6189SOL    HW119463   4.549   3.168   5.241
 6189SOL    HW219464   4.468   3.154   5.100
 6190SOL     OW19465   4.396   3.478   3.878
 6190SOL    HW119466   4.405   3.488   3.779
 6190SOL    HW219467   4.356   3.389   3.899
 6191SOL     OW19468   3.987   2.188   4.444
 6191SOL    HW119469   3.908   2.239   4.410
 6191SOL    HW219470   3.978   2.173   4.542
 6192SOL     OW19471   4.918   3.474   3.755
 6192SOL    HW119472   4.924   3.381   3.792
 6192SOL    HW219473   4.859   3.474   3.675
 6193SOL     OW19474   4.546   2.864   5.096
 6193SOL    HW119475   4.586   2.863   5.004
 6193SOL    HW219476   4.556   2.956   5.136
 6194SOL     OW19477   4.640   2.772   4.015
 6194SOL    HW119478   4.703   2.810   3.947
 6194SOL    HW219479   4.680   2.689   4.054
 6195SOL     OW19480   4.096   3.150   5.214
 6195SOL    HW119481   4.083   3.243   5.180
 6195SOL    HW219482   4.012   3.098   5.201
 6196SOL     OW19483   4.763   2.960   4.420
 6196SOL    HW119484   4.693   2.913   4.474
 6196SOL    HW219485   4.822   2.892   4.377
 6197SOL     OW19486   4.738   2.098   4.695
 6197SOL    HW119487   4.730   2.062   4.602
 6197SOL    HW219488   4.736   2.022   4.760
 6198SOL     OW19489   4.314   3.349   4.215
 6198SOL    HW119490   4.356   3.291   4.145
 6198SOL    HW219491   4.270   3.428   4.171
 6199SOL     OW19492   3.979   3.210   4.014
 6199SOL    HW119493   3.883   3.211   3.987
 6199SOL    HW219494   3.991   3.263   4.098
 6200SOL     OW19495   3.829   2.875   5.450
 6200SOL    HW119496   3.752   2.842   5.504
 6200SOL    HW219497   3.914   2.845   5.492
 6201SOL     OW19498   4.396   2.065   5.213
 6201SOL    HW119499   4.486   2.049   5.173
 6201SOL    HW219500   4.404   2.070   5.312
 6202SOL     OW19501   3.799   2.207   3.757
 6202SOL    HW119502   3.707   2.179   3.728
 6202SOL    HW219503   3.830   2.284   3.701
 6203SOL     OW19504   5.164   2.718   5.122
 6203SOL    HW119505   5.107   2.770   5.059
 6203SOL    HW219506   5.260   2.730   5.098
 6204SOL     OW19507   3.796   2.028   4.042
 6204SOL    HW119508   3.779   2.111   3.988
 6204SOL    HW219509   3.886   1.991   4.020
 6205SOL     OW19510   4.907   3.197   3.843
 6205SOL    HW119511   4.808   3.186   3.845
 6205SOL    HW219512   4.941   3.212   3.936
 6206SOL     OW19513   4.337   2.704   5.155
 6206SOL    HW119514   4.393   2.785   5.138
 6206SOL    HW219515   4.396   2.624   5.158
 6207SOL     OW19516   4.440   2.427   5.432
 6207SOL    HW119517   4.459   2.492   5.506
 6207SOL    HW219518   4.500   2.347   5.441
 6208SOL     OW19519   5.174   3.082   5.357
 6208SOL    HW119520   5.165   3.072   5.456
 6208SOL    HW219521   5.270   3.075   5.331
 6209SOL     OW19522   4.114   3.603   5.284
 6209SOL    HW119523   4.023   3.644   5.282
 6209SOL    HW219524   4.107   3.509   5.316
 6210SOL     OW19525   4.949   2.187   4.173
 6210SOL    HW119526   5.014   2.113   4.162
 6210SOL    HW219527   4.969   2.237   4.257
 6211SOL     OW19528   4.318   2.607   4.376
 6211SOL    HW119529   4.368   2.692   4.357
 6211SOL    HW219530   4.230   2.609   4.328
 6212SOL     OW19531   4.583   3.236   3.740
 6212SOL    HW119532   4.537   3.251   3.828
 6212SOL    HW219533   4.627   3.321   3.710
 6213SOL     OW19534   4.385   3.652   4.677
 6213SOL    HW119535   4.339   3.740   4.664
 6213SOL    HW219536   4.484   3.664   4.670
 6214SOL     OW19537   4.583   2.818   4.585
 6214SOL    HW119538   4.637   2.749   4.633
 6214SOL    HW219539   4.551   2.887   4.651
 6215SOL     OW19540   4.807   2.846   3.811
 6215SOL    HW119541   4.784   2.899   3.729
 6215SOL    HW219542   4.888   2.790   3.792
 6216SOL     OW19543   3.945   3.176   5.568
 6216SOL    HW119544   3.880   3.103   5.547
 6216SOL    HW219545   3.949   3.190   5.666
 6217SOL     OW19546   3.803   3.102   4.377
 6217SOL    HW119547   3.802   3.055   4.465
 6217SOL    HW219548   3.885   3.074   4.326
 6218SOL     OW19549   4.396   3.253   5.348
 6218SOL    HW119550   4.318   3.203   5.386
 6218SOL    HW219551   4.393   3.348   5.379
 6219SOL     OW19552   4.152   2.286   4.244
 6219SOL    HW119553   4.182   2.214   4.182
 6219SOL    HW219554   4.113   2.246   4.327
 6220SOL     OW19555   5.429   3.349   4.828
 6220SOL    HW119556   5.336   3.324   4.801
 6220SOL    HW219557   5.455   3.299   4.910
 6221SOL     OW19558   4.041   2.409   5.004
 6221SOL    HW119559   4.079   2.350   5.076
 6221SOL    HW219560   4.081   2.383   4.916
 6222SOL     OW19561   4.536   3.448   4.411
 6222SOL    HW119562   4.568   3.458   4.317
 6222SOL    HW219563   4.457   3.386   4.413
 6223SOL     OW19564   5.148   2.076   4.836
 6223SOL    HW119565   5.200   2.011   4.891
 6223SOL    HW219566   5.099   2.139   4.897
 6224SOL     OW19567   4.725   1.896   4.878
 6224SOL    HW119568   4.662   1.824   4.847
 6224SOL    HW219569   4.818   1.860   4.878
 6225SOL     OW19570   4.494   3.192   4.025
 6225SOL    HW119571   4.448   3.105   4.042
 6225SOL    HW219572   4.585   3.189   4.066
 6226SOL     OW19573   4.342   3.429   5.008
 6226SOL    HW119574   4.337   3.511   5.065
 6226SOL    HW219575   4.431   3.426   4.963
 6227SOL     OW19576   5.076   1.914   3.892
 6227SOL    HW119577   5.111   1.873   3.808
 6227SOL    HW219578   4.986   1.876   3.912
 6228SOL     OW19579   5.024   2.315   4.415
 6228SOL    HW119580   4.965   2.395   4.419
 6228SOL    HW219581   5.039   2.280   4.508
 6229SOL     OW19582   5.317   2.083   4.606
 6229SOL    HW119583   5.233   2.082   4.660
 6229SOL    HW219584   5.319   2.166   4.550
 6230SOL     OW19585   3.763   2.939   4.024
 6230SOL    HW119586   3.862   2.928   4.015
 6230SOL    HW219587   3.723   2.853   4.056
 6231SOL     OW19588   4.599   3.508   4.061
 6231SOL    HW119589   4.522   3.473   4.007
 6231SOL    HW219590   4.567   3.579   4.123
 6232SOL     OW19591   3.954   2.490   5.699
 6232SOL    HW119592   3.861   2.488   5.736
 6232SOL    HW219593   3.955   2.451   5.607
 6233SOL     OW19594   3.949   2.137   6.582
 6233SOL    HW119595   3.984   2.120   6.674
 6233SOL    HW219596   3.861   2.092   6.570
 6234SOL     OW19597   3.743   2.230   6.233
 6234SOL    HW119598   3.661   2.273   6.272
 6234SOL    HW219599   3.715   2.157   6.170
 6235SOL     OW19600   4.293   3.137   6.751
 6235SOL    HW119601   4.200   3.130   6.714
 6235SOL    HW219602   4.304   3.226   6.795
 6236SOL     OW19603   5.279   3.373   6.289
 6236SOL    HW119604   5.222   3.357   6.370
 6236SOL    HW219605   5.220   3.383   6.209
 6237SOL     OW19606   4.859   2.565   6.303
 6237SOL    HW119607   4.916   2.643   6.278
 6237SOL    HW219608   4.799   2.591   6.379
 6238SOL     OW19609   4.492   3.006   6.609
 6238SOL    HW119610   4.414   3.023   6.669
 6238SOL    HW219611   4.526   3.093   6.573
 6239SOL     OW19612   4.574   2.660   7.409
 6239SOL    HW119613   4.570   2.736   7.474
 6239SOL    HW219614   4.596   2.696   7.318
 6240SOL     OW19615   4.409   2.874   6.251
 6240SOL    HW119616   4.478   2.858   6.321
 6240SOL    HW219617   4.336   2.931   6.289
 6241SOL     OW19618   4.410   3.023   7.389
 6241SOL    HW119619   4.470   3.102   7.403
 6241SOL    HW219620   4.324   3.054   7.348
 6242SOL     OW19621   4.059   3.297   6.647
 6242SOL    HW119622   3.981   3.266   6.594
 6242SOL    HW219623   4.117   3.355   6.590
 6243SOL     OW19624   5.184   3.367   6.925
 6243SOL    HW119625   5.208   3.461   6.951
 6243SOL    HW219626   5.168   3.313   7.007
 6244SOL     OW19627   4.162   2.254   7.085
 6244SOL    HW119628   4.244   2.198   7.094
 6244SOL    HW219629   4.081   2.196   7.089
 6245SOL     OW19630   3.955   3.575   6.069
 6245SOL    HW119631   3.989   3.652   6.123
 6245SOL    HW219632   3.999   3.575   5.979
 6246SOL     OW19633   4.851   3.203   7.276
 6246SOL    HW119634   4.898   3.203   7.364
 6246SOL    HW219635   4.803   3.116   7.265
 6247SOL     OW19636   3.954   3.296   6.124
 6247SOL    HW119637   3.928   3.392   6.124
 6247SOL    HW219638   3.883   3.242   6.169
 6248SOL     OW19639   3.964   2.953   6.472
 6248SOL    HW119640   3.978   2.869   6.524
 6248SOL    HW219641   3.909   3.017   6.527
 6249SOL     OW19642   4.344   3.648   7.025
 6249SOL    HW119643   4.252   3.631   7.060
 6249SOL    HW219644   4.372   3.740   7.051
 6250SOL     OW19645   4.330   2.826   5.709
 6250SOL    HW119646   4.337   2.910   5.655
 6250SOL    HW219647   4.376   2.839   5.797
 6251SOL     OW19648   3.846   2.505   6.149
 6251SOL    HW119649   3.801   2.417   6.166
 6251SOL    HW219650   3.845   2.559   6.233
 6252SOL     OW19651   3.751   3.458   5.703
 6252SOL    HW119652   3.732   3.362   5.724
 6252SOL    HW219653   3.718   3.516   5.778
 6253SOL     OW19654   5.413   2.784   6.198
 6253SOL    HW119655   5.508   2.755   6.206
 6253SOL    HW219656   5.405   2.849   6.123
 6254SOL     OW19657   3.837   2.599   7.183
 6254SOL    HW119658   3.925   2.586   7.228
 6254SOL    HW219659   3.824   2.696   7.161
 6255SOL     OW19660   4.337   3.227   6.312
 6255SOL    HW119661   4.288   3.140   6.321
 6255SOL    HW219662   4.314   3.270   6.225
 6256SOL     OW19663   5.017   3.090   7.009
 6256SOL    HW119664   5.054   3.017   6.951
 6256SOL    HW219665   5.069   3.095   7.094
 6257SOL     OW19666   4.533   1.866   6.088
 6257SOL    HW119667   4.573   1.957   6.079
 6257SOL    HW219668   4.433   1.874   6.094
 6258SOL     OW19669   3.921   2.838   6.850
 6258SOL    HW119670   4.010   2.793   6.836
 6258SOL    HW219671   3.848   2.773   6.831
 6259SOL     OW19672   4.911   3.654   7.202
 6259SOL    HW119673   4.935   3.714   7.126
 6259SOL    HW219674   4.918   3.559   7.172
 6260SOL     OW19675   4.041   2.113   7.387
 6260SOL    HW119676   4.112   2.184   7.393
 6260SOL    HW219677   3.953   2.152   7.415
 6261SOL     OW19678   5.190   3.279   6.539
 6261SOL    HW119679   5.131   3.285   6.619
 6261SOL    HW219680   5.175   3.191   6.493
 6262SOL     OW19681   4.322   2.591   5.856
 6262SOL    HW119682   4.346   2.660   5.788
 6262SOL    HW219683   4.244   2.624   5.910
 6263SOL     OW19684   5.005   2.207   6.530
 6263SOL    HW119685   4.919   2.157   6.517
 6263SOL    HW219686   5.067   2.153   6.586
 6264SOL     OW19687   4.531   2.467   7.051
 6264SOL    HW119688   4.484   2.464   7.140
 6264SOL    HW219689   4.480   2.412   6.985
 6265SOL     OW19690   5.118   2.331   7.260
 6265SOL    HW119691   5.098   2.374   7.348
 6265SOL    HW219692   5.196   2.269   7.269
 6266SOL     OW19693   4.697   2.752   7.158
 6266SOL    HW119694   4.743   2.668   7.129
 6266SOL    HW219695   4.641   2.786   7.083
 6267SOL     OW19696   4.715   2.272   6.828
 6267SOL    HW119697   4.638   2.306   6.882
 6267SOL    HW219698   4.681   2.221   6.749
 6268SOL     OW19699   4.765   2.563   6.015
 6268SOL    HW119700   4.791   2.559   6.111
 6268SOL    HW219701   4.680   2.512   6.001
 6269SOL     OW19702   3.800   2.673   6.375
 6269SOL    HW119703   3.899   2.661   6.384
 6269SOL    HW219704   3.776   2.768   6.396
 6270SOL     OW19705   3.854   3.683   7.157
 6270SOL    HW119706   3.844   3.668   7.256
 6270SOL    HW219707   3.768   3.719   7.121
 6271SOL     OW19708   4.589   2.210   5.781
 6271SOL    HW119709   4.648   2.273   5.732
 6271SOL    HW219710   4.608   2.116   5.752
 6272SOL     OW19711   5.086   3.006   6.131
 6272SOL    HW119712   5.169   2.977   6.083
 6272SOL    HW219713   5.037   3.073   6.075
 6273SOL     OW19714   4.274   2.058   6.471
 6273SOL    HW119715   4.269   2.053   6.571
 6273SOL    HW219716   4.276   2.154   6.442
 6274SOL     OW19717   4.732   3.318   6.063
 6274SOL    HW119718   4.686   3.390   6.011
 6274SOL    HW219719   4.728   3.338   6.161
 6275SOL     OW19720   4.075   3.663   6.439
 6275SOL    HW119721   4.125   3.577   6.445
 6275SOL    HW219722   4.140   3.740   6.436
 6276SOL     OW19723   4.951   3.412   7.092
 6276SOL    HW119724   4.957   3.335   7.156
 6276SOL    HW219725   4.899   3.386   7.012
 6277SOL     OW19726   4.045   2.805   5.828
 6277SOL    HW119727   4.127   2.844   5.786
 6277SOL    HW219728   4.018   2.723   5.779
 6278SOL     OW19729   4.185   3.128   7.313
 6278SOL    HW119730   4.135   3.129   7.227
 6278SOL    HW219731   4.122   3.110   7.389
 6279SOL     OW19732   4.835   3.638   5.823
 6279SOL    HW119733   4.775   3.576   5.873
 6279SOL    HW219734   4.866   3.594   5.738
 6280SOL     OW19735   3.926   2.147   7.084
 6280SOL    HW119736   3.846   2.207   7.071
 6280SOL    HW219737   3.916   2.098   7.170
 6281SOL     OW19738   4.188   3.605   5.909
 6281SOL    HW119739   4.221   3.644   5.995
 6281SOL    HW219740   4.264   3.598   5.844
 6282SOL     OW19741   5.124   1.969   6.012
 6282SOL    HW119742   5.100   1.932   5.922
 6282SOL    HW219743   5.223   1.985   6.016
 6283SOL     OW19744   3.973   3.647   6.827
 6283SOL    HW119745   4.030   3.582   6.877
 6283SOL    HW219746   3.957   3.614   6.734
 6284SOL     OW19747   4.664   3.560   6.490
 6284SOL    HW119748   4.744   3.503   6.511
 6284SOL    HW219749   4.615   3.520   6.413
 6285SOL     OW19750   4.106   2.562   6.066
 6285SOL    HW119751   4.151   2.472   6.063
 6285SOL    HW219752   4.012   2.551   6.099
 6286SOL     OW19753   4.338   1.984   5.703
 6286SOL    HW119754   4.436   1.962   5.710
 6286SOL    HW219755   4.307   1.967   5.610
 6287SOL     OW19756   4.505   2.126   7.335
 6287SOL    HW119757   4.572   2.065   7.378
 6287SOL    HW219758   4.432   2.145   7.400
 6288SOL     OW19759   4.612   3.376   6.781
 6288SOL    HW119760   4.589   3.351   6.687
 6288SOL    HW219761   4.673   3.307   6.820
 6289SOL     OW19762   5.075   2.452   7.019
 6289SOL    HW119763   5.103   2.409   7.104
 6289SOL    HW219764   5.100   2.548   7.020
 6290SOL     OW19765   4.527   3.264   6.510
 6290SOL    HW119766   4.617   3.278   6.468
 6290SOL    HW219767   4.456   3.266   6.439
 6291SOL     OW19768   4.646   2.365   6.485
 6291SOL    HW119769   4.621   2.356   6.389
 6291SOL    HW219770   4.694   2.283   6.516
 6292SOL     OW19771   4.263   1.926   6.098
 6292SOL    HW119772   4.182   1.927   6.156
 6292SOL    HW219773   4.266   2.009   6.043
 6293SOL     OW19774   5.158   3.050   5.627
 6293SOL    HW119775   5.190   2.974   5.684
 6293SOL    HW219776   5.066   3.077   5.657
 6294SOL     OW19777   4.021   1.897   5.757
 6294SOL    HW119778   4.070   1.981   5.736
 6294SOL    HW219779   4.083   1.832   5.802
 6295SOL     OW19780   4.659   2.098   6.066
 6295SOL    HW119781   4.611   2.139   5.988
 6295SOL    HW219782   4.758   2.096   6.047
 6296SOL     OW19783   4.800   2.545   7.050
 6296SOL    HW119784   4.720   2.484   7.053
 6296SOL    HW219785   4.881   2.492   7.026
 6297SOL     OW19786   4.951   3.432   6.379
 6297SOL    HW119787   4.972   3.506   6.314
 6297SOL    HW219788   5.019   3.432   6.452
 6298SOL     OW19789   4.183   3.014   6.327
 6298SOL    HW119790   4.112   2.987   6.392
 6298SOL    HW219791   4.157   2.986   6.234
 6299SOL     OW19792   4.995   3.659   6.177
 6299SOL    HW119793   5.039   3.723   6.113
 6299SOL    HW219794   4.945   3.711   6.247
 6300SOL     OW19795   4.756   2.411   5.602
 6300SOL    HW119796   4.715   2.493   5.563
 6300SOL    HW219797   4.820   2.437   5.675
 6301SOL     OW19798   3.802   2.418   6.972
 6301SOL    HW119799   3.894   2.417   6.931
 6301SOL    HW219800   3.796   2.492   7.039
 6302SOL     OW19801   4.285   2.084   6.733
 6302SOL    HW119802   4.323   2.000   6.770
 6302SOL    HW219803   4.197   2.103   6.777
 6303SOL     OW19804   4.590   2.316   6.228
 6303SOL    HW119805   4.558   2.388   6.166
 6303SOL    HW219806   4.614   2.235   6.175
 6304SOL     OW19807   4.741   1.901   6.339
 6304SOL    HW119808   4.669   1.906   6.270
 6304SOL    HW219809   4.717   1.832   6.408
 6305SOL     OW19810   5.153   3.035   6.453
 6305SOL    HW119811   5.098   2.951   6.446
 6305SOL    HW219812   5.179   3.064   6.361
 6306SOL     OW19813   4.212   3.247   5.760
 6306SOL    HW119814   4.125   3.232   5.807
 6306SOL    HW219815   4.195   3.273   5.665
 6307SOL     OW19816   5.114   2.437   5.664
 6307SOL    HW119817   5.060   2.416   5.745
 6307SOL    HW219818   5.205   2.396   5.673
 6308SOL     OW19819   4.251   2.118   5.914
 6308SOL    HW119820   4.278   2.059   5.839
 6308SOL    HW219821   4.251   2.213   5.883
 6309SOL     OW19822   4.788   3.209   6.926
 6309SOL    HW119823   4.708   3.186   6.981
 6309SOL    HW219824   4.871   3.183   6.975
 6310SOL     OW19825   5.316   3.491   7.211
 6310SOL    HW119826   5.343   3.525   7.121
 6310SOL    HW219827   5.395   3.453   7.257
 6311SOL     OW19828   4.835   3.057   6.686
 6311SOL    HW119829   4.795   3.101   6.767
 6311SOL    HW219830   4.794   3.094   6.603
 6312SOL     OW19831   4.639   1.951   6.988
 6312SOL    HW119832   4.664   1.931   6.893
 6312SOL    HW219833   4.711   2.007   7.030
 6313SOL     OW19834   4.704   2.978   7.305
 6313SOL    HW119835   4.605   2.984   7.315
 6313SOL    HW219836   4.727   2.898   7.249
 6314SOL     OW19837   4.429   2.912   5.954
 6314SOL    HW119838   4.415   2.919   6.053
 6314SOL    HW219839   4.513   2.861   5.936
 6315SOL     OW19840   4.134   2.675   6.837
 6315SOL    HW119841   4.220   2.687   6.887
 6315SOL    HW219842   4.092   2.588   6.864
 6316SOL     OW19843   4.998   2.248   6.848
 6316SOL    HW119844   5.019   2.322   6.912
 6316SOL    HW219845   4.909   2.265   6.805
 6317SOL     OW19846   3.788   3.426   6.917
 6317SOL    HW119847   3.742   3.508   6.883
 6317SOL    HW219848   3.886   3.445   6.926
 6318SOL     OW19849   4.091   2.962   6.087
 6318SOL    HW119850   4.084   3.045   6.031
 6318SOL    HW219851   4.095   2.882   6.027
 6319SOL     OW19852   4.290   2.399   6.451
 6319SOL    HW119853   4.302   2.465   6.377
 6319SOL    HW219854   4.336   2.433   6.534
 6320SOL     OW19855   4.976   3.210   5.974
 6320SOL    HW119856   5.026   3.287   6.014
 6320SOL    HW219857   4.881   3.212   6.006
 6321SOL     OW19858   4.996   3.307   6.728
 6321SOL    HW119859   5.043   3.320   6.815
 6321SOL    HW219860   4.930   3.233   6.737
 6322SOL     OW19861   4.078   3.372   6.915
 6322SOL    HW119862   4.057   3.328   6.828
 6322SOL    HW219863   4.175   3.398   6.918
 6323SOL     OW19864   4.126   2.613   7.184
 6323SOL    HW119865   4.194   2.668   7.137
 6323SOL    HW219866   4.166   2.525   7.211
 6324SOL     OW19867   4.737   1.967   7.356
 6324SOL    HW119868   4.743   2.052   7.304
 6324SOL    HW219869   4.769   1.891   7.299
 6325SOL     OW19870   4.228   1.912   7.326
 6325SOL    HW119871   4.186   1.855   7.256
 6325SOL    HW219872   4.162   1.981   7.358
 6326SOL     OW19873   4.297   2.732   6.615
 6326SOL    HW119874   4.341   2.821   6.606
 6326SOL    HW219875   4.234   2.732   6.692
 6327SOL     OW19876   5.084   2.724   6.631
 6327SOL    HW119877   5.009   2.724   6.565
 6327SOL    HW219878   5.121   2.632   6.640
 6328SOL     OW19879   4.933   2.387   5.861
 6328SOL    HW119880   4.946   2.303   5.915
 6328SOL    HW219881   4.904   2.461   5.921
 6329SOL     OW19882   4.031   2.075   6.817
 6329SOL    HW119883   4.008   2.112   6.907
 6329SOL    HW219884   4.001   1.980   6.811
 6330SOL     OW19885   3.761   3.172   6.868
 6330SOL    HW119886   3.814   3.123   6.936
 6330SOL    HW219887   3.783   3.270   6.873
 6331SOL     OW19888   4.456   2.496   6.650
 6331SOL    HW119889   4.515   2.470   6.574
 6331SOL    HW219890   4.428   2.592   6.639
 6332SOL     OW19891   4.031   1.925   6.204
 6332SOL    HW119892   4.020   2.019   6.237
 6332SOL    HW219893   4.026   1.862   6.281
 6333SOL     OW19894   5.346   2.229   5.960
 6333SOL    HW119895   5.348   2.153   6.024
 6333SOL    HW219896   5.298   2.306   6.000
 6334SOL     OW19897   4.747   2.628   6.552
 6334SOL    HW119898   4.762   2.649   6.648
 6334SOL    HW219899   4.717   2.533   6.543
 6335SOL     OW19900   4.704   3.435   7.286
 6335SOL    HW119901   4.684   3.479   7.198
 6335SOL    HW219902   4.743   3.344   7.270
 6336SOL     OW19903   4.074   2.760   7.390
 6336SOL    HW119904   4.150   2.804   7.438
 6336SOL    HW219905   4.109   2.713   7.308
 6337SOL     OW19906   5.027   2.700   5.628
 6337SOL    HW119907   5.061   2.607   5.643
 6337SOL    HW219908   5.045   2.727   5.533
 6338SOL     OW19909   4.792   3.195   6.435
 6338SOL    HW119910   4.799   3.111   6.380
 6338SOL    HW219911   4.854   3.264   6.399
 6339SOL     OW19912   4.043   2.672   6.535
 6339SOL    HW119913   4.136   2.708   6.540
 6339SOL    HW219914   4.037   2.587   6.587
 6340SOL     OW19915   4.063   2.371   6.592
 6340SOL    HW119916   4.011   2.288   6.575
 6340SOL    HW219917   4.140   2.376   6.528
 6341SOL     OW19918   4.862   2.242   7.264
 6341SOL    HW119919   4.817   2.305   7.328
 6341SOL    HW219920   4.955   2.273   7.247
 6342SOL     OW19921   4.884   2.069   7.063
 6342SOL    HW119922   4.884   2.133   7.140
 6342SOL    HW219923   4.912   2.117   6.980
 6343SOL     OW19924   3.732   3.188   5.786
 6343SOL    HW119925   3.639   3.209   5.755
 6343SOL    HW219926   3.742   3.089   5.799
 6344SOL     OW19927   3.812   3.663   6.513
 6344SOL    HW119928   3.770   3.577   6.486
 6344SOL    HW219929   3.906   3.666   6.479
 6345SOL     OW19930   4.228   3.430   6.496
 6345SOL    HW119931   4.294   3.504   6.505
 6345SOL    HW219932   4.272   3.351   6.454
 6346SOL     OW19933   4.726   2.658   6.824
 6346SOL    HW119934   4.767   2.626   6.910
 6346SOL    HW219935   4.630   2.631   6.821
 6347SOL     OW19936   3.764   2.406   6.700
 6347SOL    HW119937   3.849   2.373   6.659
 6347SOL    HW219938   3.777   2.421   6.798
 6348SOL     OW19939   3.913   2.382   7.308
 6348SOL    HW119940   3.972   2.342   7.238
 6348SOL    HW219941   3.855   2.453   7.267
 6349SOL     OW19942   5.093   2.812   7.246
 6349SOL    HW119943   5.132   2.901   7.266
 6349SOL    HW219944   5.103   2.792   7.149
 6350SOL     OW19945   4.539   2.434   5.911
 6350SOL    HW119946   4.546   2.345   5.865
 6350SOL    HW219947   4.445   2.468   5.903
 6351SOL     OW19948   3.976   3.426   7.330
 6351SOL    HW119949   3.946   3.483   7.406
 6351SOL    HW219950   3.969   3.329   7.356
 6352SOL     OW19951   4.395   2.326   6.855
 6352SOL    HW119952   4.361   2.237   6.825
 6352SOL    HW219953   4.421   2.380   6.775
 6353SOL     OW19954   4.654   3.540   7.051
 6353SOL    HW119955   4.630   3.522   6.956
 6353SOL    HW219956   4.684   3.634   7.061
 6354SOL     OW19957   4.197   2.362   5.777
 6354SOL    HW119958   4.258   2.442   5.781
 6354SOL    HW219959   4.102   2.393   5.784
 6355SOL     OW19960   3.883   2.999   7.052
 6355SOL    HW119961   3.905   2.938   7.128
 6355SOL    HW219962   3.893   2.950   6.966
 6356SOL     OW19963   5.071   2.921   6.820
 6356SOL    HW119964   5.095   2.858   6.746
 6356SOL    HW219965   4.981   2.961   6.802
 6357SOL     OW19966   5.026   2.717   5.895
 6357SOL    HW119967   4.940   2.686   5.937
 6357SOL    HW219968   5.022   2.703   5.796
 6358SOL     OW19969   4.976   3.593   6.714
 6358SOL    HW119970   5.060   3.598   6.660
 6358SOL    HW219971   4.953   3.497   6.732
 6359SOL     OW19972   3.807   3.120   6.608
 6359SOL    HW119973   3.802   3.119   6.708
 6359SOL    HW219974   3.724   3.079   6.570
 6360SOL     OW19975   4.412   3.524   7.302
 6360SOL    HW119976   4.356   3.605   7.311
 6360SOL    HW219977   4.464   3.528   7.216
 6361SOL     OW19978   5.450   1.997   6.109
 6361SOL    HW119979   5.523   1.980   6.042
 6361SOL    HW219980   5.419   1.910   6.147
 6362SOL     OW19981   5.112   3.435   6.063
 6362SOL    HW119982   5.179   3.447   5.989
 6362SOL    HW219983   5.072   3.524   6.086
 6363SOL     OW19984   3.854   3.656   7.437
 6363SOL    HW119985   3.813   3.582   7.490
 6363SOL    HW219986   3.918   3.707   7.495
 6364SOL     OW19987   5.004   2.789   6.258
 6364SOL    HW119988   5.064   2.708   6.260
 6364SOL    HW219989   5.044   2.858   6.198
 6365SOL     OW19990   4.554   3.135   7.008
 6365SOL    HW119991   4.549   3.168   7.103
 6365SOL    HW219992   4.468   3.154   6.962
 6366SOL     OW19993   4.396   3.478   5.740
 6366SOL    HW119994   4.405   3.488   5.641
 6366SOL    HW219995   4.356   3.389   5.761
 6367SOL     OW19996   3.987   2.188   6.306
 6367SOL    HW119997   3.908   2.239   6.272
 6367SOL    HW219998   3.978   2.173   6.404
 6368SOL     OW19999   4.918   3.474   5.617
 6368SOL    HW120000   4.924   3.381   5.654
 6368SOL    HW220001   4.859   3.474   5.537
 6369SOL     OW20002   4.546   2.864   6.958
 6369SOL    HW120003   4.586   2.863   6.866
 6369SOL    HW220004   4.556   2.956   6.998
 6370SOL     OW20005   4.640   2.772   5.877
 6370SOL    HW120006   4.703   2.810   5.809
 6370SOL    HW220007   4.680   2.689   5.916
 6371SOL     OW20008   4.096   3.150   7.076
 6371SOL    HW120009   4.083   3.243   7.042
 6371SOL    HW220010   4.012   3.098   7.063
 6372SOL     OW20011   4.763   2.960   6.282
 6372SOL    HW120012   4.693   2.913   6.336
 6372SOL    HW220013   4.822   2.892   6.239
 6373SOL     OW20014   4.738   2.098   6.557
 6373SOL    HW120015   4.730   2.062   6.464
 6373SOL    HW220016   4.736   2.022   6.622
 6374SOL     OW20017   4.314   3.349   6.077
 6374SOL    HW120018   4.356   3.291   6.007
 6374SOL    HW220019   4.270   3.428   6.033
 6375SOL     OW20020   3.979   3.210   5.876
 6375SOL    HW120021   3.883   3.211   5.849
 6375SOL    HW220022   3.991   3.263   5.960
 6376SOL     OW20023   3.829   2.875   7.312
 6376SOL    HW120024   3.752   2.842   7.366
 6376SOL    HW220025   3.914   2.845   7.354
 6377SOL     OW20026   4.396   2.065   7.075
 6377SOL    HW120027   4.486   2.049   7.035
 6377SOL    HW220028   4.404   2.070   7.174
 6378SOL     OW20029   3.799   2.207   5.619
 6378SOL    HW120030   3.707   2.179   5.590
 6378SOL    HW220031   3.830   2.284   5.563
 6379SOL     OW20032   5.164   2.718   6.984
 6379SOL    HW120033   5.107   2.770   6.921
 6379SOL    HW220034   5.260   2.730   6.960
 6380SOL     OW20035   3.796   2.028   5.904
 6380SOL    HW120036   3.779   2.111   5.850
 6380SOL    HW220037   3.886   1.991   5.882
 6381SOL     OW20038   4.907   3.197   5.705
 6381SOL    HW120039   4.808   3.186   5.707
 6381SOL    HW220040   4.941   3.212   5.798
 6382SOL     OW20041   4.337   2.704   7.017
 6382SOL    HW120042   4.393   2.785   7.000
 6382SOL    HW220043   4.396   2.624   7.020
 6383SOL     OW20044   4.440   2.427   7.294
 6383SOL    HW120045   4.459   2.492   7.368
 6383SOL    HW220046   4.500   2.347   7.303
 6384SOL     OW20047   5.174   3.082   7.219
 6384SOL    HW120048   5.165   3.072   7.318
 6384SOL    HW220049   5.270   3.075   7.193
 6385SOL     OW20050   4.114   3.603   7.146
 6385SOL    HW120051   4.023   3.644   7.144
 6385SOL    HW220052   4.107   3.509   7.178
 6386SOL     OW20053   4.949   2.187   6.035
 6386SOL    HW120054   5.014   2.113   6.024
 6386SOL    HW220055   4.969   2.237   6.119
 6387SOL     OW20056   4.318   2.607   6.238
 6387SOL    HW120057   4.368   2.692   6.219
 6387SOL    HW220058   4.230   2.609   6.190
 6388SOL     OW20059   4.583   3.236   5.602
 6388SOL    HW120060   4.537   3.251   5.690
 6388SOL    HW220061   4.627   3.321   5.572
 6389SOL     OW20062   4.385   3.652   6.539
 6389SOL    HW120063   4.339   3.740   6.526
 6389SOL    HW220064   4.484   3.664   6.532
 6390SOL     OW20065   4.583   2.818   6.447
 6390SOL    HW120066   4.637   2.749   6.495
 6390SOL    HW220067   4.551   2.887   6.513
 6391SOL     OW20068   4.807   2.846   5.673
 6391SOL    HW120069   4.784   2.899   5.591
 6391SOL    HW220070   4.888   2.790   5.654
 6392SOL     OW20071   3.945   3.176   7.430
 6392SOL    HW120072   3.880   3.103   7.409
 6392SOL    HW220073   3.949   3.190   7.528
 6393SOL     OW20074   3.803   3.102   6.239
 6393SOL    HW120075   3.802   3.055   6.327
 6393SOL    HW220076   3.885   3.074   6.188
 6394SOL     OW20077   4.396   3.253   7.210
 6394SOL    HW120078   4.318   3.203   7.248
 6394SOL    HW220079   4.393   3.348   7.241
 6395SOL     OW20080   4.152   2.286   6.106
 6395SOL    HW120081   4.182   2.214   6.044
 6395SOL    HW220082   4.113   2.246   6.189
 6396SOL     OW20083   5.429   3.349   6.690
 6396SOL    HW120084   5.336   3.324   6.663
 6396SOL    HW220085   5.455   3.299   6.772
 6397SOL     OW20086   4.041   2.409   6.866
 6397SOL    HW120087   4.079   2.350   6.938
 6397SOL    HW220088   4.081   2.383   6.778
 6398SOL     OW20089   4.536   3.448   6.273
 6398SOL    HW120090   4.568   3.458   6.179
 6398SOL    HW220091   4.457   3.386   6.275
 6399SOL     OW20092   5.148   2.076   6.698
 6399SOL    HW120093   5.200   2.011   6.753
 6399SOL    HW220094   5.099   2.139   6.759
 6400SOL     OW20095   4.725   1.896   6.740
 6400SOL    HW120096   4.662   1.824   6.709
 6400SOL    HW220097   4.818   1.860   6.740
 6401SOL     OW20098   4.494   3.192   5.887
 6401SOL    HW120099   4.448   3.105   5.904
 6401SOL    HW220100   4.585   3.189   5.928
 6402SOL     OW20101   4.342   3.429   6.870
 6402SOL    HW120102   4.337   3.511   6.927
 6402SOL    HW220103   4.431   3.426   6.825
 6403SOL     OW20104   5.076   1.914   5.754
 6403SOL    HW120105   5.111   1.873   5.670
 6403SOL    HW220106   4.986   1.876   5.774
 6404SOL     OW20107   5.024   2.315   6.277
 6404SOL    HW120108   4.965   2.395   6.281
 6404SOL    HW220109   5.039   2.280   6.370
 6405SOL     OW20110   5.317   2.083   6.468
 6405SOL    HW120111   5.233   2.082   6.522
 6405SOL    HW220112   5.319   2.166   6.412
 6406SOL     OW20113   3.763   2.939   5.886
 6406SOL    HW120114   3.862   2.928   5.877
 6406SOL    HW220115   3.723   2.853   5.918
 6407SOL     OW20116   4.599   3.508   5.923
 6407SOL    HW120117   4.522   3.473   5.869
 6407SOL    HW220118   4.567   3.579   5.985
 6408SOL     OW20119   3.954   2.490   7.561
 6408SOL    HW120120   3.861   2.488   7.598
 6408SOL    HW220121   3.955   2.451   7.469
 6409SOL     OW20122   3.955   3.575   7.931
 6409SOL    HW120123   3.989   3.652   7.985
 6409SOL    HW220124   3.999   3.575   7.841
 6410SOL     OW20125   3.954   3.296   7.986
 6410SOL    HW120126   3.928   3.392   7.986
 6410SOL    HW220127   3.883   3.242   8.031
 6411SOL     OW20128   4.330   2.826   7.571
 6411SOL    HW120129   4.337   2.910   7.517
 6411SOL    HW220130   4.376   2.839   7.659
 6412SOL     OW20131   3.751   3.458   7.565
 6412SOL    HW120132   3.732   3.362   7.586
 6412SOL    HW220133   3.718   3.516   7.640
 6413SOL     OW20134   5.413   2.784   8.060
 6413SOL    HW120135   5.508   2.755   8.068
 6413SOL    HW220136   5.405   2.849   7.985
 6414SOL     OW20137   4.533   1.866   7.950
 6414SOL    HW120138   4.573   1.957   7.941
 6414SOL    HW220139   4.433   1.874   7.956
 6415SOL     OW20140   4.322   2.591   7.718
 6415SOL    HW120141   4.346   2.660   7.650
 6415SOL    HW220142   4.244   2.624   7.772
 6416SOL     OW20143   3.800   2.673   8.237
 6416SOL    HW120144   3.899   2.661   8.246
 6416SOL    HW220145   3.776   2.768   8.258
 6417SOL     OW20146   4.589   2.210   7.643
 6417SOL    HW120147   4.648   2.273   7.594
 6417SOL    HW220148   4.608   2.116   7.614
 6418SOL     OW20149   4.045   2.805   7.690
 6418SOL    HW120150   4.127   2.844   7.648
 6418SOL    HW220151   4.018   2.723   7.641
 6419SOL     OW20152   4.835   3.638   7.685
 6419SOL    HW120153   4.775   3.576   7.735
 6419SOL    HW220154   4.866   3.594   7.600
 6420SOL     OW20155   4.188   3.605   7.771
 6420SOL    HW120156   4.221   3.644   7.857
 6420SOL    HW220157   4.264   3.598   7.706
 6421SOL     OW20158   5.124   1.969   7.874
 6421SOL    HW120159   5.100   1.932   7.784
 6421SOL    HW220160   5.223   1.985   7.878
 6422SOL     OW20161   4.106   2.562   7.928
 6422SOL    HW120162   4.151   2.472   7.925
 6422SOL    HW220163   4.012   2.551   7.961
 6423SOL     OW20164   4.338   1.984   7.565
 6423SOL    HW120165   4.436   1.962   7.572
 6423SOL    HW220166   4.307   1.967   7.472
 6424SOL     OW20167   4.263   1.926   7.960
 6424SOL    HW120168   4.182   1.927   8.018
 6424SOL    HW220169   4.266   2.009   7.905
 6425SOL     OW20170   5.158   3.050   7.489
 6425SOL    HW120171   5.190   2.974   7.546
 6425SOL    HW220172   5.066   3.077   7.519
 6426SOL     OW20173   4.021   1.897   7.619
 6426SOL    HW120174   4.070   1.981   7.598
 6426SOL    HW220175   4.083   1.832   7.664
 6427SOL     OW20176   4.659   2.098   7.928
 6427SOL    HW120177   4.611   2.139   7.850
 6427SOL    HW220178   4.758   2.096   7.909
 6428SOL     OW20179   4.183   3.014   8.189
 6428SOL    HW120180   4.112   2.987   8.254
 6428SOL    HW220181   4.157   2.986   8.096
 6429SOL     OW20182   4.995   3.659   8.039
 6429SOL    HW120183   5.039   3.723   7.975
 6429SOL    HW220184   4.945   3.711   8.109
 6430SOL     OW20185   4.756   2.411   7.464
 6430SOL    HW120186   4.715   2.493   7.425
 6430SOL    HW220187   4.820   2.437   7.537
 6431SOL     OW20188   4.212   3.247   7.622
 6431SOL    HW120189   4.125   3.232   7.669
 6431SOL    HW220190   4.195   3.273   7.527
 6432SOL     OW20191   5.114   2.437   7.526
 6432SOL    HW120192   5.060   2.416   7.607
 6432SOL    HW220193   5.205   2.396   7.535
 6433SOL     OW20194   4.251   2.118   7.776
 6433SOL    HW120195   4.278   2.059   7.701
 6433SOL    HW220196   4.251   2.213   7.745
 6434SOL     OW20197   4.429   2.912   7.816
 6434SOL    HW120198   4.415   2.919   7.915
 6434SOL    HW220199   4.513   2.861   7.798
 6435SOL     OW20200   4.091   2.962   7.949
 6435SOL    HW120201   4.084   3.045   7.893
 6435SOL    HW220202   4.095   2.882   7.889
 6436SOL     OW20203   4.976   3.210   7.836
 6436SOL    HW120204   5.026   3.287   7.876
 6436SOL    HW220205   4.881   3.212   7.868
 6437SOL     OW20206   5.306   2.501   7.920
 6437SOL    HW120207   5.275   2.562   7.993
 6437SOL    HW220208   5.356   2.553   7.851
 6438SOL     OW20209   4.933   2.387   7.723
 6438SOL    HW120210   4.946   2.303   7.777
 6438SOL    HW220211   4.904   2.461   7.783
 6439SOL     OW20212   5.346   2.229   7.822
 6439SOL    HW120213   5.348   2.153   7.886
 6439SOL    HW220214   5.298   2.306   7.862
 6440SOL     OW20215   5.027   2.700   7.490
 6440SOL    HW120216   5.061   2.607   7.505
 6440SOL    HW220217   5.045   2.727   7.395
 6441SOL     OW20218   3.732   3.188   7.648
 6441SOL    HW120219   3.639   3.209   7.617
 6441SOL    HW220220   3.742   3.089   7.661
 6442SOL     OW20221   4.539   2.434   7.773
 6442SOL    HW120222   4.546   2.345   7.727
 6442SOL    HW220223   4.445   2.468   7.765
 6443SOL     OW20224   4.197   2.362   7.639
 6443SOL    HW120225   4.258   2.442   7.643
 6443SOL    HW220226   4.102   2.393   7.646
 6444SOL     OW20227   5.026   2.717   7.757
 6444SOL    HW120228   4.940   2.686   7.799
 6444SOL    HW220229   5.022   2.703   7.658
 6445SOL     OW20230   5.450   1.997   7.971
 6445SOL    HW120231   5.523   1.980   7.904
 6445SOL    HW220232   5.419   1.910   8.009
 6446SOL     OW20233   5.112   3.435   7.925
 6446SOL    HW120234   5.179   3.447   7.851
 6446SOL    HW220235   5.072   3.524   7.948
 6447SOL     OW20236   4.396   3.478   7.602
 6447SOL    HW120237   4.405   3.488   7.503
 6447SOL    HW220238   4.356   3.389   7.623
 6448SOL     OW20239   4.918   3.474   7.479
 6448SOL    HW120240   4.924   3.381   7.516
 6448SOL    HW220241   4.859   3.474   7.399
 6449SOL     OW20242   4.640   2.772   7.739
 6449SOL    HW120243   4.703   2.810   7.671
 6449SOL    HW220244   4.680   2.689   7.778
 6450SOL     OW20245   4.314   3.349   7.939
 6450SOL    HW120246   4.356   3.291   7.869
 6450SOL    HW220247   4.270   3.428   7.895
 6451SOL     OW20248   3.979   3.210   7.738
 6451SOL    HW120249   3.883   3.211   7.711
 6451SOL    HW220250   3.991   3.263   7.822
 6452SOL     OW20251   3.799   2.207   7.481
 6452SOL    HW120252   3.707   2.179   7.452
 6452SOL    HW220253   3.830   2.284   7.425
 6453SOL     OW20254   3.796   2.028   7.766
 6453SOL    HW120255   3.779   2.111   7.712
 6453SOL    HW220256   3.886   1.991   7.744
 6454SOL     OW20257   4.907   3.197   7.567
 6454SOL    HW120258   4.808   3.186   7.569
 6454SOL    HW220259   4.941   3.212   7.660
 6455SOL     OW20260   5.217   3.629   8.407
 6455SOL    HW120261   5.250   3.693   8.338
 6455SOL    HW220262   5.283   3.623   8.482
 6456SOL     OW20263   4.949   2.187   7.897
 6456SOL    HW120264   5.014   2.113   7.886
 6456SOL    HW220265   4.969   2.237   7.981
 6457SOL     OW20266   4.318   2.607   8.100
 6457SOL    HW120267   4.368   2.692   8.081
 6457SOL    HW220268   4.230   2.609   8.052
 6458SOL     OW20269   4.583   3.236   7.464
 6458SOL    HW120270   4.537   3.251   7.552
 6458SOL    HW220271   4.627   3.321   7.434
 6459SOL     OW20272   4.807   2.846   7.535
 6459SOL    HW120273   4.784   2.899   7.453
 6459SOL    HW220274   4.888   2.790   7.516
 6460SOL     OW20275   4.152   2.286   7.968
 6460SOL    HW120276   4.182   2.214   7.906
 6460SOL    HW220277   4.113   2.246   8.051
 6461SOL     OW20278   4.494   3.192   7.749
 6461SOL    HW120279   4.448   3.105   7.766
 6461SOL    HW220280   4.585   3.189   7.790
 6462SOL     OW20281   5.076   1.914   7.616
 6462SOL    HW120282   5.111   1.873   7.532
 6462SOL    HW220283   4.986   1.876   7.636
 6463SOL     OW20284   3.763   2.939   7.748
 6463SOL    HW120285   3.862   2.928   7.739
 6463SOL    HW220286   3.723   2.853   7.780
 6464SOL     OW20287   4.599   3.508   7.785
 6464SOL    HW120288   4.522   3.473   7.731
 6464SOL    HW220289   4.567   3.579   7.847
 6465SOL     OW20290   3.954   4.352   0.113
 6465SOL    HW120291   3.861   4.350   0.150
 6465SOL    HW220292   3.955   4.313   0.021
 6466SOL     OW20293   3.949   3.999   0.996
 6466SOL    HW120294   3.984   3.982   1.088
 6466SOL    HW220295   3.861   3.954   0.984
 6467SOL     OW20296   3.743   4.092   0.647
 6467SOL    HW120297   3.661   4.135   0.686
 6467SOL    HW220298   3.715   4.019   0.584
 6468SOL     OW20299   4.293   4.999   1.165
 6468SOL    HW120300   4.200   4.992   1.128
 6468SOL    HW220301   4.304   5.088   1.209
 6469SOL     OW20302   5.279   5.235   0.703
 6469SOL    HW120303   5.222   5.219   0.784
 6469SOL    HW220304   5.220   5.245   0.623
 6470SOL     OW20305   4.859   4.427   0.717
 6470SOL    HW120306   4.916   4.505   0.692
 6470SOL    HW220307   4.799   4.453   0.793
 6471SOL     OW20308   4.492   4.868   1.023
 6471SOL    HW120309   4.414   4.885   1.083
 6471SOL    HW220310   4.526   4.955   0.987
 6472SOL     OW20311   4.574   4.522   1.823
 6472SOL    HW120312   4.570   4.598   1.888
 6472SOL    HW220313   4.596   4.558   1.732
 6473SOL     OW20314   4.409   4.736   0.665
 6473SOL    HW120315   4.478   4.720   0.735
 6473SOL    HW220316   4.336   4.793   0.703
 6474SOL     OW20317   4.410   4.885   1.803
 6474SOL    HW120318   4.470   4.964   1.817
 6474SOL    HW220319   4.324   4.916   1.762
 6475SOL     OW20320   4.059   5.159   1.061
 6475SOL    HW120321   3.981   5.128   1.008
 6475SOL    HW220322   4.117   5.217   1.004
 6476SOL     OW20323   5.184   5.229   1.339
 6476SOL    HW120324   5.208   5.323   1.365
 6476SOL    HW220325   5.168   5.175   1.421
 6477SOL     OW20326   4.162   4.116   1.499
 6477SOL    HW120327   4.244   4.060   1.508
 6477SOL    HW220328   4.081   4.058   1.503
 6478SOL     OW20329   4.851   5.065   1.690
 6478SOL    HW120330   4.898   5.065   1.778
 6478SOL    HW220331   4.803   4.978   1.679
 6479SOL     OW20332   3.954   5.158   0.538
 6479SOL    HW120333   3.928   5.254   0.538
 6479SOL    HW220334   3.883   5.104   0.583
 6480SOL     OW20335   3.964   4.815   0.886
 6480SOL    HW120336   3.978   4.731   0.938
 6480SOL    HW220337   3.909   4.879   0.941
 6481SOL     OW20338   4.330   4.688   0.123
 6481SOL    HW120339   4.337   4.772   0.069
 6481SOL    HW220340   4.376   4.701   0.211
 6482SOL     OW20341   3.846   4.367   0.563
 6482SOL    HW120342   3.801   4.279   0.580
 6482SOL    HW220343   3.845   4.421   0.647
 6483SOL     OW20344   3.751   5.320   0.117
 6483SOL    HW120345   3.732   5.224   0.138
 6483SOL    HW220346   3.718   5.378   0.192
 6484SOL     OW20347   5.413   4.646   0.612
 6484SOL    HW120348   5.508   4.617   0.620
 6484SOL    HW220349   5.405   4.711   0.537
 6485SOL     OW20350   3.837   4.461   1.597
 6485SOL    HW120351   3.925   4.448   1.642
 6485SOL    HW220352   3.824   4.558   1.575
 6486SOL     OW20353   4.337   5.089   0.726
 6486SOL    HW120354   4.288   5.002   0.735
 6486SOL    HW220355   4.314   5.132   0.639
 6487SOL     OW20356   5.017   4.952   1.423
 6487SOL    HW120357   5.054   4.879   1.365
 6487SOL    HW220358   5.069   4.957   1.508
 6488SOL     OW20359   4.533   3.728   0.502
 6488SOL    HW120360   4.573   3.819   0.493
 6488SOL    HW220361   4.433   3.736   0.508
 6489SOL     OW20362   3.921   4.700   1.264
 6489SOL    HW120363   4.010   4.655   1.250
 6489SOL    HW220364   3.848   4.635   1.245
 6490SOL     OW20365   4.041   3.975   1.801
 6490SOL    HW120366   4.112   4.046   1.807
 6490SOL    HW220367   3.953   4.014   1.829
 6491SOL     OW20368   5.190   5.141   0.953
 6491SOL    HW120369   5.131   5.147   1.033
 6491SOL    HW220370   5.175   5.053   0.907
 6492SOL     OW20371   5.391   5.438   0.572
 6492SOL    HW120372   5.350   5.415   0.484
 6492SOL    HW220373   5.373   5.364   0.637
 6493SOL     OW20374   4.322   4.453   0.270
 6493SOL    HW120375   4.346   4.522   0.202
 6493SOL    HW220376   4.244   4.486   0.324
 6494SOL     OW20377   5.005   4.069   0.944
 6494SOL    HW120378   4.919   4.019   0.931
 6494SOL    HW220379   5.067   4.015   1.000
 6495SOL     OW20380   4.531   4.329   1.465
 6495SOL    HW120381   4.484   4.326   1.554
 6495SOL    HW220382   4.480   4.274   1.399
 6496SOL     OW20383   5.118   4.193   1.674
 6496SOL    HW120384   5.098   4.236   1.762
 6496SOL    HW220385   5.196   4.131   1.683
 6497SOL     OW20386   4.697   4.614   1.572
 6497SOL    HW120387   4.743   4.530   1.543
 6497SOL    HW220388   4.641   4.648   1.497
 6498SOL     OW20389   4.715   4.134   1.242
 6498SOL    HW120390   4.638   4.168   1.296
 6498SOL    HW220391   4.681   4.083   1.163
 6499SOL     OW20392   4.765   4.425   0.429
 6499SOL    HW120393   4.791   4.421   0.525
 6499SOL    HW220394   4.680   4.374   0.415
 6500SOL     OW20395   3.800   4.535   0.789
 6500SOL    HW120396   3.899   4.523   0.798
 6500SOL    HW220397   3.776   4.630   0.810
 6501SOL     OW20398   4.589   4.072   0.195
 6501SOL    HW120399   4.648   4.135   0.146
 6501SOL    HW220400   4.608   3.978   0.166
 6502SOL     OW20401   5.086   4.868   0.545
 6502SOL    HW120402   5.169   4.839   0.497
 6502SOL    HW220403   5.037   4.935   0.489
 6503SOL     OW20404   4.274   3.920   0.885
 6503SOL    HW120405   4.269   3.915   0.985
 6503SOL    HW220406   4.276   4.016   0.856
 6504SOL     OW20407   4.732   5.180   0.477
 6504SOL    HW120408   4.686   5.252   0.425
 6504SOL    HW220409   4.728   5.200   0.575
 6505SOL     OW20410   4.951   5.274   1.506
 6505SOL    HW120411   4.957   5.197   1.570
 6505SOL    HW220412   4.899   5.248   1.426
 6506SOL     OW20413   4.045   4.667   0.242
 6506SOL    HW120414   4.127   4.706   0.200
 6506SOL    HW220415   4.018   4.585   0.193
 6507SOL     OW20416   4.185   4.990   1.727
 6507SOL    HW120417   4.135   4.991   1.641
 6507SOL    HW220418   4.122   4.972   1.803
 6508SOL     OW20419   4.835   5.500   0.237
 6508SOL    HW120420   4.775   5.438   0.287
 6508SOL    HW220421   4.866   5.456   0.152
 6509SOL     OW20422   3.926   4.009   1.498
 6509SOL    HW120423   3.846   4.069   1.485
 6509SOL    HW220424   3.916   3.960   1.584
 6510SOL     OW20425   5.124   3.831   0.426
 6510SOL    HW120426   5.100   3.794   0.336
 6510SOL    HW220427   5.223   3.847   0.430
 6511SOL     OW20428   4.106   4.424   0.480
 6511SOL    HW120429   4.151   4.334   0.477
 6511SOL    HW220430   4.012   4.413   0.513
 6512SOL     OW20431   4.338   3.846   0.117
 6512SOL    HW120432   4.436   3.824   0.124
 6512SOL    HW220433   4.307   3.829   0.024
 6513SOL     OW20434   4.505   3.988   1.749
 6513SOL    HW120435   4.572   3.927   1.792
 6513SOL    HW220436   4.432   4.007   1.814
 6514SOL     OW20437   5.075   4.314   1.433
 6514SOL    HW120438   5.103   4.271   1.518
 6514SOL    HW220439   5.100   4.410   1.434
 6515SOL     OW20440   4.527   5.126   0.924
 6515SOL    HW120441   4.617   5.140   0.882
 6515SOL    HW220442   4.456   5.128   0.853
 6516SOL     OW20443   4.646   4.227   0.899
 6516SOL    HW120444   4.621   4.218   0.803
 6516SOL    HW220445   4.694   4.145   0.930
 6517SOL     OW20446   4.263   3.788   0.512
 6517SOL    HW120447   4.182   3.789   0.570
 6517SOL    HW220448   4.266   3.871   0.457
 6518SOL     OW20449   5.158   4.912   0.041
 6518SOL    HW120450   5.190   4.836   0.098
 6518SOL    HW220451   5.066   4.939   0.071
 6519SOL     OW20452   4.021   3.759   0.171
 6519SOL    HW120453   4.070   3.843   0.150
 6519SOL    HW220454   4.083   3.694   0.216
 6520SOL     OW20455   4.659   3.960   0.480
 6520SOL    HW120456   4.611   4.001   0.402
 6520SOL    HW220457   4.758   3.958   0.461
 6521SOL     OW20458   4.800   4.407   1.464
 6521SOL    HW120459   4.720   4.346   1.467
 6521SOL    HW220460   4.881   4.354   1.440
 6522SOL     OW20461   4.951   5.294   0.793
 6522SOL    HW120462   4.972   5.368   0.728
 6522SOL    HW220463   5.019   5.294   0.866
 6523SOL     OW20464   4.183   4.876   0.741
 6523SOL    HW120465   4.112   4.849   0.806
 6523SOL    HW220466   4.157   4.848   0.648
 6524SOL     OW20467   4.756   4.273   0.016
 6524SOL    HW120468   4.715   4.355  -0.023
 6524SOL    HW220469   4.820   4.299   0.089
 6525SOL     OW20470   3.802   4.280   1.386
 6525SOL    HW120471   3.894   4.279   1.345
 6525SOL    HW220472   3.796   4.354   1.453
 6526SOL     OW20473   4.285   3.946   1.147
 6526SOL    HW120474   4.323   3.862   1.184
 6526SOL    HW220475   4.197   3.965   1.191
 6527SOL     OW20476   4.590   4.178   0.642
 6527SOL    HW120477   4.558   4.250   0.580
 6527SOL    HW220478   4.614   4.097   0.589
 6528SOL     OW20479   4.741   3.763   0.753
 6528SOL    HW120480   4.669   3.768   0.684
 6528SOL    HW220481   4.717   3.694   0.822
 6529SOL     OW20482   5.153   4.897   0.867
 6529SOL    HW120483   5.098   4.813   0.860
 6529SOL    HW220484   5.179   4.926   0.775
 6530SOL     OW20485   4.212   5.109   0.174
 6530SOL    HW120486   4.125   5.094   0.221
 6530SOL    HW220487   4.195   5.135   0.079
 6531SOL     OW20488   5.114   4.299   0.078
 6531SOL    HW120489   5.060   4.278   0.159
 6531SOL    HW220490   5.205   4.258   0.087
 6532SOL     OW20491   4.251   3.980   0.328
 6532SOL    HW120492   4.278   3.921   0.253
 6532SOL    HW220493   4.251   4.075   0.297
 6533SOL     OW20494   4.788   5.071   1.340
 6533SOL    HW120495   4.708   5.048   1.395
 6533SOL    HW220496   4.871   5.045   1.389
 6534SOL     OW20497   4.835   4.919   1.100
 6534SOL    HW120498   4.795   4.963   1.181
 6534SOL    HW220499   4.794   4.956   1.017
 6535SOL     OW20500   4.639   3.813   1.402
 6535SOL    HW120501   4.664   3.793   1.307
 6535SOL    HW220502   4.711   3.869   1.444
 6536SOL     OW20503   4.704   4.840   1.719
 6536SOL    HW120504   4.605   4.846   1.729
 6536SOL    HW220505   4.727   4.760   1.663
 6537SOL     OW20506   4.429   4.774   0.368
 6537SOL    HW120507   4.415   4.781   0.467
 6537SOL    HW220508   4.513   4.723   0.350
 6538SOL     OW20509   4.134   4.537   1.251
 6538SOL    HW120510   4.220   4.549   1.301
 6538SOL    HW220511   4.092   4.450   1.278
 6539SOL     OW20512   4.998   4.110   1.262
 6539SOL    HW120513   5.019   4.184   1.326
 6539SOL    HW220514   4.909   4.127   1.219
 6540SOL     OW20515   4.091   4.824   0.501
 6540SOL    HW120516   4.084   4.907   0.445
 6540SOL    HW220517   4.095   4.744   0.441
 6541SOL     OW20518   4.290   4.261   0.865
 6541SOL    HW120519   4.302   4.327   0.791
 6541SOL    HW220520   4.336   4.295   0.948
 6542SOL     OW20521   4.976   5.072   0.388
 6542SOL    HW120522   5.026   5.149   0.428
 6542SOL    HW220523   4.881   5.074   0.420
 6543SOL     OW20524   4.996   5.169   1.142
 6543SOL    HW120525   5.043   5.182   1.229
 6543SOL    HW220526   4.930   5.095   1.151
 6544SOL     OW20527   4.078   5.234   1.329
 6544SOL    HW120528   4.057   5.190   1.242
 6544SOL    HW220529   4.175   5.260   1.332
 6545SOL     OW20530   4.126   4.475   1.598
 6545SOL    HW120531   4.194   4.530   1.551
 6545SOL    HW220532   4.166   4.387   1.625
 6546SOL     OW20533   4.737   3.829   1.770
 6546SOL    HW120534   4.743   3.914   1.718
 6546SOL    HW220535   4.769   3.753   1.713
 6547SOL     OW20536   4.228   3.774   1.740
 6547SOL    HW120537   4.186   3.717   1.670
 6547SOL    HW220538   4.162   3.843   1.772
 6548SOL     OW20539   4.297   4.594   1.029
 6548SOL    HW120540   4.341   4.683   1.020
 6548SOL    HW220541   4.234   4.594   1.106
 6549SOL     OW20542   5.084   4.586   1.045
 6549SOL    HW120543   5.009   4.586   0.979
 6549SOL    HW220544   5.121   4.494   1.054
 6550SOL     OW20545   4.933   4.249   0.275
 6550SOL    HW120546   4.946   4.165   0.329
 6550SOL    HW220547   4.904   4.323   0.335
 6551SOL     OW20548   4.031   3.937   1.231
 6551SOL    HW120549   4.008   3.974   1.321
 6551SOL    HW220550   4.001   3.842   1.225
 6552SOL     OW20551   3.761   5.034   1.282
 6552SOL    HW120552   3.814   4.985   1.350
 6552SOL    HW220553   3.783   5.132   1.287
 6553SOL     OW20554   4.456   4.358   1.064
 6553SOL    HW120555   4.515   4.332   0.988
 6553SOL    HW220556   4.428   4.454   1.053
 6554SOL     OW20557   4.031   3.787   0.618
 6554SOL    HW120558   4.020   3.881   0.651
 6554SOL    HW220559   4.026   3.724   0.695
 6555SOL     OW20560   5.346   4.091   0.374
 6555SOL    HW120561   5.348   4.015   0.438
 6555SOL    HW220562   5.298   4.168   0.414
 6556SOL     OW20563   4.747   4.490   0.966
 6556SOL    HW120564   4.762   4.511   1.062
 6556SOL    HW220565   4.717   4.395   0.957
 6557SOL     OW20566   4.074   4.622   1.804
 6557SOL    HW120567   4.150   4.666   1.852
 6557SOL    HW220568   4.109   4.575   1.722
 6558SOL     OW20569   5.027   4.562   0.042
 6558SOL    HW120570   5.061   4.469   0.057
 6558SOL    HW220571   5.045   4.589  -0.053
 6559SOL     OW20572   4.792   5.057   0.849
 6559SOL    HW120573   4.799   4.973   0.794
 6559SOL    HW220574   4.854   5.126   0.813
 6560SOL     OW20575   4.043   4.534   0.949
 6560SOL    HW120576   4.136   4.570   0.954
 6560SOL    HW220577   4.037   4.449   1.001
 6561SOL     OW20578   4.063   4.233   1.006
 6561SOL    HW120579   4.011   4.150   0.989
 6561SOL    HW220580   4.140   4.238   0.942
 6562SOL     OW20581   4.862   4.104   1.678
 6562SOL    HW120582   4.817   4.167   1.742
 6562SOL    HW220583   4.955   4.135   1.661
 6563SOL     OW20584   4.884   3.931   1.477
 6563SOL    HW120585   4.884   3.995   1.554
 6563SOL    HW220586   4.912   3.979   1.394
 6564SOL     OW20587   3.732   5.050   0.200
 6564SOL    HW120588   3.639   5.071   0.169
 6564SOL    HW220589   3.742   4.951   0.213
 6565SOL     OW20590   4.726   4.520   1.238
 6565SOL    HW120591   4.767   4.488   1.324
 6565SOL    HW220592   4.630   4.493   1.235
 6566SOL     OW20593   3.764   4.268   1.114
 6566SOL    HW120594   3.849   4.235   1.073
 6566SOL    HW220595   3.777   4.283   1.212
 6567SOL     OW20596   3.913   4.244   1.722
 6567SOL    HW120597   3.972   4.204   1.652
 6567SOL    HW220598   3.855   4.315   1.681
 6568SOL     OW20599   5.093   4.674   1.660
 6568SOL    HW120600   5.132   4.763   1.680
 6568SOL    HW220601   5.103   4.654   1.563
 6569SOL     OW20602   4.539   4.296   0.325
 6569SOL    HW120603   4.546   4.207   0.279
 6569SOL    HW220604   4.445   4.330   0.317
 6570SOL     OW20605   3.976   5.288   1.744
 6570SOL    HW120606   3.946   5.345   1.820
 6570SOL    HW220607   3.969   5.191   1.770
 6571SOL     OW20608   4.395   4.188   1.269
 6571SOL    HW120609   4.361   4.099   1.239
 6571SOL    HW220610   4.421   4.242   1.189
 6572SOL     OW20611   4.197   4.224   0.191
 6572SOL    HW120612   4.258   4.304   0.195
 6572SOL    HW220613   4.102   4.255   0.198
 6573SOL     OW20614   3.883   4.861   1.466
 6573SOL    HW120615   3.905   4.800   1.542
 6573SOL    HW220616   3.893   4.812   1.380
 6574SOL     OW20617   5.071   4.783   1.234
 6574SOL    HW120618   5.095   4.720   1.160
 6574SOL    HW220619   4.981   4.823   1.216
 6575SOL     OW20620   5.026   4.579   0.309
 6575SOL    HW120621   4.940   4.548   0.351
 6575SOL    HW220622   5.022   4.565   0.210
 6576SOL     OW20623   3.807   4.982   1.022
 6576SOL    HW120624   3.802   4.981   1.122
 6576SOL    HW220625   3.724   4.941   0.984
 6577SOL     OW20626   4.412   5.386   1.716
 6577SOL    HW120627   4.356   5.467   1.725
 6577SOL    HW220628   4.464   5.390   1.630
 6578SOL     OW20629   4.627   3.810   0.133
 6578SOL    HW120630   4.678   3.811   0.047
 6578SOL    HW220631   4.683   3.768   0.204
 6579SOL     OW20632   5.450   3.859   0.523
 6579SOL    HW120633   5.523   3.842   0.456
 6579SOL    HW220634   5.419   3.772   0.561
 6580SOL     OW20635   5.004   4.651   0.672
 6580SOL    HW120636   5.064   4.570   0.674
 6580SOL    HW220637   5.044   4.720   0.612
 6581SOL     OW20638   4.554   4.997   1.422
 6581SOL    HW120639   4.549   5.030   1.517
 6581SOL    HW220640   4.468   5.016   1.376
 6582SOL     OW20641   3.987   4.050   0.720
 6582SOL    HW120642   3.908   4.101   0.686
 6582SOL    HW220643   3.978   4.035   0.818
 6583SOL     OW20644   4.918   5.336   0.031
 6583SOL    HW120645   4.924   5.243   0.068
 6583SOL    HW220646   4.859   5.336  -0.049
 6584SOL     OW20647   4.546   4.726   1.372
 6584SOL    HW120648   4.586   4.725   1.280
 6584SOL    HW220649   4.556   4.818   1.412
 6585SOL     OW20650   4.640   4.634   0.291
 6585SOL    HW120651   4.703   4.672   0.223
 6585SOL    HW220652   4.680   4.551   0.330
 6586SOL     OW20653   4.096   5.012   1.490
 6586SOL    HW120654   4.083   5.105   1.456
 6586SOL    HW220655   4.012   4.960   1.477
 6587SOL     OW20656   4.763   4.822   0.696
 6587SOL    HW120657   4.693   4.775   0.750
 6587SOL    HW220658   4.822   4.754   0.653
 6588SOL     OW20659   4.738   3.960   0.971
 6588SOL    HW120660   4.730   3.924   0.878
 6588SOL    HW220661   4.736   3.884   1.036
 6589SOL     OW20662   3.979   5.072   0.290
 6589SOL    HW120663   3.883   5.073   0.263
 6589SOL    HW220664   3.991   5.125   0.374
 6590SOL     OW20665   3.829   4.737   1.726
 6590SOL    HW120666   3.752   4.704   1.780
 6590SOL    HW220667   3.914   4.707   1.768
 6591SOL     OW20668   4.396   3.927   1.489
 6591SOL    HW120669   4.486   3.911   1.449
 6591SOL    HW220670   4.404   3.932   1.588
 6592SOL     OW20671   3.799   4.069   0.033
 6592SOL    HW120672   3.707   4.041   0.004
 6592SOL    HW220673   3.830   4.146  -0.023
 6593SOL     OW20674   5.164   4.580   1.398
 6593SOL    HW120675   5.107   4.632   1.335
 6593SOL    HW220676   5.260   4.592   1.374
 6594SOL     OW20677   3.796   3.890   0.318
 6594SOL    HW120678   3.779   3.973   0.264
 6594SOL    HW220679   3.886   3.853   0.296
 6595SOL     OW20680   4.907   5.059   0.119
 6595SOL    HW120681   4.808   5.048   0.121
 6595SOL    HW220682   4.941   5.074   0.212
 6596SOL     OW20683   4.337   4.566   1.431
 6596SOL    HW120684   4.393   4.647   1.414
 6596SOL    HW220685   4.396   4.486   1.434
 6597SOL     OW20686   4.440   4.289   1.708
 6597SOL    HW120687   4.459   4.354   1.782
 6597SOL    HW220688   4.500   4.209   1.717
 6598SOL     OW20689   5.174   4.944   1.633
 6598SOL    HW120690   5.165   4.934   1.732
 6598SOL    HW220691   5.270   4.937   1.607
 6599SOL     OW20692   4.949   4.049   0.449
 6599SOL    HW120693   5.014   3.975   0.438
 6599SOL    HW220694   4.969   4.099   0.533
 6600SOL     OW20695   4.318   4.469   0.652
 6600SOL    HW120696   4.368   4.554   0.633
 6600SOL    HW220697   4.230   4.471   0.604
 6601SOL     OW20698   4.583   5.098   0.016
 6601SOL    HW120699   4.537   5.113   0.104
 6601SOL    HW220700   4.627   5.183  -0.014
 6602SOL     OW20701   4.583   4.680   0.861
 6602SOL    HW120702   4.637   4.611   0.909
 6602SOL    HW220703   4.551   4.749   0.927
 6603SOL     OW20704   4.807   4.708   0.087
 6603SOL    HW120705   4.784   4.761   0.005
 6603SOL    HW220706   4.888   4.652   0.068
 6604SOL     OW20707   3.945   5.038   1.844
 6604SOL    HW120708   3.880   4.965   1.823
 6604SOL    HW220709   3.949   5.052   1.942
 6605SOL     OW20710   3.803   4.964   0.653
 6605SOL    HW120711   3.802   4.917   0.741
 6605SOL    HW220712   3.885   4.936   0.602
 6606SOL     OW20713   4.396   5.115   1.624
 6606SOL    HW120714   4.318   5.065   1.662
 6606SOL    HW220715   4.393   5.210   1.655
 6607SOL     OW20716   4.152   4.148   0.520
 6607SOL    HW120717   4.182   4.076   0.458
 6607SOL    HW220718   4.113   4.108   0.603
 6608SOL     OW20719   5.429   5.211   1.104
 6608SOL    HW120720   5.336   5.186   1.077
 6608SOL    HW220721   5.455   5.161   1.186
 6609SOL     OW20722   4.041   4.271   1.280
 6609SOL    HW120723   4.079   4.212   1.352
 6609SOL    HW220724   4.081   4.245   1.192
 6610SOL     OW20725   5.148   3.938   1.112
 6610SOL    HW120726   5.200   3.873   1.167
 6610SOL    HW220727   5.099   4.001   1.173
 6611SOL     OW20728   4.725   3.758   1.154
 6611SOL    HW120729   4.662   3.686   1.123
 6611SOL    HW220730   4.818   3.722   1.154
 6612SOL     OW20731   4.494   5.054   0.301
 6612SOL    HW120732   4.448   4.967   0.318
 6612SOL    HW220733   4.585   5.051   0.342
 6613SOL     OW20734   4.342   5.291   1.284
 6613SOL    HW120735   4.337   5.373   1.341
 6613SOL    HW220736   4.431   5.288   1.239
 6614SOL     OW20737   5.076   3.776   0.168
 6614SOL    HW120738   5.111   3.735   0.084
 6614SOL    HW220739   4.986   3.738   0.188
 6615SOL     OW20740   5.024   4.177   0.691
 6615SOL    HW120741   4.965   4.257   0.695
 6615SOL    HW220742   5.039   4.142   0.784
 6616SOL     OW20743   5.317   3.945   0.882
 6616SOL    HW120744   5.233   3.944   0.936
 6616SOL    HW220745   5.319   4.028   0.826
 6617SOL     OW20746   3.763   4.801   0.300
 6617SOL    HW120747   3.862   4.790   0.291
 6617SOL    HW220748   3.723   4.715   0.332
 6618SOL     OW20749   3.954   4.352   1.975
 6618SOL    HW120750   3.861   4.350   2.012
 6618SOL    HW220751   3.955   4.313   1.883
 6619SOL     OW20752   3.949   3.999   2.858
 6619SOL    HW120753   3.984   3.982   2.950
 6619SOL    HW220754   3.861   3.954   2.846
 6620SOL     OW20755   3.743   4.092   2.509
 6620SOL    HW120756   3.661   4.135   2.548
 6620SOL    HW220757   3.715   4.019   2.446
 6621SOL     OW20758   4.293   4.999   3.027
 6621SOL    HW120759   4.200   4.992   2.990
 6621SOL    HW220760   4.304   5.088   3.071
 6622SOL     OW20761   5.279   5.235   2.565
 6622SOL    HW120762   5.222   5.219   2.646
 6622SOL    HW220763   5.220   5.245   2.485
 6623SOL     OW20764   4.859   4.427   2.579
 6623SOL    HW120765   4.916   4.505   2.554
 6623SOL    HW220766   4.799   4.453   2.655
 6624SOL     OW20767   4.492   4.868   2.885
 6624SOL    HW120768   4.414   4.885   2.945
 6624SOL    HW220769   4.526   4.955   2.849
 6625SOL     OW20770   4.574   4.522   3.685
 6625SOL    HW120771   4.570   4.598   3.750
 6625SOL    HW220772   4.596   4.558   3.594
 6626SOL     OW20773   4.409   4.736   2.527
 6626SOL    HW120774   4.478   4.720   2.597
 6626SOL    HW220775   4.336   4.793   2.565
 6627SOL     OW20776   4.410   4.885   3.665
 6627SOL    HW120777   4.470   4.964   3.679
 6627SOL    HW220778   4.324   4.916   3.624
 6628SOL     OW20779   4.059   5.159   2.923
 6628SOL    HW120780   3.981   5.128   2.870
 6628SOL    HW220781   4.117   5.217   2.866
 6629SOL     OW20782   5.184   5.229   3.201
 6629SOL    HW120783   5.208   5.323   3.227
 6629SOL    HW220784   5.168   5.175   3.283
 6630SOL     OW20785   4.162   4.116   3.361
 6630SOL    HW120786   4.244   4.060   3.370
 6630SOL    HW220787   4.081   4.058   3.365
 6631SOL     OW20788   4.851   5.065   3.552
 6631SOL    HW120789   4.898   5.065   3.640
 6631SOL    HW220790   4.803   4.978   3.541
 6632SOL     OW20791   3.954   5.158   2.400
 6632SOL    HW120792   3.928   5.254   2.400
 6632SOL    HW220793   3.883   5.104   2.445
 6633SOL     OW20794   3.964   4.815   2.748
 6633SOL    HW120795   3.978   4.731   2.800
 6633SOL    HW220796   3.909   4.879   2.803
 6634SOL     OW20797   4.330   4.688   1.985
 6634SOL    HW120798   4.337   4.772   1.931
 6634SOL    HW220799   4.376   4.701   2.073
 6635SOL     OW20800   3.846   4.367   2.425
 6635SOL    HW120801   3.801   4.279   2.442
 6635SOL    HW220802   3.845   4.421   2.509
 6636SOL     OW20803   3.751   5.320   1.979
 6636SOL    HW120804   3.732   5.224   2.000
 6636SOL    HW220805   3.718   5.378   2.054
 6637SOL     OW20806   5.413   4.646   2.474
 6637SOL    HW120807   5.508   4.617   2.482
 6637SOL    HW220808   5.405   4.711   2.399
 6638SOL     OW20809   3.837   4.461   3.459
 6638SOL    HW120810   3.925   4.448   3.504
 6638SOL    HW220811   3.824   4.558   3.437
 6639SOL     OW20812   4.337   5.089   2.588
 6639SOL    HW120813   4.288   5.002   2.597
 6639SOL    HW220814   4.314   5.132   2.501
 6640SOL     OW20815   5.017   4.952   3.285
 6640SOL    HW120816   5.054   4.879   3.227
 6640SOL    HW220817   5.069   4.957   3.370
 6641SOL     OW20818   4.533   3.728   2.364
 6641SOL    HW120819   4.573   3.819   2.355
 6641SOL    HW220820   4.433   3.736   2.370
 6642SOL     OW20821   3.921   4.700   3.126
 6642SOL    HW120822   4.010   4.655   3.112
 6642SOL    HW220823   3.848   4.635   3.107
 6643SOL     OW20824   4.041   3.975   3.663
 6643SOL    HW120825   4.112   4.046   3.669
 6643SOL    HW220826   3.953   4.014   3.691
 6644SOL     OW20827   5.190   5.141   2.815
 6644SOL    HW120828   5.131   5.147   2.895
 6644SOL    HW220829   5.175   5.053   2.769
 6645SOL     OW20830   5.391   5.438   2.434
 6645SOL    HW120831   5.350   5.415   2.346
 6645SOL    HW220832   5.373   5.364   2.499
 6646SOL     OW20833   4.322   4.453   2.132
 6646SOL    HW120834   4.346   4.522   2.064
 6646SOL    HW220835   4.244   4.486   2.186
 6647SOL     OW20836   5.005   4.069   2.806
 6647SOL    HW120837   4.919   4.019   2.793
 6647SOL    HW220838   5.067   4.015   2.862
 6648SOL     OW20839   4.531   4.329   3.327
 6648SOL    HW120840   4.484   4.326   3.416
 6648SOL    HW220841   4.480   4.274   3.261
 6649SOL     OW20842   5.118   4.193   3.536
 6649SOL    HW120843   5.098   4.236   3.624
 6649SOL    HW220844   5.196   4.131   3.545
 6650SOL     OW20845   4.697   4.614   3.434
 6650SOL    HW120846   4.743   4.530   3.405
 6650SOL    HW220847   4.641   4.648   3.359
 6651SOL     OW20848   4.715   4.134   3.104
 6651SOL    HW120849   4.638   4.168   3.158
 6651SOL    HW220850   4.681   4.083   3.025
 6652SOL     OW20851   4.765   4.425   2.291
 6652SOL    HW120852   4.791   4.421   2.387
 6652SOL    HW220853   4.680   4.374   2.277
 6653SOL     OW20854   3.800   4.535   2.651
 6653SOL    HW120855   3.899   4.523   2.660
 6653SOL    HW220856   3.776   4.630   2.672
 6654SOL     OW20857   4.589   4.072   2.057
 6654SOL    HW120858   4.648   4.135   2.008
 6654SOL    HW220859   4.608   3.978   2.028
 6655SOL     OW20860   5.086   4.868   2.407
 6655SOL    HW120861   5.169   4.839   2.359
 6655SOL    HW220862   5.037   4.935   2.351
 6656SOL     OW20863   4.274   3.920   2.747
 6656SOL    HW120864   4.269   3.915   2.847
 6656SOL    HW220865   4.276   4.016   2.718
 6657SOL     OW20866   4.732   5.180   2.339
 6657SOL    HW120867   4.686   5.252   2.287
 6657SOL    HW220868   4.728   5.200   2.437
 6658SOL     OW20869   4.951   5.274   3.368
 6658SOL    HW120870   4.957   5.197   3.432
 6658SOL    HW220871   4.899   5.248   3.288
 6659SOL     OW20872   4.045   4.667   2.104
 6659SOL    HW120873   4.127   4.706   2.062
 6659SOL    HW220874   4.018   4.585   2.055
 6660SOL     OW20875   4.185   4.990   3.589
 6660SOL    HW120876   4.135   4.991   3.503
 6660SOL    HW220877   4.122   4.972   3.665
 6661SOL     OW20878   4.835   5.500   2.099
 6661SOL    HW120879   4.775   5.438   2.149
 6661SOL    HW220880   4.866   5.456   2.014
 6662SOL     OW20881   3.926   4.009   3.360
 6662SOL    HW120882   3.846   4.069   3.347
 6662SOL    HW220883   3.916   3.960   3.446
 6663SOL     OW20884   5.124   3.831   2.288
 6663SOL    HW120885   5.100   3.794   2.198
 6663SOL    HW220886   5.223   3.847   2.292
 6664SOL     OW20887   4.106   4.424   2.342
 6664SOL    HW120888   4.151   4.334   2.339
 6664SOL    HW220889   4.012   4.413   2.375
 6665SOL     OW20890   4.338   3.846   1.979
 6665SOL    HW120891   4.436   3.824   1.986
 6665SOL    HW220892   4.307   3.829   1.886
 6666SOL     OW20893   4.505   3.988   3.611
 6666SOL    HW120894   4.572   3.927   3.654
 6666SOL    HW220895   4.432   4.007   3.676
 6667SOL     OW20896   5.075   4.314   3.295
 6667SOL    HW120897   5.103   4.271   3.380
 6667SOL    HW220898   5.100   4.410   3.296
 6668SOL     OW20899   4.527   5.126   2.786
 6668SOL    HW120900   4.617   5.140   2.744
 6668SOL    HW220901   4.456   5.128   2.715
 6669SOL     OW20902   4.646   4.227   2.761
 6669SOL    HW120903   4.621   4.218   2.665
 6669SOL    HW220904   4.694   4.145   2.792
 6670SOL     OW20905   4.263   3.788   2.374
 6670SOL    HW120906   4.182   3.789   2.432
 6670SOL    HW220907   4.266   3.871   2.319
 6671SOL     OW20908   5.158   4.912   1.903
 6671SOL    HW120909   5.190   4.836   1.960
 6671SOL    HW220910   5.066   4.939   1.933
 6672SOL     OW20911   4.021   3.759   2.033
 6672SOL    HW120912   4.070   3.843   2.012
 6672SOL    HW220913   4.083   3.694   2.078
 6673SOL     OW20914   4.659   3.960   2.342
 6673SOL    HW120915   4.611   4.001   2.264
 6673SOL    HW220916   4.758   3.958   2.323
 6674SOL     OW20917   4.800   4.407   3.326
 6674SOL    HW120918   4.720   4.346   3.329
 6674SOL    HW220919   4.881   4.354   3.302
 6675SOL     OW20920   4.951   5.294   2.655
 6675SOL    HW120921   4.972   5.368   2.590
 6675SOL    HW220922   5.019   5.294   2.728
 6676SOL     OW20923   4.183   4.876   2.603
 6676SOL    HW120924   4.112   4.849   2.668
 6676SOL    HW220925   4.157   4.848   2.510
 6677SOL     OW20926   4.756   4.273   1.878
 6677SOL    HW120927   4.715   4.355   1.839
 6677SOL    HW220928   4.820   4.299   1.951
 6678SOL     OW20929   3.802   4.280   3.248
 6678SOL    HW120930   3.894   4.279   3.207
 6678SOL    HW220931   3.796   4.354   3.315
 6679SOL     OW20932   4.285   3.946   3.009
 6679SOL    HW120933   4.323   3.862   3.046
 6679SOL    HW220934   4.197   3.965   3.053
 6680SOL     OW20935   4.590   4.178   2.504
 6680SOL    HW120936   4.558   4.250   2.442
 6680SOL    HW220937   4.614   4.097   2.451
 6681SOL     OW20938   4.741   3.763   2.615
 6681SOL    HW120939   4.669   3.768   2.546
 6681SOL    HW220940   4.717   3.694   2.684
 6682SOL     OW20941   5.153   4.897   2.729
 6682SOL    HW120942   5.098   4.813   2.722
 6682SOL    HW220943   5.179   4.926   2.637
 6683SOL     OW20944   4.212   5.109   2.036
 6683SOL    HW120945   4.125   5.094   2.083
 6683SOL    HW220946   4.195   5.135   1.941
 6684SOL     OW20947   5.114   4.299   1.940
 6684SOL    HW120948   5.060   4.278   2.021
 6684SOL    HW220949   5.205   4.258   1.949
 6685SOL     OW20950   4.251   3.980   2.190
 6685SOL    HW120951   4.278   3.921   2.115
 6685SOL    HW220952   4.251   4.075   2.159
 6686SOL     OW20953   4.788   5.071   3.202
 6686SOL    HW120954   4.708   5.048   3.257
 6686SOL    HW220955   4.871   5.045   3.251
 6687SOL     OW20956   4.835   4.919   2.962
 6687SOL    HW120957   4.795   4.963   3.043
 6687SOL    HW220958   4.794   4.956   2.879
 6688SOL     OW20959   4.639   3.813   3.264
 6688SOL    HW120960   4.664   3.793   3.169
 6688SOL    HW220961   4.711   3.869   3.306
 6689SOL     OW20962   4.704   4.840   3.581
 6689SOL    HW120963   4.605   4.846   3.591
 6689SOL    HW220964   4.727   4.760   3.525
 6690SOL     OW20965   4.429   4.774   2.230
 6690SOL    HW120966   4.415   4.781   2.329
 6690SOL    HW220967   4.513   4.723   2.212
 6691SOL     OW20968   4.134   4.537   3.113
 6691SOL    HW120969   4.220   4.549   3.163
 6691SOL    HW220970   4.092   4.450   3.140
 6692SOL     OW20971   4.998   4.110   3.124
 6692SOL    HW120972   5.019   4.184   3.188
 6692SOL    HW220973   4.909   4.127   3.081
 6693SOL     OW20974   4.091   4.824   2.363
 6693SOL    HW120975   4.084   4.907   2.307
 6693SOL    HW220976   4.095   4.744   2.303
 6694SOL     OW20977   4.290   4.261   2.727
 6694SOL    HW120978   4.302   4.327   2.653
 6694SOL    HW220979   4.336   4.295   2.810
 6695SOL     OW20980   4.976   5.072   2.250
 6695SOL    HW120981   5.026   5.149   2.290
 6695SOL    HW220982   4.881   5.074   2.282
 6696SOL     OW20983   4.996   5.169   3.004
 6696SOL    HW120984   5.043   5.182   3.091
 6696SOL    HW220985   4.930   5.095   3.013
 6697SOL     OW20986   4.078   5.234   3.191
 6697SOL    HW120987   4.057   5.190   3.104
 6697SOL    HW220988   4.175   5.260   3.194
 6698SOL     OW20989   4.126   4.475   3.460
 6698SOL    HW120990   4.194   4.530   3.413
 6698SOL    HW220991   4.166   4.387   3.487
 6699SOL     OW20992   4.737   3.829   3.632
 6699SOL    HW120993   4.743   3.914   3.580
 6699SOL    HW220994   4.769   3.753   3.575
 6700SOL     OW20995   4.228   3.774   3.602
 6700SOL    HW120996   4.186   3.717   3.532
 6700SOL    HW220997   4.162   3.843   3.634
 6701SOL     OW20998   4.297   4.594   2.891
 6701SOL    HW120999   4.341   4.683   2.882
 6701SOL    HW221000   4.234   4.594   2.968
 6702SOL     OW21001   5.084   4.586   2.907
 6702SOL    HW121002   5.009   4.586   2.841
 6702SOL    HW221003   5.121   4.494   2.916
 6703SOL     OW21004   4.933   4.249   2.137
 6703SOL    HW121005   4.946   4.165   2.191
 6703SOL    HW221006   4.904   4.323   2.197
 6704SOL     OW21007   4.031   3.937   3.093
 6704SOL    HW121008   4.008   3.974   3.183
 6704SOL    HW221009   4.001   3.842   3.087
 6705SOL     OW21010   3.761   5.034   3.144
 6705SOL    HW121011   3.814   4.985   3.212
 6705SOL    HW221012   3.783   5.132   3.149
 6706SOL     OW21013   4.456   4.358   2.926
 6706SOL    HW121014   4.515   4.332   2.850
 6706SOL    HW221015   4.428   4.454   2.915
 6707SOL     OW21016   4.031   3.787   2.480
 6707SOL    HW121017   4.020   3.881   2.513
 6707SOL    HW221018   4.026   3.724   2.557
 6708SOL     OW21019   5.346   4.091   2.236
 6708SOL    HW121020   5.348   4.015   2.300
 6708SOL    HW221021   5.298   4.168   2.276
 6709SOL     OW21022   4.747   4.490   2.828
 6709SOL    HW121023   4.762   4.511   2.924
 6709SOL    HW221024   4.717   4.395   2.819
 6710SOL     OW21025   4.074   4.622   3.666
 6710SOL    HW121026   4.150   4.666   3.714
 6710SOL    HW221027   4.109   4.575   3.584
 6711SOL     OW21028   5.027   4.562   1.904
 6711SOL    HW121029   5.061   4.469   1.919
 6711SOL    HW221030   5.045   4.589   1.809
 6712SOL     OW21031   4.792   5.057   2.711
 6712SOL    HW121032   4.799   4.973   2.656
 6712SOL    HW221033   4.854   5.126   2.675
 6713SOL     OW21034   4.043   4.534   2.811
 6713SOL    HW121035   4.136   4.570   2.816
 6713SOL    HW221036   4.037   4.449   2.863
 6714SOL     OW21037   4.063   4.233   2.868
 6714SOL    HW121038   4.011   4.150   2.851
 6714SOL    HW221039   4.140   4.238   2.804
 6715SOL     OW21040   4.862   4.104   3.540
 6715SOL    HW121041   4.817   4.167   3.604
 6715SOL    HW221042   4.955   4.135   3.523
 6716SOL     OW21043   4.884   3.931   3.339
 6716SOL    HW121044   4.884   3.995   3.416
 6716SOL    HW221045   4.912   3.979   3.256
 6717SOL     OW21046   3.732   5.050   2.062
 6717SOL    HW121047   3.639   5.071   2.031
 6717SOL    HW221048   3.742   4.951   2.075
 6718SOL     OW21049   4.726   4.520   3.100
 6718SOL    HW121050   4.767   4.488   3.186
 6718SOL    HW221051   4.630   4.493   3.097
 6719SOL     OW21052   3.764   4.268   2.976
 6719SOL    HW121053   3.849   4.235   2.935
 6719SOL    HW221054   3.777   4.283   3.074
 6720SOL     OW21055   3.913   4.244   3.584
 6720SOL    HW121056   3.972   4.204   3.514
 6720SOL    HW221057   3.855   4.315   3.543
 6721SOL     OW21058   5.093   4.674   3.522
 6721SOL    HW121059   5.132   4.763   3.542
 6721SOL    HW221060   5.103   4.654   3.425
 6722SOL     OW21061   4.539   4.296   2.187
 6722SOL    HW121062   4.546   4.207   2.141
 6722SOL    HW221063   4.445   4.330   2.179
 6723SOL     OW21064   3.976   5.288   3.606
 6723SOL    HW121065   3.946   5.345   3.682
 6723SOL    HW221066   3.969   5.191   3.632
 6724SOL     OW21067   4.395   4.188   3.131
 6724SOL    HW121068   4.361   4.099   3.101
 6724SOL    HW221069   4.421   4.242   3.051
 6725SOL     OW21070   4.197   4.224   2.053
 6725SOL    HW121071   4.258   4.304   2.057
 6725SOL    HW221072   4.102   4.255   2.060
 6726SOL     OW21073   3.883   4.861   3.328
 6726SOL    HW121074   3.905   4.800   3.404
 6726SOL    HW221075   3.893   4.812   3.242
 6727SOL     OW21076   5.071   4.783   3.096
 6727SOL    HW121077   5.095   4.720   3.022
 6727SOL    HW221078   4.981   4.823   3.078
 6728SOL     OW21079   5.026   4.579   2.171
 6728SOL    HW121080   4.940   4.548   2.213
 6728SOL    HW221081   5.022   4.565   2.072
 6729SOL     OW21082   3.807   4.982   2.884
 6729SOL    HW121083   3.802   4.981   2.984
 6729SOL    HW221084   3.724   4.941   2.846
 6730SOL     OW21085   4.412   5.386   3.578
 6730SOL    HW121086   4.356   5.467   3.587
 6730SOL    HW221087   4.464   5.390   3.492
 6731SOL     OW21088   5.450   3.859   2.385
 6731SOL    HW121089   5.523   3.842   2.318
 6731SOL    HW221090   5.419   3.772   2.423
 6732SOL     OW21091   5.004   4.651   2.534
 6732SOL    HW121092   5.064   4.570   2.536
 6732SOL    HW221093   5.044   4.720   2.474
 6733SOL     OW21094   4.554   4.997   3.284
 6733SOL    HW121095   4.549   5.030   3.379
 6733SOL    HW221096   4.468   5.016   3.238
 6734SOL     OW21097   3.987   4.050   2.582
 6734SOL    HW121098   3.908   4.101   2.548
 6734SOL    HW221099   3.978   4.035   2.680
 6735SOL     OW21100   4.546   4.726   3.234
 6735SOL    HW121101   4.586   4.725   3.142
 6735SOL    HW221102   4.556   4.818   3.274
 6736SOL     OW21103   4.640   4.634   2.153
 6736SOL    HW121104   4.703   4.672   2.085
 6736SOL    HW221105   4.680   4.551   2.192
 6737SOL     OW21106   4.096   5.012   3.352
 6737SOL    HW121107   4.083   5.105   3.318
 6737SOL    HW221108   4.012   4.960   3.339
 6738SOL     OW21109   4.763   4.822   2.558
 6738SOL    HW121110   4.693   4.775   2.612
 6738SOL    HW221111   4.822   4.754   2.515
 6739SOL     OW21112   4.738   3.960   2.833
 6739SOL    HW121113   4.730   3.924   2.740
 6739SOL    HW221114   4.736   3.884   2.898
 6740SOL     OW21115   3.979   5.072   2.152
 6740SOL    HW121116   3.883   5.073   2.125
 6740SOL    HW221117   3.991   5.125   2.236
 6741SOL     OW21118   3.829   4.737   3.588
 6741SOL    HW121119   3.752   4.704   3.642
 6741SOL    HW221120   3.914   4.707   3.630
 6742SOL     OW21121   4.396   3.927   3.351
 6742SOL    HW121122   4.486   3.911   3.311
 6742SOL    HW221123   4.404   3.932   3.450
 6743SOL     OW21124   3.799   4.069   1.895
 6743SOL    HW121125   3.707   4.041   1.866
 6743SOL    HW221126   3.830   4.146   1.839
 6744SOL     OW21127   5.164   4.580   3.260
 6744SOL    HW121128   5.107   4.632   3.197
 6744SOL    HW221129   5.260   4.592   3.236
 6745SOL     OW21130   3.796   3.890   2.180
 6745SOL    HW121131   3.779   3.973   2.126
 6745SOL    HW221132   3.886   3.853   2.158
 6746SOL     OW21133   4.907   5.059   1.981
 6746SOL    HW121134   4.808   5.048   1.983
 6746SOL    HW221135   4.941   5.074   2.074
 6747SOL     OW21136   4.337   4.566   3.293
 6747SOL    HW121137   4.393   4.647   3.276
 6747SOL    HW221138   4.396   4.486   3.296
 6748SOL     OW21139   4.440   4.289   3.570
 6748SOL    HW121140   4.459   4.354   3.644
 6748SOL    HW221141   4.500   4.209   3.579
 6749SOL     OW21142   5.174   4.944   3.495
 6749SOL    HW121143   5.165   4.934   3.594
 6749SOL    HW221144   5.270   4.937   3.469
 6750SOL     OW21145   4.949   4.049   2.311
 6750SOL    HW121146   5.014   3.975   2.300
 6750SOL    HW221147   4.969   4.099   2.395
 6751SOL     OW21148   4.318   4.469   2.514
 6751SOL    HW121149   4.368   4.554   2.495
 6751SOL    HW221150   4.230   4.471   2.466
 6752SOL     OW21151   4.583   5.098   1.878
 6752SOL    HW121152   4.537   5.113   1.966
 6752SOL    HW221153   4.627   5.183   1.848
 6753SOL     OW21154   4.583   4.680   2.723
 6753SOL    HW121155   4.637   4.611   2.771
 6753SOL    HW221156   4.551   4.749   2.789
 6754SOL     OW21157   4.807   4.708   1.949
 6754SOL    HW121158   4.784   4.761   1.867
 6754SOL    HW221159   4.888   4.652   1.930
 6755SOL     OW21160   3.945   5.038   3.706
 6755SOL    HW121161   3.880   4.965   3.685
 6755SOL    HW221162   3.949   5.052   3.804
 6756SOL     OW21163   3.803   4.964   2.515
 6756SOL    HW121164   3.802   4.917   2.603
 6756SOL    HW221165   3.885   4.936   2.464
 6757SOL     OW21166   4.396   5.115   3.486
 6757SOL    HW121167   4.318   5.065   3.524
 6757SOL    HW221168   4.393   5.210   3.517
 6758SOL     OW21169   4.152   4.148   2.382
 6758SOL    HW121170   4.182   4.076   2.320
 6758SOL    HW221171   4.113   4.108   2.465
 6759SOL     OW21172   5.429   5.211   2.966
 6759SOL    HW121173   5.336   5.186   2.939
 6759SOL    HW221174   5.455   5.161   3.048
 6760SOL     OW21175   4.041   4.271   3.142
 6760SOL    HW121176   4.079   4.212   3.214
 6760SOL    HW221177   4.081   4.245   3.054
 6761SOL     OW21178   5.148   3.938   2.974
 6761SOL    HW121179   5.200   3.873   3.029
 6761SOL    HW221180   5.099   4.001   3.035
 6762SOL     OW21181   4.725   3.758   3.016
 6762SOL    HW121182   4.662   3.686   2.985
 6762SOL    HW221183   4.818   3.722   3.016
 6763SOL     OW21184   4.494   5.054   2.163
 6763SOL    HW121185   4.448   4.967   2.180
 6763SOL    HW221186   4.585   5.051   2.204
 6764SOL     OW21187   4.342   5.291   3.146
 6764SOL    HW121188   4.337   5.373   3.203
 6764SOL    HW221189   4.431   5.288   3.101
 6765SOL     OW21190   5.076   3.776   2.030
 6765SOL    HW121191   5.111   3.735   1.946
 6765SOL    HW221192   4.986   3.738   2.050
 6766SOL     OW21193   5.024   4.177   2.553
 6766SOL    HW121194   4.965   4.257   2.557
 6766SOL    HW221195   5.039   4.142   2.646
 6767SOL     OW21196   5.317   3.945   2.744
 6767SOL    HW121197   5.233   3.944   2.798
 6767SOL    HW221198   5.319   4.028   2.688
 6768SOL     OW21199   3.763   4.801   2.162
 6768SOL    HW121200   3.862   4.790   2.153
 6768SOL    HW221201   3.723   4.715   2.194
 6769SOL     OW21202   3.954   4.352   3.837
 6769SOL    HW121203   3.861   4.350   3.874
 6769SOL    HW221204   3.955   4.313   3.745
 6770SOL     OW21205   3.949   3.999   4.720
 6770SOL    HW121206   3.984   3.982   4.812
 6770SOL    HW221207   3.861   3.954   4.708
 6771SOL     OW21208   3.743   4.092   4.371
 6771SOL    HW121209   3.661   4.135   4.410
 6771SOL    HW221210   3.715   4.019   4.308
 6772SOL     OW21211   4.293   4.999   4.889
 6772SOL    HW121212   4.200   4.992   4.852
 6772SOL    HW221213   4.304   5.088   4.933
 6773SOL     OW21214   5.279   5.235   4.427
 6773SOL    HW121215   5.222   5.219   4.508
 6773SOL    HW221216   5.220   5.245   4.347
 6774SOL     OW21217   4.859   4.427   4.441
 6774SOL    HW121218   4.916   4.505   4.416
 6774SOL    HW221219   4.799   4.453   4.517
 6775SOL     OW21220   4.492   4.868   4.747
 6775SOL    HW121221   4.414   4.885   4.807
 6775SOL    HW221222   4.526   4.955   4.711
 6776SOL     OW21223   4.574   4.522   5.547
 6776SOL    HW121224   4.570   4.598   5.612
 6776SOL    HW221225   4.596   4.558   5.456
 6777SOL     OW21226   4.409   4.736   4.389
 6777SOL    HW121227   4.478   4.720   4.459
 6777SOL    HW221228   4.336   4.793   4.427
 6778SOL     OW21229   4.410   4.885   5.527
 6778SOL    HW121230   4.470   4.964   5.541
 6778SOL    HW221231   4.324   4.916   5.486
 6779SOL     OW21232   4.059   5.159   4.785
 6779SOL    HW121233   3.981   5.128   4.732
 6779SOL    HW221234   4.117   5.217   4.728
 6780SOL     OW21235   5.184   5.229   5.063
 6780SOL    HW121236   5.208   5.323   5.089
 6780SOL    HW221237   5.168   5.175   5.145
 6781SOL     OW21238   4.162   4.116   5.223
 6781SOL    HW121239   4.244   4.060   5.232
 6781SOL    HW221240   4.081   4.058   5.227
 6782SOL     OW21241   4.851   5.065   5.414
 6782SOL    HW121242   4.898   5.065   5.502
 6782SOL    HW221243   4.803   4.978   5.403
 6783SOL     OW21244   3.954   5.158   4.262
 6783SOL    HW121245   3.928   5.254   4.262
 6783SOL    HW221246   3.883   5.104   4.307
 6784SOL     OW21247   3.964   4.815   4.610
 6784SOL    HW121248   3.978   4.731   4.662
 6784SOL    HW221249   3.909   4.879   4.665
 6785SOL     OW21250   4.330   4.688   3.847
 6785SOL    HW121251   4.337   4.772   3.793
 6785SOL    HW221252   4.376   4.701   3.935
 6786SOL     OW21253   3.846   4.367   4.287
 6786SOL    HW121254   3.801   4.279   4.304
 6786SOL    HW221255   3.845   4.421   4.371
 6787SOL     OW21256   3.751   5.320   3.841
 6787SOL    HW121257   3.732   5.224   3.862
 6787SOL    HW221258   3.718   5.378   3.916
 6788SOL     OW21259   5.413   4.646   4.336
 6788SOL    HW121260   5.508   4.617   4.344
 6788SOL    HW221261   5.405   4.711   4.261
 6789SOL     OW21262   3.837   4.461   5.321
 6789SOL    HW121263   3.925   4.448   5.366
 6789SOL    HW221264   3.824   4.558   5.299
 6790SOL     OW21265   4.337   5.089   4.450
 6790SOL    HW121266   4.288   5.002   4.459
 6790SOL    HW221267   4.314   5.132   4.363
 6791SOL     OW21268   5.017   4.952   5.147
 6791SOL    HW121269   5.054   4.879   5.089
 6791SOL    HW221270   5.069   4.957   5.232
 6792SOL     OW21271   4.533   3.728   4.226
 6792SOL    HW121272   4.573   3.819   4.217
 6792SOL    HW221273   4.433   3.736   4.232
 6793SOL     OW21274   3.921   4.700   4.988
 6793SOL    HW121275   4.010   4.655   4.974
 6793SOL    HW221276   3.848   4.635   4.969
 6794SOL     OW21277   4.041   3.975   5.525
 6794SOL    HW121278   4.112   4.046   5.531
 6794SOL    HW221279   3.953   4.014   5.553
 6795SOL     OW21280   5.190   5.141   4.677
 6795SOL    HW121281   5.131   5.147   4.757
 6795SOL    HW221282   5.175   5.053   4.631
 6796SOL     OW21283   5.391   5.438   4.296
 6796SOL    HW121284   5.350   5.415   4.208
 6796SOL    HW221285   5.373   5.364   4.361
 6797SOL     OW21286   4.322   4.453   3.994
 6797SOL    HW121287   4.346   4.522   3.926
 6797SOL    HW221288   4.244   4.486   4.048
 6798SOL     OW21289   5.005   4.069   4.668
 6798SOL    HW121290   4.919   4.019   4.655
 6798SOL    HW221291   5.067   4.015   4.724
 6799SOL     OW21292   4.531   4.329   5.189
 6799SOL    HW121293   4.484   4.326   5.278
 6799SOL    HW221294   4.480   4.274   5.123
 6800SOL     OW21295   5.118   4.193   5.398
 6800SOL    HW121296   5.098   4.236   5.486
 6800SOL    HW221297   5.196   4.131   5.407
 6801SOL     OW21298   4.697   4.614   5.296
 6801SOL    HW121299   4.743   4.530   5.267
 6801SOL    HW221300   4.641   4.648   5.221
 6802SOL     OW21301   4.715   4.134   4.966
 6802SOL    HW121302   4.638   4.168   5.020
 6802SOL    HW221303   4.681   4.083   4.887
 6803SOL     OW21304   4.765   4.425   4.153
 6803SOL    HW121305   4.791   4.421   4.249
 6803SOL    HW221306   4.680   4.374   4.139
 6804SOL     OW21307   3.800   4.535   4.513
 6804SOL    HW121308   3.899   4.523   4.522
 6804SOL    HW221309   3.776   4.630   4.534
 6805SOL     OW21310   4.589   4.072   3.919
 6805SOL    HW121311   4.648   4.135   3.870
 6805SOL    HW221312   4.608   3.978   3.890
 6806SOL     OW21313   5.086   4.868   4.269
 6806SOL    HW121314   5.169   4.839   4.221
 6806SOL    HW221315   5.037   4.935   4.213
 6807SOL     OW21316   4.274   3.920   4.609
 6807SOL    HW121317   4.269   3.915   4.709
 6807SOL    HW221318   4.276   4.016   4.580
 6808SOL     OW21319   4.732   5.180   4.201
 6808SOL    HW121320   4.686   5.252   4.149
 6808SOL    HW221321   4.728   5.200   4.299
 6809SOL     OW21322   4.951   5.274   5.230
 6809SOL    HW121323   4.957   5.197   5.294
 6809SOL    HW221324   4.899   5.248   5.150
 6810SOL     OW21325   4.045   4.667   3.966
 6810SOL    HW121326   4.127   4.706   3.924
 6810SOL    HW221327   4.018   4.585   3.917
 6811SOL     OW21328   4.185   4.990   5.451
 6811SOL    HW121329   4.135   4.991   5.365
 6811SOL    HW221330   4.122   4.972   5.527
 6812SOL     OW21331   4.835   5.500   3.961
 6812SOL    HW121332   4.775   5.438   4.011
 6812SOL    HW221333   4.866   5.456   3.876
 6813SOL     OW21334   3.926   4.009   5.222
 6813SOL    HW121335   3.846   4.069   5.209
 6813SOL    HW221336   3.916   3.960   5.308
 6814SOL     OW21337   5.124   3.831   4.150
 6814SOL    HW121338   5.100   3.794   4.060
 6814SOL    HW221339   5.223   3.847   4.154
 6815SOL     OW21340   4.106   4.424   4.204
 6815SOL    HW121341   4.151   4.334   4.201
 6815SOL    HW221342   4.012   4.413   4.237
 6816SOL     OW21343   4.338   3.846   3.841
 6816SOL    HW121344   4.436   3.824   3.848
 6816SOL    HW221345   4.307   3.829   3.748
 6817SOL     OW21346   4.505   3.988   5.473
 6817SOL    HW121347   4.572   3.927   5.516
 6817SOL    HW221348   4.432   4.007   5.538
 6818SOL     OW21349   5.075   4.314   5.157
 6818SOL    HW121350   5.103   4.271   5.242
 6818SOL    HW221351   5.100   4.410   5.158
 6819SOL     OW21352   4.527   5.126   4.648
 6819SOL    HW121353   4.617   5.140   4.606
 6819SOL    HW221354   4.456   5.128   4.577
 6820SOL     OW21355   4.646   4.227   4.623
 6820SOL    HW121356   4.621   4.218   4.527
 6820SOL    HW221357   4.694   4.145   4.654
 6821SOL     OW21358   4.263   3.788   4.236
 6821SOL    HW121359   4.182   3.789   4.294
 6821SOL    HW221360   4.266   3.871   4.181
 6822SOL     OW21361   5.158   4.912   3.765
 6822SOL    HW121362   5.190   4.836   3.822
 6822SOL    HW221363   5.066   4.939   3.795
 6823SOL     OW21364   4.021   3.759   3.895
 6823SOL    HW121365   4.070   3.843   3.874
 6823SOL    HW221366   4.083   3.694   3.940
 6824SOL     OW21367   4.659   3.960   4.204
 6824SOL    HW121368   4.611   4.001   4.126
 6824SOL    HW221369   4.758   3.958   4.185
 6825SOL     OW21370   4.800   4.407   5.188
 6825SOL    HW121371   4.720   4.346   5.191
 6825SOL    HW221372   4.881   4.354   5.164
 6826SOL     OW21373   4.951   5.294   4.517
 6826SOL    HW121374   4.972   5.368   4.452
 6826SOL    HW221375   5.019   5.294   4.590
 6827SOL     OW21376   4.183   4.876   4.465
 6827SOL    HW121377   4.112   4.849   4.530
 6827SOL    HW221378   4.157   4.848   4.372
 6828SOL     OW21379   4.756   4.273   3.740
 6828SOL    HW121380   4.715   4.355   3.701
 6828SOL    HW221381   4.820   4.299   3.813
 6829SOL     OW21382   3.802   4.280   5.110
 6829SOL    HW121383   3.894   4.279   5.069
 6829SOL    HW221384   3.796   4.354   5.177
 6830SOL     OW21385   4.285   3.946   4.871
 6830SOL    HW121386   4.323   3.862   4.908
 6830SOL    HW221387   4.197   3.965   4.915
 6831SOL     OW21388   4.590   4.178   4.366
 6831SOL    HW121389   4.558   4.250   4.304
 6831SOL    HW221390   4.614   4.097   4.313
 6832SOL     OW21391   4.741   3.763   4.477
 6832SOL    HW121392   4.669   3.768   4.408
 6832SOL    HW221393   4.717   3.694   4.546
 6833SOL     OW21394   5.153   4.897   4.591
 6833SOL    HW121395   5.098   4.813   4.584
 6833SOL    HW221396   5.179   4.926   4.499
 6834SOL     OW21397   4.212   5.109   3.898
 6834SOL    HW121398   4.125   5.094   3.945
 6834SOL    HW221399   4.195   5.135   3.803
 6835SOL     OW21400   5.114   4.299   3.802
 6835SOL    HW121401   5.060   4.278   3.883
 6835SOL    HW221402   5.205   4.258   3.811
 6836SOL     OW21403   4.251   3.980   4.052
 6836SOL    HW121404   4.278   3.921   3.977
 6836SOL    HW221405   4.251   4.075   4.021
 6837SOL     OW21406   4.788   5.071   5.064
 6837SOL    HW121407   4.708   5.048   5.119
 6837SOL    HW221408   4.871   5.045   5.113
 6838SOL     OW21409   4.835   4.919   4.824
 6838SOL    HW121410   4.795   4.963   4.905
 6838SOL    HW221411   4.794   4.956   4.741
 6839SOL     OW21412   4.639   3.813   5.126
 6839SOL    HW121413   4.664   3.793   5.031
 6839SOL    HW221414   4.711   3.869   5.168
 6840SOL     OW21415   4.704   4.840   5.443
 6840SOL    HW121416   4.605   4.846   5.453
 6840SOL    HW221417   4.727   4.760   5.387
 6841SOL     OW21418   4.429   4.774   4.092
 6841SOL    HW121419   4.415   4.781   4.191
 6841SOL    HW221420   4.513   4.723   4.074
 6842SOL     OW21421   4.134   4.537   4.975
 6842SOL    HW121422   4.220   4.549   5.025
 6842SOL    HW221423   4.092   4.450   5.002
 6843SOL     OW21424   4.998   4.110   4.986
 6843SOL    HW121425   5.019   4.184   5.050
 6843SOL    HW221426   4.909   4.127   4.943
 6844SOL     OW21427   4.091   4.824   4.225
 6844SOL    HW121428   4.084   4.907   4.169
 6844SOL    HW221429   4.095   4.744   4.165
 6845SOL     OW21430   4.290   4.261   4.589
 6845SOL    HW121431   4.302   4.327   4.515
 6845SOL    HW221432   4.336   4.295   4.672
 6846SOL     OW21433   4.976   5.072   4.112
 6846SOL    HW121434   5.026   5.149   4.152
 6846SOL    HW221435   4.881   5.074   4.144
 6847SOL     OW21436   4.996   5.169   4.866
 6847SOL    HW121437   5.043   5.182   4.953
 6847SOL    HW221438   4.930   5.095   4.875
 6848SOL     OW21439   4.078   5.234   5.053
 6848SOL    HW121440   4.057   5.190   4.966
 6848SOL    HW221441   4.175   5.260   5.056
 6849SOL     OW21442   4.126   4.475   5.322
 6849SOL    HW121443   4.194   4.530   5.275
 6849SOL    HW221444   4.166   4.387   5.349
 6850SOL     OW21445   4.737   3.829   5.494
 6850SOL    HW121446   4.743   3.914   5.442
 6850SOL    HW221447   4.769   3.753   5.437
 6851SOL     OW21448   4.228   3.774   5.464
 6851SOL    HW121449   4.186   3.717   5.394
 6851SOL    HW221450   4.162   3.843   5.496
 6852SOL     OW21451   4.297   4.594   4.753
 6852SOL    HW121452   4.341   4.683   4.744
 6852SOL    HW221453   4.234   4.594   4.830
 6853SOL     OW21454   5.084   4.586   4.769
 6853SOL    HW121455   5.009   4.586   4.703
 6853SOL    HW221456   5.121   4.494   4.778
 6854SOL     OW21457   4.933   4.249   3.999
 6854SOL    HW121458   4.946   4.165   4.053
 6854SOL    HW221459   4.904   4.323   4.059
 6855SOL     OW21460   4.031   3.937   4.955
 6855SOL    HW121461   4.008   3.974   5.045
 6855SOL    HW221462   4.001   3.842   4.949
 6856SOL     OW21463   3.761   5.034   5.006
 6856SOL    HW121464   3.814   4.985   5.074
 6856SOL    HW221465   3.783   5.132   5.011
 6857SOL     OW21466   4.456   4.358   4.788
 6857SOL    HW121467   4.515   4.332   4.712
 6857SOL    HW221468   4.428   4.454   4.777
 6858SOL     OW21469   4.031   3.787   4.342
 6858SOL    HW121470   4.020   3.881   4.375
 6858SOL    HW221471   4.026   3.724   4.419
 6859SOL     OW21472   5.346   4.091   4.098
 6859SOL    HW121473   5.348   4.015   4.162
 6859SOL    HW221474   5.298   4.168   4.138
 6860SOL     OW21475   4.747   4.490   4.690
 6860SOL    HW121476   4.762   4.511   4.786
 6860SOL    HW221477   4.717   4.395   4.681
 6861SOL     OW21478   4.074   4.622   5.528
 6861SOL    HW121479   4.150   4.666   5.576
 6861SOL    HW221480   4.109   4.575   5.446
 6862SOL     OW21481   5.027   4.562   3.766
 6862SOL    HW121482   5.061   4.469   3.781
 6862SOL    HW221483   5.045   4.589   3.671
 6863SOL     OW21484   4.792   5.057   4.573
 6863SOL    HW121485   4.799   4.973   4.518
 6863SOL    HW221486   4.854   5.126   4.537
 6864SOL     OW21487   4.043   4.534   4.673
 6864SOL    HW121488   4.136   4.570   4.678
 6864SOL    HW221489   4.037   4.449   4.725
 6865SOL     OW21490   4.063   4.233   4.730
 6865SOL    HW121491   4.011   4.150   4.713
 6865SOL    HW221492   4.140   4.238   4.666
 6866SOL     OW21493   4.862   4.104   5.402
 6866SOL    HW121494   4.817   4.167   5.466
 6866SOL    HW221495   4.955   4.135   5.385
 6867SOL     OW21496   4.884   3.931   5.201
 6867SOL    HW121497   4.884   3.995   5.278
 6867SOL    HW221498   4.912   3.979   5.118
 6868SOL     OW21499   3.732   5.050   3.924
 6868SOL    HW121500   3.639   5.071   3.893
 6868SOL    HW221501   3.742   4.951   3.937
 6869SOL     OW21502   4.726   4.520   4.962
 6869SOL    HW121503   4.767   4.488   5.048
 6869SOL    HW221504   4.630   4.493   4.959
 6870SOL     OW21505   3.764   4.268   4.838
 6870SOL    HW121506   3.849   4.235   4.797
 6870SOL    HW221507   3.777   4.283   4.936
 6871SOL     OW21508   3.913   4.244   5.446
 6871SOL    HW121509   3.972   4.204   5.376
 6871SOL    HW221510   3.855   4.315   5.405
 6872SOL     OW21511   5.093   4.674   5.384
 6872SOL    HW121512   5.132   4.763   5.404
 6872SOL    HW221513   5.103   4.654   5.287
 6873SOL     OW21514   4.539   4.296   4.049
 6873SOL    HW121515   4.546   4.207   4.003
 6873SOL    HW221516   4.445   4.330   4.041
 6874SOL     OW21517   3.976   5.288   5.468
 6874SOL    HW121518   3.946   5.345   5.544
 6874SOL    HW221519   3.969   5.191   5.494
 6875SOL     OW21520   4.395   4.188   4.993
 6875SOL    HW121521   4.361   4.099   4.963
 6875SOL    HW221522   4.421   4.242   4.913
 6876SOL     OW21523   4.197   4.224   3.915
 6876SOL    HW121524   4.258   4.304   3.919
 6876SOL    HW221525   4.102   4.255   3.922
 6877SOL     OW21526   3.883   4.861   5.190
 6877SOL    HW121527   3.905   4.800   5.266
 6877SOL    HW221528   3.893   4.812   5.104
 6878SOL     OW21529   5.071   4.783   4.958
 6878SOL    HW121530   5.095   4.720   4.884
 6878SOL    HW221531   4.981   4.823   4.940
 6879SOL     OW21532   5.026   4.579   4.033
 6879SOL    HW121533   4.940   4.548   4.075
 6879SOL    HW221534   5.022   4.565   3.934
 6880SOL     OW21535   3.807   4.982   4.746
 6880SOL    HW121536   3.802   4.981   4.846
 6880SOL    HW221537   3.724   4.941   4.708
 6881SOL     OW21538   4.412   5.386   5.440
 6881SOL    HW121539   4.356   5.467   5.449
 6881SOL    HW221540   4.464   5.390   5.354
 6882SOL     OW21541   5.450   3.859   4.247
 6882SOL    HW121542   5.523   3.842   4.180
 6882SOL    HW221543   5.419   3.772   4.285
 6883SOL     OW21544   5.004   4.651   4.396
 6883SOL    HW121545   5.064   4.570   4.398
 6883SOL    HW221546   5.044   4.720   4.336
 6884SOL     OW21547   4.554   4.997   5.146
 6884SOL    HW121548   4.549   5.030   5.241
 6884SOL    HW221549   4.468   5.016   5.100
 6885SOL     OW21550   3.987   4.050   4.444
 6885SOL    HW121551   3.908   4.101   4.410
 6885SOL    HW221552   3.978   4.035   4.542
 6886SOL     OW21553   4.546   4.726   5.096
 6886SOL    HW121554   4.586   4.725   5.004
 6886SOL    HW221555   4.556   4.818   5.136
 6887SOL     OW21556   4.640   4.634   4.015
 6887SOL    HW121557   4.703   4.672   3.947
 6887SOL    HW221558   4.680   4.551   4.054
 6888SOL     OW21559   4.096   5.012   5.214
 6888SOL    HW121560   4.083   5.105   5.180
 6888SOL    HW221561   4.012   4.960   5.201
 6889SOL     OW21562   4.763   4.822   4.420
 6889SOL    HW121563   4.693   4.775   4.474
 6889SOL    HW221564   4.822   4.754   4.377
 6890SOL     OW21565   4.738   3.960   4.695
 6890SOL    HW121566   4.730   3.924   4.602
 6890SOL    HW221567   4.736   3.884   4.760
 6891SOL     OW21568   3.979   5.072   4.014
 6891SOL    HW121569   3.883   5.073   3.987
 6891SOL    HW221570   3.991   5.125   4.098
 6892SOL     OW21571   3.829   4.737   5.450
 6892SOL    HW121572   3.752   4.704   5.504
 6892SOL    HW221573   3.914   4.707   5.492
 6893SOL     OW21574   4.396   3.927   5.213
 6893SOL    HW121575   4.486   3.911   5.173
 6893SOL    HW221576   4.404   3.932   5.312
 6894SOL     OW21577   3.799   4.069   3.757
 6894SOL    HW121578   3.707   4.041   3.728
 6894SOL    HW221579   3.830   4.146   3.701
 6895SOL     OW21580   5.164   4.580   5.122
 6895SOL    HW121581   5.107   4.632   5.059
 6895SOL    HW221582   5.260   4.592   5.098
 6896SOL     OW21583   3.796   3.890   4.042
 6896SOL    HW121584   3.779   3.973   3.988
 6896SOL    HW221585   3.886   3.853   4.020
 6897SOL     OW21586   4.907   5.059   3.843
 6897SOL    HW121587   4.808   5.048   3.845
 6897SOL    HW221588   4.941   5.074   3.936
 6898SOL     OW21589   4.337   4.566   5.155
 6898SOL    HW121590   4.393   4.647   5.138
 6898SOL    HW221591   4.396   4.486   5.158
 6899SOL     OW21592   4.440   4.289   5.432
 6899SOL    HW121593   4.459   4.354   5.506
 6899SOL    HW221594   4.500   4.209   5.441
 6900SOL     OW21595   5.174   4.944   5.357
 6900SOL    HW121596   5.165   4.934   5.456
 6900SOL    HW221597   5.270   4.937   5.331
 6901SOL     OW21598   4.949   4.049   4.173
 6901SOL    HW121599   5.014   3.975   4.162
 6901SOL    HW221600   4.969   4.099   4.257
 6902SOL     OW21601   4.318   4.469   4.376
 6902SOL    HW121602   4.368   4.554   4.357
 6902SOL    HW221603   4.230   4.471   4.328
 6903SOL     OW21604   4.583   5.098   3.740
 6903SOL    HW121605   4.537   5.113   3.828
 6903SOL    HW221606   4.627   5.183   3.710
 6904SOL     OW21607   4.583   4.680   4.585
 6904SOL    HW121608   4.637   4.611   4.633
 6904SOL    HW221609   4.551   4.749   4.651
 6905SOL     OW21610   4.807   4.708   3.811
 6905SOL    HW121611   4.784   4.761   3.729
 6905SOL    HW221612   4.888   4.652   3.792
 6906SOL     OW21613   3.945   5.038   5.568
 6906SOL    HW121614   3.880   4.965   5.547
 6906SOL    HW221615   3.949   5.052   5.666
 6907SOL     OW21616   3.803   4.964   4.377
 6907SOL    HW121617   3.802   4.917   4.465
 6907SOL    HW221618   3.885   4.936   4.326
 6908SOL     OW21619   4.396   5.115   5.348
 6908SOL    HW121620   4.318   5.065   5.386
 6908SOL    HW221621   4.393   5.210   5.379
 6909SOL     OW21622   4.152   4.148   4.244
 6909SOL    HW121623   4.182   4.076   4.182
 6909SOL    HW221624   4.113   4.108   4.327
 6910SOL     OW21625   5.429   5.211   4.828
 6910SOL    HW121626   5.336   5.186   4.801
 6910SOL    HW221627   5.455   5.161   4.910
 6911SOL     OW21628   4.041   4.271   5.004
 6911SOL    HW121629   4.079   4.212   5.076
 6911SOL    HW221630   4.081   4.245   4.916
 6912SOL     OW21631   5.148   3.938   4.836
 6912SOL    HW121632   5.200   3.873   4.891
 6912SOL    HW221633   5.099   4.001   4.897
 6913SOL     OW21634   4.725   3.758   4.878
 6913SOL    HW121635   4.662   3.686   4.847
 6913SOL    HW221636   4.818   3.722   4.878
 6914SOL     OW21637   4.494   5.054   4.025
 6914SOL    HW121638   4.448   4.967   4.042
 6914SOL    HW221639   4.585   5.051   4.066
 6915SOL     OW21640   4.342   5.291   5.008
 6915SOL    HW121641   4.337   5.373   5.065
 6915SOL    HW221642   4.431   5.288   4.963
 6916SOL     OW21643   5.076   3.776   3.892
 6916SOL    HW121644   5.111   3.735   3.808
 6916SOL    HW221645   4.986   3.738   3.912
 6917SOL     OW21646   5.024   4.177   4.415
 6917SOL    HW121647   4.965   4.257   4.419
 6917SOL    HW221648   5.039   4.142   4.508
 6918SOL     OW21649   5.317   3.945   4.606
 6918SOL    HW121650   5.233   3.944   4.660
 6918SOL    HW221651   5.319   4.028   4.550
 6919SOL     OW21652   3.763   4.801   4.024
 6919SOL    HW121653   3.862   4.790   4.015
 6919SOL    HW221654   3.723   4.715   4.056
 6920SOL     OW21655   3.954   4.352   5.699
 6920SOL    HW121656   3.861   4.350   5.736
 6920SOL    HW221657   3.955   4.313   5.607
 6921SOL     OW21658   3.949   3.999   6.582
 6921SOL    HW121659   3.984   3.982   6.674
 6921SOL    HW221660   3.861   3.954   6.570
 6922SOL     OW21661   3.743   4.092   6.233
 6922SOL    HW121662   3.661   4.135   6.272
 6922SOL    HW221663   3.715   4.019   6.170
 6923SOL     OW21664   4.293   4.999   6.751
 6923SOL    HW121665   4.200   4.992   6.714
 6923SOL    HW221666   4.304   5.088   6.795
 6924SOL     OW21667   5.279   5.235   6.289
 6924SOL    HW121668   5.222   5.219   6.370
 6924SOL    HW221669   5.220   5.245   6.209
 6925SOL     OW21670   4.859   4.427   6.303
 6925SOL    HW121671   4.916   4.505   6.278
 6925SOL    HW221672   4.799   4.453   6.379
 6926SOL     OW21673   4.492   4.868   6.609
 6926SOL    HW121674   4.414   4.885   6.669
 6926SOL    HW221675   4.526   4.955   6.573
 6927SOL     OW21676   4.574   4.522   7.409
 6927SOL    HW121677   4.570   4.598   7.474
 6927SOL    HW221678   4.596   4.558   7.318
 6928SOL     OW21679   4.409   4.736   6.251
 6928SOL    HW121680   4.478   4.720   6.321
 6928SOL    HW221681   4.336   4.793   6.289
 6929SOL     OW21682   4.410   4.885   7.389
 6929SOL    HW121683   4.470   4.964   7.403
 6929SOL    HW221684   4.324   4.916   7.348
 6930SOL     OW21685   4.059   5.159   6.647
 6930SOL    HW121686   3.981   5.128   6.594
 6930SOL    HW221687   4.117   5.217   6.590
 6931SOL     OW21688   5.184   5.229   6.925
 6931SOL    HW121689   5.208   5.323   6.951
 6931SOL    HW221690   5.168   5.175   7.007
 6932SOL     OW21691   4.162   4.116   7.085
 6932SOL    HW121692   4.244   4.060   7.094
 6932SOL    HW221693   4.081   4.058   7.089
 6933SOL     OW21694   4.851   5.065   7.276
 6933SOL    HW121695   4.898   5.065   7.364
 6933SOL    HW221696   4.803   4.978   7.265
 6934SOL     OW21697   3.954   5.158   6.124
 6934SOL    HW121698   3.928   5.254   6.124
 6934SOL    HW221699   3.883   5.104   6.169
 6935SOL     OW21700   3.964   4.815   6.472
 6935SOL    HW121701   3.978   4.731   6.524
 6935SOL    HW221702   3.909   4.879   6.527
 6936SOL     OW21703   4.330   4.688   5.709
 6936SOL    HW121704   4.337   4.772   5.655
 6936SOL    HW221705   4.376   4.701   5.797
 6937SOL     OW21706   3.846   4.367   6.149
 6937SOL    HW121707   3.801   4.279   6.166
 6937SOL    HW221708   3.845   4.421   6.233
 6938SOL     OW21709   3.751   5.320   5.703
 6938SOL    HW121710   3.732   5.224   5.724
 6938SOL    HW221711   3.718   5.378   5.778
 6939SOL     OW21712   5.413   4.646   6.198
 6939SOL    HW121713   5.508   4.617   6.206
 6939SOL    HW221714   5.405   4.711   6.123
 6940SOL     OW21715   3.837   4.461   7.183
 6940SOL    HW121716   3.925   4.448   7.228
 6940SOL    HW221717   3.824   4.558   7.161
 6941SOL     OW21718   4.337   5.089   6.312
 6941SOL    HW121719   4.288   5.002   6.321
 6941SOL    HW221720   4.314   5.132   6.225
 6942SOL     OW21721   5.017   4.952   7.009
 6942SOL    HW121722   5.054   4.879   6.951
 6942SOL    HW221723   5.069   4.957   7.094
 6943SOL     OW21724   4.533   3.728   6.088
 6943SOL    HW121725   4.573   3.819   6.079
 6943SOL    HW221726   4.433   3.736   6.094
 6944SOL     OW21727   3.921   4.700   6.850
 6944SOL    HW121728   4.010   4.655   6.836
 6944SOL    HW221729   3.848   4.635   6.831
 6945SOL     OW21730   4.041   3.975   7.387
 6945SOL    HW121731   4.112   4.046   7.393
 6945SOL    HW221732   3.953   4.014   7.415
 6946SOL     OW21733   5.190   5.141   6.539
 6946SOL    HW121734   5.131   5.147   6.619
 6946SOL    HW221735   5.175   5.053   6.493
 6947SOL     OW21736   5.391   5.438   6.158
 6947SOL    HW121737   5.350   5.415   6.070
 6947SOL    HW221738   5.373   5.364   6.223
 6948SOL     OW21739   4.322   4.453   5.856
 6948SOL    HW121740   4.346   4.522   5.788
 6948SOL    HW221741   4.244   4.486   5.910
 6949SOL     OW21742   5.005   4.069   6.530
 6949SOL    HW121743   4.919   4.019   6.517
 6949SOL    HW221744   5.067   4.015   6.586
 6950SOL     OW21745   4.531   4.329   7.051
 6950SOL    HW121746   4.484   4.326   7.140
 6950SOL    HW221747   4.480   4.274   6.985
 6951SOL     OW21748   5.118   4.193   7.260
 6951SOL    HW121749   5.098   4.236   7.348
 6951SOL    HW221750   5.196   4.131   7.269
 6952SOL     OW21751   4.697   4.614   7.158
 6952SOL    HW121752   4.743   4.530   7.129
 6952SOL    HW221753   4.641   4.648   7.083
 6953SOL     OW21754   4.715   4.134   6.828
 6953SOL    HW121755   4.638   4.168   6.882
 6953SOL    HW221756   4.681   4.083   6.749
 6954SOL     OW21757   4.765   4.425   6.015
 6954SOL    HW121758   4.791   4.421   6.111
 6954SOL    HW221759   4.680   4.374   6.001
 6955SOL     OW21760   3.800   4.535   6.375
 6955SOL    HW121761   3.899   4.523   6.384
 6955SOL    HW221762   3.776   4.630   6.396
 6956SOL     OW21763   4.589   4.072   5.781
 6956SOL    HW121764   4.648   4.135   5.732
 6956SOL    HW221765   4.608   3.978   5.752
 6957SOL     OW21766   5.086   4.868   6.131
 6957SOL    HW121767   5.169   4.839   6.083
 6957SOL    HW221768   5.037   4.935   6.075
 6958SOL     OW21769   4.274   3.920   6.471
 6958SOL    HW121770   4.269   3.915   6.571
 6958SOL    HW221771   4.276   4.016   6.442
 6959SOL     OW21772   4.732   5.180   6.063
 6959SOL    HW121773   4.686   5.252   6.011
 6959SOL    HW221774   4.728   5.200   6.161
 6960SOL     OW21775   4.951   5.274   7.092
 6960SOL    HW121776   4.957   5.197   7.156
 6960SOL    HW221777   4.899   5.248   7.012
 6961SOL     OW21778   4.045   4.667   5.828
 6961SOL    HW121779   4.127   4.706   5.786
 6961SOL    HW221780   4.018   4.585   5.779
 6962SOL     OW21781   4.185   4.990   7.313
 6962SOL    HW121782   4.135   4.991   7.227
 6962SOL    HW221783   4.122   4.972   7.389
 6963SOL     OW21784   4.835   5.500   5.823
 6963SOL    HW121785   4.775   5.438   5.873
 6963SOL    HW221786   4.866   5.456   5.738
 6964SOL     OW21787   3.926   4.009   7.084
 6964SOL    HW121788   3.846   4.069   7.071
 6964SOL    HW221789   3.916   3.960   7.170
 6965SOL     OW21790   5.124   3.831   6.012
 6965SOL    HW121791   5.100   3.794   5.922
 6965SOL    HW221792   5.223   3.847   6.016
 6966SOL     OW21793   4.106   4.424   6.066
 6966SOL    HW121794   4.151   4.334   6.063
 6966SOL    HW221795   4.012   4.413   6.099
 6967SOL     OW21796   4.338   3.846   5.703
 6967SOL    HW121797   4.436   3.824   5.710
 6967SOL    HW221798   4.307   3.829   5.610
 6968SOL     OW21799   4.505   3.988   7.335
 6968SOL    HW121800   4.572   3.927   7.378
 6968SOL    HW221801   4.432   4.007   7.400
 6969SOL     OW21802   5.075   4.314   7.019
 6969SOL    HW121803   5.103   4.271   7.104
 6969SOL    HW221804   5.100   4.410   7.020
 6970SOL     OW21805   4.527   5.126   6.510
 6970SOL    HW121806   4.617   5.140   6.468
 6970SOL    HW221807   4.456   5.128   6.439
 6971SOL     OW21808   4.646   4.227   6.485
 6971SOL    HW121809   4.621   4.218   6.389
 6971SOL    HW221810   4.694   4.145   6.516
 6972SOL     OW21811   4.263   3.788   6.098
 6972SOL    HW121812   4.182   3.789   6.156
 6972SOL    HW221813   4.266   3.871   6.043
 6973SOL     OW21814   5.158   4.912   5.627
 6973SOL    HW121815   5.190   4.836   5.684
 6973SOL    HW221816   5.066   4.939   5.657
 6974SOL     OW21817   4.021   3.759   5.757
 6974SOL    HW121818   4.070   3.843   5.736
 6974SOL    HW221819   4.083   3.694   5.802
 6975SOL     OW21820   4.659   3.960   6.066
 6975SOL    HW121821   4.611   4.001   5.988
 6975SOL    HW221822   4.758   3.958   6.047
 6976SOL     OW21823   4.800   4.407   7.050
 6976SOL    HW121824   4.720   4.346   7.053
 6976SOL    HW221825   4.881   4.354   7.026
 6977SOL     OW21826   4.951   5.294   6.379
 6977SOL    HW121827   4.972   5.368   6.314
 6977SOL    HW221828   5.019   5.294   6.452
 6978SOL     OW21829   4.183   4.876   6.327
 6978SOL    HW121830   4.112   4.849   6.392
 6978SOL    HW221831   4.157   4.848   6.234
 6979SOL     OW21832   4.756   4.273   5.602
 6979SOL    HW121833   4.715   4.355   5.563
 6979SOL    HW221834   4.820   4.299   5.675
 6980SOL     OW21835   3.802   4.280   6.972
 6980SOL    HW121836   3.894   4.279   6.931
 6980SOL    HW221837   3.796   4.354   7.039
 6981SOL     OW21838   4.285   3.946   6.733
 6981SOL    HW121839   4.323   3.862   6.770
 6981SOL    HW221840   4.197   3.965   6.777
 6982SOL     OW21841   4.590   4.178   6.228
 6982SOL    HW121842   4.558   4.250   6.166
 6982SOL    HW221843   4.614   4.097   6.175
 6983SOL     OW21844   4.741   3.763   6.339
 6983SOL    HW121845   4.669   3.768   6.270
 6983SOL    HW221846   4.717   3.694   6.408
 6984SOL     OW21847   5.153   4.897   6.453
 6984SOL    HW121848   5.098   4.813   6.446
 6984SOL    HW221849   5.179   4.926   6.361
 6985SOL     OW21850   4.212   5.109   5.760
 6985SOL    HW121851   4.125   5.094   5.807
 6985SOL    HW221852   4.195   5.135   5.665
 6986SOL     OW21853   5.114   4.299   5.664
 6986SOL    HW121854   5.060   4.278   5.745
 6986SOL    HW221855   5.205   4.258   5.673
 6987SOL     OW21856   4.251   3.980   5.914
 6987SOL    HW121857   4.278   3.921   5.839
 6987SOL    HW221858   4.251   4.075   5.883
 6988SOL     OW21859   4.788   5.071   6.926
 6988SOL    HW121860   4.708   5.048   6.981
 6988SOL    HW221861   4.871   5.045   6.975
 6989SOL     OW21862   4.835   4.919   6.686
 6989SOL    HW121863   4.795   4.963   6.767
 6989SOL    HW221864   4.794   4.956   6.603
 6990SOL     OW21865   4.639   3.813   6.988
 6990SOL    HW121866   4.664   3.793   6.893
 6990SOL    HW221867   4.711   3.869   7.030
 6991SOL     OW21868   4.704   4.840   7.305
 6991SOL    HW121869   4.605   4.846   7.315
 6991SOL    HW221870   4.727   4.760   7.249
 6992SOL     OW21871   4.429   4.774   5.954
 6992SOL    HW121872   4.415   4.781   6.053
 6992SOL    HW221873   4.513   4.723   5.936
 6993SOL     OW21874   4.134   4.537   6.837
 6993SOL    HW121875   4.220   4.549   6.887
 6993SOL    HW221876   4.092   4.450   6.864
 6994SOL     OW21877   4.998   4.110   6.848
 6994SOL    HW121878   5.019   4.184   6.912
 6994SOL    HW221879   4.909   4.127   6.805
 6995SOL     OW21880   4.091   4.824   6.087
 6995SOL    HW121881   4.084   4.907   6.031
 6995SOL    HW221882   4.095   4.744   6.027
 6996SOL     OW21883   4.290   4.261   6.451
 6996SOL    HW121884   4.302   4.327   6.377
 6996SOL    HW221885   4.336   4.295   6.534
 6997SOL     OW21886   4.976   5.072   5.974
 6997SOL    HW121887   5.026   5.149   6.014
 6997SOL    HW221888   4.881   5.074   6.006
 6998SOL     OW21889   4.996   5.169   6.728
 6998SOL    HW121890   5.043   5.182   6.815
 6998SOL    HW221891   4.930   5.095   6.737
 6999SOL     OW21892   4.078   5.234   6.915
 6999SOL    HW121893   4.057   5.190   6.828
 6999SOL    HW221894   4.175   5.260   6.918
 7000SOL     OW21895   4.126   4.475   7.184
 7000SOL    HW121896   4.194   4.530   7.137
 7000SOL    HW221897   4.166   4.387   7.211
 7001SOL     OW21898   4.737   3.829   7.356
 7001SOL    HW121899   4.743   3.914   7.304
 7001SOL    HW221900   4.769   3.753   7.299
 7002SOL     OW21901   4.228   3.774   7.326
 7002SOL    HW121902   4.186   3.717   7.256
 7002SOL    HW221903   4.162   3.843   7.358
 7003SOL     OW21904   4.297   4.594   6.615
 7003SOL    HW121905   4.341   4.683   6.606
 7003SOL    HW221906   4.234   4.594   6.692
 7004SOL     OW21907   5.084   4.586   6.631
 7004SOL    HW121908   5.009   4.586   6.565
 7004SOL    HW221909   5.121   4.494   6.640
 7005SOL     OW21910   4.933   4.249   5.861
 7005SOL    HW121911   4.946   4.165   5.915
 7005SOL    HW221912   4.904   4.323   5.921
 7006SOL     OW21913   4.031   3.937   6.817
 7006SOL    HW121914   4.008   3.974   6.907
 7006SOL    HW221915   4.001   3.842   6.811
 7007SOL     OW21916   3.761   5.034   6.868
 7007SOL    HW121917   3.814   4.985   6.936
 7007SOL    HW221918   3.783   5.132   6.873
 7008SOL     OW21919   4.456   4.358   6.650
 7008SOL    HW121920   4.515   4.332   6.574
 7008SOL    HW221921   4.428   4.454   6.639
 7009SOL     OW21922   4.031   3.787   6.204
 7009SOL    HW121923   4.020   3.881   6.237
 7009SOL    HW221924   4.026   3.724   6.281
 7010SOL     OW21925   5.346   4.091   5.960
 7010SOL    HW121926   5.348   4.015   6.024
 7010SOL    HW221927   5.298   4.168   6.000
 7011SOL     OW21928   4.747   4.490   6.552
 7011SOL    HW121929   4.762   4.511   6.648
 7011SOL    HW221930   4.717   4.395   6.543
 7012SOL     OW21931   4.074   4.622   7.390
 7012SOL    HW121932   4.150   4.666   7.438
 7012SOL    HW221933   4.109   4.575   7.308
 7013SOL     OW21934   5.027   4.562   5.628
 7013SOL    HW121935   5.061   4.469   5.643
 7013SOL    HW221936   5.045   4.589   5.533
 7014SOL     OW21937   4.792   5.057   6.435
 7014SOL    HW121938   4.799   4.973   6.380
 7014SOL    HW221939   4.854   5.126   6.399
 7015SOL     OW21940   4.043   4.534   6.535
 7015SOL    HW121941   4.136   4.570   6.540
 7015SOL    HW221942   4.037   4.449   6.587
 7016SOL     OW21943   4.063   4.233   6.592
 7016SOL    HW121944   4.011   4.150   6.575
 7016SOL    HW221945   4.140   4.238   6.528
 7017SOL     OW21946   4.862   4.104   7.264
 7017SOL    HW121947   4.817   4.167   7.328
 7017SOL    HW221948   4.955   4.135   7.247
 7018SOL     OW21949   4.884   3.931   7.063
 7018SOL    HW121950   4.884   3.995   7.140
 7018SOL    HW221951   4.912   3.979   6.980
 7019SOL     OW21952   3.732   5.050   5.786
 7019SOL    HW121953   3.639   5.071   5.755
 7019SOL    HW221954   3.742   4.951   5.799
 7020SOL     OW21955   4.726   4.520   6.824
 7020SOL    HW121956   4.767   4.488   6.910
 7020SOL    HW221957   4.630   4.493   6.821
 7021SOL     OW21958   3.764   4.268   6.700
 7021SOL    HW121959   3.849   4.235   6.659
 7021SOL    HW221960   3.777   4.283   6.798
 7022SOL     OW21961   3.913   4.244   7.308
 7022SOL    HW121962   3.972   4.204   7.238
 7022SOL    HW221963   3.855   4.315   7.267
 7023SOL     OW21964   5.093   4.674   7.246
 7023SOL    HW121965   5.132   4.763   7.266
 7023SOL    HW221966   5.103   4.654   7.149
 7024SOL     OW21967   4.539   4.296   5.911
 7024SOL    HW121968   4.546   4.207   5.865
 7024SOL    HW221969   4.445   4.330   5.903
 7025SOL     OW21970   3.976   5.288   7.330
 7025SOL    HW121971   3.946   5.345   7.406
 7025SOL    HW221972   3.969   5.191   7.356
 7026SOL     OW21973   4.395   4.188   6.855
 7026SOL    HW121974   4.361   4.099   6.825
 7026SOL    HW221975   4.421   4.242   6.775
 7027SOL     OW21976   4.197   4.224   5.777
 7027SOL    HW121977   4.258   4.304   5.781
 7027SOL    HW221978   4.102   4.255   5.784
 7028SOL     OW21979   3.883   4.861   7.052
 7028SOL    HW121980   3.905   4.800   7.128
 7028SOL    HW221981   3.893   4.812   6.966
 7029SOL     OW21982   5.071   4.783   6.820
 7029SOL    HW121983   5.095   4.720   6.746
 7029SOL    HW221984   4.981   4.823   6.802
 7030SOL     OW21985   5.026   4.579   5.895
 7030SOL    HW121986   4.940   4.548   5.937
 7030SOL    HW221987   5.022   4.565   5.796
 7031SOL     OW21988   3.807   4.982   6.608
 7031SOL    HW121989   3.802   4.981   6.708
 7031SOL    HW221990   3.724   4.941   6.570
 7032SOL     OW21991   4.412   5.386   7.302
 7032SOL    HW121992   4.356   5.467   7.311
 7032SOL    HW221993   4.464   5.390   7.216
 7033SOL     OW21994   5.450   3.859   6.109
 7033SOL    HW121995   5.523   3.842   6.042
 7033SOL    HW221996   5.419   3.772   6.147
 7034SOL     OW21997   5.004   4.651   6.258
 7034SOL    HW121998   5.064   4.570   6.260
 7034SOL    HW221999   5.044   4.720   6.198
 7035SOL     OW22000   4.554   4.997   7.008
 7035SOL    HW122001   4.549   5.030   7.103
 7035SOL    HW222002   4.468   5.016   6.962
 7036SOL     OW22003   3.987   4.050   6.306
 7036SOL    HW122004   3.908   4.101   6.272
 7036SOL    HW222005   3.978   4.035   6.404
 7037SOL     OW22006   4.546   4.726   6.958
 7037SOL    HW122007   4.586   4.725   6.866
 7037SOL    HW222008   4.556   4.818   6.998
 7038SOL     OW22009   4.640   4.634   5.877
 7038SOL    HW122010   4.703   4.672   5.809
 7038SOL    HW222011   4.680   4.551   5.916
 7039SOL     OW22012   4.096   5.012   7.076
 7039SOL    HW122013   4.083   5.105   7.042
 7039SOL    HW222014   4.012   4.960   7.063
 7040SOL     OW22015   4.763   4.822   6.282
 7040SOL    HW122016   4.693   4.775   6.336
 7040SOL    HW222017   4.822   4.754   6.239
 7041SOL     OW22018   4.738   3.960   6.557
 7041SOL    HW122019   4.730   3.924   6.464
 7041SOL    HW222020   4.736   3.884   6.622
 7042SOL     OW22021   3.979   5.072   5.876
 7042SOL    HW122022   3.883   5.073   5.849
 7042SOL    HW222023   3.991   5.125   5.960
 7043SOL     OW22024   3.829   4.737   7.312
 7043SOL    HW122025   3.752   4.704   7.366
 7043SOL    HW222026   3.914   4.707   7.354
 7044SOL     OW22027   4.396   3.927   7.075
 7044SOL    HW122028   4.486   3.911   7.035
 7044SOL    HW222029   4.404   3.932   7.174
 7045SOL     OW22030   3.799   4.069   5.619
 7045SOL    HW122031   3.707   4.041   5.590
 7045SOL    HW222032   3.830   4.146   5.563
 7046SOL     OW22033   5.164   4.580   6.984
 7046SOL    HW122034   5.107   4.632   6.921
 7046SOL    HW222035   5.260   4.592   6.960
 7047SOL     OW22036   3.796   3.890   5.904
 7047SOL    HW122037   3.779   3.973   5.850
 7047SOL    HW222038   3.886   3.853   5.882
 7048SOL     OW22039   4.907   5.059   5.705
 7048SOL    HW122040   4.808   5.048   5.707
 7048SOL    HW222041   4.941   5.074   5.798
 7049SOL     OW22042   4.337   4.566   7.017
 7049SOL    HW122043   4.393   4.647   7.000
 7049SOL    HW222044   4.396   4.486   7.020
 7050SOL     OW22045   4.440   4.289   7.294
 7050SOL    HW122046   4.459   4.354   7.368
 7050SOL    HW222047   4.500   4.209   7.303
 7051SOL     OW22048   5.174   4.944   7.219
 7051SOL    HW122049   5.165   4.934   7.318
 7051SOL    HW222050   5.270   4.937   7.193
 7052SOL     OW22051   4.949   4.049   6.035
 7052SOL    HW122052   5.014   3.975   6.024
 7052SOL    HW222053   4.969   4.099   6.119
 7053SOL     OW22054   4.318   4.469   6.238
 7053SOL    HW122055   4.368   4.554   6.219
 7053SOL    HW222056   4.230   4.471   6.190
 7054SOL     OW22057   4.583   5.098   5.602
 7054SOL    HW122058   4.537   5.113   5.690
 7054SOL    HW222059   4.627   5.183   5.572
 7055SOL     OW22060   4.583   4.680   6.447
 7055SOL    HW122061   4.637   4.611   6.495
 7055SOL    HW222062   4.551   4.749   6.513
 7056SOL     OW22063   4.807   4.708   5.673
 7056SOL    HW122064   4.784   4.761   5.591
 7056SOL    HW222065   4.888   4.652   5.654
 7057SOL     OW22066   3.945   5.038   7.430
 7057SOL    HW122067   3.880   4.965   7.409
 7057SOL    HW222068   3.949   5.052   7.528
 7058SOL     OW22069   3.803   4.964   6.239
 7058SOL    HW122070   3.802   4.917   6.327
 7058SOL    HW222071   3.885   4.936   6.188
 7059SOL     OW22072   4.396   5.115   7.210
 7059SOL    HW122073   4.318   5.065   7.248
 7059SOL    HW222074   4.393   5.210   7.241
 7060SOL     OW22075   4.152   4.148   6.106
 7060SOL    HW122076   4.182   4.076   6.044
 7060SOL    HW222077   4.113   4.108   6.189
 7061SOL     OW22078   5.429   5.211   6.690
 7061SOL    HW122079   5.336   5.186   6.663
 7061SOL    HW222080   5.455   5.161   6.772
 7062SOL     OW22081   4.041   4.271   6.866
 7062SOL    HW122082   4.079   4.212   6.938
 7062SOL    HW222083   4.081   4.245   6.778
 7063SOL     OW22084   5.148   3.938   6.698
 7063SOL    HW122085   5.200   3.873   6.753
 7063SOL    HW222086   5.099   4.001   6.759
 7064SOL     OW22087   4.725   3.758   6.740
 7064SOL    HW122088   4.662   3.686   6.709
 7064SOL    HW222089   4.818   3.722   6.740
 7065SOL     OW22090   4.494   5.054   5.887
 7065SOL    HW122091   4.448   4.967   5.904
 7065SOL    HW222092   4.585   5.051   5.928
 7066SOL     OW22093   4.342   5.291   6.870
 7066SOL    HW122094   4.337   5.373   6.927
 7066SOL    HW222095   4.431   5.288   6.825
 7067SOL     OW22096   5.076   3.776   5.754
 7067SOL    HW122097   5.111   3.735   5.670
 7067SOL    HW222098   4.986   3.738   5.774
 7068SOL     OW22099   5.024   4.177   6.277
 7068SOL    HW122100   4.965   4.257   6.281
 7068SOL    HW222101   5.039   4.142   6.370
 7069SOL     OW22102   5.317   3.945   6.468
 7069SOL    HW122103   5.233   3.944   6.522
 7069SOL    HW222104   5.319   4.028   6.412
 7070SOL     OW22105   3.763   4.801   5.886
 7070SOL    HW122106   3.862   4.790   5.877
 7070SOL    HW222107   3.723   4.715   5.918
 7071SOL     OW22108   3.954   4.352   7.561
 7071SOL    HW122109   3.861   4.350   7.598
 7071SOL    HW222110   3.955   4.313   7.469
 7072SOL     OW22111   3.955   5.437   7.931
 7072SOL    HW122112   3.989   5.514   7.985
 7072SOL    HW222113   3.999   5.437   7.841
 7073SOL     OW22114   3.954   5.158   7.986
 7073SOL    HW122115   3.928   5.254   7.986
 7073SOL    HW222116   3.883   5.104   8.031
 7074SOL     OW22117   4.330   4.688   7.571
 7074SOL    HW122118   4.337   4.772   7.517
 7074SOL    HW222119   4.376   4.701   7.659
 7075SOL     OW22120   3.751   5.320   7.565
 7075SOL    HW122121   3.732   5.224   7.586
 7075SOL    HW222122   3.718   5.378   7.640
 7076SOL     OW22123   5.413   4.646   8.060
 7076SOL    HW122124   5.508   4.617   8.068
 7076SOL    HW222125   5.405   4.711   7.985
 7077SOL     OW22126   4.533   3.728   7.950
 7077SOL    HW122127   4.573   3.819   7.941
 7077SOL    HW222128   4.433   3.736   7.956
 7078SOL     OW22129   4.322   4.453   7.718
 7078SOL    HW122130   4.346   4.522   7.650
 7078SOL    HW222131   4.244   4.486   7.772
 7079SOL     OW22132   3.800   4.535   8.237
 7079SOL    HW122133   3.899   4.523   8.246
 7079SOL    HW222134   3.776   4.630   8.258
 7080SOL     OW22135   4.589   4.072   7.643
 7080SOL    HW122136   4.648   4.135   7.594
 7080SOL    HW222137   4.608   3.978   7.614
 7081SOL     OW22138   4.045   4.667   7.690
 7081SOL    HW122139   4.127   4.706   7.648
 7081SOL    HW222140   4.018   4.585   7.641
 7082SOL     OW22141   4.835   5.500   7.685
 7082SOL    HW122142   4.775   5.438   7.735
 7082SOL    HW222143   4.866   5.456   7.600
 7083SOL     OW22144   5.124   3.831   7.874
 7083SOL    HW122145   5.100   3.794   7.784
 7083SOL    HW222146   5.223   3.847   7.878
 7084SOL     OW22147   4.106   4.424   7.928
 7084SOL    HW122148   4.151   4.334   7.925
 7084SOL    HW222149   4.012   4.413   7.961
 7085SOL     OW22150   4.338   3.846   7.565
 7085SOL    HW122151   4.436   3.824   7.572
 7085SOL    HW222152   4.307   3.829   7.472
 7086SOL     OW22153   4.263   3.788   7.960
 7086SOL    HW122154   4.182   3.789   8.018
 7086SOL    HW222155   4.266   3.871   7.905
 7087SOL     OW22156   5.158   4.912   7.489
 7087SOL    HW122157   5.190   4.836   7.546
 7087SOL    HW222158   5.066   4.939   7.519
 7088SOL     OW22159   4.021   3.759   7.619
 7088SOL    HW122160   4.070   3.843   7.598
 7088SOL    HW222161   4.083   3.694   7.664
 7089SOL     OW22162   4.659   3.960   7.928
 7089SOL    HW122163   4.611   4.001   7.850
 7089SOL    HW222164   4.758   3.958   7.909
 7090SOL     OW22165   4.183   4.876   8.189
 7090SOL    HW122166   4.112   4.849   8.254
 7090SOL    HW222167   4.157   4.848   8.096
 7091SOL     OW22168   4.756   4.273   7.464
 7091SOL    HW122169   4.715   4.355   7.425
 7091SOL    HW222170   4.820   4.299   7.537
 7092SOL     OW22171   4.212   5.109   7.622
 7092SOL    HW122172   4.125   5.094   7.669
 7092SOL    HW222173   4.195   5.135   7.527
 7093SOL     OW22174   5.114   4.299   7.526
 7093SOL    HW122175   5.060   4.278   7.607
 7093SOL    HW222176   5.205   4.258   7.535
 7094SOL     OW22177   4.251   3.980   7.776
 7094SOL    HW122178   4.278   3.921   7.701
 7094SOL    HW222179   4.251   4.075   7.745
 7095SOL     OW22180   4.429   4.774   7.816
 7095SOL    HW122181   4.415   4.781   7.915
 7095SOL    HW222182   4.513   4.723   7.798
 7096SOL     OW22183   4.091   4.824   7.949
 7096SOL    HW122184   4.084   4.907   7.893
 7096SOL    HW222185   4.095   4.744   7.889
 7097SOL     OW22186   4.976   5.072   7.836
 7097SOL    HW122187   5.026   5.149   7.876
 7097SOL    HW222188   4.881   5.074   7.868
 7098SOL     OW22189   5.306   4.363   7.920
 7098SOL    HW122190   5.275   4.424   7.993
 7098SOL    HW222191   5.356   4.415   7.851
 7099SOL     OW22192   4.933   4.249   7.723
 7099SOL    HW122193   4.946   4.165   7.777
 7099SOL    HW222194   4.904   4.323   7.783
 7100SOL     OW22195   5.346   4.091   7.822
 7100SOL    HW122196   5.348   4.015   7.886
 7100SOL    HW222197   5.298   4.168   7.862
 7101SOL     OW22198   5.027   4.562   7.490
 7101SOL    HW122199   5.061   4.469   7.505
 7101SOL    HW222200   5.045   4.589   7.395
 7102SOL     OW22201   3.732   5.050   7.648
 7102SOL    HW122202   3.639   5.071   7.617
 7102SOL    HW222203   3.742   4.951   7.661
 7103SOL     OW22204   4.539   4.296   7.773
 7103SOL    HW122205   4.546   4.207   7.727
 7103SOL    HW222206   4.445   4.330   7.765
 7104SOL     OW22207   4.197   4.224   7.639
 7104SOL    HW122208   4.258   4.304   7.643
 7104SOL    HW222209   4.102   4.255   7.646
 7105SOL     OW22210   5.026   4.579   7.757
 7105SOL    HW122211   4.940   4.548   7.799
 7105SOL    HW222212   5.022   4.565   7.658
 7106SOL     OW22213   5.450   3.859   7.971
 7106SOL    HW122214   5.523   3.842   7.904
 7106SOL    HW222215   5.419   3.772   8.009
 7107SOL     OW22216   4.640   4.634   7.739
 7107SOL    HW122217   4.703   4.672   7.671
 7107SOL    HW222218   4.680   4.551   7.778
 7108SOL     OW22219   3.979   5.072   7.738
 7108SOL    HW122220   3.883   5.073   7.711
 7108SOL    HW222221   3.991   5.125   7.822
 7109SOL     OW22222   3.799   4.069   7.481
 7109SOL    HW122223   3.707   4.041   7.452
 7109SOL    HW222224   3.830   4.146   7.425
 7110SOL     OW22225   3.796   3.890   7.766
 7110SOL    HW122226   3.779   3.973   7.712
 7110SOL    HW222227   3.886   3.853   7.744
 7111SOL     OW22228   4.907   5.059   7.567
 7111SOL    HW122229   4.808   5.048   7.569
 7111SOL    HW222230   4.941   5.074   7.660
 7112SOL     OW22231   4.949   4.049   7.897
 7112SOL    HW122232   5.014   3.975   7.886
 7112SOL    HW222233   4.969   4.099   7.981
 7113SOL     OW22234   4.318   4.469   8.100
 7113SOL    HW122235   4.368   4.554   8.081
 7113SOL    HW222236   4.230   4.471   8.052
 7114SOL     OW22237   4.583   5.098   7.464
 7114SOL    HW122238   4.537   5.113   7.552
 7114SOL    HW222239   4.627   5.183   7.434
 7115SOL     OW22240   4.807   4.708   7.535
 7115SOL    HW122241   4.784   4.761   7.453
 7115SOL    HW222242   4.888   4.652   7.516
 7116SOL     OW22243   4.152   4.148   7.968
 7116SOL    HW122244   4.182   4.076   7.906
 7116SOL    HW222245   4.113   4.108   8.051
 7117SOL     OW22246   4.494   5.054   7.749
 7117SOL    HW122247   4.448   4.967   7.766
 7117SOL    HW222248   4.585   5.051   7.790
 7118SOL     OW22249   5.076   3.776   7.616
 7118SOL    HW122250   5.111   3.735   7.532
 7118SOL    HW222251   4.986   3.738   7.636
 7119SOL     OW22252   3.763   4.801   7.748
 7119SOL    HW122253   3.862   4.790   7.739
 7119SOL    HW222254   3.723   4.715   7.780
   5.30000   5.30000   8.08000
