2gCDOC_2PEG_l8
22254
    1LIG      O    1   2.821   2.899   8.076
    1LIG      C    2   2.801   2.882   0.136
    1LIG     C1    3   2.891   2.766   0.185
    1LIG     O1    4   2.824   2.693   0.285
    1LIG     C2    5   2.852   2.741   0.414
    1LIG     C3    6   2.755   2.857   0.451
    1LIG     O2    7   2.782   2.904   0.583
    1LIG     C4    8   2.728   2.816   0.682
    1LIG     C5    9   2.832   2.702   0.714
    1LIG     O3   10   2.815   2.646   0.840
    1LIG     C6   11   2.883   2.710   0.943
    1LIG     C7   12   2.803   2.836   0.982
    1LIG     O4   13   2.847   2.890   1.103
    1LIG     C8   14   2.780   2.833   1.211
    1LIG     C9   15   2.869   2.718   1.264
    1LIG     O5   16   2.812   2.667   1.379
    1LIG    C10   17   2.865   2.724   1.492
    1LIG    C11   18   2.778   2.846   1.529
    1LIG     O6   19   2.833   2.904   1.643
    1LIG    C12   20   2.779   2.843   1.756
    1LIG    C13   21   2.863   2.719   1.798
    1LIG     O7   22   2.808   2.666   1.915
    1LIG    C14   23   2.864   2.727   2.027
    1LIG    C15   24   2.771   2.846   2.069
    1LIG     O8   25   2.824   2.913   2.179
    1LIG    C16   26   2.767   2.866   2.298
    1LIG    C17   27   2.843   2.739   2.339
    1LIG     O9   28   2.774   2.678   2.442
    1LIG    C18   29   2.821   2.716   2.566
    1LIG    C19   30   2.749   2.841   2.617
    1LIG    O10   31   2.835   2.891   2.716
    1LIG    C20   32   2.803   2.830   2.839
    1LIG    C21   33   2.884   2.702   2.871
    1LIG    O11   34   2.824   2.645   2.985
    1LIG    C22   35   2.866   2.711   3.102
    1LIG    C23   36   2.765   2.824   3.145
    1LIG    O12   37   2.817   2.888   3.257
    1LIG    C24   38   2.756   2.845   3.375
    1LIG    C25   39   2.829   2.714   3.408
    1LIG    O13   40   2.783   2.656   3.526
    1LIG    C26   41   2.863   2.693   3.633
    1LIG    C27   42   2.804   2.824   3.684
    1LIG    O14   43   2.869   2.867   3.800
    1LIG    C28   44   2.801   2.822   3.913
    1LIG    C29   45   2.859   2.685   3.948
    1LIG    O15   46   2.803   2.640   4.064
    1LIG    C30   47   2.852   2.708   4.175
    1LIG    C31   48   2.746   2.812   4.220
    1LIG    O16   49   2.798   2.880   4.329
    1LIG    C32   50   2.757   2.827   4.452
    1LIG    C33   51   2.853   2.708   4.486
    1LIG    O17   52   2.808   2.638   4.599
    1LIG    C34   53   2.873   2.680   4.713
    1LIG    C35   54   2.810   2.815   4.749
    1LIG    O18   55   2.861   2.862   4.868
    1LIG    C36   56   2.789   2.809   4.973
    1LIG    C37   57   2.856   2.682   5.022
    1LIG    O19   58   2.810   2.658   5.150
    1LIG    C38   59   2.874   2.740   5.242
    1LIG    C39   60   2.778   2.856   5.283
    1LIG    O20   61   2.826   2.910   5.401
    1LIG    C40   62   2.769   2.839   5.508
    1LIG    C41   63   2.858   2.719   5.550
    1LIG    O21   64   2.812   2.666   5.670
    1LIG    C42   65   2.868   2.728   5.781
    1LIG    C43   66   2.774   2.846   5.822
    1LIG    O22   67   2.824   2.916   5.932
    1LIG    C44   68   2.765   2.869   6.048
    1LIG    C45   69   2.846   2.747   6.095
    1LIG    O23   70   2.774   2.687   6.197
    1LIG    C46   71   2.823   2.723   6.319
    1LIG    C47   72   2.752   2.850   6.367
    1LIG    O24   73   2.837   2.898   6.467
    1LIG    C48   74   2.801   2.835   6.587
    1LIG    C49   75   2.880   2.706   6.620
    1LIG    O25   76   2.826   2.663   6.742
    1LIG    C50   77   2.872   2.741   6.851
    1LIG    C51   78   2.769   2.855   6.891
    1LIG    O26   79   2.800   2.908   7.020
    1LIG    C52   80   2.735   2.834   7.122
    1LIG    C53   81   2.831   2.718   7.160
    1LIG    O27   82   2.797   2.654   7.280
    1LIG    C54   83   2.842   2.718   7.394
    1LIG    C55   84   2.730   2.814   7.440
    1LIG    O28   85   2.676   2.778   7.566
    1LIG    C56   86   2.747   2.832   7.676
    1LIG    C57   87   2.867   2.738   7.712
    1LIG    O29   88   2.836   2.651   7.820
    1LIG    C58   89   2.881   2.703   7.943
    1LIG    C59   90   2.767   2.787   8.007
    1LIG      H   91   2.695   2.857   0.155
    1LIG     H1   92   2.824   2.974   0.189
    1LIG     H2   93   2.987   2.805   0.220
    1LIG     H3   94   2.912   2.692   0.108
    1LIG     H4   95   2.957   2.773   0.423
    1LIG     H5   96   2.839   2.654   0.475
    1LIG     H6   97   2.650   2.826   0.443
    1LIG     H7   98   2.768   2.941   0.383
    1LIG     H8   99   2.633   2.776   0.647
    1LIG     H9  100   2.701   2.877   0.768
    1LIG    H10  101   2.934   2.738   0.703
    1LIG    H11  102   2.817   2.616   0.649
    1LIG    H12  103   2.986   2.735   0.916
    1LIG    H13  104   2.887   2.635   1.021
    1LIG    H14  105   2.695   2.813   0.985
    1LIG    H15  106   2.820   2.915   0.909
    1LIG    H16  107   2.678   2.798   1.187
    1LIG    H17  108   2.768   2.915   1.280
    1LIG    H18  109   2.972   2.752   1.281
    1LIG    H19  110   2.872   2.632   1.199
    1LIG    H20  111   2.971   2.749   1.482
    1LIG    H21  112   2.857   2.641   1.559
    1LIG    H22  113   2.672   2.820   1.542
    1LIG    H23  114   2.784   2.925   1.457
    1LIG    H24  115   2.673   2.817   1.745
    1LIG    H25  116   2.787   2.924   1.825
    1LIG    H26  117   2.968   2.747   1.808
    1LIG    H27  118   2.857   2.633   1.734
    1LIG    H28  119   2.966   2.761   2.011
    1LIG    H29  120   2.869   2.644   2.095
    1LIG    H30  121   2.668   2.812   2.085
    1LIG    H31  122   2.764   2.926   1.998
    1LIG    H32  123   2.659   2.845   2.285
    1LIG    H33  124   2.778   2.947   2.368
    1LIG    H34  125   2.949   2.758   2.361
    1LIG    H35  126   2.838   2.660   2.266
    1LIG    H36  127   2.929   2.734   2.562
    1LIG    H37  128   2.802   2.630   2.630
    1LIG    H38  129   2.649   2.817   2.653
    1LIG    H39  130   2.738   2.920   2.544
    1LIG    H40  131   2.695   2.811   2.849
    1LIG    H41  132   2.833   2.902   2.911
    1LIG    H42  133   2.988   2.728   2.889
    1LIG    H43  134   2.882   2.625   2.794
    1LIG    H44  135   2.968   2.751   3.092
    1LIG    H45  136   2.872   2.630   3.172
    1LIG    H46  137   2.668   2.789   3.170
    1LIG    H47  138   2.743   2.899   3.071
    1LIG    H48  139   2.648   2.830   3.365
    1LIG    H49  140   2.769   2.927   3.445
    1LIG    H50  141   2.938   2.727   3.407
    1LIG    H51  142   2.800   2.640   3.336
    1LIG    H52  143   2.968   2.707   3.606
    1LIG    H53  144   2.855   2.609   3.700
    1LIG    H54  145   2.696   2.812   3.697
    1LIG    H55  146   2.826   2.903   3.614
    1LIG    H56  147   2.692   2.818   3.899
    1LIG    H57  148   2.824   2.896   3.989
    1LIG    H58  149   2.967   2.696   3.957
    1LIG    H59  150   2.836   2.607   3.877
    1LIG    H60  151   2.948   2.757   4.156
    1LIG    H61  152   2.870   2.626   4.242
    1LIG    H62  153   2.651   2.770   4.247
    1LIG    H63  154   2.720   2.886   4.145
    1LIG    H64  155   2.652   2.798   4.449
    1LIG    H65  156   2.760   2.911   4.520
    1LIG    H66  157   2.957   2.741   4.496
    1LIG    H67  158   2.849   2.628   4.414
    1LIG    H68  159   2.980   2.693   4.697
    1LIG    H69  160   2.857   2.601   4.785
    1LIG    H70  161   2.701   2.809   4.749
    1LIG    H71  162   2.843   2.891   4.679
    1LIG    H72  163   2.682   2.797   4.953
    1LIG    H73  164   2.800   2.886   5.046
    1LIG    H74  165   2.964   2.699   5.023
    1LIG    H75  166   2.830   2.594   4.965
    1LIG    H76  167   2.971   2.778   5.209
    1LIG    H77  168   2.898   2.670   5.320
    1LIG    H78  169   2.673   2.823   5.291
    1LIG    H79  170   2.778   2.941   5.215
    1LIG    H80  171   2.666   2.808   5.490
    1LIG    H81  172   2.765   2.918   5.579
    1LIG    H82  173   2.963   2.748   5.555
    1LIG    H83  174   2.847   2.632   5.485
    1LIG    H84  175   2.971   2.762   5.764
    1LIG    H85  176   2.872   2.646   5.851
    1LIG    H86  177   2.671   2.813   5.834
    1LIG    H87  178   2.773   2.927   5.751
    1LIG    H88  179   2.659   2.843   6.034
    1LIG    H89  180   2.770   2.953   6.116
    1LIG    H90  181   2.949   2.775   6.122
    1LIG    H91  182   2.853   2.668   6.024
    1LIG    H92  183   2.931   2.739   6.317
    1LIG    H93  184   2.803   2.638   6.383
    1LIG    H94  185   2.650   2.828   6.400
    1LIG    H95  186   2.746   2.929   6.294
    1LIG    H96  187   2.694   2.814   6.594
    1LIG    H97  188   2.828   2.910   6.659
    1LIG    H98  189   2.987   2.726   6.629
    1LIG    H99  190   2.867   2.623   6.552
    1LIG   H100  191   2.972   2.781   6.832
    1LIG   H101  192   2.885   2.667   6.927
    1LIG   H102  193   2.666   2.817   6.886
    1LIG   H103  194   2.772   2.942   6.826
    1LIG   H104  195   2.639   2.799   7.087
    1LIG   H105  196   2.714   2.903   7.203
    1LIG   H106  197   2.936   2.752   7.160
    1LIG   H107  198   2.815   2.640   7.088
    1LIG   H108  199   2.936   2.771   7.374
    1LIG   H109  200   2.859   2.635   7.462
    1LIG   H110  201   2.648   2.809   7.368
    1LIG   H111  202   2.765   2.917   7.445
    1LIG   H112  203   2.674   2.839   7.756
    1LIG   H113  204   2.782   2.933   7.655
    1LIG   H114  205   2.955   2.799   7.734
    1LIG   H115  206   2.897   2.672   7.633
    1LIG   H116  207   2.972   2.764   7.930
    1LIG   H117  208   2.907   2.618   8.006
    1LIG   H118  209   2.692   2.822   7.938
    1LIG   H119  210   2.715   2.721   8.075
    2LIG      O  211   2.638   2.486   8.049
    2LIG      C  212   2.632   2.497   0.112
    2LIG     C1  213   2.497   2.440   0.162
    2LIG     O1  214   2.448   2.523   0.264
    2LIG     C2  215   2.472   2.466   0.389
    2LIG     C3  216   2.589   2.537   0.451
    2LIG     O2  217   2.604   2.477   0.576
    2LIG     C4  218   2.529   2.546   0.674
    2LIG     C5  219   2.407   2.467   0.725
    2LIG     O3  220   2.356   2.529   0.845
    2LIG     C6  221   2.424   2.486   0.963
    2LIG     C7  222   2.550   2.569   0.993
    2LIG     O4  223   2.628   2.500   1.085
    2LIG     C8  224   2.594   2.525   1.215
    2LIG     C9  225   2.512   2.409   1.266
    2LIG     O5  226   2.570   2.366   1.390
    2LIG    C10  227   2.506   2.431   1.500
    2LIG    C11  228   2.568   2.569   1.527
    2LIG     O6  229   2.494   2.634   1.629
    2LIG    C12  230   2.531   2.581   1.756
    2LIG    C13  231   2.428   2.474   1.796
    2LIG     O7  232   2.371   2.520   1.912
    2LIG    C14  233   2.431   2.464   2.024
    2LIG    C15  234   2.568   2.531   2.056
    2LIG     O8  235   2.620   2.475   2.173
    2LIG    C16  236   2.567   2.534   2.289
    2LIG    C17  237   2.431   2.471   2.333
    2LIG     O9  238   2.374   2.538   2.442
    2LIG    C18  239   2.409   2.476   2.560
    2LIG    C19  240   2.534   2.552   2.606
    2LIG    O10  241   2.607   2.480   2.703
    2LIG    C20  242   2.583   2.538   2.829
    2LIG    C21  243   2.446   2.484   2.869
    2LIG    O11  244   2.397   2.538   2.988
    2LIG    C22  245   2.467   2.488   3.097
    2LIG    C23  246   2.536   2.606   3.156
    2LIG    O12  247   2.473   2.643   3.278
    2LIG    C24  248   2.528   2.574   3.388
    2LIG    C25  249   2.452   2.444   3.412
    2LIG    O13  250   2.506   2.379   3.524
    2LIG    C26  251   2.458   2.428   3.649
    2LIG    C27  252   2.553   2.540   3.697
    2LIG    O14  253   2.562   2.540   3.837
    2LIG    C28  254   2.482   2.637   3.902
    2LIG    C29  255   2.352   2.567   3.952
    2LIG    O15  256   2.338   2.595   4.089
    2LIG    C30  257   2.412   2.497   4.161
    2LIG    C31  258   2.538   2.557   4.216
    2LIG    O16  259   2.590   2.475   4.320
    2LIG    C32  260   2.559   2.528   4.447
    2LIG    C33  261   2.425   2.471   4.493
    2LIG    O17  262   2.384   2.537   4.611
    2LIG    C34  263   2.436   2.472   4.726
    2LIG    C35  264   2.569   2.540   4.764
    2LIG    O18  265   2.592   2.531   4.903
    2LIG    C36  266   2.506   2.615   4.979
    2LIG    C37  267   2.381   2.536   5.025
    2LIG    O19  268   2.368   2.555   5.164
    2LIG    C38  269   2.453   2.462   5.231
    2LIG    C39  270   2.581   2.529   5.279
    2LIG    O20  271   2.620   2.468   5.399
    2LIG    C40  272   2.562   2.532   5.510
    2LIG    C41  273   2.429   2.462   5.556
    2LIG    O21  274   2.374   2.531   5.667
    2LIG    C42  275   2.424   2.483   5.790
    2LIG    C43  276   2.548   2.569   5.825
    2LIG    O22  277   2.639   2.500   5.908
    2LIG    C44  278   2.606   2.523   6.043
    2LIG    C45  279   2.494   2.428   6.083
    2LIG    O23  280   2.522   2.381   6.213
    2LIG    C46  281   2.445   2.450   6.311
    2LIG    C47  282   2.514   2.585   6.351
    2LIG    O24  283   2.457   2.640   6.472
    2LIG    C48  284   2.525   2.596   6.591
    2LIG    C49  285   2.454   2.468   6.642
    2LIG    O25  286   2.537   2.387   6.724
    2LIG    C50  287   2.511   2.410   6.861
    2LIG    C51  288   2.607   2.518   6.907
    2LIG    O26  289   2.633   2.497   7.044
    2LIG    C52  290   2.539   2.566   7.125
    2LIG    C53  291   2.419   2.478   7.158
    2LIG    O27  292   2.363   2.526   7.279
    2LIG    C54  293   2.417   2.456   7.393
    2LIG    C55  294   2.554   2.517   7.440
    2LIG    O28  295   2.610   2.452   7.554
    2LIG    C56  296   2.574   2.512   7.677
    2LIG    C57  297   2.439   2.452   7.718
    2LIG    O29  298   2.377   2.531   7.816
    2LIG    C58  299   2.415   2.488   7.944
    2LIG    C59  300   2.537   2.571   7.989
    2LIG      H  301   2.640   2.602   0.140
    2LIG     H1  302   2.717   2.446   0.159
    2LIG     H2  303   2.505   2.334   0.191
    2LIG     H3  304   2.417   2.443   0.090
    2LIG     H4  305   2.494   2.358   0.384
    2LIG     H5  306   2.383   2.481   0.449
    2LIG     H6  307   2.567   2.644   0.459
    2LIG     H7  308   2.680   2.522   0.393
    2LIG     H8  309   2.493   2.645   0.642
    2LIG     H9  310   2.605   2.562   0.745
    2LIG    H10  311   2.432   2.362   0.742
    2LIG    H11  312   2.330   2.474   0.649
    2LIG    H12  313   2.448   2.379   0.954
    2LIG    H13  314   2.358   2.500   1.047
    2LIG    H14  315   2.526   2.672   1.025
    2LIG    H15  316   2.619   2.577   0.915
    2LIG    H16  317   2.540   2.621   1.226
    2LIG    H17  318   2.687   2.528   1.268
    2LIG    H18  319   2.513   2.325   1.195
    2LIG    H19  320   2.410   2.443   1.278
    2LIG    H20  321   2.516   2.365   1.587
    2LIG    H21  322   2.400   2.446   1.480
    2LIG    H22  323   2.560   2.634   1.438
    2LIG    H23  324   2.671   2.558   1.556
    2LIG    H24  325   2.532   2.664   1.828
    2LIG    H25  326   2.631   2.536   1.755
    2LIG    H26  327   2.476   2.376   1.812
    2LIG    H27  328   2.348   2.462   1.724
    2LIG    H28  329   2.444   2.355   2.015
    2LIG    H29  330   2.356   2.483   2.095
    2LIG    H30  331   2.558   2.640   2.066
    2LIG    H31  332   2.640   2.509   1.977
    2LIG    H32  333   2.561   2.644   2.281
    2LIG    H33  334   2.643   2.506   2.361
    2LIG    H34  335   2.447   2.364   2.350
    2LIG    H35  336   2.348   2.481   2.266
    2LIG    H36  337   2.428   2.368   2.549
    2LIG    H37  338   2.322   2.487   2.625
    2LIG    H38  339   2.510   2.654   2.634
    2LIG    H39  340   2.604   2.560   2.527
    2LIG    H40  341   2.585   2.646   2.822
    2LIG    H41  342   2.661   2.503   2.898
    2LIG    H42  343   2.449   2.376   2.873
    2LIG    H43  344   2.371   2.514   2.797
    2LIG    H44  345   2.540   2.411   3.071
    2LIG    H45  346   2.390   2.449   3.164
    2LIG    H46  347   2.529   2.689   3.087
    2LIG    H47  348   2.643   2.580   3.173
    2LIG    H48  349   2.523   2.641   3.472
    2LIG    H49  350   2.632   2.544   3.370
    2LIG    H50  351   2.462   2.378   3.327
    2LIG    H51  352   2.346   2.468   3.425
    2LIG    H52  353   2.455   2.345   3.719
    2LIG    H53  354   2.357   2.468   3.638
    2LIG    H54  355   2.520   2.638   3.662
    2LIG    H55  356   2.654   2.518   3.659
    2LIG    H56  357   2.465   2.725   3.840
    2LIG    H57  358   2.544   2.670   3.986
    2LIG    H58  359   2.356   2.459   3.933
    2LIG    H59  360   2.260   2.595   3.905
    2LIG    H60  361   2.446   2.416   4.097
    2LIG    H61  362   2.347   2.462   4.239
    2LIG    H62  363   2.509   2.656   4.252
    2LIG    H63  364   2.611   2.560   4.137
    2LIG    H64  365   2.551   2.636   4.446
    2LIG    H65  366   2.638   2.497   4.515
    2LIG    H66  367   2.439   2.364   4.509
    2LIG    H67  368   2.346   2.487   4.421
    2LIG    H68  369   2.451   2.365   4.710
    2LIG    H69  370   2.358   2.482   4.800
    2LIG    H70  371   2.566   2.646   4.736
    2LIG    H71  372   2.651   2.491   4.712
    2LIG    H72  373   2.478   2.704   4.924
    2LIG    H73  374   2.564   2.648   5.066
    2LIG    H74  375   2.388   2.428   5.002
    2LIG    H75  376   2.292   2.570   4.974
    2LIG    H76  377   2.477   2.375   5.171
    2LIG    H77  378   2.397   2.424   5.314
    2LIG    H78  379   2.570   2.638   5.290
    2LIG    H79  380   2.660   2.511   5.208
    2LIG    H80  381   2.544   2.639   5.492
    2LIG    H81  382   2.640   2.519   5.582
    2LIG    H82  383   2.447   2.356   5.577
    2LIG    H83  384   2.350   2.469   5.482
    2LIG    H84  385   2.448   2.376   5.785
    2LIG    H85  386   2.348   2.497   5.867
    2LIG    H86  387   2.518   2.665   5.867
    2LIG    H87  388   2.604   2.597   5.739
    2LIG    H88  389   2.574   2.627   6.058
    2LIG    H89  390   2.693   2.501   6.103
    2LIG    H90  391   2.490   2.343   6.015
    2LIG    H91  392   2.399   2.482   6.080
    2LIG    H92  393   2.443   2.378   6.391
    2LIG    H93  394   2.342   2.467   6.278
    2LIG    H94  395   2.504   2.658   6.270
    2LIG    H95  396   2.620   2.565   6.366
    2LIG    H96  397   2.518   2.674   6.667
    2LIG    H97  398   2.631   2.578   6.571
    2LIG    H98  399   2.422   2.402   6.564
    2LIG    H99  400   2.362   2.498   6.693
    2LIG   H100  401   2.525   2.317   6.917
    2LIG   H101  402   2.409   2.446   6.877
    2LIG   H102  403   2.564   2.618   6.889
    2LIG   H103  404   2.700   2.508   6.852
    2LIG   H104  405   2.504   2.658   7.078
    2LIG   H105  406   2.590   2.598   7.213
    2LIG   H106  407   2.451   2.373   7.169
    2LIG   H107  408   2.345   2.487   7.079
    2LIG   H108  409   2.428   2.349   7.372
    2LIG   H109  410   2.337   2.467   7.464
    2LIG   H110  411   2.539   2.624   7.457
    2LIG   H111  412   2.630   2.501   7.365
    2LIG   H112  413   2.561   2.620   7.669
    2LIG   H113  414   2.651   2.490   7.752
    2LIG   H114  415   2.454   2.348   7.748
    2LIG   H115  416   2.369   2.452   7.638
    2LIG   H116  417   2.441   2.381   7.944
    2LIG   H117  418   2.330   2.503   8.010
    2LIG   H118  419   2.582   2.626   7.905
    2LIG   H119  420   2.502   2.646   8.060
    3MOL     C1  421   2.120   2.189   3.372
    3MOL     H1  422   2.095   2.084   3.357
    3MOL     O1  423   2.078   2.230   3.505
    3MOL     C2  424   2.097   2.369   3.538
    3MOL     H2  425   2.201   2.394   3.522
    3MOL     C3  426   2.072   2.387   3.690
    3MOL     H3  427   2.105   2.486   3.721
    3MOL     H4  428   2.131   2.312   3.744
    3MOL     O2  429   1.932   2.369   3.718
    3MOL     C4  430   1.898   2.386   3.857
    3MOL     C5  431   2.041   2.274   3.268
    3MOL     H5  432   1.937   2.241   3.275
    3MOL     O3  433   2.089   2.253   3.134
    3MOL     C6  434   2.054   2.126   3.075
    3MOL     C7  435   2.043   2.426   3.296
    3MOL     H6  436   2.143   2.465   3.272
    3MOL     O4  437   1.942   2.485   3.212
    3MOL     C8  438   1.985   2.598   3.132
    3MOL     C9  439   2.011   2.458   3.444
    3MOL     H7  440   1.904   2.438   3.461
    3MOL     O5  441   2.040   2.599   3.464
    3MOL    C10  442   1.952   2.670   3.554
    3MOL     H8  443   1.871   2.604   3.588
    3MOL     O6  444   2.028   2.715   3.668
    3MOL    C11  445   2.134   2.808   3.638
    3MOL     H9  446   2.204   2.763   3.567
    3MOL    C12  447   2.210   2.834   3.768
    3MOL    H10  448   2.306   2.882   3.751
    3MOL    H11  449   2.232   2.735   3.802
    3MOL     O7  450   2.132   2.903   3.868
    3MOL    C13  451   2.204   2.922   3.991
    3MOL    C14  452   1.889   2.794   3.484
    3MOL    H12  453   1.818   2.841   3.553
    3MOL     O8  454   1.820   2.755   3.364
    3MOL    C15  455   1.697   2.684   3.386
    3MOL    C16  456   1.992   2.903   3.451
    3MOL    H13  457   2.059   2.868   3.371
    3MOL     O9  458   1.921   3.024   3.414
    3MOL    C17  459   1.944   3.068   3.280
    3MOL    C18  460   2.076   2.936   3.576
    3MOL    H14  461   2.011   2.987   3.649
    3MOL    O10  462   2.185   3.020   3.535
    3MOL    C19  463   2.219   3.128   3.625
    3MOL    H15  464   2.144   3.138   3.704
    3MOL    O11  465   2.347   3.101   3.683
    3MOL    C20  466   2.457   3.083   3.591
    3MOL    H16  467   2.435   2.999   3.523
    3MOL    C21  468   2.580   3.049   3.673
    3MOL    H17  469   2.659   3.020   3.604
    3MOL    H18  470   2.557   2.964   3.739
    3MOL    O12  471   2.620   3.164   3.750
    3MOL    C22  472   2.724   3.140   3.844
    3MOL    C23  473   2.230   3.259   3.544
    3MOL    H19  474   2.253   3.341   3.614
    3MOL    O13  475   2.106   3.285   3.476
    3MOL    C24  476   1.997   3.325   3.561
    3MOL    C25  477   2.342   3.250   3.439
    3MOL    H20  478   2.317   3.172   3.365
    3MOL    O14  479   2.355   3.379   3.377
    3MOL    C26  480   2.306   3.386   3.242
    3MOL    C27  481   2.475   3.212   3.508
    3MOL    H21  482   2.505   3.293   3.576
    3MOL    O15  483   2.578   3.188   3.409
    3MOL    C28  484   2.652   3.308   3.372
    3MOL    H22  485   2.584   3.393   3.366
    3MOL    O16  486   2.752   3.333   3.471
    3MOL    C29  487   2.856   3.233   3.487
    3MOL    H23  488   2.812   3.138   3.520
    3MOL    C30  489   2.948   3.286   3.597
    3MOL    H24  490   3.011   3.204   3.634
    3MOL    H25  491   2.888   3.325   3.680
    3MOL    O17  492   3.030   3.391   3.542
    3MOL    C31  493   3.127   3.442   3.632
    3MOL    C32  494   2.719   3.293   3.235
    3MOL    H26  495   2.760   3.389   3.204
    3MOL    O18  496   2.616   3.252   3.142
    3MOL    C33  497   2.624   3.320   3.017
    3MOL    C34  498   2.834   3.193   3.234
    3MOL    H27  499   2.784   3.098   3.238
    3MOL    O19  500   2.913   3.211   3.115
    3MOL    C35  501   2.927   3.091   3.039
    3MOL    C36  502   2.930   3.210   3.353
    3MOL    H28  503   2.991   3.298   3.328
    3MOL    O20  504   3.014   3.091   3.362
    3MOL    C37  505   3.153   3.114   3.393
    3MOL    H29  506   3.175   3.222   3.385
    3MOL    O21  507   3.179   3.071   3.529
    3MOL    C38  508   3.160   2.931   3.555
    3MOL    H30  509   3.058   2.901   3.526
    3MOL    C39  510   3.176   2.908   3.707
    3MOL    H31  511   3.147   2.806   3.733
    3MOL    H32  512   3.109   2.976   3.761
    3MOL    O22  513   3.313   2.933   3.746
    3MOL    C40  514   3.343   2.895   3.881
    3MOL    C41  515   3.249   3.037   3.297
    3MOL    H33  516   3.351   3.075   3.311
    3MOL    O23  517   3.208   3.051   3.159
    3MOL    C42  518   3.233   3.176   3.097
    3MOL    C43  519   3.251   2.886   3.322
    3MOL    H34  520   3.157   2.843   3.283
    3MOL    O24  521   3.367   2.833   3.254
    3MOL    C44  522   3.337   2.756   3.137
    3MOL    C45  523   3.262   2.851   3.470
    3MOL    H35  524   3.364   2.875   3.503
    3MOL    O25  525   3.235   2.710   3.478
    3MOL    C46  526   3.324   2.634   3.562
    3MOL    H36  527   3.404   2.698   3.599
    3MOL    O26  528   3.247   2.586   3.673
    3MOL    C47  529   3.139   2.495   3.637
    3MOL    H37  530   3.073   2.541   3.564
    3MOL    C48  531   3.061   2.466   3.765
    3MOL    H38  532   2.966   2.416   3.742
    3MOL    H39  533   3.039   2.562   3.812
    3MOL    O27  534   3.143   2.388   3.852
    3MOL    C49  535   3.076   2.343   3.969
    3MOL    C50  536   3.385   2.513   3.484
    3MOL    H40  537   3.459   2.465   3.548
    3MOL    O28  538   3.447   2.557   3.362
    3MOL    C51  539   3.571   2.626   3.380
    3MOL    C52  540   3.282   2.407   3.449
    3MOL    H41  541   3.217   2.449   3.371
    3MOL    O29  542   3.350   2.288   3.403
    3MOL    C53  543   3.330   2.258   3.265
    3MOL    C54  544   3.199   2.369   3.572
    3MOL    H42  545   3.265   2.319   3.644
    3MOL    O30  546   3.092   2.284   3.528
    3MOL    C55  547   3.075   2.165   3.607
    3MOL    H43  548   3.160   2.151   3.676
    3MOL    O31  549   2.954   2.175   3.683
    3MOL    C56  550   2.830   2.191   3.609
    3MOL    H44  551   2.829   2.287   3.557
    3MOL    C57  552   2.717   2.186   3.713
    3MOL    H45  553   2.724   2.092   3.769
    3MOL    H46  554   2.619   2.190   3.664
    3MOL    O32  555   2.732   2.297   3.803
    3MOL    C58  556   2.650   2.286   3.920
    3MOL    C59  557   3.064   2.042   3.515
    3MOL    H47  558   3.054   1.955   3.581
    3MOL    O33  559   3.182   2.030   3.433
    3MOL    C60  560   3.301   1.981   3.499
    3MOL    C61  561   2.940   2.050   3.423
    3MOL    H48  562   2.951   2.135   3.354
    3MOL    O34  563   2.925   1.925   3.353
    3MOL    C62  564   2.984   1.922   3.222
    3MOL    C63  565   2.813   2.074   3.509
    3MOL    H49  566   2.792   1.983   3.567
    3MOL    O35  567   2.701   2.104   3.420
    3MOL    C64  568   2.622   1.987   3.387
    3MOL    H50  569   2.687   1.900   3.384
    3MOL    O36  570   2.519   1.968   3.486
    3MOL    C65  571   2.418   2.071   3.495
    3MOL    H51  572   2.467   2.165   3.519
    3MOL    C66  573   2.324   2.035   3.611
    3MOL    H52  574   2.290   1.931   3.599
    3MOL    H53  575   2.236   2.100   3.610
    3MOL    O37  576   2.394   2.053   3.735
    3MOL    C67  577   2.317   2.010   3.848
    3MOL    C68  578   2.556   2.000   3.247
    3MOL    H54  579   2.517   1.901   3.220
    3MOL    O38  580   2.656   2.043   3.152
    3MOL    C69  581   2.642   1.985   3.021
    3MOL    C70  582   2.441   2.102   3.242
    3MOL    H55  583   2.488   2.200   3.247
    3MOL    O39  584   2.368   2.082   3.120
    3MOL    C71  585   2.371   2.195   3.034
    3MOL    C72  586   2.343   2.087   3.360
    3MOL    H56  587   2.281   1.998   3.342
    3MOL    O40  588   2.263   2.208   3.360
    3MOL    H57  589   1.791   2.366   3.872
    3MOL    H58  590   1.955   2.316   3.919
    3MOL    H59  591   1.919   2.488   3.889
    3MOL    H60  592   2.374   2.027   3.940
    3MOL    H61  593   2.222   2.064   3.853
    3MOL    H62  594   2.296   1.902   3.840
    3MOL    H63  595   2.664   2.375   3.983
    3MOL    H64  596   2.544   2.279   3.892
    3MOL    H65  597   2.676   2.197   3.978
    3MOL    H66  598   3.146   2.282   4.027
    3MOL    H67  599   3.043   2.427   4.031
    3MOL    H68  600   2.988   2.281   3.943
    3MOL    H69  601   3.444   2.928   3.908
    3MOL    H70  602   3.272   2.940   3.951
    3MOL    H71  603   3.339   2.786   3.891
    3MOL    H72  604   3.196   3.508   3.578
    3MOL    H73  605   3.077   3.499   3.711
    3MOL    H74  606   3.184   3.359   3.676
    3MOL    H75  607   2.755   3.235   3.890
    3MOL    H76  608   2.689   3.072   3.923
    3MOL    H77  609   2.812   3.097   3.794
    3MOL    H78  610   2.144   2.981   4.062
    3MOL    H79  611   2.228   2.826   4.038
    3MOL    H80  612   2.297   2.977   3.973
    3MOL    H81  613   1.892   3.163   3.263
    3MOL    H82  614   2.051   3.083   3.262
    3MOL    H83  615   1.905   2.993   3.209
    3MOL    H84  616   1.645   2.669   3.290
    3MOL    H85  617   1.716   2.585   3.430
    3MOL    H86  618   1.631   2.741   3.452
    3MOL    H87  619   1.903   2.635   3.070
    3MOL    H88  620   2.018   2.680   3.196
    3MOL    H89  621   2.066   2.568   3.065
    3MOL    H90  622   2.079   2.126   2.968
    3MOL    H91  623   2.108   2.045   3.123
    3MOL    H92  624   1.946   2.108   3.083
    3MOL    H93  625   2.313   2.177   2.943
    3MOL    H94  626   2.324   2.280   3.085
    3MOL    H95  627   2.474   2.220   3.008
    3MOL    H96  628   2.713   2.031   2.952
    3MOL    H97  629   2.660   1.877   3.026
    3MOL    H98  630   2.541   2.000   2.981
    3MOL    H99  631   2.966   1.825   3.176
    3MOL   H100  632   2.940   2.001   3.159
    3MOL   H101  633   3.093   1.937   3.227
    3MOL   H102  634   3.378   1.959   3.425
    3MOL   H103  635   3.340   2.057   3.569
    3MOL   H104  636   3.279   1.889   3.555
    3MOL   H105  637   3.382   2.164   3.240
    3MOL   H106  638   3.223   2.246   3.243
    3MOL   H107  639   3.371   2.338   3.202
    3MOL   H108  640   3.621   2.638   3.284
    3MOL   H109  641   3.554   2.726   3.422
    3MOL   H110  642   3.635   2.569   3.448
    3MOL   H111  643   3.430   2.723   3.089
    3MOL   H112  644   3.277   2.668   3.163
    3MOL   H113  645   3.281   2.817   3.066
    3MOL   H114  646   3.206   3.168   2.992
    3MOL   H115  647   3.170   3.253   3.142
    3MOL   H116  648   3.339   3.204   3.106
    3MOL   H117  649   2.997   3.103   2.956
    3MOL   H118  650   2.963   3.009   3.102
    3MOL   H119  651   2.829   3.068   2.999
    3MOL   H120  652   2.543   3.289   2.951
    3MOL   H121  653   2.618   3.429   3.032
    3MOL   H122  654   2.720   3.297   2.970
    3MOL   H123  655   2.323   3.486   3.202
    3MOL   H124  656   2.359   3.315   3.179
    3MOL   H125  657   2.198   3.364   3.240
    3MOL   H126  658   1.913   3.359   3.500
    3MOL   H127  659   1.963   3.242   3.624
    3MOL   H128  660   2.028   3.408   3.626
    4MOL     C1  661   2.120   2.200   4.502
    4MOL     H1  662   2.092   2.095   4.485
    4MOL     O1  663   2.080   2.237   4.635
    4MOL     C2  664   2.099   2.375   4.672
    4MOL     H2  665   2.203   2.401   4.654
    4MOL     C3  666   2.072   2.389   4.823
    4MOL     H3  667   2.114   2.485   4.858
    4MOL     H4  668   2.122   2.308   4.877
    4MOL     O2  669   1.930   2.386   4.846
    4MOL     C4  670   1.893   2.413   4.981
    4MOL     C5  671   2.041   2.289   4.400
    4MOL     H5  672   1.937   2.255   4.400
    4MOL     O3  673   2.097   2.280   4.268
    4MOL     C6  674   2.059   2.166   4.192
    4MOL     C7  675   2.040   2.439   4.435
    4MOL     H6  676   2.138   2.482   4.412
    4MOL     O4  677   1.936   2.502   4.356
    4MOL     C8  678   1.984   2.591   4.253
    4MOL     C9  679   2.010   2.465   4.583
    4MOL     H7  680   1.904   2.442   4.601
    4MOL     O5  681   2.039   2.605   4.607
    4MOL    C10  682   1.949   2.675   4.695
    4MOL     H8  683   1.868   2.609   4.726
    4MOL     O6  684   2.023   2.717   4.812
    4MOL    C11  685   2.133   2.809   4.787
    4MOL     H9  686   2.204   2.762   4.718
    4MOL    C12  687   2.204   2.832   4.922
    4MOL    H10  688   2.306   2.869   4.905
    4MOL    H11  689   2.209   2.737   4.974
    4MOL     O7  690   2.130   2.923   5.006
    4MOL    C13  691   2.191   2.938   5.135
    4MOL    C14  692   1.890   2.800   4.624
    4MOL    H12  693   1.812   2.843   4.688
    4MOL     O8  694   1.837   2.764   4.496
    4MOL    C15  695   1.710   2.699   4.498
    4MOL    C16  696   1.996   2.908   4.598
    4MOL    H13  697   2.063   2.872   4.518
    4MOL     O9  698   1.927   3.029   4.559
    4MOL    C17  699   1.939   3.064   4.421
    4MOL    C18  700   2.078   2.939   4.723
    4MOL    H14  701   2.013   2.991   4.794
    4MOL    O10  702   2.188   3.023   4.680
    4MOL    C19  703   2.222   3.131   4.769
    4MOL    H15  704   2.146   3.139   4.848
    4MOL    O11  705   2.350   3.103   4.828
    4MOL    C20  706   2.460   3.086   4.735
    4MOL    H16  707   2.438   3.004   4.665
    4MOL    C21  708   2.585   3.049   4.815
    4MOL    H17  709   2.664   3.023   4.745
    4MOL    H18  710   2.562   2.962   4.877
    4MOL    O12  711   2.626   3.161   4.896
    4MOL    C22  712   2.725   3.128   4.994
    4MOL    C23  713   2.232   3.264   4.690
    4MOL    H19  714   2.251   3.345   4.761
    4MOL    O13  715   2.109   3.289   4.619
    4MOL    C24  716   1.996   3.321   4.701
    4MOL    C25  717   2.347   3.262   4.588
    4MOL    H20  718   2.323   3.192   4.507
    4MOL    O14  719   2.364   3.397   4.538
    4MOL    C26  720   2.315   3.417   4.404
    4MOL    C27  721   2.480   3.217   4.654
    4MOL    H21  722   2.514   3.295   4.722
    4MOL    O15  723   2.579   3.189   4.551
    4MOL    C28  724   2.653   3.305   4.508
    4MOL    H22  725   2.586   3.392   4.502
    4MOL    O16  726   2.757   3.330   4.605
    4MOL    C29  727   2.859   3.230   4.622
    4MOL    H23  728   2.815   3.135   4.654
    4MOL    C30  729   2.954   3.282   4.732
    4MOL    H24  730   3.024   3.204   4.764
    4MOL    H25  731   2.897   3.309   4.820
    4MOL    O17  732   3.025   3.396   4.681
    4MOL    C31  733   3.104   3.468   4.776
    4MOL    C32  734   2.715   3.285   4.368
    4MOL    H26  735   2.748   3.382   4.330
    4MOL    O18  736   2.611   3.230   4.283
    4MOL    C33  737   2.608   3.279   4.149
    4MOL    C34  738   2.833   3.187   4.368
    4MOL    H27  739   2.788   3.090   4.377
    4MOL    O19  740   2.908   3.204   4.245
    4MOL    C35  741   2.936   3.083   4.173
    4MOL    C36  742   2.932   3.206   4.486
    4MOL    H28  743   2.994   3.292   4.461
    4MOL    O20  744   3.011   3.085   4.498
    4MOL    C37  745   3.150   3.106   4.532
    4MOL    H29  746   3.174   3.212   4.524
    4MOL    O21  747   3.173   3.061   4.668
    4MOL    C38  748   3.149   2.920   4.692
    4MOL    H30  749   3.050   2.895   4.656
    4MOL    C39  750   3.154   2.895   4.845
    4MOL    H31  751   3.121   2.793   4.866
    4MOL    H32  752   3.086   2.965   4.895
    4MOL    O22  753   3.287   2.915   4.893
    4MOL    C40  754   3.305   2.885   5.033
    4MOL    C41  755   3.244   3.027   4.437
    4MOL    H33  756   3.346   3.062   4.454
    4MOL    O23  757   3.207   3.049   4.299
    4MOL    C42  758   3.235   3.179   4.247
    4MOL    C43  759   3.240   2.876   4.461
    4MOL    H34  760   3.145   2.836   4.423
    4MOL    O24  761   3.353   2.818   4.394
    4MOL    C44  762   3.320   2.758   4.269
    4MOL    C45  763   3.253   2.840   4.609
    4MOL    H35  764   3.354   2.866   4.641
    4MOL    O25  765   3.229   2.698   4.618
    4MOL    C46  766   3.319   2.625   4.704
    4MOL    H36  767   3.398   2.691   4.743
    4MOL    O26  768   3.242   2.575   4.814
    4MOL    C47  769   3.140   2.479   4.778
    4MOL    H37  770   3.074   2.520   4.702
    4MOL    C48  771   3.059   2.451   4.904
    4MOL    H38  772   2.959   2.416   4.878
    4MOL    H39  773   3.050   2.546   4.955
    4MOL    O27  774   3.127   2.362   4.992
    4MOL    C49  775   3.052   2.337   5.111
    4MOL    C50  776   3.386   2.505   4.631
    4MOL    H40  777   3.461   2.461   4.697
    4MOL    O28  778   3.447   2.548   4.509
    4MOL    C51  779   3.575   2.606   4.527
    4MOL    C52  780   3.288   2.393   4.595
    4MOL    H41  781   3.221   2.428   4.515
    4MOL    O29  782   3.364   2.277   4.557
    4MOL    C53  783   3.356   2.245   4.418
    4MOL    C54  784   3.203   2.354   4.716
    4MOL    H42  785   3.267   2.304   4.790
    4MOL    O30  786   3.099   2.269   4.666
    4MOL    C55  787   3.080   2.146   4.739
    4MOL    H43  788   3.164   2.128   4.807
    4MOL    O31  789   2.959   2.157   4.815
    4MOL    C56  790   2.838   2.179   4.738
    4MOL    H44  791   2.842   2.275   4.685
    4MOL    C57  792   2.724   2.180   4.838
    4MOL    H45  793   2.721   2.085   4.892
    4MOL    H46  794   2.628   2.197   4.789
    4MOL    O32  795   2.751   2.287   4.926
    4MOL    C58  796   2.671   2.280   5.042
    4MOL    C59  797   3.066   2.026   4.642
    4MOL    H47  798   3.055   1.936   4.702
    4MOL    O33  799   3.183   2.016   4.559
    4MOL    C60  800   3.303   1.972   4.627
    4MOL    C61  801   2.940   2.037   4.551
    4MOL    H48  802   2.952   2.121   4.481
    4MOL    O34  803   2.921   1.910   4.484
    4MOL    C62  804   2.968   1.907   4.349
    4MOL    C63  805   2.816   2.063   4.639
    4MOL    H49  806   2.794   1.973   4.698
    4MOL    O35  807   2.703   2.097   4.556
    4MOL    C64  808   2.621   1.983   4.525
    4MOL    H50  809   2.682   1.892   4.525
    4MOL    O36  810   2.515   1.972   4.623
    4MOL    C65  811   2.422   2.084   4.631
    4MOL    H51  812   2.476   2.176   4.651
    4MOL    C66  813   2.326   2.054   4.749
    4MOL    H52  814   2.293   1.950   4.743
    4MOL    H53  815   2.238   2.117   4.746
    4MOL    O37  816   2.393   2.074   4.874
    4MOL    C67  817   2.316   2.020   4.982
    4MOL    C68  818   2.560   1.998   4.384
    4MOL    H54  819   2.520   1.900   4.354
    4MOL    O38  820   2.663   2.042   4.293
    4MOL    C69  821   2.662   1.984   4.161
    4MOL    C70  822   2.447   2.103   4.379
    4MOL    H55  823   2.497   2.201   4.383
    4MOL    O39  824   2.377   2.080   4.256
    4MOL    C71  825   2.382   2.196   4.175
    4MOL    C72  826   2.347   2.095   4.496
    4MOL    H56  827   2.287   2.006   4.484
    4MOL    O40  828   2.264   2.215   4.490
    4MOL    H57  829   1.784   2.420   4.987
    4MOL    H58  830   1.930   2.333   5.046
    4MOL    H59  831   1.936   2.509   5.015
    4MOL    H60  832   2.363   2.044   5.077
    4MOL    H61  833   2.214   2.061   4.982
    4MOL    H62  834   2.310   1.911   4.973
    4MOL    H63  835   2.689   2.371   5.096
    4MOL    H64  836   2.565   2.272   5.015
    4MOL    H65  837   2.700   2.196   5.105
    4MOL    H66  838   3.113   2.278   5.180
    4MOL    H67  839   3.025   2.431   5.160
    4MOL    H68  840   2.960   2.282   5.087
    4MOL    H69  841   3.407   2.909   5.064
    4MOL    H70  842   3.236   2.944   5.095
    4MOL    H71  843   3.288   2.778   5.051
    4MOL    H72  844   3.161   3.547   4.725
    4MOL    H73  845   3.039   3.515   4.852
    4MOL    H74  846   3.174   3.402   4.827
    4MOL    H75  847   2.752   3.214   5.056
    4MOL    H76  848   2.684   3.052   5.062
    4MOL    H77  849   2.816   3.091   4.945
    4MOL    H78  850   2.125   2.996   5.201
    4MOL    H79  851   2.208   2.840   5.182
    4MOL    H80  852   2.287   2.990   5.125
    4MOL    H81  853   1.881   3.155   4.402
    4MOL    H82  854   2.044   3.083   4.397
    4MOL    H83  855   1.901   2.984   4.357
    4MOL    H84  856   1.673   2.691   4.395
    4MOL    H85  857   1.720   2.598   4.541
    4MOL    H86  858   1.639   2.757   4.558
    4MOL    H87  859   1.899   2.632   4.197
    4MOL    H88  860   2.040   2.674   4.299
    4MOL    H89  861   2.050   2.538   4.184
    4MOL    H90  862   2.072   2.189   4.085
    4MOL    H91  863   2.125   2.082   4.216
    4MOL    H92  864   1.955   2.138   4.211
    4MOL    H93  865   2.329   2.185   4.081
    4MOL    H94  866   2.334   2.275   4.232
    4MOL    H95  867   2.487   2.224   4.156
    4MOL    H96  868   2.748   2.019   4.104
    4MOL    H97  869   2.666   1.875   4.169
    4MOL    H98  870   2.571   2.012   4.107
    4MOL    H99  871   2.946   1.809   4.304
    4MOL   H100  872   2.917   1.983   4.290
    4MOL   H101  873   3.076   1.924   4.345
    4MOL   H102  874   3.380   1.949   4.553
    4MOL   H103  875   3.340   2.050   4.694
    4MOL   H104  876   3.283   1.881   4.685
    4MOL   H105  877   3.412   2.153   4.396
    4MOL   H106  878   3.251   2.230   4.388
    4MOL   H107  879   3.398   2.326   4.359
    4MOL   H108  880   3.627   2.610   4.431
    4MOL   H109  881   3.565   2.708   4.566
    4MOL   H110  882   3.636   2.547   4.597
    4MOL   H111  883   3.412   2.735   4.213
    4MOL   H112  884   3.262   2.667   4.286
    4MOL   H113  885   3.261   2.827   4.208
    4MOL   H114  886   3.214   3.182   4.140
    4MOL   H115  887   3.172   3.254   4.297
    4MOL   H116  888   3.340   3.205   4.260
    4MOL   H117  889   3.014   3.098   4.098
    4MOL   H118  890   2.974   3.005   4.241
    4MOL   H119  891   2.846   3.048   4.124
    4MOL   H120  892   2.531   3.226   4.091
    4MOL   H121  893   2.584   3.386   4.149
    4MOL   H122  894   2.705   3.264   4.101
    4MOL   H123  895   2.342   3.517   4.368
    4MOL   H124  896   2.359   3.343   4.335
    4MOL   H125  897   2.206   3.408   4.403
    4MOL   H126  898   1.911   3.351   4.639
    4MOL   H127  899   1.964   3.233   4.759
    4MOL   H128  900   2.020   3.403   4.770
    5SOL     OW  901   0.223   0.625   0.106
    5SOL    HW1  902   0.167   0.583   0.171
    5SOL    HW2  903   0.247   0.554   0.046
    6SOL     OW  904   0.232   0.281   0.990
    6SOL    HW1  905   0.251   0.243   1.076
    6SOL    HW2  906   0.152   0.237   0.962
    7SOL     OW  907   0.001   0.406   0.661
    7SOL    HW1  908   5.209   0.428   0.668
    7SOL    HW2  909   0.003   0.316   0.631
    8SOL     OW  910   0.574   1.284   1.181
    8SOL    HW1  911   0.491   1.292   1.134
    8SOL    HW2  912   0.590   1.372   1.216
    9SOL     OW  913   1.561   1.512   0.707
    9SOL    HW1  914   1.518   1.492   0.790
    9SOL    HW2  915   1.489   1.515   0.644
   10SOL     OW  916   1.131   0.698   0.702
   10SOL    HW1  917   1.180   0.779   0.687
   10SOL    HW2  918   1.084   0.713   0.784
   11SOL     OW  919   1.771   0.600   0.231
   11SOL    HW1  920   1.728   0.604   0.146
   11SOL    HW2  921   1.730   0.525   0.275
   12SOL     OW  922   0.756   1.141   1.039
   12SOL    HW1  923   0.689   1.175   1.098
   12SOL    HW2  924   0.791   1.219   0.995
   13SOL     OW  925   0.864   0.778   1.822
   13SOL    HW1  926   0.857   0.850   1.885
   13SOL    HW2  927   0.889   0.820   1.740
   14SOL     OW  928   0.684   1.002   0.650
   14SOL    HW1  929   0.750   0.990   0.718
   14SOL    HW2  930   0.617   1.056   0.691
   15SOL     OW  931   0.709   1.151   1.813
   15SOL    HW1  932   0.758   1.229   1.839
   15SOL    HW2  933   0.627   1.184   1.777
   16SOL     OW  934   0.358   1.405   1.060
   16SOL    HW1  935   0.271   1.402   1.021
   16SOL    HW2  936   0.406   1.468   1.006
   17SOL     OW  937   1.461   1.499   1.354
   17SOL    HW1  938   1.511   1.580   1.364
   17SOL    HW2  939   1.399   1.500   1.427
   18SOL     OW  940   0.449   0.399   1.491
   18SOL    HW1  941   0.528   0.346   1.485
   18SOL    HW2  942   0.377   0.336   1.497
   19SOL     OW  943   1.611   0.452   0.738
   19SOL    HW1  944   1.532   0.473   0.687
   19SOL    HW2  945   1.628   0.530   0.790
   20SOL     OW  946   0.217   1.730   0.466
   20SOL    HW1  947   0.259   1.785   0.531
   20SOL    HW2  948   0.287   1.707   0.404
   21SOL     OW  949   1.136   1.342   1.692
   21SOL    HW1  950   1.177   1.337   1.779
   21SOL    HW2  951   1.084   1.262   1.686
   22SOL     OW  952   0.221   1.448   0.533
   22SOL    HW1  953   0.201   1.542   0.540
   22SOL    HW2  954   0.159   1.406   0.593
   23SOL     OW  955   0.253   1.079   0.878
   23SOL    HW1  956   0.260   0.992   0.919
   23SOL    HW2  957   0.199   1.129   0.938
   24SOL     OW  958   0.614   1.790   1.433
   24SOL    HW1  959   0.530   1.773   1.475
   24SOL    HW2  960   0.635   1.881   1.455
   25SOL     OW  961   0.622   0.959   0.137
   25SOL    HW1  962   0.578   1.039   0.108
   25SOL    HW2  963   0.678   0.988   0.209
   26SOL     OW  964   1.587   0.135   1.456
   26SOL    HW1  965   1.608   0.220   1.417
   26SOL    HW2  966   1.584   0.152   1.551
   27SOL     OW  967   0.128   0.639   0.582
   27SOL    HW1  968   0.092   0.555   0.609
   27SOL    HW2  969   0.097   0.701   0.649
   28SOL     OW  970   1.845   1.759   0.331
   28SOL    HW1  971   1.909   1.729   0.396
   28SOL    HW2  972   1.870   1.849   0.314
   29SOL     OW  973   0.032   1.585   0.105
   29SOL    HW1  974   0.024   1.499   0.147
   29SOL    HW2  975   0.006   1.647   0.172
   30SOL     OW  976   1.689   0.919   0.644
   30SOL    HW1  977   1.771   0.876   0.621
   30SOL    HW2  978   1.666   0.970   0.566
   31SOL     OW  979   1.646   1.105   0.434
   31SOL    HW1  980   1.726   1.119   0.385
   31SOL    HW2  981   1.651   1.167   0.507
   32SOL     OW  982   0.130   0.749   1.587
   32SOL    HW1  983   0.224   0.763   1.588
   32SOL    HW2  984   0.092   0.836   1.600
   33SOL     OW  985   0.615   1.386   0.734
   33SOL    HW1  986   0.567   1.303   0.745
   33SOL    HW2  987   0.598   1.412   0.644
   34SOL     OW  988   1.289   1.238   1.424
   34SOL    HW1  989   1.321   1.171   1.363
   34SOL    HW2  990   1.346   1.232   1.500
   35SOL     OW  991   0.815   0.027   0.527
   35SOL    HW1  992   0.844   0.114   0.499
   35SOL    HW2  993   0.720   0.029   0.520
   36SOL     OW  994   0.176   0.946   1.278
   36SOL    HW1  995   0.267   0.917   1.268
   36SOL    HW2  996   0.134   0.923   1.195
   37SOL     OW  997   1.510   1.006   0.212
   37SOL    HW1  998   1.448   0.941   0.245
   37SOL    HW2  999   1.562   1.031   0.288
   38SOL     OW 1000   1.185   1.806   1.622
   38SOL    HW1 1001   1.196   1.865   1.547
   38SOL    HW2 1002   1.202   1.719   1.586
   39SOL     OW 1003   0.327   0.276   1.797
   39SOL    HW1 1004   0.387   0.337   1.840
   39SOL    HW2 1005   0.246   0.281   1.848
   40SOL     OW 1006   1.467   1.419   0.952
   40SOL    HW1 1007   1.398   1.435   1.017
   40SOL    HW2 1008   1.454   1.328   0.925
   41SOL     OW 1009   1.660   1.740   0.581
   41SOL    HW1 1010   1.638   1.712   0.492
   41SOL    HW2 1011   1.634   1.666   0.636
   42SOL     OW 1012   0.595   0.714   0.279
   42SOL    HW1 1013   0.617   0.794   0.231
   42SOL    HW2 1014   0.535   0.742   0.348
   43SOL     OW 1015   1.278   0.347   0.932
   43SOL    HW1 1016   1.187   0.318   0.943
   43SOL    HW2 1017   1.327   0.296   0.996
   44SOL     OW 1018   1.587   1.671   0.319
   44SOL    HW1 1019   1.677   1.701   0.312
   44SOL    HW2 1020   1.560   1.654   0.229
   45SOL     OW 1021   0.794   0.618   1.451
   45SOL    HW1 1022   0.766   0.596   1.540
   45SOL    HW2 1023   0.752   0.552   1.396
   46SOL     OW 1024   1.395   0.475   1.678
   46SOL    HW1 1025   1.397   0.520   1.763
   46SOL    HW2 1026   1.458   0.404   1.687
   47SOL     OW 1027   0.955   0.887   1.582
   47SOL    HW1 1028   1.009   0.817   1.547
   47SOL    HW2 1029   0.907   0.921   1.507
   48SOL     OW 1030   0.993   0.417   1.235
   48SOL    HW1 1031   0.908   0.438   1.274
   48SOL    HW2 1032   0.973   0.368   1.156
   49SOL     OW 1033   1.052   0.699   0.428
   49SOL    HW1 1034   1.067   0.691   0.522
   49SOL    HW2 1035   0.970   0.653   0.413
   50SOL     OW 1036   0.068   0.790   0.816
   50SOL    HW1 1037   0.151   0.794   0.863
   50SOL    HW2 1038   0.066   0.870   0.765
   51SOL     OW 1039   0.130   1.883   1.584
   51SOL    HW1 1040   0.133   1.853   1.675
   51SOL    HW2 1041   0.059   1.833   1.545
   52SOL     OW 1042   0.886   0.359   0.202
   52SOL    HW1 1043   0.930   0.406   0.131
   52SOL    HW2 1044   0.868   0.272   0.166
   53SOL     OW 1045   1.708   0.574   1.828
   53SOL    HW1 1046   1.671   0.648   1.780
   53SOL    HW2 1047   1.737   0.514   1.760
   54SOL     OW 1048   1.376   1.142   0.542
   54SOL    HW1 1049   1.454   1.128   0.488
   54SOL    HW2 1050   1.323   1.204   0.492
   55SOL     OW 1051   0.537   0.200   0.884
   55SOL    HW1 1052   0.554   0.220   0.977
   55SOL    HW2 1053   0.549   0.284   0.839
   56SOL     OW 1054   1.005   1.445   0.473
   56SOL    HW1 1055   0.967   1.517   0.423
   56SOL    HW2 1056   0.986   1.466   0.564
   57SOL     OW 1057   0.357   1.802   0.868
   57SOL    HW1 1058   0.398   1.716   0.882
   57SOL    HW2 1059   0.423   1.864   0.899
   58SOL     OW 1060   1.799   1.058   0.868
   58SOL    HW1 1061   1.745   1.038   0.792
   58SOL    HW2 1062   1.737   1.063   0.941
   59SOL     OW 1063   1.228   1.539   1.513
   59SOL    HW1 1064   1.214   1.466   1.573
   59SOL    HW2 1065   1.164   1.525   1.443
   60SOL     OW 1066   0.327   0.948   0.248
   60SOL    HW1 1067   0.408   0.967   0.200
   60SOL    HW2 1068   0.319   0.853   0.246
   61SOL     OW 1069   1.478   0.743   0.726
   61SOL    HW1 1070   1.469   0.699   0.811
   61SOL    HW2 1071   1.555   0.798   0.736
   62SOL     OW 1072   0.465   1.263   1.737
   62SOL    HW1 1073   0.438   1.270   1.646
   62SOL    HW2 1074   0.383   1.265   1.787
   63SOL     OW 1075   1.108   1.781   0.224
   63SOL    HW1 1076   1.052   1.741   0.290
   63SOL    HW2 1077   1.128   1.710   0.163
   64SOL     OW 1078   0.197   0.279   1.493
   64SOL    HW1 1079   0.158   0.366   1.488
   64SOL    HW2 1080   0.206   0.262   1.586
   65SOL     OW 1081   1.634   1.373   0.082
   65SOL    HW1 1082   1.592   1.459   0.082
   65SOL    HW2 1083   1.562   1.312   0.064
   66SOL     OW 1084   0.471   1.734   0.325
   66SOL    HW1 1085   0.513   1.794   0.386
   66SOL    HW2 1086   0.540   1.708   0.265
   67SOL     OW 1087   1.415   0.100   0.446
   67SOL    HW1 1088   1.406   0.079   0.353
   67SOL    HW2 1089   1.506   0.127   0.456
   68SOL     OW 1090   0.277   1.801   1.213
   68SOL    HW1 1091   0.306   1.724   1.262
   68SOL    HW2 1092   0.225   1.765   1.141
   69SOL     OW 1093   0.938   1.699   0.899
   69SOL    HW1 1094   1.016   1.646   0.920
   69SOL    HW2 1095   0.894   1.649   0.830
   70SOL     OW 1096   0.380   0.698   0.475
   70SOL    HW1 1097   0.413   0.609   0.485
   70SOL    HW2 1098   0.289   0.694   0.503
   71SOL     OW 1099   1.539   0.228   1.723
   71SOL    HW1 1100   1.546   0.245   1.817
   71SOL    HW2 1101   1.464   0.169   1.716
   72SOL     OW 1102   0.625   0.138   0.122
   72SOL    HW1 1103   0.715   0.109   0.134
   72SOL    HW2 1104   0.597   0.097   0.040
   73SOL     OW 1105   0.782   0.313   1.766
   73SOL    HW1 1106   0.840   0.237   1.767
   73SOL    HW2 1107   0.734   0.307   1.849
   74SOL     OW 1108   0.877   1.522   1.193
   74SOL    HW1 1109   0.861   1.485   1.106
   74SOL    HW2 1110   0.947   1.467   1.230
   75SOL     OW 1111   1.341   0.589   1.432
   75SOL    HW1 1112   1.371   0.558   1.517
   75SOL    HW2 1113   1.377   0.677   1.425
   76SOL     OW 1114   0.815   1.394   0.939
   76SOL    HW1 1115   0.899   1.384   0.895
   76SOL    HW2 1116   0.751   1.396   0.868
   77SOL     OW 1117   0.927   0.510   0.903
   77SOL    HW1 1118   0.904   0.502   0.810
   77SOL    HW2 1119   0.958   0.423   0.927
   78SOL     OW 1120   0.549   0.058   0.508
   78SOL    HW1 1121   0.469   0.058   0.560
   78SOL    HW2 1122   0.536   0.129   0.444
   79SOL     OW 1123   1.433   1.199   0.036
   79SOL    HW1 1124   1.458   1.125   0.092
   79SOL    HW2 1125   1.345   1.223   0.065
   80SOL     OW 1126   0.317   0.072   0.198
   80SOL    HW1 1127   0.378   0.141   0.172
   80SOL    HW2 1128   0.367   5.291   0.192
   81SOL     OW 1129   0.945   0.258   0.454
   81SOL    HW1 1130   0.918   0.303   0.375
   81SOL    HW2 1131   1.037   0.280   0.464
   82SOL     OW 1132   1.080   0.681   1.460
   82SOL    HW1 1133   1.012   0.615   1.464
   82SOL    HW2 1134   1.162   0.631   1.452
   83SOL     OW 1135   1.224   1.569   0.794
   83SOL    HW1 1136   1.239   1.637   0.728
   83SOL    HW2 1137   1.292   1.584   0.860
   84SOL     OW 1138   0.468   1.151   0.732
   84SOL    HW1 1139   0.399   1.131   0.795
   84SOL    HW2 1140   0.427   1.134   0.647
   85SOL     OW 1141   1.268   1.794   0.607
   85SOL    HW1 1142   1.317   1.857   0.554
   85SOL    HW2 1143   1.201   1.846   0.651
   86SOL     OW 1144   1.030   0.529   0.031
   86SOL    HW1 1145   0.991   0.611   0.002
   86SOL    HW2 1146   1.093   0.555   0.098
   87SOL     OW 1147   0.098   0.531   1.412
   87SOL    HW1 1148   0.179   0.550   1.363
   87SOL    HW2 1149   0.078   0.612   1.457
   88SOL     OW 1150   0.560   0.240   1.159
   88SOL    HW1 1151   0.591   0.153   1.184
   88SOL    HW2 1152   0.467   0.240   1.182
   89SOL     OW 1153   0.868   0.461   0.639
   89SOL    HW1 1154   0.824   0.514   0.573
   89SOL    HW2 1155   0.889   0.379   0.594
   90SOL     OW 1156   0.978   0.061   0.762
   90SOL    HW1 1157   0.914   0.056   0.691
   90SOL    HW2 1158   0.986   5.271   0.793
   91SOL     OW 1159   1.437   1.163   0.857
   91SOL    HW1 1160   1.368   1.097   0.856
   91SOL    HW2 1161   1.460   1.174   0.765
   92SOL     OW 1162   1.467   0.606   0.978
   92SOL    HW1 1163   1.417   0.524   0.981
   92SOL    HW2 1164   1.527   0.600   1.052
   93SOL     OW 1165   1.848   0.815   0.387
   93SOL    HW1 1166   1.900   0.762   0.448
   93SOL    HW2 1167   1.817   0.753   0.321
   94SOL     OW 1168   0.483   1.440   0.173
   94SOL    HW1 1169   0.410   1.401   0.221
   94SOL    HW2 1170   0.487   1.391   0.091
   95SOL     OW 1171   1.671   1.265   0.647
   95SOL    HW1 1172   1.765   1.269   0.660
   95SOL    HW2 1173   1.640   1.354   0.668
   96SOL     OW 1174   1.399   0.578   0.087
   96SOL    HW1 1175   1.336   0.559   0.157
   96SOL    HW2 1176   1.454   0.500   0.083
   97SOL     OW 1177   0.523   0.268   0.328
   97SOL    HW1 1178   0.565   0.213   0.263
   97SOL    HW2 1179   0.507   0.351   0.282
   98SOL     OW 1180   1.752   1.239   1.573
   98SOL    HW1 1181   1.840   1.200   1.570
   98SOL    HW2 1182   1.768   1.329   1.602
   99SOL     OW 1183   1.059   1.353   1.334
   99SOL    HW1 1184   0.984   1.322   1.385
   99SOL    HW2 1185   1.135   1.312   1.375
  100SOL     OW 1186   1.608   1.625   1.654
  100SOL    HW1 1187   1.602   1.659   1.564
  100SOL    HW2 1188   1.690   1.578   1.656
  101SOL     OW 1189   1.129   1.203   1.105
  101SOL    HW1 1190   1.070   1.241   1.170
  101SOL    HW2 1191   1.096   1.235   1.021
  102SOL     OW 1192   1.629   1.098   1.077
  102SOL    HW1 1193   1.624   1.160   1.150
  102SOL    HW2 1194   1.549   1.115   1.026
  103SOL     OW 1195   0.905   0.107   1.390
  103SOL    HW1 1196   0.936   0.073   1.306
  103SOL    HW2 1197   0.982   0.149   1.428
  104SOL     OW 1198   0.984   1.115   1.722
  104SOL    HW1 1199   0.892   1.131   1.743
  104SOL    HW2 1200   0.983   1.037   1.667
  105SOL     OW 1201   0.714   1.062   0.381
  105SOL    HW1 1202   0.698   1.045   0.474
  105SOL    HW2 1203   0.792   1.010   0.360
  106SOL     OW 1204   0.420   0.820   1.252
  106SOL    HW1 1205   0.490   0.826   1.318
  106SOL    HW2 1206   0.386   0.731   1.262
  107SOL     OW 1207   1.267   0.379   1.273
  107SOL    HW1 1208   1.300   0.456   1.319
  107SOL    HW2 1209   1.177   0.401   1.250
  108SOL     OW 1210   0.101   1.624   1.367
  108SOL    HW1 1211   0.079   1.631   1.274
  108SOL    HW2 1212   0.187   1.581   1.367
  109SOL     OW 1213   0.345   1.108   0.488
  109SOL    HW1 1214   0.345   1.187   0.434
  109SOL    HW2 1215   0.361   1.037   0.426
  110SOL     OW 1216   0.556   0.537   0.860
  110SOL    HW1 1217   0.571   0.595   0.786
  110SOL    HW2 1218   0.621   0.564   0.925
  111SOL     OW 1219   1.247   1.347   0.394
  111SOL    HW1 1220   1.303   1.420   0.422
  111SOL    HW2 1221   1.160   1.370   0.425
  112SOL     OW 1222   1.281   1.457   1.147
  112SOL    HW1 1223   1.336   1.460   1.225
  112SOL    HW2 1224   1.225   1.380   1.159
  113SOL     OW 1225   1.582   0.625   0.481
  113SOL    HW1 1226   1.533   0.675   0.546
  113SOL    HW2 1227   1.618   0.692   0.422
  114SOL     OW 1228   0.352   1.519   1.311
  114SOL    HW1 1229   0.341   1.476   1.226
  114SOL    HW2 1230   0.445   1.537   1.317
  115SOL     OW 1231   0.414   0.741   1.602
  115SOL    HW1 1232   0.473   0.789   1.544
  115SOL    HW2 1233   0.460   0.658   1.618
  116SOL     OW 1234   1.601   0.778   1.681
  116SOL    HW1 1235   1.515   0.820   1.675
  116SOL    HW2 1236   1.653   0.821   1.613
  117SOL     OW 1237   1.044   0.117   1.783
  117SOL    HW1 1238   1.070   0.196   1.736
  117SOL    HW2 1239   1.050   0.047   1.718
  118SOL     OW 1240   0.483   0.059   1.738
  118SOL    HW1 1241   0.427   5.291   1.700
  118SOL    HW2 1242   0.424   0.132   1.755
  119SOL     OW 1243   0.586   0.873   1.032
  119SOL    HW1 1244   0.616   0.964   1.031
  119SOL    HW2 1245   0.529   0.869   1.109
  120SOL     OW 1246   1.358   0.859   1.030
  120SOL    HW1 1247   1.275   0.850   0.983
  120SOL    HW2 1248   1.398   0.772   1.024
  121SOL     OW 1249   1.203   0.527   0.270
  121SOL    HW1 1250   1.211   0.448   0.322
  121SOL    HW2 1251   1.161   0.590   0.328
  122SOL     OW 1252   0.304   0.205   1.245
  122SOL    HW1 1253   0.263   0.236   1.326
  122SOL    HW2 1254   0.298   0.110   1.250
  123SOL     OW 1255   0.069   1.319   1.281
  123SOL    HW1 1256   0.091   1.259   1.352
  123SOL    HW2 1257   5.299   1.374   1.316
  124SOL     OW 1258   0.727   0.632   1.061
  124SOL    HW1 1259   0.800   0.615   1.001
  124SOL    HW2 1260   0.698   0.721   1.038
  125SOL     OW 1261   1.734   0.959   1.852
  125SOL    HW1 1262   1.688   0.898   1.795
  125SOL    HW2 1263   1.675   0.973   1.926
  126SOL     OW 1264   0.318   0.066   0.654
  126SOL    HW1 1265   0.300   0.160   0.662
  126SOL    HW2 1266   0.320   0.035   0.744
  127SOL     OW 1267   1.621   0.378   0.368
  127SOL    HW1 1268   1.648   0.312   0.431
  127SOL    HW2 1269   1.595   0.453   0.421
  128SOL     OW 1270   1.028   0.759   0.961
  128SOL    HW1 1271   1.025   0.777   1.055
  128SOL    HW2 1272   1.001   0.668   0.952
  129SOL     OW 1273   0.982   1.566   1.717
  129SOL    HW1 1274   0.967   1.610   1.633
  129SOL    HW2 1275   1.026   1.484   1.693
  130SOL     OW 1276   1.855   1.506   1.605
  130SOL    HW1 1277   1.873   1.532   1.515
  130SOL    HW2 1278   1.936   1.524   1.653
  131SOL     OW 1279   0.354   0.917   1.807
  131SOL    HW1 1280   0.434   0.937   1.853
  131SOL    HW2 1281   0.380   0.853   1.741
  132SOL     OW 1282   1.521   0.302   0.126
  132SOL    HW1 1283   1.484   0.215   0.141
  132SOL    HW2 1284   1.561   0.325   0.210
  133SOL     OW 1285   1.295   0.824   0.021
  133SOL    HW1 1286   1.333   0.738   0.039
  133SOL    HW2 1287   1.355   0.865   8.039
  134SOL     OW 1288   1.066   1.335   0.854
  134SOL    HW1 1289   1.069   1.263   0.791
  134SOL    HW2 1290   1.127   1.400   0.819
  135SOL     OW 1291   0.314   0.810   0.949
  135SOL    HW1 1292   0.408   0.828   0.945
  135SOL    HW2 1293   0.309   0.719   0.981
  136SOL     OW 1294   0.336   0.526   1.015
  136SOL    HW1 1295   0.299   0.440   0.999
  136SOL    HW2 1296   0.411   0.531   0.956
  137SOL     OW 1297   1.135   0.378   1.688
  137SOL    HW1 1298   1.088   0.432   1.751
  137SOL    HW2 1299   1.223   0.417   1.684
  138SOL     OW 1300   1.134   0.223   1.466
  138SOL    HW1 1301   1.138   0.282   1.541
  138SOL    HW2 1302   1.189   0.264   1.400
  139SOL     OW 1303   0.009   1.329   0.202
  139SOL    HW1 1304   5.234   1.317   0.143
  139SOL    HW2 1305   0.015   1.247   0.251
  140SOL     OW 1306   0.093   1.782   0.948
  140SOL    HW1 1307   0.059   1.710   0.895
  140SOL    HW2 1308   0.181   1.798   0.914
  141SOL     OW 1309   0.505   1.573   0.907
  141SOL    HW1 1310   0.572   1.638   0.928
  141SOL    HW2 1311   0.548   1.512   0.848
  142SOL     OW 1312   0.984   0.793   1.227
  142SOL    HW1 1313   1.039   0.769   1.301
  142SOL    HW2 1314   0.898   0.755   1.247
  143SOL     OW 1315   0.036   0.567   1.120
  143SOL    HW1 1316   0.117   0.534   1.080
  143SOL    HW2 1317   0.038   0.533   1.209
  144SOL     OW 1318   0.168   0.515   1.715
  144SOL    HW1 1319   0.251   0.495   1.673
  144SOL    HW2 1320   0.137   0.594   1.671
  145SOL     OW 1321   1.377   0.939   1.659
  145SOL    HW1 1322   1.398   1.032   1.657
  145SOL    HW2 1323   1.374   0.913   1.566
  146SOL     OW 1324   0.818   0.571   0.366
  146SOL    HW1 1325   0.828   0.499   0.304
  146SOL    HW2 1326   0.741   0.618   0.335
  147SOL     OW 1327   1.642   0.602   1.186
  147SOL    HW1 1328   1.631   0.542   1.260
  147SOL    HW2 1329   1.729   0.581   1.152
  148SOL     OW 1330   0.257   1.556   1.735
  148SOL    HW1 1331   0.234   1.619   1.803
  148SOL    HW2 1332   0.249   1.470   1.777
  149SOL     OW 1333   0.697   0.453   1.262
  149SOL    HW1 1334   0.648   0.379   1.227
  149SOL    HW2 1335   0.697   0.517   1.190
  150SOL     OW 1336   0.929   1.679   1.467
  150SOL    HW1 1337   0.902   1.645   1.382
  150SOL    HW2 1338   0.924   1.774   1.458
  151SOL     OW 1339   0.469   0.491   0.176
  151SOL    HW1 1340   0.536   0.556   0.195
  151SOL    HW2 1341   0.386   0.534   0.195
  152SOL     OW 1342   0.148   1.137   1.471
  152SOL    HW1 1343   0.146   1.089   1.553
  152SOL    HW2 1344   0.160   1.070   1.404
  153SOL     OW 1345   1.326   1.047   1.223
  153SOL    HW1 1346   1.349   0.984   1.155
  153SOL    HW2 1347   1.256   1.099   1.184
  154SOL     OW 1348   1.306   0.849   0.308
  154SOL    HW1 1349   1.229   0.819   0.357
  154SOL    HW2 1350   1.282   0.837   0.216
  155SOL     OW 1351   1.771   1.744   1.150
  155SOL    HW1 1352   1.832   1.770   1.080
  155SOL    HW2 1353   1.747   1.654   1.129
  156SOL     OW 1354   1.241   1.733   1.113
  156SOL    HW1 1355   1.323   1.753   1.068
  156SOL    HW2 1356   1.247   1.639   1.131
  157SOL     OW 1357   0.083   1.217   1.027
  157SOL    HW1 1358   0.069   1.243   1.119
  157SOL    HW2 1359   5.294   1.206   0.992
  158SOL     OW 1360   0.678   1.666   1.729
  158SOL    HW1 1361   0.622   1.744   1.724
  158SOL    HW2 1362   0.742   1.677   1.659
  159SOL     OW 1363   0.893   0.086   0.139
  159SOL    HW1 1364   0.943   0.077   0.057
  159SOL    HW2 1365   0.911   0.005   0.187
  160SOL     OW 1366   1.713   0.149   0.504
  160SOL    HW1 1367   1.787   0.127   0.448
  160SOL    HW2 1368   1.705   0.074   0.563
  161SOL     OW 1369   1.390   1.568   0.486
  161SOL    HW1 1370   1.453   1.601   0.421
  161SOL    HW2 1371   1.342   1.646   0.515
  162SOL     OW 1372   0.145   1.798   1.842
  162SOL    HW1 1373   0.090   1.735   1.889
  162SOL    HW2 1374   0.191   1.846   1.911
  163SOL     OW 1375   1.277   0.926   0.671
  163SOL    HW1 1376   1.351   0.865   0.678
  163SOL    HW2 1377   1.310   0.998   0.619
  164SOL     OW 1378   0.815   1.273   1.430
  164SOL    HW1 1379   0.786   1.313   1.512
  164SOL    HW2 1380   0.745   1.294   1.368
  165SOL     OW 1381   0.678   1.620   0.156
  165SOL    HW1 1382   0.681   1.627   0.060
  165SOL    HW2 1383   0.617   1.548   0.171
  166SOL     OW 1384   1.627   1.727   1.391
  166SOL    HW1 1385   1.676   1.734   1.310
  166SOL    HW2 1386   1.613   1.817   1.419
  167SOL     OW 1387   1.846   0.157   0.957
  167SOL    HW1 1388   1.845   0.062   0.944
  167SOL    HW2 1389   1.759   0.185   0.929
  168SOL     OW 1390   0.271   0.329   0.719
  168SOL    HW1 1391   0.184   0.366   0.702
  168SOL    HW2 1392   0.272   0.313   0.813
  169SOL     OW 1393   1.157   1.581   0.051
  169SOL    HW1 1394   1.173   1.489   0.071
  169SOL    HW2 1395   1.167   1.588   8.036
  170SOL     OW 1396   0.824   1.006   1.372
  170SOL    HW1 1397   0.868   1.001   1.287
  170SOL    HW2 1398   0.824   1.099   1.394
  171SOL     OW 1399   0.918   0.913   0.297
  171SOL    HW1 1400   0.972   0.938   0.222
  171SOL    HW2 1401   0.965   0.842   0.339
  172SOL     OW 1402   1.510   1.624   0.061
  172SOL    HW1 1403   1.415   1.625   0.050
  172SOL    HW2 1404   1.544   1.625   8.051
  173SOL     OW 1405   0.368   1.304   1.493
  173SOL    HW1 1406   0.359   1.378   1.434
  173SOL    HW2 1407   0.292   1.249   1.473
  174SOL     OW 1408   1.611   1.283   1.281
  174SOL    HW1 1409   1.670   1.272   1.355
  174SOL    HW2 1410   1.550   1.352   1.308
  175SOL     OW 1411   1.051   1.107   0.706
  175SOL    HW1 1412   0.981   1.055   0.746
  175SOL    HW2 1413   1.114   1.042   0.674
  176SOL     OW 1414   1.019   0.243   0.968
  176SOL    HW1 1415   0.999   0.197   0.886
  176SOL    HW2 1416   1.012   0.175   1.036
  177SOL     OW 1417   0.602   1.487   0.479
  177SOL    HW1 1418   0.645   1.438   0.409
  177SOL    HW2 1419   0.535   1.538   0.435
  178SOL     OW 1420   1.724   0.387   1.378
  178SOL    HW1 1421   1.794   0.452   1.377
  178SOL    HW2 1422   1.756   0.317   1.320
  179SOL     OW 1423   0.269   1.325   0.299
  179SOL    HW1 1424   0.183   1.336   0.258
  179SOL    HW2 1425   0.261   1.372   0.383
  180SOL     OW 1426   0.116   1.016   1.718
  180SOL    HW1 1427   0.044   0.982   1.771
  180SOL    HW2 1428   0.195   0.985   1.761
  181SOL     OW 1429   0.674   0.214   1.489
  181SOL    HW1 1430   0.757   0.197   1.445
  181SOL    HW2 1431   0.698   0.260   1.570
  182SOL     OW 1432   0.087   0.354   0.004
  182SOL    HW1 1433   0.003   0.320   0.036
  182SOL    HW2 1434   0.065   0.441   8.049
  183SOL     OW 1435   1.430   0.858   1.400
  183SOL    HW1 1436   1.381   0.919   1.345
  183SOL    HW2 1437   1.519   0.861   1.366
  184SOL     OW 1438   0.079   0.141   0.290
  184SOL    HW1 1439   0.078   0.236   0.280
  184SOL    HW2 1440   0.168   0.116   0.265
  185SOL     OW 1441   1.184   1.318   0.122
  185SOL    HW1 1442   1.089   1.307   0.121
  185SOL    HW2 1443   1.208   1.320   0.214
  186SOL     OW 1444   0.619   0.831   1.435
  186SOL    HW1 1445   0.675   0.907   1.419
  186SOL    HW2 1446   0.681   0.758   1.443
  187SOL     OW 1447   1.484   1.776   0.978
  187SOL    HW1 1448   1.507   1.836   0.907
  187SOL    HW2 1449   1.566   1.758   1.023
  188SOL     OW 1450   0.714   0.573   1.704
  188SOL    HW1 1451   0.756   0.636   1.762
  188SOL    HW2 1452   0.746   0.488   1.734
  189SOL     OW 1453   1.471   1.200   1.632
  189SOL    HW1 1454   1.459   1.214   1.726
  189SOL    HW2 1455   1.565   1.215   1.617
  190SOL     OW 1456   0.378   1.742   1.564
  190SOL    HW1 1457   0.295   1.788   1.548
  190SOL    HW2 1458   0.353   1.662   1.609
  191SOL     OW 1459   1.670   0.881   1.255
  191SOL    HW1 1460   1.663   0.796   1.213
  191SOL    HW2 1461   1.660   0.945   1.184
  192SOL     OW 1462   1.216   0.328   0.473
  192SOL    HW1 1463   1.274   0.254   0.458
  192SOL    HW2 1464   1.255   0.374   0.547
  193SOL     OW 1465   0.589   0.737   0.669
  193SOL    HW1 1466   0.628   0.823   0.654
  193SOL    HW2 1467   0.519   0.732   0.604
  194SOL     OW 1468   1.766   0.362   1.649
  194SOL    HW1 1469   1.747   0.376   1.556
  194SOL    HW2 1470   1.695   0.306   1.680
  195SOL     OW 1471   1.745   0.934   1.512
  195SOL    HW1 1472   1.742   1.028   1.525
  195SOL    HW2 1473   1.729   0.922   1.418
  196SOL     OW 1474   0.893   1.372   0.035
  196SOL    HW1 1475   0.831   1.364   0.107
  196SOL    HW2 1476   0.878   1.460   0.000
  197SOL     OW 1477   0.663   1.794   0.944
  197SOL    HW1 1478   0.642   1.884   0.921
  197SOL    HW2 1479   0.758   1.789   0.937
  198SOL     OW 1480   0.867   0.966   0.855
  198SOL    HW1 1481   0.917   0.895   0.894
  198SOL    HW2 1482   0.833   1.016   0.929
  199SOL     OW 1483   1.076   0.976   0.085
  199SOL    HW1 1484   1.068   1.041   0.015
  199SOL    HW2 1485   1.154   0.926   0.062
  200SOL     OW 1486   1.854   1.555   0.844
  200SOL    HW1 1487   1.776   1.543   0.790
  200SOL    HW2 1488   1.846   1.488   0.913
  201SOL     OW 1489   0.225   1.305   1.860
  201SOL    HW1 1490   0.157   1.243   1.834
  201SOL    HW2 1491   0.214   1.315   1.954
  202SOL     OW 1492   0.094   1.233   0.660
  202SOL    HW1 1493   0.098   1.188   0.744
  202SOL    HW2 1494   0.171   1.202   0.613
  203SOL     OW 1495   0.681   1.402   1.628
  203SOL    HW1 1496   0.600   1.360   1.658
  203SOL    HW2 1497   0.677   1.491   1.664
  204SOL     OW 1498   1.814   0.177   1.233
  204SOL    HW1 1499   1.781   0.088   1.239
  204SOL    HW2 1500   1.832   0.190   1.139
  205SOL     OW 1501   0.430   0.440   0.521
  205SOL    HW1 1502   0.465   0.366   0.471
  205SOL    HW2 1503   0.386   0.399   0.596
  206SOL     OW 1504   1.700   1.490   1.097
  206SOL    HW1 1505   1.619   1.466   1.051
  206SOL    HW2 1506   1.712   1.420   1.162
  207SOL     OW 1507   0.336   0.561   1.289
  207SOL    HW1 1508   0.393   0.503   1.339
  207SOL    HW2 1509   0.350   0.534   1.198
  208SOL     OW 1510   0.828   1.577   0.678
  208SOL    HW1 1511   0.816   1.631   0.600
  208SOL    HW2 1512   0.751   1.520   0.680
  209SOL     OW 1513   1.428   0.218   1.117
  209SOL    HW1 1514   1.464   0.143   1.164
  209SOL    HW2 1515   1.379   0.267   1.183
  210SOL     OW 1516   1.001   0.021   1.141
  210SOL    HW1 1517   0.951   5.253   1.096
  210SOL    HW2 1518   1.088   5.282   1.154
  211SOL     OW 1519   0.771   1.326   0.307
  211SOL    HW1 1520   0.740   1.237   0.323
  211SOL    HW2 1521   0.852   1.333   0.358
  212SOL     OW 1522   0.623   1.556   1.287
  212SOL    HW1 1523   0.624   1.638   1.336
  212SOL    HW2 1524   0.709   1.550   1.247
  213SOL     OW 1525   1.393   0.044   0.169
  213SOL    HW1 1526   1.385   0.027   0.076
  213SOL    HW2 1527   1.306   0.071   0.197
  214SOL     OW 1528   1.308   0.467   0.690
  214SOL    HW1 1529   1.249   0.543   0.693
  214SOL    HW2 1530   1.297   0.425   0.775
  215SOL     OW 1531   1.595   0.216   0.882
  215SOL    HW1 1532   1.528   0.227   0.949
  215SOL    HW2 1533   1.587   0.294   0.828
  216SOL     OW 1534   0.046   1.075   0.313
  216SOL    HW1 1535   0.135   1.049   0.291
  216SOL    HW2 1536   5.297   0.993   0.321
  217SOL     OW 1537   0.883   1.653   0.347
  217SOL    HW1 1538   0.814   1.637   0.282
  217SOL    HW2 1539   0.852   1.729   0.396
  218SOL     OW 1540   0.233   0.633   1.979
  218SOL    HW1 1541   0.157   0.606   2.031
  218SOL    HW2 1542   0.214   0.600   1.891
  219SOL     OW 1543   0.233   0.280   2.852
  219SOL    HW1 1544   0.252   0.243   2.938
  219SOL    HW2 1545   0.153   0.236   2.824
  220SOL     OW 1546   5.300   0.406   2.526
  220SOL    HW1 1547   5.207   0.428   2.530
  220SOL    HW2 1548   0.002   0.316   2.495
  221SOL     OW 1549   0.574   1.284   3.043
  221SOL    HW1 1550   0.491   1.292   2.996
  221SOL    HW2 1551   0.590   1.371   3.078
  222SOL     OW 1552   1.561   1.512   2.568
  222SOL    HW1 1553   1.518   1.493   2.652
  222SOL    HW2 1554   1.489   1.516   2.505
  223SOL     OW 1555   1.131   0.698   2.564
  223SOL    HW1 1556   1.180   0.779   2.549
  223SOL    HW2 1557   1.084   0.713   2.646
  224SOL     OW 1558   1.766   0.606   2.091
  224SOL    HW1 1559   1.746   0.598   1.997
  224SOL    HW2 1560   1.732   0.526   2.130
  225SOL     OW 1561   0.755   1.141   2.901
  225SOL    HW1 1562   0.688   1.175   2.960
  225SOL    HW2 1563   0.791   1.219   2.857
  226SOL     OW 1564   0.864   0.778   3.684
  226SOL    HW1 1565   0.857   0.850   3.747
  226SOL    HW2 1566   0.889   0.820   3.602
  227SOL     OW 1567   0.685   1.003   2.509
  227SOL    HW1 1568   0.751   0.991   2.578
  227SOL    HW2 1569   0.617   1.056   2.551
  228SOL     OW 1570   0.709   1.150   3.675
  228SOL    HW1 1571   0.758   1.229   3.701
  228SOL    HW2 1572   0.627   1.184   3.639
  229SOL     OW 1573   0.358   1.405   2.922
  229SOL    HW1 1574   0.270   1.405   2.885
  229SOL    HW2 1575   0.407   1.467   2.868
  230SOL     OW 1576   1.461   1.500   3.215
  230SOL    HW1 1577   1.512   1.581   3.224
  230SOL    HW2 1578   1.401   1.502   3.290
  231SOL     OW 1579   0.449   0.400   3.352
  231SOL    HW1 1580   0.528   0.346   3.347
  231SOL    HW2 1581   0.377   0.336   3.359
  232SOL     OW 1582   1.611   0.452   2.600
  232SOL    HW1 1583   1.535   0.475   2.546
  232SOL    HW2 1584   1.629   0.530   2.651
  233SOL     OW 1585   0.231   1.714   2.339
  233SOL    HW1 1586   0.264   1.783   2.397
  233SOL    HW2 1587   0.293   1.711   2.267
  234SOL     OW 1588   1.136   1.342   3.555
  234SOL    HW1 1589   1.177   1.337   3.641
  234SOL    HW2 1590   1.084   1.262   3.548
  235SOL     OW 1591   0.222   1.444   2.401
  235SOL    HW1 1592   0.215   1.539   2.398
  235SOL    HW2 1593   0.152   1.417   2.461
  236SOL     OW 1594   0.249   1.078   2.737
  236SOL    HW1 1595   0.261   0.993   2.780
  236SOL    HW2 1596   0.198   1.129   2.799
  237SOL     OW 1597   0.614   1.790   3.295
  237SOL    HW1 1598   0.530   1.773   3.337
  237SOL    HW2 1599   0.634   1.881   3.317
  238SOL     OW 1600   0.583   0.983   1.997
  238SOL    HW1 1601   0.629   1.031   1.928
  238SOL    HW2 1602   0.625   1.012   2.078
  239SOL     OW 1603   1.586   0.135   3.318
  239SOL    HW1 1604   1.608   0.220   3.279
  239SOL    HW2 1605   1.584   0.152   3.413
  240SOL     OW 1606   0.124   0.637   2.439
  240SOL    HW1 1607   0.090   0.554   2.472
  240SOL    HW2 1608   0.098   0.701   2.505
  241SOL     OW 1609   1.842   1.758   2.196
  241SOL    HW1 1610   1.904   1.730   2.263
  241SOL    HW2 1611   1.866   1.849   2.178
  242SOL     OW 1612   0.038   1.599   1.994
  242SOL    HW1 1613   0.024   1.507   2.019
  242SOL    HW2 1614   5.283   1.649   2.054
  243SOL     OW 1615   1.689   0.918   2.502
  243SOL    HW1 1616   1.772   0.877   2.482
  243SOL    HW2 1617   1.667   0.969   2.424
  244SOL     OW 1618   1.646   1.107   2.291
  244SOL    HW1 1619   1.732   1.113   2.249
  244SOL    HW2 1620   1.651   1.168   2.365
  245SOL     OW 1621   0.130   0.749   3.449
  245SOL    HW1 1622   0.224   0.763   3.450
  245SOL    HW2 1623   0.092   0.836   3.463
  246SOL     OW 1624   0.615   1.385   2.597
  246SOL    HW1 1625   0.568   1.303   2.607
  246SOL    HW2 1626   0.598   1.412   2.506
  247SOL     OW 1627   1.288   1.238   3.286
  247SOL    HW1 1628   1.321   1.171   3.226
  247SOL    HW2 1629   1.346   1.232   3.362
  248SOL     OW 1630   0.814   0.027   2.389
  248SOL    HW1 1631   0.842   0.115   2.365
  248SOL    HW2 1632   0.719   0.029   2.381
  249SOL     OW 1633   0.176   0.946   3.140
  249SOL    HW1 1634   0.267   0.917   3.131
  249SOL    HW2 1635   0.134   0.923   3.057
  250SOL     OW 1636   1.532   0.993   2.060
  250SOL    HW1 1637   1.462   0.936   2.092
  250SOL    HW2 1638   1.572   1.028   2.140
  251SOL     OW 1639   1.184   1.806   3.484
  251SOL    HW1 1640   1.196   1.865   3.410
  251SOL    HW2 1641   1.201   1.719   3.449
  252SOL     OW 1642   0.327   0.276   3.659
  252SOL    HW1 1643   0.387   0.337   3.702
  252SOL    HW2 1644   0.246   0.281   3.710
  253SOL     OW 1645   1.465   1.420   2.813
  253SOL    HW1 1646   1.398   1.435   2.879
  253SOL    HW2 1647   1.453   1.328   2.787
  254SOL     OW 1648   1.659   1.738   2.439
  254SOL    HW1 1649   1.638   1.709   2.351
  254SOL    HW2 1650   1.634   1.665   2.496
  255SOL     OW 1651   0.594   0.721   2.127
  255SOL    HW1 1652   0.603   0.802   2.077
  255SOL    HW2 1653   0.530   0.741   2.195
  256SOL     OW 1654   1.278   0.347   2.793
  256SOL    HW1 1655   1.188   0.318   2.805
  256SOL    HW2 1656   1.328   0.297   2.857
  257SOL     OW 1657   1.581   1.669   2.171
  257SOL    HW1 1658   1.670   1.702   2.164
  257SOL    HW2 1659   1.554   1.653   2.081
  258SOL     OW 1660   0.794   0.618   3.313
  258SOL    HW1 1661   0.766   0.596   3.402
  258SOL    HW2 1662   0.751   0.552   3.258
  259SOL     OW 1663   1.394   0.475   3.540
  259SOL    HW1 1664   1.397   0.520   3.625
  259SOL    HW2 1665   1.458   0.404   3.549
  260SOL     OW 1666   0.955   0.887   3.444
  260SOL    HW1 1667   1.009   0.817   3.409
  260SOL    HW2 1668   0.907   0.921   3.368
  261SOL     OW 1669   0.994   0.417   3.097
  261SOL    HW1 1670   0.909   0.438   3.136
  261SOL    HW2 1671   0.972   0.368   3.018
  262SOL     OW 1672   1.051   0.698   2.289
  262SOL    HW1 1673   1.066   0.691   2.383
  262SOL    HW2 1674   0.968   0.652   2.275
  263SOL     OW 1675   0.071   0.788   2.674
  263SOL    HW1 1676   0.153   0.793   2.723
  263SOL    HW2 1677   0.063   0.874   2.632
  264SOL     OW 1678   0.130   1.883   3.446
  264SOL    HW1 1679   0.133   1.853   3.537
  264SOL    HW2 1680   0.059   1.833   3.407
  265SOL     OW 1681   0.873   0.364   2.050
  265SOL    HW1 1682   0.915   0.423   1.989
  265SOL    HW2 1683   0.927   0.285   2.048
  266SOL     OW 1684   1.708   0.574   3.690
  266SOL    HW1 1685   1.671   0.649   3.642
  266SOL    HW2 1686   1.737   0.514   3.622
  267SOL     OW 1687   1.376   1.142   2.403
  267SOL    HW1 1688   1.456   1.129   2.351
  267SOL    HW2 1689   1.324   1.204   2.353
  268SOL     OW 1690   0.537   0.202   2.745
  268SOL    HW1 1691   0.553   0.219   2.838
  268SOL    HW2 1692   0.549   0.286   2.702
  269SOL     OW 1693   1.005   1.443   2.334
  269SOL    HW1 1694   0.968   1.517   2.285
  269SOL    HW2 1695   0.989   1.466   2.426
  270SOL     OW 1696   0.357   1.802   2.731
  270SOL    HW1 1697   0.397   1.717   2.744
  270SOL    HW2 1698   0.423   1.865   2.760
  271SOL     OW 1699   1.799   1.056   2.730
  271SOL    HW1 1700   1.744   1.040   2.653
  271SOL    HW2 1701   1.738   1.062   2.803
  272SOL     OW 1702   1.228   1.539   3.375
  272SOL    HW1 1703   1.214   1.466   3.435
  272SOL    HW2 1704   1.165   1.524   3.304
  273SOL     OW 1705   0.316   0.952   2.109
  273SOL    HW1 1706   0.398   0.976   2.066
  273SOL    HW2 1707   0.294   0.866   2.073
  274SOL     OW 1708   1.478   0.742   2.589
  274SOL    HW1 1709   1.470   0.700   2.674
  274SOL    HW2 1710   1.556   0.798   2.598
  275SOL     OW 1711   0.465   1.263   3.600
  275SOL    HW1 1712   0.438   1.270   3.508
  275SOL    HW2 1713   0.383   1.265   3.649
  276SOL     OW 1714   1.121   1.778   2.093
  276SOL    HW1 1715   1.049   1.735   2.139
  276SOL    HW2 1716   1.145   1.716   2.023
  277SOL     OW 1717   0.198   0.279   3.355
  277SOL    HW1 1718   0.158   0.366   3.351
  277SOL    HW2 1719   0.207   0.262   3.449
  278SOL     OW 1720   1.629   1.380   1.949
  278SOL    HW1 1721   1.587   1.465   1.935
  278SOL    HW2 1722   1.560   1.316   1.930
  279SOL     OW 1723   0.471   1.735   2.182
  279SOL    HW1 1724   0.513   1.793   2.245
  279SOL    HW2 1725   0.542   1.704   2.126
  280SOL     OW 1726   1.407   0.100   2.293
  280SOL    HW1 1727   1.399   0.082   2.199
  280SOL    HW2 1728   1.499   0.122   2.306
  281SOL     OW 1729   0.276   1.801   3.076
  281SOL    HW1 1730   0.307   1.724   3.123
  281SOL    HW2 1731   0.225   1.766   3.003
  282SOL     OW 1732   0.939   1.698   2.761
  282SOL    HW1 1733   1.017   1.647   2.781
  282SOL    HW2 1734   0.894   1.649   2.693
  283SOL     OW 1735   0.385   0.696   2.341
  283SOL    HW1 1736   0.415   0.605   2.349
  283SOL    HW2 1737   0.292   0.693   2.362
  284SOL     OW 1738   1.539   0.228   3.585
  284SOL    HW1 1739   1.546   0.245   3.679
  284SOL    HW2 1740   1.464   0.169   3.578
  285SOL     OW 1741   0.621   0.132   1.969
  285SOL    HW1 1742   0.688   0.069   1.994
  285SOL    HW2 1743   0.574   0.091   1.896
  286SOL     OW 1744   0.781   0.313   3.628
  286SOL    HW1 1745   0.841   0.237   3.629
  286SOL    HW2 1746   0.734   0.307   3.711
  287SOL     OW 1747   0.877   1.521   3.056
  287SOL    HW1 1748   0.861   1.486   2.968
  287SOL    HW2 1749   0.947   1.467   3.091
  288SOL     OW 1750   1.341   0.589   3.294
  288SOL    HW1 1751   1.371   0.558   3.379
  288SOL    HW2 1752   1.377   0.677   3.286
  289SOL     OW 1753   0.815   1.394   2.801
  289SOL    HW1 1754   0.900   1.384   2.757
  289SOL    HW2 1755   0.751   1.396   2.730
  290SOL     OW 1756   0.927   0.510   2.766
  290SOL    HW1 1757   0.904   0.502   2.673
  290SOL    HW2 1758   0.959   0.423   2.790
  291SOL     OW 1759   0.547   0.059   2.366
  291SOL    HW1 1760   0.469   0.060   2.420
  291SOL    HW2 1761   0.535   0.130   2.304
  292SOL     OW 1762   1.428   1.198   1.903
  292SOL    HW1 1763   1.458   1.123   1.953
  292SOL    HW2 1764   1.343   1.219   1.941
  293SOL     OW 1765   0.315   0.064   2.047
  293SOL    HW1 1766   0.381   0.130   2.026
  293SOL    HW2 1767   0.364   5.283   2.058
  294SOL     OW 1768   0.940   0.262   2.324
  294SOL    HW1 1769   0.912   0.300   2.241
  294SOL    HW2 1770   1.035   0.273   2.325
  295SOL     OW 1771   1.081   0.681   3.322
  295SOL    HW1 1772   1.012   0.614   3.327
  295SOL    HW2 1773   1.162   0.631   3.314
  296SOL     OW 1774   1.223   1.570   2.656
  296SOL    HW1 1775   1.240   1.637   2.590
  296SOL    HW2 1776   1.292   1.583   2.721
  297SOL     OW 1777   0.467   1.150   2.594
  297SOL    HW1 1778   0.398   1.130   2.657
  297SOL    HW2 1779   0.428   1.132   2.508
  298SOL     OW 1780   1.269   1.794   2.470
  298SOL    HW1 1781   1.315   1.855   2.412
  298SOL    HW2 1782   1.203   1.847   2.514
  299SOL     OW 1783   1.026   0.546   1.884
  299SOL    HW1 1784   0.984   0.630   1.866
  299SOL    HW2 1785   1.089   0.566   1.953
  300SOL     OW 1786   0.098   0.531   3.273
  300SOL    HW1 1787   0.178   0.550   3.225
  300SOL    HW2 1788   0.078   0.613   3.319
  301SOL     OW 1789   0.560   0.239   3.020
  301SOL    HW1 1790   0.591   0.153   3.046
  301SOL    HW2 1791   0.467   0.239   3.044
  302SOL     OW 1792   0.867   0.463   2.503
  302SOL    HW1 1793   0.821   0.516   2.438
  302SOL    HW2 1794   0.890   0.382   2.457
  303SOL     OW 1795   0.979   0.060   2.624
  303SOL    HW1 1796   0.914   0.055   2.554
  303SOL    HW2 1797   0.987   5.270   2.656
  304SOL     OW 1798   1.437   1.162   2.720
  304SOL    HW1 1799   1.368   1.096   2.717
  304SOL    HW2 1800   1.462   1.174   2.628
  305SOL     OW 1801   1.466   0.606   2.840
  305SOL    HW1 1802   1.417   0.524   2.843
  305SOL    HW2 1803   1.527   0.601   2.914
  306SOL     OW 1804   1.846   0.817   2.244
  306SOL    HW1 1805   1.902   0.765   2.303
  306SOL    HW2 1806   1.817   0.754   2.177
  307SOL     OW 1807   0.492   1.417   2.020
  307SOL    HW1 1808   0.417   1.389   2.072
  307SOL    HW2 1809   0.475   1.382   1.933
  308SOL     OW 1810   1.670   1.264   2.508
  308SOL    HW1 1811   1.765   1.268   2.522
  308SOL    HW2 1812   1.639   1.353   2.530
  309SOL     OW 1813   1.394   0.572   1.933
  309SOL    HW1 1814   1.333   0.553   2.004
  309SOL    HW2 1815   1.479   0.541   1.965
  310SOL     OW 1816   0.522   0.265   2.182
  310SOL    HW1 1817   0.569   0.216   2.114
  310SOL    HW2 1818   0.503   0.350   2.143
  311SOL     OW 1819   1.753   1.239   3.436
  311SOL    HW1 1820   1.840   1.201   3.430
  311SOL    HW2 1821   1.768   1.329   3.464
  312SOL     OW 1822   1.059   1.353   3.195
  312SOL    HW1 1823   0.984   1.322   3.247
  312SOL    HW2 1824   1.135   1.312   3.237
  313SOL     OW 1825   1.608   1.624   3.514
  313SOL    HW1 1826   1.602   1.660   3.426
  313SOL    HW2 1827   1.692   1.578   3.517
  314SOL     OW 1828   1.128   1.202   2.967
  314SOL    HW1 1829   1.070   1.242   3.033
  314SOL    HW2 1830   1.096   1.236   2.884
  315SOL     OW 1831   1.628   1.098   2.939
  315SOL    HW1 1832   1.624   1.160   3.012
  315SOL    HW2 1833   1.550   1.116   2.888
  316SOL     OW 1834   0.905   0.106   3.252
  316SOL    HW1 1835   0.936   0.073   3.168
  316SOL    HW2 1836   0.982   0.149   3.290
  317SOL     OW 1837   0.984   1.114   3.585
  317SOL    HW1 1838   0.892   1.131   3.605
  317SOL    HW2 1839   0.983   1.037   3.529
  318SOL     OW 1840   0.707   1.060   2.234
  318SOL    HW1 1841   0.696   1.044   2.328
  318SOL    HW2 1842   0.784   1.007   2.210
  319SOL     OW 1843   0.420   0.820   3.115
  319SOL    HW1 1844   0.490   0.826   3.180
  319SOL    HW2 1845   0.386   0.731   3.124
  320SOL     OW 1846   1.267   0.379   3.134
  320SOL    HW1 1847   1.300   0.456   3.181
  320SOL    HW2 1848   1.177   0.401   3.112
  321SOL     OW 1849   0.101   1.623   3.229
  321SOL    HW1 1850   0.079   1.632   3.136
  321SOL    HW2 1851   0.187   1.581   3.229
  322SOL     OW 1852   0.343   1.106   2.350
  322SOL    HW1 1853   0.353   1.185   2.297
  322SOL    HW2 1854   0.353   1.034   2.287
  323SOL     OW 1855   0.555   0.537   2.722
  323SOL    HW1 1856   0.571   0.595   2.647
  323SOL    HW2 1857   0.620   0.564   2.787
  324SOL     OW 1858   1.248   1.348   2.251
  324SOL    HW1 1859   1.304   1.420   2.282
  324SOL    HW2 1860   1.161   1.369   2.285
  325SOL     OW 1861   1.281   1.457   3.009
  325SOL    HW1 1862   1.337   1.461   3.086
  325SOL    HW2 1863   1.225   1.380   3.023
  326SOL     OW 1864   1.582   0.623   2.341
  326SOL    HW1 1865   1.535   0.677   2.404
  326SOL    HW2 1866   1.627   0.685   2.284
  327SOL     OW 1867   0.352   1.519   3.173
  327SOL    HW1 1868   0.342   1.476   3.088
  327SOL    HW2 1869   0.445   1.537   3.179
  328SOL     OW 1870   0.415   0.741   3.464
  328SOL    HW1 1871   0.473   0.789   3.406
  328SOL    HW2 1872   0.460   0.658   3.480
  329SOL     OW 1873   1.601   0.778   3.543
  329SOL    HW1 1874   1.515   0.820   3.537
  329SOL    HW2 1875   1.653   0.821   3.475
  330SOL     OW 1876   1.044   0.117   3.644
  330SOL    HW1 1877   1.070   0.196   3.598
  330SOL    HW2 1878   1.051   0.047   3.579
  331SOL     OW 1879   0.483   0.058   3.600
  331SOL    HW1 1880   0.427   5.291   3.562
  331SOL    HW2 1881   0.424   0.132   3.617
  332SOL     OW 1882   0.585   0.874   2.894
  332SOL    HW1 1883   0.617   0.964   2.893
  332SOL    HW2 1884   0.529   0.869   2.971
  333SOL     OW 1885   1.358   0.859   2.892
  333SOL    HW1 1886   1.275   0.850   2.845
  333SOL    HW2 1887   1.398   0.772   2.887
  334SOL     OW 1888   1.205   0.528   2.129
  334SOL    HW1 1889   1.210   0.448   2.181
  334SOL    HW2 1890   1.163   0.592   2.188
  335SOL     OW 1891   0.304   0.206   3.107
  335SOL    HW1 1892   0.264   0.237   3.188
  335SOL    HW2 1893   0.295   0.111   3.111
  336SOL     OW 1894   0.069   1.319   3.142
  336SOL    HW1 1895   0.091   1.259   3.214
  336SOL    HW2 1896   5.300   1.374   3.178
  337SOL     OW 1897   0.726   0.632   2.922
  337SOL    HW1 1898   0.800   0.615   2.863
  337SOL    HW2 1899   0.698   0.721   2.900
  338SOL     OW 1900   1.735   0.959   3.715
  338SOL    HW1 1901   1.688   0.898   3.657
  338SOL    HW2 1902   1.675   0.973   3.788
  339SOL     OW 1903   0.318   0.067   2.516
  339SOL    HW1 1904   0.299   0.161   2.524
  339SOL    HW2 1905   0.322   0.036   2.606
  340SOL     OW 1906   1.612   0.375   2.227
  340SOL    HW1 1907   1.645   0.311   2.291
  340SOL    HW2 1908   1.592   0.452   2.279
  341SOL     OW 1909   1.028   0.759   2.823
  341SOL    HW1 1910   1.025   0.777   2.917
  341SOL    HW2 1911   1.001   0.668   2.814
  342SOL     OW 1912   0.981   1.565   3.579
  342SOL    HW1 1913   0.967   1.610   3.496
  342SOL    HW2 1914   1.026   1.484   3.555
  343SOL     OW 1915   1.856   1.506   3.467
  343SOL    HW1 1916   1.872   1.533   3.376
  343SOL    HW2 1917   1.938   1.526   3.512
  344SOL     OW 1918   0.354   0.917   3.669
  344SOL    HW1 1919   0.434   0.938   3.715
  344SOL    HW2 1920   0.380   0.853   3.603
  345SOL     OW 1921   1.527   0.272   1.988
  345SOL    HW1 1922   1.462   0.208   2.019
  345SOL    HW2 1923   1.563   0.310   2.068
  346SOL     OW 1924   1.292   0.826   1.893
  346SOL    HW1 1925   1.334   0.741   1.897
  346SOL    HW2 1926   1.323   0.866   1.812
  347SOL     OW 1927   1.066   1.335   2.716
  347SOL    HW1 1928   1.069   1.263   2.653
  347SOL    HW2 1929   1.127   1.400   2.681
  348SOL     OW 1930   0.314   0.810   2.812
  348SOL    HW1 1931   0.408   0.828   2.807
  348SOL    HW2 1932   0.309   0.720   2.843
  349SOL     OW 1933   0.336   0.526   2.877
  349SOL    HW1 1934   0.299   0.439   2.861
  349SOL    HW2 1935   0.411   0.531   2.818
  350SOL     OW 1936   1.135   0.378   3.550
  350SOL    HW1 1937   1.088   0.432   3.613
  350SOL    HW2 1938   1.223   0.417   3.546
  351SOL     OW 1939   1.134   0.223   3.328
  351SOL    HW1 1940   1.138   0.282   3.403
  351SOL    HW2 1941   1.189   0.264   3.262
  352SOL     OW 1942   0.002   1.330   2.072
  352SOL    HW1 1943   5.227   1.319   2.013
  352SOL    HW2 1944   0.012   1.244   2.113
  353SOL     OW 1945   0.093   1.782   2.813
  353SOL    HW1 1946   0.059   1.711   2.757
  353SOL    HW2 1947   0.180   1.800   2.778
  354SOL     OW 1948   0.505   1.573   2.769
  354SOL    HW1 1949   0.572   1.639   2.790
  354SOL    HW2 1950   0.548   1.512   2.710
  355SOL     OW 1951   0.984   0.792   3.089
  355SOL    HW1 1952   1.039   0.769   3.163
  355SOL    HW2 1953   0.898   0.755   3.110
  356SOL     OW 1954   0.036   0.566   2.981
  356SOL    HW1 1955   0.118   0.535   2.942
  356SOL    HW2 1956   0.038   0.533   3.071
  357SOL     OW 1957   0.167   0.515   3.577
  357SOL    HW1 1958   0.251   0.495   3.536
  357SOL    HW2 1959   0.137   0.594   3.533
  358SOL     OW 1960   1.377   0.939   3.521
  358SOL    HW1 1961   1.398   1.032   3.519
  358SOL    HW2 1962   1.374   0.913   3.428
  359SOL     OW 1963   0.814   0.572   2.224
  359SOL    HW1 1964   0.818   0.498   2.163
  359SOL    HW2 1965   0.740   0.624   2.192
  360SOL     OW 1966   1.642   0.601   3.048
  360SOL    HW1 1967   1.631   0.542   3.122
  360SOL    HW2 1968   1.729   0.581   3.014
  361SOL     OW 1969   0.256   1.556   3.597
  361SOL    HW1 1970   0.234   1.619   3.665
  361SOL    HW2 1971   0.249   1.470   3.640
  362SOL     OW 1972   0.697   0.453   3.123
  362SOL    HW1 1973   0.648   0.378   3.089
  362SOL    HW2 1974   0.697   0.517   3.052
  363SOL     OW 1975   0.928   1.679   3.330
  363SOL    HW1 1976   0.902   1.645   3.244
  363SOL    HW2 1977   0.924   1.774   3.320
  364SOL     OW 1978   0.464   0.492   2.042
  364SOL    HW1 1979   0.526   0.561   2.066
  364SOL    HW2 1980   0.380   0.538   2.035
  365SOL     OW 1981   0.148   1.137   3.333
  365SOL    HW1 1982   0.146   1.089   3.415
  365SOL    HW2 1983   0.160   1.071   3.266
  366SOL     OW 1984   1.326   1.047   3.086
  366SOL    HW1 1985   1.350   0.984   3.018
  366SOL    HW2 1986   1.255   1.099   3.046
  367SOL     OW 1987   1.311   0.857   2.168
  367SOL    HW1 1988   1.235   0.826   2.218
  367SOL    HW2 1989   1.287   0.843   2.077
  368SOL     OW 1990   1.752   1.744   3.003
  368SOL    HW1 1991   1.823   1.775   2.948
  368SOL    HW2 1992   1.743   1.651   2.982
  369SOL     OW 1993   1.242   1.733   2.975
  369SOL    HW1 1994   1.325   1.754   2.930
  369SOL    HW2 1995   1.247   1.640   2.993
  370SOL     OW 1996   0.082   1.217   2.889
  370SOL    HW1 1997   0.070   1.243   2.981
  370SOL    HW2 1998   5.294   1.206   2.855
  371SOL     OW 1999   0.678   1.666   3.591
  371SOL    HW1 2000   0.623   1.744   3.585
  371SOL    HW2 2001   0.742   1.677   3.521
  372SOL     OW 2002   1.712   0.148   2.365
  372SOL    HW1 2003   1.788   0.128   2.310
  372SOL    HW2 2004   1.705   0.074   2.424
  373SOL     OW 2005   1.390   1.568   2.346
  373SOL    HW1 2006   1.450   1.600   2.280
  373SOL    HW2 2007   1.342   1.645   2.375
  374SOL     OW 2008   0.145   1.798   3.704
  374SOL    HW1 2009   0.090   1.735   3.751
  374SOL    HW2 2010   0.191   1.846   3.773
  375SOL     OW 2011   1.277   0.925   2.533
  375SOL    HW1 2012   1.351   0.865   2.540
  375SOL    HW2 2013   1.311   0.998   2.481
  376SOL     OW 2014   0.815   1.273   3.292
  376SOL    HW1 2015   0.786   1.313   3.375
  376SOL    HW2 2016   0.745   1.295   3.230
  377SOL     OW 2017   0.672   1.619   2.017
  377SOL    HW1 2018   0.682   1.632   1.923
  377SOL    HW2 2019   0.618   1.541   2.025
  378SOL     OW 2020   1.626   1.728   3.252
  378SOL    HW1 2021   1.674   1.734   3.169
  378SOL    HW2 2022   1.616   1.818   3.281
  379SOL     OW 2023   1.845   0.157   2.819
  379SOL    HW1 2024   1.845   0.062   2.807
  379SOL    HW2 2025   1.759   0.185   2.791
  380SOL     OW 2026   0.270   0.328   2.580
  380SOL    HW1 2027   0.184   0.366   2.564
  380SOL    HW2 2028   0.273   0.313   2.675
  381SOL     OW 2029   1.207   1.606   1.893
  381SOL    HW1 2030   1.198   1.515   1.920
  381SOL    HW2 2031   1.142   1.618   1.824
  382SOL     OW 2032   0.824   1.006   3.234
  382SOL    HW1 2033   0.868   1.001   3.149
  382SOL    HW2 2034   0.824   1.099   3.256
  383SOL     OW 2035   0.915   0.910   2.152
  383SOL    HW1 2036   0.976   0.942   2.086
  383SOL    HW2 2037   0.963   0.841   2.197
  384SOL     OW 2038   1.492   1.625   1.904
  384SOL    HW1 2039   1.397   1.619   1.891
  384SOL    HW2 2040   1.529   1.631   1.816
  385SOL     OW 2041   0.367   1.304   3.355
  385SOL    HW1 2042   0.359   1.378   3.296
  385SOL    HW2 2043   0.291   1.249   3.335
  386SOL     OW 2044   1.610   1.283   3.142
  386SOL    HW1 2045   1.672   1.274   3.214
  386SOL    HW2 2046   1.550   1.352   3.170
  387SOL     OW 2047   1.052   1.107   2.568
  387SOL    HW1 2048   0.981   1.055   2.608
  387SOL    HW2 2049   1.114   1.041   2.537
  388SOL     OW 2050   1.020   0.243   2.830
  388SOL    HW1 2051   0.999   0.197   2.748
  388SOL    HW2 2052   1.012   0.176   2.898
  389SOL     OW 2053   0.601   1.487   2.343
  389SOL    HW1 2054   0.646   1.439   2.274
  389SOL    HW2 2055   0.535   1.539   2.297
  390SOL     OW 2056   1.724   0.387   3.240
  390SOL    HW1 2057   1.794   0.452   3.240
  390SOL    HW2 2058   1.756   0.317   3.182
  391SOL     OW 2059   0.260   1.348   2.154
  391SOL    HW1 2060   0.167   1.350   2.132
  391SOL    HW2 2061   0.264   1.385   2.242
  392SOL     OW 2062   0.116   1.015   3.579
  392SOL    HW1 2063   0.045   0.982   3.634
  392SOL    HW2 2064   0.195   0.985   3.623
  393SOL     OW 2065   0.674   0.214   3.351
  393SOL    HW1 2066   0.758   0.197   3.307
  393SOL    HW2 2067   0.698   0.260   3.432
  394SOL     OW 2068   0.078   0.337   1.899
  394SOL    HW1 2069   5.287   0.310   1.887
  394SOL    HW2 2070   0.093   0.405   1.833
  395SOL     OW 2071   1.430   0.858   3.262
  395SOL    HW1 2072   1.381   0.919   3.207
  395SOL    HW2 2073   1.519   0.861   3.228
  396SOL     OW 2074   0.083   0.141   2.156
  396SOL    HW1 2075   0.077   0.235   2.138
  396SOL    HW2 2076   0.170   0.116   2.125
  397SOL     OW 2077   1.179   1.339   1.979
  397SOL    HW1 2078   1.088   1.310   1.982
  397SOL    HW2 2079   1.207   1.340   2.070
  398SOL     OW 2080   0.619   0.831   3.297
  398SOL    HW1 2081   0.675   0.907   3.281
  398SOL    HW2 2082   0.681   0.758   3.305
  399SOL     OW 2083   1.487   1.778   2.843
  399SOL    HW1 2084   1.512   1.837   2.772
  399SOL    HW2 2085   1.569   1.761   2.890
  400SOL     OW 2086   0.713   0.573   3.566
  400SOL    HW1 2087   0.756   0.636   3.623
  400SOL    HW2 2088   0.746   0.488   3.596
  401SOL     OW 2089   1.471   1.200   3.494
  401SOL    HW1 2090   1.460   1.214   3.588
  401SOL    HW2 2091   1.565   1.215   3.479
  402SOL     OW 2092   0.378   1.742   3.426
  402SOL    HW1 2093   0.295   1.788   3.410
  402SOL    HW2 2094   0.353   1.662   3.471
  403SOL     OW 2095   1.670   0.881   3.117
  403SOL    HW1 2096   1.663   0.796   3.074
  403SOL    HW2 2097   1.660   0.945   3.047
  404SOL     OW 2098   1.221   0.319   2.327
  404SOL    HW1 2099   1.284   0.247   2.320
  404SOL    HW2 2100   1.251   0.371   2.402
  405SOL     OW 2101   0.590   0.738   2.531
  405SOL    HW1 2102   0.629   0.824   2.515
  405SOL    HW2 2103   0.521   0.730   2.465
  406SOL     OW 2104   1.766   0.361   3.511
  406SOL    HW1 2105   1.747   0.376   3.418
  406SOL    HW2 2106   1.695   0.306   3.542
  407SOL     OW 2107   1.745   0.934   3.374
  407SOL    HW1 2108   1.743   1.029   3.388
  407SOL    HW2 2109   1.730   0.922   3.281
  408SOL     OW 2110   0.862   1.367   1.896
  408SOL    HW1 2111   0.824   1.396   1.979
  408SOL    HW2 2112   0.881   1.448   1.848
  409SOL     OW 2113   0.663   1.794   2.806
  409SOL    HW1 2114   0.642   1.884   2.783
  409SOL    HW2 2115   0.758   1.789   2.799
  410SOL     OW 2116   0.867   0.966   2.716
  410SOL    HW1 2117   0.918   0.895   2.756
  410SOL    HW2 2118   0.833   1.016   2.791
  411SOL     OW 2119   1.078   0.987   1.950
  411SOL    HW1 2120   1.057   1.039   1.872
  411SOL    HW2 2121   1.153   0.934   1.925
  412SOL     OW 2122   1.856   1.554   2.706
  412SOL    HW1 2123   1.777   1.546   2.653
  412SOL    HW2 2124   1.843   1.494   2.779
  413SOL     OW 2125   0.225   1.305   3.722
  413SOL    HW1 2126   0.156   1.243   3.696
  413SOL    HW2 2127   0.214   1.316   3.816
  414SOL     OW 2128   0.087   1.220   2.516
  414SOL    HW1 2129   0.100   1.188   2.606
  414SOL    HW2 2130   0.174   1.214   2.476
  415SOL     OW 2131   0.681   1.402   3.490
  415SOL    HW1 2132   0.600   1.360   3.520
  415SOL    HW2 2133   0.677   1.491   3.526
  416SOL     OW 2134   1.814   0.177   3.095
  416SOL    HW1 2135   1.781   0.088   3.100
  416SOL    HW2 2136   1.832   0.190   3.002
  417SOL     OW 2137   0.432   0.436   2.384
  417SOL    HW1 2138   0.464   0.362   2.332
  417SOL    HW2 2139   0.387   0.396   2.458
  418SOL     OW 2140   1.705   1.483   2.952
  418SOL    HW1 2141   1.621   1.462   2.911
  418SOL    HW2 2142   1.715   1.418   3.021
  419SOL     OW 2143   0.336   0.560   3.151
  419SOL    HW1 2144   0.393   0.503   3.202
  419SOL    HW2 2145   0.350   0.533   3.060
  420SOL     OW 2146   0.828   1.577   2.540
  420SOL    HW1 2147   0.816   1.632   2.462
  420SOL    HW2 2148   0.751   1.521   2.542
  421SOL     OW 2149   1.428   0.218   2.978
  421SOL    HW1 2150   1.465   0.144   3.026
  421SOL    HW2 2151   1.379   0.268   3.044
  422SOL     OW 2152   1.002   0.021   3.003
  422SOL    HW1 2153   0.952   5.252   2.959
  422SOL    HW2 2154   1.088   5.283   3.016
  423SOL     OW 2155   0.772   1.333   2.177
  423SOL    HW1 2156   0.742   1.242   2.183
  423SOL    HW2 2157   0.854   1.334   2.226
  424SOL     OW 2158   0.622   1.556   3.149
  424SOL    HW1 2159   0.624   1.638   3.198
  424SOL    HW2 2160   0.709   1.550   3.109
  425SOL     OW 2161   1.354   0.039   2.024
  425SOL    HW1 2162   1.388   5.297   1.945
  425SOL    HW2 2163   1.276   5.289   2.046
  426SOL     OW 2164   1.301   0.464   2.547
  426SOL    HW1 2165   1.246   0.542   2.552
  426SOL    HW2 2166   1.294   0.423   2.633
  427SOL     OW 2167   1.594   0.216   2.744
  427SOL    HW1 2168   1.528   0.227   2.812
  427SOL    HW2 2169   1.587   0.294   2.690
  428SOL     OW 2170   0.048   1.069   2.152
  428SOL    HW1 2171   0.137   1.037   2.141
  428SOL    HW2 2172   5.300   0.994   2.187
  429SOL     OW 2173   0.884   1.651   2.204
  429SOL    HW1 2174   0.812   1.636   2.144
  429SOL    HW2 2175   0.857   1.727   2.256
  430SOL     OW 2176   0.233   0.633   3.841
  430SOL    HW1 2177   0.157   0.606   3.893
  430SOL    HW2 2178   0.214   0.600   3.753
  431SOL     OW 2179   0.233   0.280   4.714
  431SOL    HW1 2180   0.252   0.243   4.800
  431SOL    HW2 2181   0.153   0.236   4.686
  432SOL     OW 2182   5.300   0.406   4.388
  432SOL    HW1 2183   5.207   0.428   4.392
  432SOL    HW2 2184   0.002   0.316   4.357
  433SOL     OW 2185   0.574   1.284   4.905
  433SOL    HW1 2186   0.491   1.292   4.858
  433SOL    HW2 2187   0.590   1.371   4.940
  434SOL     OW 2188   1.560   1.510   4.431
  434SOL    HW1 2189   1.517   1.491   4.515
  434SOL    HW2 2190   1.488   1.515   4.368
  435SOL     OW 2191   1.131   0.698   4.426
  435SOL    HW1 2192   1.180   0.779   4.411
  435SOL    HW2 2193   1.084   0.713   4.508
  436SOL     OW 2194   1.767   0.606   3.953
  436SOL    HW1 2195   1.746   0.598   3.859
  436SOL    HW2 2196   1.732   0.526   3.991
  437SOL     OW 2197   0.755   1.141   4.763
  437SOL    HW1 2198   0.688   1.175   4.822
  437SOL    HW2 2199   0.791   1.219   4.719
  438SOL     OW 2200   0.864   0.778   5.546
  438SOL    HW1 2201   0.857   0.850   5.609
  438SOL    HW2 2202   0.889   0.820   5.464
  439SOL     OW 2203   0.685   1.003   4.371
  439SOL    HW1 2204   0.751   0.991   4.440
  439SOL    HW2 2205   0.617   1.056   4.413
  440SOL     OW 2206   0.709   1.150   5.537
  440SOL    HW1 2207   0.758   1.229   5.563
  440SOL    HW2 2208   0.627   1.184   5.501
  441SOL     OW 2209   0.358   1.405   4.783
  441SOL    HW1 2210   0.270   1.406   4.747
  441SOL    HW2 2211   0.407   1.467   4.730
  442SOL     OW 2212   1.461   1.500   5.077
  442SOL    HW1 2213   1.512   1.580   5.086
  442SOL    HW2 2214   1.400   1.501   5.152
  443SOL     OW 2215   0.449   0.400   5.214
  443SOL    HW1 2216   0.528   0.346   5.209
  443SOL    HW2 2217   0.377   0.336   5.221
  444SOL     OW 2218   1.611   0.451   4.462
  444SOL    HW1 2219   1.535   0.475   4.408
  444SOL    HW2 2220   1.629   0.530   4.514
  445SOL     OW 2221   0.231   1.714   4.201
  445SOL    HW1 2222   0.264   1.783   4.259
  445SOL    HW2 2223   0.293   1.711   4.129
  446SOL     OW 2224   1.136   1.342   5.416
  446SOL    HW1 2225   1.178   1.337   5.503
  446SOL    HW2 2226   1.084   1.261   5.410
  447SOL     OW 2227   0.222   1.444   4.263
  447SOL    HW1 2228   0.215   1.539   4.259
  447SOL    HW2 2229   0.152   1.417   4.323
  448SOL     OW 2230   0.249   1.078   4.599
  448SOL    HW1 2231   0.261   0.993   4.642
  448SOL    HW2 2232   0.198   1.129   4.661
  449SOL     OW 2233   0.614   1.790   5.156
  449SOL    HW1 2234   0.530   1.773   5.199
  449SOL    HW2 2235   0.634   1.881   5.179
  450SOL     OW 2236   0.583   0.983   3.859
  450SOL    HW1 2237   0.629   1.031   3.790
  450SOL    HW2 2238   0.625   1.012   3.940
  451SOL     OW 2239   1.586   0.135   5.180
  451SOL    HW1 2240   1.608   0.220   5.141
  451SOL    HW2 2241   1.584   0.152   5.275
  452SOL     OW 2242   0.124   0.636   4.301
  452SOL    HW1 2243   0.090   0.553   4.334
  452SOL    HW2 2244   0.098   0.701   4.367
  453SOL     OW 2245   1.831   1.748   4.060
  453SOL    HW1 2246   1.903   1.720   4.116
  453SOL    HW2 2247   1.856   1.835   4.030
  454SOL     OW 2248   0.038   1.599   3.856
  454SOL    HW1 2249   0.024   1.507   3.881
  454SOL    HW2 2250   5.283   1.649   3.916
  455SOL     OW 2251   1.689   0.918   4.364
  455SOL    HW1 2252   1.772   0.876   4.344
  455SOL    HW2 2253   1.667   0.969   4.286
  456SOL     OW 2254   1.646   1.107   4.153
  456SOL    HW1 2255   1.732   1.113   4.111
  456SOL    HW2 2256   1.651   1.168   4.227
  457SOL     OW 2257   0.130   0.749   5.311
  457SOL    HW1 2258   0.224   0.763   5.312
  457SOL    HW2 2259   0.092   0.836   5.325
  458SOL     OW 2260   0.615   1.385   4.459
  458SOL    HW1 2261   0.568   1.303   4.469
  458SOL    HW2 2262   0.598   1.412   4.368
  459SOL     OW 2263   1.288   1.238   5.148
  459SOL    HW1 2264   1.321   1.171   5.088
  459SOL    HW2 2265   1.346   1.232   5.224
  460SOL     OW 2266   0.814   0.027   4.250
  460SOL    HW1 2267   0.842   0.115   4.226
  460SOL    HW2 2268   0.719   0.029   4.243
  461SOL     OW 2269   0.176   0.946   5.003
  461SOL    HW1 2270   0.267   0.917   4.993
  461SOL    HW2 2271   0.134   0.923   4.919
  462SOL     OW 2272   1.531   0.993   3.922
  462SOL    HW1 2273   1.462   0.936   3.954
  462SOL    HW2 2274   1.572   1.028   4.002
  463SOL     OW 2275   1.184   1.806   5.346
  463SOL    HW1 2276   1.197   1.865   5.272
  463SOL    HW2 2277   1.201   1.719   5.310
  464SOL     OW 2278   0.327   0.276   5.521
  464SOL    HW1 2279   0.387   0.337   5.564
  464SOL    HW2 2280   0.246   0.281   5.572
  465SOL     OW 2281   1.466   1.419   4.676
  465SOL    HW1 2282   1.398   1.435   4.741
  465SOL    HW2 2283   1.454   1.328   4.649
  466SOL     OW 2284   1.658   1.734   4.307
  466SOL    HW1 2285   1.640   1.707   4.217
  466SOL    HW2 2286   1.631   1.660   4.361
  467SOL     OW 2287   0.594   0.721   3.989
  467SOL    HW1 2288   0.603   0.802   3.939
  467SOL    HW2 2289   0.530   0.741   4.057
  468SOL     OW 2290   1.278   0.346   4.655
  468SOL    HW1 2291   1.188   0.318   4.667
  468SOL    HW2 2292   1.328   0.297   4.719
  469SOL     OW 2293   1.574   1.667   4.033
  469SOL    HW1 2294   1.665   1.696   4.029
  469SOL    HW2 2295   1.550   1.652   3.941
  470SOL     OW 2296   0.794   0.618   5.175
  470SOL    HW1 2297   0.766   0.596   5.264
  470SOL    HW2 2298   0.751   0.552   5.120
  471SOL     OW 2299   1.394   0.475   5.402
  471SOL    HW1 2300   1.397   0.520   5.487
  471SOL    HW2 2301   1.458   0.404   5.411
  472SOL     OW 2302   0.955   0.887   5.306
  472SOL    HW1 2303   1.009   0.817   5.271
  472SOL    HW2 2304   0.907   0.922   5.230
  473SOL     OW 2305   0.994   0.417   4.960
  473SOL    HW1 2306   0.909   0.438   4.998
  473SOL    HW2 2307   0.972   0.368   4.880
  474SOL     OW 2308   1.051   0.698   4.151
  474SOL    HW1 2309   1.066   0.691   4.245
  474SOL    HW2 2310   0.968   0.652   4.137
  475SOL     OW 2311   0.072   0.788   4.536
  475SOL    HW1 2312   0.153   0.793   4.585
  475SOL    HW2 2313   0.063   0.874   4.495
  476SOL     OW 2314   0.130   1.883   5.308
  476SOL    HW1 2315   0.133   1.853   5.399
  476SOL    HW2 2316   0.059   1.833   5.269
  477SOL     OW 2317   0.873   0.364   3.912
  477SOL    HW1 2318   0.915   0.423   3.850
  477SOL    HW2 2319   0.927   0.285   3.910
  478SOL     OW 2320   1.707   0.574   5.552
  478SOL    HW1 2321   1.671   0.648   5.504
  478SOL    HW2 2322   1.737   0.514   5.484
  479SOL     OW 2323   1.376   1.142   4.265
  479SOL    HW1 2324   1.455   1.129   4.213
  479SOL    HW2 2325   1.324   1.204   4.215
  480SOL     OW 2326   0.537   0.202   4.607
  480SOL    HW1 2327   0.553   0.219   4.700
  480SOL    HW2 2328   0.549   0.286   4.564
  481SOL     OW 2329   1.005   1.443   4.196
  481SOL    HW1 2330   0.968   1.516   4.147
  481SOL    HW2 2331   0.989   1.466   4.288
  482SOL     OW 2332   0.357   1.802   4.593
  482SOL    HW1 2333   0.397   1.717   4.606
  482SOL    HW2 2334   0.423   1.865   4.622
  483SOL     OW 2335   1.799   1.057   4.592
  483SOL    HW1 2336   1.744   1.040   4.515
  483SOL    HW2 2337   1.738   1.063   4.665
  484SOL     OW 2338   1.228   1.539   5.237
  484SOL    HW1 2339   1.214   1.466   5.297
  484SOL    HW2 2340   1.165   1.525   5.167
  485SOL     OW 2341   0.316   0.952   3.971
  485SOL    HW1 2342   0.398   0.976   3.928
  485SOL    HW2 2343   0.294   0.867   3.935
  486SOL     OW 2344   1.478   0.742   4.451
  486SOL    HW1 2345   1.470   0.700   4.536
  486SOL    HW2 2346   1.556   0.798   4.460
  487SOL     OW 2347   0.465   1.263   5.461
  487SOL    HW1 2348   0.438   1.270   5.370
  487SOL    HW2 2349   0.383   1.265   5.511
  488SOL     OW 2350   1.121   1.778   3.955
  488SOL    HW1 2351   1.049   1.735   4.001
  488SOL    HW2 2352   1.145   1.717   3.885
  489SOL     OW 2353   0.198   0.280   5.217
  489SOL    HW1 2354   0.158   0.367   5.213
  489SOL    HW2 2355   0.207   0.262   5.311
  490SOL     OW 2356   1.629   1.380   3.812
  490SOL    HW1 2357   1.588   1.465   3.796
  490SOL    HW2 2358   1.560   1.316   3.793
  491SOL     OW 2359   0.471   1.735   4.044
  491SOL    HW1 2360   0.513   1.793   4.107
  491SOL    HW2 2361   0.542   1.704   3.988
  492SOL     OW 2362   1.407   0.100   4.155
  492SOL    HW1 2363   1.399   0.082   4.061
  492SOL    HW2 2364   1.499   0.122   4.168
  493SOL     OW 2365   0.276   1.801   4.938
  493SOL    HW1 2366   0.307   1.724   4.985
  493SOL    HW2 2367   0.225   1.766   4.865
  494SOL     OW 2368   0.939   1.699   4.623
  494SOL    HW1 2369   1.017   1.647   4.644
  494SOL    HW2 2370   0.894   1.649   4.555
  495SOL     OW 2371   0.385   0.696   4.203
  495SOL    HW1 2372   0.415   0.605   4.211
  495SOL    HW2 2373   0.292   0.693   4.224
  496SOL     OW 2374   1.539   0.227   5.447
  496SOL    HW1 2375   1.547   0.245   5.541
  496SOL    HW2 2376   1.464   0.170   5.440
  497SOL     OW 2377   0.621   0.132   3.831
  497SOL    HW1 2378   0.688   0.069   3.856
  497SOL    HW2 2379   0.574   0.091   3.758
  498SOL     OW 2380   0.781   0.313   5.490
  498SOL    HW1 2381   0.841   0.237   5.491
  498SOL    HW2 2382   0.734   0.307   5.573
  499SOL     OW 2383   0.877   1.521   4.917
  499SOL    HW1 2384   0.861   1.485   4.830
  499SOL    HW2 2385   0.947   1.467   4.953
  500SOL     OW 2386   1.341   0.589   5.156
  500SOL    HW1 2387   1.371   0.558   5.241
  500SOL    HW2 2388   1.377   0.677   5.148
  501SOL     OW 2389   0.815   1.394   4.663
  501SOL    HW1 2390   0.900   1.384   4.619
  501SOL    HW2 2391   0.751   1.396   4.592
  502SOL     OW 2392   0.927   0.510   4.628
  502SOL    HW1 2393   0.904   0.502   4.535
  502SOL    HW2 2394   0.959   0.423   4.652
  503SOL     OW 2395   0.547   0.058   4.228
  503SOL    HW1 2396   0.469   0.060   4.283
  503SOL    HW2 2397   0.535   0.130   4.166
  504SOL     OW 2398   1.428   1.198   3.765
  504SOL    HW1 2399   1.458   1.123   3.815
  504SOL    HW2 2400   1.343   1.220   3.803
  505SOL     OW 2401   0.315   0.064   3.908
  505SOL    HW1 2402   0.381   0.130   3.888
  505SOL    HW2 2403   0.364   5.283   3.920
  506SOL     OW 2404   0.940   0.262   4.187
  506SOL    HW1 2405   0.912   0.299   4.103
  506SOL    HW2 2406   1.035   0.273   4.187
  507SOL     OW 2407   1.081   0.681   5.184
  507SOL    HW1 2408   1.012   0.614   5.189
  507SOL    HW2 2409   1.162   0.631   5.177
  508SOL     OW 2410   1.224   1.570   4.518
  508SOL    HW1 2411   1.240   1.637   4.451
  508SOL    HW2 2412   1.291   1.585   4.584
  509SOL     OW 2413   0.467   1.150   4.456
  509SOL    HW1 2414   0.398   1.130   4.519
  509SOL    HW2 2415   0.428   1.132   4.370
  510SOL     OW 2416   1.269   1.794   4.332
  510SOL    HW1 2417   1.315   1.855   4.274
  510SOL    HW2 2418   1.203   1.848   4.376
  511SOL     OW 2419   1.026   0.546   3.746
  511SOL    HW1 2420   0.984   0.630   3.728
  511SOL    HW2 2421   1.090   0.566   3.815
  512SOL     OW 2422   0.098   0.531   5.135
  512SOL    HW1 2423   0.178   0.550   5.087
  512SOL    HW2 2424   0.078   0.613   5.181
  513SOL     OW 2425   0.560   0.239   4.882
  513SOL    HW1 2426   0.591   0.153   4.908
  513SOL    HW2 2427   0.467   0.239   4.906
  514SOL     OW 2428   0.867   0.463   4.365
  514SOL    HW1 2429   0.821   0.516   4.300
  514SOL    HW2 2430   0.890   0.382   4.319
  515SOL     OW 2431   0.979   0.060   4.486
  515SOL    HW1 2432   0.914   0.056   4.416
  515SOL    HW2 2433   0.987   5.270   4.518
  516SOL     OW 2434   1.437   1.162   4.581
  516SOL    HW1 2435   1.368   1.096   4.580
  516SOL    HW2 2436   1.461   1.174   4.490
  517SOL     OW 2437   1.466   0.606   4.702
  517SOL    HW1 2438   1.417   0.524   4.705
  517SOL    HW2 2439   1.527   0.601   4.776
  518SOL     OW 2440   1.846   0.817   4.106
  518SOL    HW1 2441   1.902   0.765   4.165
  518SOL    HW2 2442   1.817   0.754   4.039
  519SOL     OW 2443   0.492   1.417   3.882
  519SOL    HW1 2444   0.417   1.389   3.934
  519SOL    HW2 2445   0.475   1.382   3.795
  520SOL     OW 2446   1.670   1.264   4.370
  520SOL    HW1 2447   1.764   1.268   4.384
  520SOL    HW2 2448   1.639   1.352   4.392
  521SOL     OW 2449   1.394   0.572   3.795
  521SOL    HW1 2450   1.333   0.553   3.867
  521SOL    HW2 2451   1.479   0.542   3.827
  522SOL     OW 2452   0.522   0.265   4.044
  522SOL    HW1 2453   0.569   0.216   3.976
  522SOL    HW2 2454   0.503   0.350   4.005
  523SOL     OW 2455   1.753   1.239   5.298
  523SOL    HW1 2456   1.840   1.201   5.293
  523SOL    HW2 2457   1.768   1.329   5.326
  524SOL     OW 2458   1.059   1.352   5.057
  524SOL    HW1 2459   0.984   1.322   5.108
  524SOL    HW2 2460   1.135   1.312   5.099
  525SOL     OW 2461   1.607   1.625   5.377
  525SOL    HW1 2462   1.602   1.659   5.288
  525SOL    HW2 2463   1.691   1.578   5.380
  526SOL     OW 2464   1.128   1.202   4.829
  526SOL    HW1 2465   1.070   1.242   4.895
  526SOL    HW2 2466   1.096   1.236   4.746
  527SOL     OW 2467   1.629   1.098   4.801
  527SOL    HW1 2468   1.624   1.160   4.874
  527SOL    HW2 2469   1.550   1.116   4.750
  528SOL     OW 2470   0.905   0.106   5.114
  528SOL    HW1 2471   0.936   0.073   5.030
  528SOL    HW2 2472   0.982   0.149   5.152
  529SOL     OW 2473   0.984   1.115   5.447
  529SOL    HW1 2474   0.892   1.131   5.467
  529SOL    HW2 2475   0.983   1.037   5.391
  530SOL     OW 2476   0.707   1.060   4.096
  530SOL    HW1 2477   0.696   1.044   4.190
  530SOL    HW2 2478   0.784   1.007   4.072
  531SOL     OW 2479   0.420   0.820   4.977
  531SOL    HW1 2480   0.490   0.826   5.042
  531SOL    HW2 2481   0.386   0.731   4.986
  532SOL     OW 2482   1.267   0.379   4.996
  532SOL    HW1 2483   1.300   0.456   5.043
  532SOL    HW2 2484   1.177   0.401   4.974
  533SOL     OW 2485   0.101   1.623   5.091
  533SOL    HW1 2486   0.079   1.632   4.998
  533SOL    HW2 2487   0.187   1.581   5.091
  534SOL     OW 2488   0.343   1.106   4.212
  534SOL    HW1 2489   0.353   1.185   4.159
  534SOL    HW2 2490   0.353   1.034   4.149
  535SOL     OW 2491   0.555   0.537   4.584
  535SOL    HW1 2492   0.571   0.595   4.509
  535SOL    HW2 2493   0.620   0.564   4.649
  536SOL     OW 2494   1.248   1.348   4.113
  536SOL    HW1 2495   1.303   1.420   4.144
  536SOL    HW2 2496   1.161   1.369   4.147
  537SOL     OW 2497   1.281   1.457   4.871
  537SOL    HW1 2498   1.337   1.461   4.949
  537SOL    HW2 2499   1.225   1.380   4.885
  538SOL     OW 2500   1.582   0.623   4.203
  538SOL    HW1 2501   1.535   0.677   4.266
  538SOL    HW2 2502   1.627   0.685   4.146
  539SOL     OW 2503   0.352   1.519   5.035
  539SOL    HW1 2504   0.342   1.476   4.950
  539SOL    HW2 2505   0.445   1.537   5.041
  540SOL     OW 2506   0.415   0.741   5.326
  540SOL    HW1 2507   0.473   0.789   5.268
  540SOL    HW2 2508   0.460   0.658   5.342
  541SOL     OW 2509   1.601   0.778   5.405
  541SOL    HW1 2510   1.515   0.820   5.399
  541SOL    HW2 2511   1.653   0.821   5.337
  542SOL     OW 2512   1.043   0.117   5.506
  542SOL    HW1 2513   1.070   0.196   5.459
  542SOL    HW2 2514   1.051   0.047   5.441
  543SOL     OW 2515   0.483   0.058   5.462
  543SOL    HW1 2516   0.427   5.291   5.424
  543SOL    HW2 2517   0.424   0.132   5.479
  544SOL     OW 2518   0.585   0.874   4.756
  544SOL    HW1 2519   0.617   0.964   4.755
  544SOL    HW2 2520   0.529   0.869   4.833
  545SOL     OW 2521   1.358   0.859   4.754
  545SOL    HW1 2522   1.275   0.850   4.707
  545SOL    HW2 2523   1.398   0.772   4.749
  546SOL     OW 2524   1.205   0.528   3.991
  546SOL    HW1 2525   1.210   0.448   4.043
  546SOL    HW2 2526   1.163   0.592   4.049
  547SOL     OW 2527   0.304   0.206   4.969
  547SOL    HW1 2528   0.264   0.237   5.050
  547SOL    HW2 2529   0.295   0.111   4.973
  548SOL     OW 2530   0.069   1.319   5.004
  548SOL    HW1 2531   0.091   1.259   5.076
  548SOL    HW2 2532   5.299   1.374   5.040
  549SOL     OW 2533   0.726   0.632   4.784
  549SOL    HW1 2534   0.800   0.615   4.725
  549SOL    HW2 2535   0.698   0.721   4.762
  550SOL     OW 2536   1.735   0.959   5.577
  550SOL    HW1 2537   1.688   0.898   5.519
  550SOL    HW2 2538   1.675   0.973   5.650
  551SOL     OW 2539   0.318   0.067   4.378
  551SOL    HW1 2540   0.299   0.161   4.386
  551SOL    HW2 2541   0.322   0.035   4.468
  552SOL     OW 2542   1.612   0.374   4.089
  552SOL    HW1 2543   1.645   0.311   4.153
  552SOL    HW2 2544   1.592   0.452   4.141
  553SOL     OW 2545   1.028   0.759   4.685
  553SOL    HW1 2546   1.025   0.777   4.779
  553SOL    HW2 2547   1.001   0.668   4.676
  554SOL     OW 2548   0.981   1.565   5.441
  554SOL    HW1 2549   0.967   1.610   5.358
  554SOL    HW2 2550   1.026   1.484   5.417
  555SOL     OW 2551   1.854   1.506   5.331
  555SOL    HW1 2552   1.872   1.531   5.240
  555SOL    HW2 2553   1.936   1.525   5.377
  556SOL     OW 2554   0.354   0.917   5.531
  556SOL    HW1 2555   0.434   0.938   5.577
  556SOL    HW2 2556   0.380   0.853   5.465
  557SOL     OW 2557   1.527   0.272   3.850
  557SOL    HW1 2558   1.462   0.208   3.881
  557SOL    HW2 2559   1.563   0.310   3.930
  558SOL     OW 2560   1.292   0.826   3.755
  558SOL    HW1 2561   1.334   0.741   3.759
  558SOL    HW2 2562   1.323   0.866   3.674
  559SOL     OW 2563   1.066   1.335   4.578
  559SOL    HW1 2564   1.069   1.263   4.515
  559SOL    HW2 2565   1.128   1.400   4.543
  560SOL     OW 2566   0.314   0.810   4.674
  560SOL    HW1 2567   0.408   0.828   4.670
  560SOL    HW2 2568   0.309   0.720   4.705
  561SOL     OW 2569   0.336   0.526   4.739
  561SOL    HW1 2570   0.299   0.439   4.723
  561SOL    HW2 2571   0.411   0.531   4.680
  562SOL     OW 2572   1.135   0.378   5.412
  562SOL    HW1 2573   1.088   0.432   5.475
  562SOL    HW2 2574   1.223   0.417   5.408
  563SOL     OW 2575   1.134   0.223   5.190
  563SOL    HW1 2576   1.138   0.281   5.265
  563SOL    HW2 2577   1.189   0.264   5.124
  564SOL     OW 2578   0.002   1.330   3.934
  564SOL    HW1 2579   5.227   1.319   3.875
  564SOL    HW2 2580   0.012   1.244   3.975
  565SOL     OW 2581   0.093   1.782   4.674
  565SOL    HW1 2582   0.059   1.711   4.619
  565SOL    HW2 2583   0.180   1.800   4.640
  566SOL     OW 2584   0.505   1.573   4.631
  566SOL    HW1 2585   0.572   1.639   4.652
  566SOL    HW2 2586   0.548   1.512   4.572
  567SOL     OW 2587   0.984   0.792   4.951
  567SOL    HW1 2588   1.039   0.769   5.025
  567SOL    HW2 2589   0.898   0.755   4.972
  568SOL     OW 2590   0.036   0.566   4.843
  568SOL    HW1 2591   0.118   0.535   4.804
  568SOL    HW2 2592   0.038   0.533   4.933
  569SOL     OW 2593   0.167   0.515   5.439
  569SOL    HW1 2594   0.251   0.495   5.398
  569SOL    HW2 2595   0.137   0.594   5.395
  570SOL     OW 2596   1.377   0.939   5.383
  570SOL    HW1 2597   1.398   1.032   5.381
  570SOL    HW2 2598   1.374   0.913   5.290
  571SOL     OW 2599   0.814   0.572   4.085
  571SOL    HW1 2600   0.818   0.497   4.025
  571SOL    HW2 2601   0.740   0.624   4.054
  572SOL     OW 2602   1.642   0.601   4.910
  572SOL    HW1 2603   1.631   0.542   4.984
  572SOL    HW2 2604   1.729   0.581   4.876
  573SOL     OW 2605   0.257   1.556   5.459
  573SOL    HW1 2606   0.234   1.619   5.527
  573SOL    HW2 2607   0.249   1.471   5.502
  574SOL     OW 2608   0.697   0.453   4.985
  574SOL    HW1 2609   0.648   0.378   4.951
  574SOL    HW2 2610   0.697   0.517   4.914
  575SOL     OW 2611   0.928   1.679   5.192
  575SOL    HW1 2612   0.902   1.645   5.106
  575SOL    HW2 2613   0.924   1.774   5.182
  576SOL     OW 2614   0.464   0.492   3.904
  576SOL    HW1 2615   0.526   0.561   3.927
  576SOL    HW2 2616   0.380   0.538   3.897
  577SOL     OW 2617   0.148   1.138   5.195
  577SOL    HW1 2618   0.146   1.089   5.277
  577SOL    HW2 2619   0.160   1.071   5.128
  578SOL     OW 2620   1.326   1.047   4.947
  578SOL    HW1 2621   1.350   0.984   4.879
  578SOL    HW2 2622   1.255   1.099   4.908
  579SOL     OW 2623   1.311   0.856   4.030
  579SOL    HW1 2624   1.235   0.826   4.080
  579SOL    HW2 2625   1.287   0.843   3.939
  580SOL     OW 2626   1.762   1.744   4.870
  580SOL    HW1 2627   1.827   1.773   4.807
  580SOL    HW2 2628   1.746   1.652   4.847
  581SOL     OW 2629   1.241   1.733   4.836
  581SOL    HW1 2630   1.323   1.754   4.792
  581SOL    HW2 2631   1.247   1.639   4.855
  582SOL     OW 2632   0.082   1.217   4.751
  582SOL    HW1 2633   0.070   1.243   4.843
  582SOL    HW2 2634   5.294   1.206   4.717
  583SOL     OW 2635   0.678   1.666   5.453
  583SOL    HW1 2636   0.623   1.744   5.447
  583SOL    HW2 2637   0.742   1.677   5.383
  584SOL     OW 2638   1.712   0.148   4.227
  584SOL    HW1 2639   1.788   0.128   4.172
  584SOL    HW2 2640   1.705   0.074   4.286
  585SOL     OW 2641   1.389   1.567   4.210
  585SOL    HW1 2642   1.449   1.599   4.142
  585SOL    HW2 2643   1.341   1.645   4.238
  586SOL     OW 2644   0.145   1.798   5.566
  586SOL    HW1 2645   0.090   1.735   5.613
  586SOL    HW2 2646   0.191   1.846   5.635
  587SOL     OW 2647   1.277   0.925   4.395
  587SOL    HW1 2648   1.351   0.865   4.402
  587SOL    HW2 2649   1.311   0.998   4.343
  588SOL     OW 2650   0.815   1.273   5.154
  588SOL    HW1 2651   0.786   1.313   5.237
  588SOL    HW2 2652   0.745   1.295   5.092
  589SOL     OW 2653   0.672   1.619   3.879
  589SOL    HW1 2654   0.683   1.632   3.785
  589SOL    HW2 2655   0.618   1.541   3.887
  590SOL     OW 2656   1.627   1.725   5.114
  590SOL    HW1 2657   1.675   1.734   5.032
  590SOL    HW2 2658   1.610   1.814   5.143
  591SOL     OW 2659   1.845   0.157   4.681
  591SOL    HW1 2660   1.845   0.062   4.669
  591SOL    HW2 2661   1.759   0.186   4.653
  592SOL     OW 2662   0.270   0.328   4.442
  592SOL    HW1 2663   0.184   0.366   4.426
  592SOL    HW2 2664   0.273   0.313   4.537
  593SOL     OW 2665   1.207   1.606   3.756
  593SOL    HW1 2666   1.198   1.515   3.782
  593SOL    HW2 2667   1.142   1.618   3.686
  594SOL     OW 2668   0.824   1.006   5.096
  594SOL    HW1 2669   0.868   1.001   5.011
  594SOL    HW2 2670   0.823   1.099   5.118
  595SOL     OW 2671   0.915   0.910   4.014
  595SOL    HW1 2672   0.976   0.942   3.947
  595SOL    HW2 2673   0.963   0.841   4.059
  596SOL     OW 2674   1.492   1.624   3.765
  596SOL    HW1 2675   1.398   1.619   3.752
  596SOL    HW2 2676   1.529   1.631   3.677
  597SOL     OW 2677   0.367   1.304   5.217
  597SOL    HW1 2678   0.359   1.378   5.158
  597SOL    HW2 2679   0.291   1.249   5.197
  598SOL     OW 2680   1.611   1.283   5.004
  598SOL    HW1 2681   1.671   1.273   5.077
  598SOL    HW2 2682   1.551   1.352   5.032
  599SOL     OW 2683   1.052   1.107   4.430
  599SOL    HW1 2684   0.981   1.055   4.470
  599SOL    HW2 2685   1.114   1.041   4.399
  600SOL     OW 2686   1.020   0.243   4.692
  600SOL    HW1 2687   1.000   0.197   4.610
  600SOL    HW2 2688   1.012   0.176   4.760
  601SOL     OW 2689   0.601   1.487   4.205
  601SOL    HW1 2690   0.646   1.439   4.136
  601SOL    HW2 2691   0.535   1.539   4.159
  602SOL     OW 2692   1.724   0.387   5.102
  602SOL    HW1 2693   1.794   0.452   5.102
  602SOL    HW2 2694   1.756   0.317   5.044
  603SOL     OW 2695   0.260   1.348   4.016
  603SOL    HW1 2696   0.167   1.350   3.994
  603SOL    HW2 2697   0.264   1.385   4.104
  604SOL     OW 2698   0.116   1.015   5.441
  604SOL    HW1 2699   0.044   0.982   5.496
  604SOL    HW2 2700   0.195   0.985   5.485
  605SOL     OW 2701   0.674   0.214   5.213
  605SOL    HW1 2702   0.758   0.197   5.169
  605SOL    HW2 2703   0.698   0.260   5.294
  606SOL     OW 2704   0.079   0.337   3.761
  606SOL    HW1 2705   5.287   0.311   3.750
  606SOL    HW2 2706   0.093   0.405   3.695
  607SOL     OW 2707   1.430   0.858   5.124
  607SOL    HW1 2708   1.381   0.919   5.069
  607SOL    HW2 2709   1.519   0.861   5.091
  608SOL     OW 2710   0.083   0.141   4.018
  608SOL    HW1 2711   0.077   0.235   4.000
  608SOL    HW2 2712   0.170   0.116   3.987
  609SOL     OW 2713   1.179   1.339   3.841
  609SOL    HW1 2714   1.088   1.310   3.844
  609SOL    HW2 2715   1.207   1.340   3.932
  610SOL     OW 2716   0.619   0.831   5.159
  610SOL    HW1 2717   0.675   0.907   5.143
  610SOL    HW2 2718   0.681   0.758   5.167
  611SOL     OW 2719   1.486   1.776   4.702
  611SOL    HW1 2720   1.509   1.838   4.633
  611SOL    HW2 2721   1.568   1.762   4.750
  612SOL     OW 2722   0.713   0.573   5.428
  612SOL    HW1 2723   0.756   0.636   5.485
  612SOL    HW2 2724   0.746   0.488   5.458
  613SOL     OW 2725   1.471   1.200   5.356
  613SOL    HW1 2726   1.459   1.214   5.450
  613SOL    HW2 2727   1.565   1.215   5.341
  614SOL     OW 2728   0.378   1.742   5.288
  614SOL    HW1 2729   0.295   1.788   5.272
  614SOL    HW2 2730   0.353   1.662   5.333
  615SOL     OW 2731   1.670   0.881   4.979
  615SOL    HW1 2732   1.663   0.796   4.936
  615SOL    HW2 2733   1.660   0.945   4.908
  616SOL     OW 2734   1.221   0.319   4.189
  616SOL    HW1 2735   1.284   0.247   4.183
  616SOL    HW2 2736   1.251   0.371   4.264
  617SOL     OW 2737   0.590   0.738   4.393
  617SOL    HW1 2738   0.629   0.824   4.377
  617SOL    HW2 2739   0.521   0.731   4.327
  618SOL     OW 2740   1.766   0.361   5.373
  618SOL    HW1 2741   1.747   0.376   5.280
  618SOL    HW2 2742   1.695   0.306   5.404
  619SOL     OW 2743   1.744   0.934   5.236
  619SOL    HW1 2744   1.743   1.028   5.250
  619SOL    HW2 2745   1.729   0.922   5.143
  620SOL     OW 2746   0.862   1.367   3.758
  620SOL    HW1 2747   0.824   1.396   3.841
  620SOL    HW2 2748   0.881   1.448   3.710
  621SOL     OW 2749   0.663   1.794   4.668
  621SOL    HW1 2750   0.642   1.884   4.645
  621SOL    HW2 2751   0.758   1.789   4.661
  622SOL     OW 2752   0.867   0.966   4.578
  622SOL    HW1 2753   0.918   0.895   4.618
  622SOL    HW2 2754   0.833   1.016   4.653
  623SOL     OW 2755   1.077   0.987   3.812
  623SOL    HW1 2756   1.057   1.039   3.734
  623SOL    HW2 2757   1.154   0.934   3.787
  624SOL     OW 2758   1.856   1.553   4.568
  624SOL    HW1 2759   1.776   1.545   4.515
  624SOL    HW2 2760   1.843   1.492   4.640
  625SOL     OW 2761   0.225   1.305   5.584
  625SOL    HW1 2762   0.156   1.243   5.558
  625SOL    HW2 2763   0.214   1.316   5.678
  626SOL     OW 2764   0.087   1.219   4.378
  626SOL    HW1 2765   0.100   1.188   4.467
  626SOL    HW2 2766   0.174   1.214   4.338
  627SOL     OW 2767   0.681   1.402   5.352
  627SOL    HW1 2768   0.600   1.360   5.382
  627SOL    HW2 2769   0.677   1.491   5.388
  628SOL     OW 2770   1.814   0.177   4.957
  628SOL    HW1 2771   1.781   0.088   4.962
  628SOL    HW2 2772   1.832   0.190   4.864
  629SOL     OW 2773   0.432   0.436   4.246
  629SOL    HW1 2774   0.464   0.362   4.194
  629SOL    HW2 2775   0.387   0.396   4.320
  630SOL     OW 2776   1.704   1.485   4.816
  630SOL    HW1 2777   1.621   1.464   4.774
  630SOL    HW2 2778   1.714   1.419   4.884
  631SOL     OW 2779   0.336   0.560   5.013
  631SOL    HW1 2780   0.393   0.503   5.064
  631SOL    HW2 2781   0.350   0.533   4.922
  632SOL     OW 2782   0.828   1.577   4.402
  632SOL    HW1 2783   0.816   1.632   4.324
  632SOL    HW2 2784   0.751   1.521   4.404
  633SOL     OW 2785   1.428   0.218   4.840
  633SOL    HW1 2786   1.465   0.144   4.888
  633SOL    HW2 2787   1.379   0.268   4.906
  634SOL     OW 2788   1.002   0.021   4.865
  634SOL    HW1 2789   0.951   5.252   4.821
  634SOL    HW2 2790   1.088   5.283   4.878
  635SOL     OW 2791   0.771   1.333   4.039
  635SOL    HW1 2792   0.742   1.242   4.045
  635SOL    HW2 2793   0.854   1.334   4.088
  636SOL     OW 2794   0.622   1.556   5.011
  636SOL    HW1 2795   0.624   1.638   5.060
  636SOL    HW2 2796   0.709   1.550   4.972
  637SOL     OW 2797   1.354   0.039   3.886
  637SOL    HW1 2798   1.388   5.297   3.807
  637SOL    HW2 2799   1.276   5.288   3.908
  638SOL     OW 2800   1.301   0.464   4.409
  638SOL    HW1 2801   1.246   0.542   4.414
  638SOL    HW2 2802   1.294   0.423   4.495
  639SOL     OW 2803   1.594   0.216   4.606
  639SOL    HW1 2804   1.528   0.227   4.674
  639SOL    HW2 2805   1.587   0.294   4.552
  640SOL     OW 2806   0.048   1.069   4.014
  640SOL    HW1 2807   0.137   1.037   4.003
  640SOL    HW2 2808   5.300   0.994   4.049
  641SOL     OW 2809   0.884   1.651   4.066
  641SOL    HW1 2810   0.812   1.636   4.006
  641SOL    HW2 2811   0.857   1.727   4.118
  642SOL     OW 2812   0.233   0.633   5.703
  642SOL    HW1 2813   0.157   0.606   5.755
  642SOL    HW2 2814   0.214   0.600   5.615
  643SOL     OW 2815   0.233   0.281   6.576
  643SOL    HW1 2816   0.252   0.243   6.662
  643SOL    HW2 2817   0.153   0.237   6.548
  644SOL     OW 2818   5.300   0.406   6.250
  644SOL    HW1 2819   5.207   0.428   6.254
  644SOL    HW2 2820   0.002   0.316   6.219
  645SOL     OW 2821   0.574   1.284   6.767
  645SOL    HW1 2822   0.491   1.292   6.720
  645SOL    HW2 2823   0.590   1.371   6.802
  646SOL     OW 2824   1.561   1.511   6.292
  646SOL    HW1 2825   1.518   1.492   6.376
  646SOL    HW2 2826   1.489   1.516   6.229
  647SOL     OW 2827   1.131   0.698   6.288
  647SOL    HW1 2828   1.180   0.779   6.273
  647SOL    HW2 2829   1.084   0.713   6.370
  648SOL     OW 2830   1.766   0.606   5.815
  648SOL    HW1 2831   1.746   0.598   5.721
  648SOL    HW2 2832   1.732   0.526   5.853
  649SOL     OW 2833   0.755   1.141   6.625
  649SOL    HW1 2834   0.688   1.175   6.684
  649SOL    HW2 2835   0.791   1.219   6.581
  650SOL     OW 2836   0.863   0.780   7.406
  650SOL    HW1 2837   0.856   0.854   7.465
  650SOL    HW2 2838   0.890   0.818   7.322
  651SOL     OW 2839   0.685   1.003   6.233
  651SOL    HW1 2840   0.751   0.991   6.302
  651SOL    HW2 2841   0.617   1.056   6.275
  652SOL     OW 2842   0.709   1.151   7.399
  652SOL    HW1 2843   0.758   1.229   7.425
  652SOL    HW2 2844   0.627   1.185   7.362
  653SOL     OW 2845   0.358   1.405   6.645
  653SOL    HW1 2846   0.270   1.406   6.609
  653SOL    HW2 2847   0.407   1.467   6.592
  654SOL     OW 2848   1.461   1.499   6.940
  654SOL    HW1 2849   1.511   1.580   6.949
  654SOL    HW2 2850   1.399   1.500   7.013
  655SOL     OW 2851   0.448   0.400   7.079
  655SOL    HW1 2852   0.528   0.347   7.072
  655SOL    HW2 2853   0.377   0.336   7.082
  656SOL     OW 2854   1.610   0.451   6.324
  656SOL    HW1 2855   1.535   0.475   6.270
  656SOL    HW2 2856   1.629   0.530   6.375
  657SOL     OW 2857   0.231   1.714   6.064
  657SOL    HW1 2858   0.264   1.783   6.121
  657SOL    HW2 2859   0.293   1.711   5.991
  658SOL     OW 2860   1.136   1.341   7.276
  658SOL    HW1 2861   1.177   1.338   7.363
  658SOL    HW2 2862   1.085   1.261   7.271
  659SOL     OW 2863   0.222   1.444   6.125
  659SOL    HW1 2864   0.216   1.539   6.121
  659SOL    HW2 2865   0.151   1.418   6.185
  660SOL     OW 2866   0.249   1.078   6.461
  660SOL    HW1 2867   0.261   0.993   6.504
  660SOL    HW2 2868   0.198   1.129   6.523
  661SOL     OW 2869   0.614   1.790   7.018
  661SOL    HW1 2870   0.530   1.773   7.061
  661SOL    HW2 2871   0.635   1.881   7.041
  662SOL     OW 2872   0.583   0.983   5.721
  662SOL    HW1 2873   0.629   1.031   5.652
  662SOL    HW2 2874   0.625   1.012   5.802
  663SOL     OW 2875   1.586   0.135   7.043
  663SOL    HW1 2876   1.608   0.220   7.004
  663SOL    HW2 2877   1.584   0.152   7.137
  664SOL     OW 2878   0.124   0.636   6.163
  664SOL    HW1 2879   0.090   0.553   6.197
  664SOL    HW2 2880   0.098   0.701   6.228
  665SOL     OW 2881   1.842   1.759   5.922
  665SOL    HW1 2882   1.907   1.731   5.986
  665SOL    HW2 2883   1.866   1.850   5.902
  666SOL     OW 2884   0.038   1.599   5.718
  666SOL    HW1 2885   0.024   1.507   5.743
  666SOL    HW2 2886   5.283   1.649   5.778
  667SOL     OW 2887   1.689   0.918   6.226
  667SOL    HW1 2888   1.772   0.876   6.206
  667SOL    HW2 2889   1.667   0.969   6.148
  668SOL     OW 2890   1.646   1.107   6.015
  668SOL    HW1 2891   1.731   1.112   5.973
  668SOL    HW2 2892   1.651   1.168   6.089
  669SOL     OW 2893   0.130   0.749   7.173
  669SOL    HW1 2894   0.224   0.764   7.173
  669SOL    HW2 2895   0.092   0.835   7.189
  670SOL     OW 2896   0.615   1.385   6.321
  670SOL    HW1 2897   0.568   1.303   6.331
  670SOL    HW2 2898   0.598   1.412   6.230
  671SOL     OW 2899   1.289   1.238   7.009
  671SOL    HW1 2900   1.321   1.171   6.950
  671SOL    HW2 2901   1.346   1.232   7.086
  672SOL     OW 2902   0.814   0.027   6.113
  672SOL    HW1 2903   0.842   0.115   6.089
  672SOL    HW2 2904   0.719   0.029   6.105
  673SOL     OW 2905   0.176   0.945   6.865
  673SOL    HW1 2906   0.267   0.917   6.854
  673SOL    HW2 2907   0.134   0.923   6.781
  674SOL     OW 2908   1.531   0.993   5.784
  674SOL    HW1 2909   1.462   0.936   5.816
  674SOL    HW2 2910   1.572   1.028   5.864
  675SOL     OW 2911   1.185   1.806   7.208
  675SOL    HW1 2912   1.196   1.865   7.133
  675SOL    HW2 2913   1.202   1.719   7.172
  676SOL     OW 2914   0.325   0.273   7.388
  676SOL    HW1 2915   0.387   0.336   7.426
  676SOL    HW2 2916   0.245   0.284   7.439
  677SOL     OW 2917   1.467   1.420   6.538
  677SOL    HW1 2918   1.398   1.435   6.603
  677SOL    HW2 2919   1.454   1.329   6.511
  678SOL     OW 2920   1.658   1.739   6.164
  678SOL    HW1 2921   1.639   1.710   6.075
  678SOL    HW2 2922   1.634   1.665   6.220
  679SOL     OW 2923   0.594   0.721   5.851
  679SOL    HW1 2924   0.603   0.802   5.801
  679SOL    HW2 2925   0.530   0.741   5.919
  680SOL     OW 2926   1.278   0.347   6.517
  680SOL    HW1 2927   1.188   0.318   6.529
  680SOL    HW2 2928   1.328   0.297   6.581
  681SOL     OW 2929   1.581   1.670   5.895
  681SOL    HW1 2930   1.671   1.702   5.888
  681SOL    HW2 2931   1.554   1.653   5.805
  682SOL     OW 2932   0.794   0.618   7.037
  682SOL    HW1 2933   0.765   0.596   7.126
  682SOL    HW2 2934   0.751   0.552   6.982
  683SOL     OW 2935   1.395   0.475   7.264
  683SOL    HW1 2936   1.396   0.520   7.348
  683SOL    HW2 2937   1.458   0.404   7.273
  684SOL     OW 2938   0.955   0.887   7.168
  684SOL    HW1 2939   1.010   0.818   7.132
  684SOL    HW2 2940   0.907   0.922   7.092
  685SOL     OW 2941   0.994   0.417   6.821
  685SOL    HW1 2942   0.909   0.438   6.860
  685SOL    HW2 2943   0.972   0.368   6.742
  686SOL     OW 2944   1.051   0.698   6.013
  686SOL    HW1 2945   1.066   0.691   6.107
  686SOL    HW2 2946   0.968   0.652   5.999
  687SOL     OW 2947   0.071   0.788   6.398
  687SOL    HW1 2948   0.153   0.793   6.447
  687SOL    HW2 2949   0.063   0.873   6.356
  688SOL     OW 2950   0.129   1.884   7.170
  688SOL    HW1 2951   0.131   1.854   7.261
  688SOL    HW2 2952   0.059   1.833   7.130
  689SOL     OW 2953   0.873   0.364   5.774
  689SOL    HW1 2954   0.915   0.423   5.712
  689SOL    HW2 2955   0.927   0.285   5.772
  690SOL     OW 2956   1.709   0.575   7.415
  690SOL    HW1 2957   1.671   0.649   7.368
  690SOL    HW2 2958   1.737   0.515   7.347
  691SOL     OW 2959   1.376   1.142   6.127
  691SOL    HW1 2960   1.456   1.129   6.075
  691SOL    HW2 2961   1.324   1.204   6.077
  692SOL     OW 2962   0.537   0.202   6.469
  692SOL    HW1 2963   0.554   0.220   6.562
  692SOL    HW2 2964   0.549   0.286   6.426
  693SOL     OW 2965   1.005   1.444   6.058
  693SOL    HW1 2966   0.968   1.517   6.009
  693SOL    HW2 2967   0.989   1.466   6.150
  694SOL     OW 2968   0.357   1.802   6.455
  694SOL    HW1 2969   0.397   1.717   6.468
  694SOL    HW2 2970   0.423   1.865   6.484
  695SOL     OW 2971   1.799   1.057   6.454
  695SOL    HW1 2972   1.744   1.040   6.378
  695SOL    HW2 2973   1.737   1.062   6.527
  696SOL     OW 2974   1.228   1.539   7.099
  696SOL    HW1 2975   1.214   1.466   7.159
  696SOL    HW2 2976   1.164   1.525   7.029
  697SOL     OW 2977   0.316   0.952   5.834
  697SOL    HW1 2978   0.398   0.977   5.790
  697SOL    HW2 2979   0.294   0.867   5.797
  698SOL     OW 2980   1.478   0.742   6.313
  698SOL    HW1 2981   1.470   0.700   6.398
  698SOL    HW2 2982   1.556   0.798   6.321
  699SOL     OW 2983   0.464   1.262   7.323
  699SOL    HW1 2984   0.437   1.269   7.232
  699SOL    HW2 2985   0.382   1.264   7.372
  700SOL     OW 2986   1.121   1.777   5.817
  700SOL    HW1 2987   1.049   1.735   5.863
  700SOL    HW2 2988   1.145   1.716   5.747
  701SOL     OW 2989   0.198   0.279   7.078
  701SOL    HW1 2990   0.158   0.366   7.073
  701SOL    HW2 2991   0.206   0.262   7.172
  702SOL     OW 2992   1.628   1.379   5.674
  702SOL    HW1 2993   1.588   1.465   5.658
  702SOL    HW2 2994   1.559   1.316   5.654
  703SOL     OW 2995   0.471   1.735   5.906
  703SOL    HW1 2996   0.513   1.793   5.969
  703SOL    HW2 2997   0.542   1.704   5.850
  704SOL     OW 2998   1.407   0.100   6.017
  704SOL    HW1 2999   1.399   0.082   5.923
  704SOL    HW2 3000   1.499   0.122   6.030
  705SOL     OW 3001   0.276   1.801   6.800
  705SOL    HW1 3002   0.307   1.724   6.847
  705SOL    HW2 3003   0.225   1.766   6.727
  706SOL     OW 3004   0.939   1.699   6.485
  706SOL    HW1 3005   1.017   1.647   6.505
  706SOL    HW2 3006   0.894   1.649   6.416
  707SOL     OW 3007   0.385   0.696   6.065
  707SOL    HW1 3008   0.415   0.605   6.073
  707SOL    HW2 3009   0.292   0.693   6.086
  708SOL     OW 3010   1.539   0.227   7.310
  708SOL    HW1 3011   1.546   0.246   7.404
  708SOL    HW2 3012   1.463   0.169   7.303
  709SOL     OW 3013   0.621   0.132   5.693
  709SOL    HW1 3014   0.688   0.069   5.717
  709SOL    HW2 3015   0.574   0.091   5.620
  710SOL     OW 3016   0.780   0.312   7.349
  710SOL    HW1 3017   0.842   0.239   7.351
  710SOL    HW2 3018   0.741   0.313   7.436
  711SOL     OW 3019   0.877   1.521   6.779
  711SOL    HW1 3020   0.861   1.485   6.692
  711SOL    HW2 3021   0.947   1.467   6.815
  712SOL     OW 3022   1.341   0.589   7.018
  712SOL    HW1 3023   1.371   0.558   7.103
  712SOL    HW2 3024   1.377   0.677   7.010
  713SOL     OW 3025   0.815   1.394   6.525
  713SOL    HW1 3026   0.900   1.384   6.481
  713SOL    HW2 3027   0.751   1.396   6.454
  714SOL     OW 3028   0.927   0.510   6.490
  714SOL    HW1 3029   0.903   0.502   6.397
  714SOL    HW2 3030   0.959   0.423   6.514
  715SOL     OW 3031   0.547   0.058   6.090
  715SOL    HW1 3032   0.469   0.060   6.144
  715SOL    HW2 3033   0.535   0.130   6.028
  716SOL     OW 3034   1.428   1.198   5.627
  716SOL    HW1 3035   1.458   1.123   5.677
  716SOL    HW2 3036   1.343   1.219   5.665
  717SOL     OW 3037   0.315   0.064   5.771
  717SOL    HW1 3038   0.381   0.130   5.750
  717SOL    HW2 3039   0.364   5.283   5.782
  718SOL     OW 3040   0.940   0.262   6.049
  718SOL    HW1 3041   0.912   0.299   5.965
  718SOL    HW2 3042   1.035   0.273   6.049
  719SOL     OW 3043   1.081   0.681   7.045
  719SOL    HW1 3044   1.012   0.614   7.051
  719SOL    HW2 3045   1.162   0.632   7.039
  720SOL     OW 3046   1.223   1.570   6.380
  720SOL    HW1 3047   1.239   1.637   6.313
  720SOL    HW2 3048   1.292   1.584   6.445
  721SOL     OW 3049   0.467   1.150   6.318
  721SOL    HW1 3050   0.398   1.130   6.381
  721SOL    HW2 3051   0.428   1.132   6.232
  722SOL     OW 3052   1.269   1.794   6.194
  722SOL    HW1 3053   1.315   1.855   6.137
  722SOL    HW2 3054   1.203   1.847   6.238
  723SOL     OW 3055   1.025   0.546   5.608
  723SOL    HW1 3056   0.984   0.630   5.590
  723SOL    HW2 3057   1.090   0.566   5.677
  724SOL     OW 3058   0.098   0.530   6.998
  724SOL    HW1 3059   0.178   0.550   6.949
  724SOL    HW2 3060   0.077   0.612   7.043
  725SOL     OW 3061   0.560   0.239   6.744
  725SOL    HW1 3062   0.591   0.152   6.770
  725SOL    HW2 3063   0.467   0.239   6.768
  726SOL     OW 3064   0.867   0.463   6.227
  726SOL    HW1 3065   0.821   0.516   6.162
  726SOL    HW2 3066   0.890   0.382   6.181
  727SOL     OW 3067   0.979   0.060   6.348
  727SOL    HW1 3068   0.914   0.055   6.278
  727SOL    HW2 3069   0.987   5.270   6.380
  728SOL     OW 3070   1.437   1.163   6.443
  728SOL    HW1 3071   1.368   1.097   6.441
  728SOL    HW2 3072   1.462   1.174   6.352
  729SOL     OW 3073   1.466   0.606   6.564
  729SOL    HW1 3074   1.417   0.524   6.567
  729SOL    HW2 3075   1.527   0.601   6.638
  730SOL     OW 3076   1.845   0.817   5.969
  730SOL    HW1 3077   1.902   0.765   6.027
  730SOL    HW2 3078   1.817   0.754   5.901
  731SOL     OW 3079   0.492   1.417   5.744
  731SOL    HW1 3080   0.417   1.389   5.796
  731SOL    HW2 3081   0.475   1.382   5.657
  732SOL     OW 3082   1.670   1.264   6.233
  732SOL    HW1 3083   1.765   1.267   6.245
  732SOL    HW2 3084   1.640   1.352   6.253
  733SOL     OW 3085   1.394   0.572   5.657
  733SOL    HW1 3086   1.333   0.552   5.729
  733SOL    HW2 3087   1.479   0.542   5.689
  734SOL     OW 3088   0.522   0.265   5.906
  734SOL    HW1 3089   0.569   0.216   5.838
  734SOL    HW2 3090   0.503   0.350   5.867
  735SOL     OW 3091   1.752   1.239   7.159
  735SOL    HW1 3092   1.840   1.200   7.155
  735SOL    HW2 3093   1.767   1.328   7.189
  736SOL     OW 3094   1.059   1.353   6.919
  736SOL    HW1 3095   0.984   1.322   6.971
  736SOL    HW2 3096   1.135   1.312   6.961
  737SOL     OW 3097   1.607   1.625   7.238
  737SOL    HW1 3098   1.603   1.659   7.149
  737SOL    HW2 3099   1.690   1.578   7.241
  738SOL     OW 3100   1.128   1.202   6.691
  738SOL    HW1 3101   1.070   1.242   6.757
  738SOL    HW2 3102   1.096   1.236   6.608
  739SOL     OW 3103   1.628   1.098   6.663
  739SOL    HW1 3104   1.624   1.160   6.736
  739SOL    HW2 3105   1.549   1.115   6.612
  740SOL     OW 3106   0.905   0.106   6.976
  740SOL    HW1 3107   0.936   0.073   6.892
  740SOL    HW2 3108   0.982   0.149   7.014
  741SOL     OW 3109   0.984   1.114   7.310
  741SOL    HW1 3110   0.892   1.131   7.328
  741SOL    HW2 3111   0.984   1.037   7.254
  742SOL     OW 3112   0.707   1.059   5.958
  742SOL    HW1 3113   0.696   1.044   6.052
  742SOL    HW2 3114   0.784   1.007   5.934
  743SOL     OW 3115   0.420   0.820   6.839
  743SOL    HW1 3116   0.490   0.826   6.904
  743SOL    HW2 3117   0.386   0.731   6.848
  744SOL     OW 3118   1.267   0.379   6.858
  744SOL    HW1 3119   1.300   0.456   6.905
  744SOL    HW2 3120   1.177   0.401   6.836
  745SOL     OW 3121   0.102   1.623   6.953
  745SOL    HW1 3122   0.079   1.632   6.860
  745SOL    HW2 3123   0.188   1.581   6.953
  746SOL     OW 3124   0.343   1.106   6.074
  746SOL    HW1 3125   0.353   1.185   6.021
  746SOL    HW2 3126   0.353   1.034   6.011
  747SOL     OW 3127   0.555   0.537   6.446
  747SOL    HW1 3128   0.570   0.595   6.371
  747SOL    HW2 3129   0.620   0.564   6.511
  748SOL     OW 3130   1.248   1.348   5.975
  748SOL    HW1 3131   1.304   1.420   6.006
  748SOL    HW2 3132   1.161   1.370   6.009
  749SOL     OW 3133   1.281   1.457   6.733
  749SOL    HW1 3134   1.337   1.460   6.811
  749SOL    HW2 3135   1.225   1.381   6.746
  750SOL     OW 3136   1.582   0.623   6.065
  750SOL    HW1 3137   1.536   0.677   6.128
  750SOL    HW2 3138   1.628   0.685   6.008
  751SOL     OW 3139   0.352   1.519   6.897
  751SOL    HW1 3140   0.342   1.476   6.812
  751SOL    HW2 3141   0.445   1.537   6.903
  752SOL     OW 3142   0.415   0.741   7.189
  752SOL    HW1 3143   0.472   0.790   7.130
  752SOL    HW2 3144   0.461   0.658   7.204
  753SOL     OW 3145   1.601   0.778   7.267
  753SOL    HW1 3146   1.515   0.819   7.261
  753SOL    HW2 3147   1.653   0.821   7.200
  754SOL     OW 3148   1.042   0.116   7.369
  754SOL    HW1 3149   1.071   0.195   7.324
  754SOL    HW2 3150   1.051   0.047   7.304
  755SOL     OW 3151   0.482   0.059   7.324
  755SOL    HW1 3152   0.427   5.291   7.286
  755SOL    HW2 3153   0.423   0.132   7.341
  756SOL     OW 3154   0.586   0.874   6.618
  756SOL    HW1 3155   0.617   0.964   6.616
  756SOL    HW2 3156   0.529   0.870   6.695
  757SOL     OW 3157   1.358   0.859   6.616
  757SOL    HW1 3158   1.275   0.850   6.569
  757SOL    HW2 3159   1.398   0.772   6.610
  758SOL     OW 3160   1.205   0.528   5.853
  758SOL    HW1 3161   1.210   0.448   5.905
  758SOL    HW2 3162   1.163   0.592   5.911
  759SOL     OW 3163   0.305   0.206   6.831
  759SOL    HW1 3164   0.263   0.237   6.912
  759SOL    HW2 3165   0.295   0.110   6.835
  760SOL     OW 3166   0.069   1.319   6.866
  760SOL    HW1 3167   0.091   1.259   6.938
  760SOL    HW2 3168   5.299   1.374   6.902
  761SOL     OW 3169   0.726   0.632   6.646
  761SOL    HW1 3170   0.800   0.615   6.587
  761SOL    HW2 3171   0.698   0.721   6.624
  762SOL     OW 3172   1.735   0.959   7.438
  762SOL    HW1 3173   1.687   0.899   7.382
  762SOL    HW2 3174   1.677   0.973   7.513
  763SOL     OW 3175   0.318   0.067   6.240
  763SOL    HW1 3176   0.299   0.161   6.248
  763SOL    HW2 3177   0.322   0.036   6.330
  764SOL     OW 3178   1.612   0.374   5.951
  764SOL    HW1 3179   1.645   0.311   6.015
  764SOL    HW2 3180   1.592   0.452   6.003
  765SOL     OW 3181   1.028   0.759   6.547
  765SOL    HW1 3182   1.025   0.777   6.641
  765SOL    HW2 3183   1.001   0.668   6.539
  766SOL     OW 3184   0.981   1.565   7.302
  766SOL    HW1 3185   0.967   1.610   7.219
  766SOL    HW2 3186   1.026   1.484   7.278
  767SOL     OW 3187   1.855   1.507   7.191
  767SOL    HW1 3188   1.873   1.532   7.101
  767SOL    HW2 3189   1.936   1.524   7.238
  768SOL     OW 3190   0.353   0.914   7.395
  768SOL    HW1 3191   0.435   0.938   7.438
  768SOL    HW2 3192   0.380   0.852   7.327
  769SOL     OW 3193   1.527   0.272   5.712
  769SOL    HW1 3194   1.462   0.208   5.743
  769SOL    HW2 3195   1.563   0.310   5.792
  770SOL     OW 3196   1.292   0.826   5.617
  770SOL    HW1 3197   1.334   0.741   5.621
  770SOL    HW2 3198   1.323   0.866   5.536
  771SOL     OW 3199   1.066   1.335   6.440
  771SOL    HW1 3200   1.069   1.263   6.377
  771SOL    HW2 3201   1.127   1.400   6.405
  772SOL     OW 3202   0.314   0.810   6.536
  772SOL    HW1 3203   0.408   0.828   6.531
  772SOL    HW2 3204   0.309   0.720   6.567
  773SOL     OW 3205   0.336   0.526   6.601
  773SOL    HW1 3206   0.299   0.440   6.585
  773SOL    HW2 3207   0.411   0.531   6.542
  774SOL     OW 3208   1.136   0.377   7.274
  774SOL    HW1 3209   1.088   0.432   7.336
  774SOL    HW2 3210   1.223   0.416   7.269
  775SOL     OW 3211   1.133   0.223   7.051
  775SOL    HW1 3212   1.138   0.281   7.127
  775SOL    HW2 3213   1.189   0.264   6.985
  776SOL     OW 3214   0.002   1.330   5.796
  776SOL    HW1 3215   5.227   1.320   5.737
  776SOL    HW2 3216   0.012   1.244   5.837
  777SOL     OW 3217   0.093   1.781   6.537
  777SOL    HW1 3218   0.059   1.711   6.481
  777SOL    HW2 3219   0.180   1.800   6.502
  778SOL     OW 3220   0.505   1.573   6.493
  778SOL    HW1 3221   0.572   1.639   6.514
  778SOL    HW2 3222   0.548   1.512   6.434
  779SOL     OW 3223   0.984   0.792   6.813
  779SOL    HW1 3224   1.039   0.769   6.887
  779SOL    HW2 3225   0.898   0.755   6.834
  780SOL     OW 3226   0.036   0.565   6.705
  780SOL    HW1 3227   0.118   0.535   6.666
  780SOL    HW2 3228   0.038   0.533   6.795
  781SOL     OW 3229   0.170   0.514   7.299
  781SOL    HW1 3230   0.253   0.495   7.255
  781SOL    HW2 3231   0.138   0.593   7.256
  782SOL     OW 3232   1.377   0.939   7.245
  782SOL    HW1 3233   1.398   1.032   7.244
  782SOL    HW2 3234   1.374   0.914   7.153
  783SOL     OW 3235   0.814   0.572   5.948
  783SOL    HW1 3236   0.818   0.497   5.887
  783SOL    HW2 3237   0.740   0.624   5.916
  784SOL     OW 3238   1.642   0.601   6.772
  784SOL    HW1 3239   1.631   0.542   6.846
  784SOL    HW2 3240   1.729   0.581   6.738
  785SOL     OW 3241   0.256   1.556   7.321
  785SOL    HW1 3242   0.233   1.618   7.391
  785SOL    HW2 3243   0.250   1.470   7.363
  786SOL     OW 3244   0.696   0.453   6.848
  786SOL    HW1 3245   0.648   0.378   6.813
  786SOL    HW2 3246   0.697   0.517   6.776
  787SOL     OW 3247   0.929   1.679   7.053
  787SOL    HW1 3248   0.902   1.645   6.968
  787SOL    HW2 3249   0.924   1.774   7.044
  788SOL     OW 3250   0.464   0.492   5.766
  788SOL    HW1 3251   0.526   0.561   5.790
  788SOL    HW2 3252   0.380   0.538   5.759
  789SOL     OW 3253   0.148   1.137   7.057
  789SOL    HW1 3254   0.145   1.088   7.139
  789SOL    HW2 3255   0.160   1.070   6.990
  790SOL     OW 3256   1.326   1.047   6.809
  790SOL    HW1 3257   1.350   0.984   6.741
  790SOL    HW2 3258   1.255   1.099   6.770
  791SOL     OW 3259   1.311   0.856   5.892
  791SOL    HW1 3260   1.235   0.826   5.942
  791SOL    HW2 3261   1.287   0.843   5.801
  792SOL     OW 3262   1.771   1.745   6.736
  792SOL    HW1 3263   1.832   1.770   6.666
  792SOL    HW2 3264   1.747   1.654   6.715
  793SOL     OW 3265   1.241   1.733   6.699
  793SOL    HW1 3266   1.323   1.754   6.654
  793SOL    HW2 3267   1.247   1.639   6.717
  794SOL     OW 3268   0.082   1.216   6.613
  794SOL    HW1 3269   0.070   1.243   6.705
  794SOL    HW2 3270   5.294   1.206   6.579
  795SOL     OW 3271   0.677   1.665   7.314
  795SOL    HW1 3272   0.624   1.744   7.311
  795SOL    HW2 3273   0.743   1.677   7.245
  796SOL     OW 3274   1.712   0.148   6.089
  796SOL    HW1 3275   1.788   0.128   6.033
  796SOL    HW2 3276   1.705   0.074   6.148
  797SOL     OW 3277   1.390   1.568   6.071
  797SOL    HW1 3278   1.451   1.600   6.004
  797SOL    HW2 3279   1.342   1.645   6.099
  798SOL     OW 3280   0.141   1.799   7.429
  798SOL    HW1 3281   0.089   1.735   7.478
  798SOL    HW2 3282   0.194   1.842   7.495
  799SOL     OW 3283   1.277   0.925   6.257
  799SOL    HW1 3284   1.351   0.865   6.264
  799SOL    HW2 3285   1.311   0.998   6.204
  800SOL     OW 3286   0.815   1.273   7.016
  800SOL    HW1 3287   0.786   1.313   7.099
  800SOL    HW2 3288   0.746   1.295   6.954
  801SOL     OW 3289   0.672   1.619   5.741
  801SOL    HW1 3290   0.683   1.632   5.647
  801SOL    HW2 3291   0.618   1.541   5.749
  802SOL     OW 3292   1.627   1.727   6.977
  802SOL    HW1 3293   1.677   1.734   6.895
  802SOL    HW2 3294   1.613   1.817   7.005
  803SOL     OW 3295   1.845   0.157   6.543
  803SOL    HW1 3296   1.845   0.062   6.530
  803SOL    HW2 3297   1.759   0.186   6.515
  804SOL     OW 3298   0.270   0.328   6.304
  804SOL    HW1 3299   0.184   0.366   6.288
  804SOL    HW2 3300   0.273   0.313   6.399
  805SOL     OW 3301   1.207   1.606   5.618
  805SOL    HW1 3302   1.197   1.515   5.644
  805SOL    HW2 3303   1.142   1.618   5.548
  806SOL     OW 3304   0.824   1.006   6.958
  806SOL    HW1 3305   0.868   1.001   6.873
  806SOL    HW2 3306   0.823   1.099   6.980
  807SOL     OW 3307   0.915   0.910   5.876
  807SOL    HW1 3308   0.976   0.942   5.809
  807SOL    HW2 3309   0.963   0.841   5.921
  808SOL     OW 3310   1.492   1.625   5.628
  808SOL    HW1 3311   1.398   1.619   5.614
  808SOL    HW2 3312   1.529   1.631   5.540
  809SOL     OW 3313   0.367   1.304   7.079
  809SOL    HW1 3314   0.359   1.378   7.020
  809SOL    HW2 3315   0.291   1.249   7.059
  810SOL     OW 3316   1.611   1.283   6.867
  810SOL    HW1 3317   1.670   1.272   6.941
  810SOL    HW2 3318   1.550   1.352   6.894
  811SOL     OW 3319   1.052   1.107   6.292
  811SOL    HW1 3320   0.981   1.055   6.332
  811SOL    HW2 3321   1.114   1.042   6.261
  812SOL     OW 3322   1.019   0.243   6.554
  812SOL    HW1 3323   0.999   0.197   6.472
  812SOL    HW2 3324   1.012   0.176   6.622
  813SOL     OW 3325   0.601   1.487   6.067
  813SOL    HW1 3326   0.646   1.439   5.998
  813SOL    HW2 3327   0.535   1.539   6.021
  814SOL     OW 3328   1.724   0.386   6.965
  814SOL    HW1 3329   1.794   0.452   6.964
  814SOL    HW2 3330   1.756   0.317   6.907
  815SOL     OW 3331   0.260   1.348   5.878
  815SOL    HW1 3332   0.167   1.350   5.856
  815SOL    HW2 3333   0.264   1.385   5.966
  816SOL     OW 3334   0.116   1.014   7.302
  816SOL    HW1 3335   0.044   0.986   7.358
  816SOL    HW2 3336   0.195   0.984   7.347
  817SOL     OW 3337   0.674   0.215   7.076
  817SOL    HW1 3338   0.758   0.197   7.032
  817SOL    HW2 3339   0.699   0.260   7.157
  818SOL     OW 3340   0.079   0.336   5.623
  818SOL    HW1 3341   5.287   0.311   5.612
  818SOL    HW2 3342   0.093   0.405   5.557
  819SOL     OW 3343   1.430   0.858   6.986
  819SOL    HW1 3344   1.381   0.919   6.931
  819SOL    HW2 3345   1.519   0.861   6.953
  820SOL     OW 3346   0.083   0.141   5.880
  820SOL    HW1 3347   0.077   0.235   5.862
  820SOL    HW2 3348   0.170   0.116   5.849
  821SOL     OW 3349   1.179   1.339   5.703
  821SOL    HW1 3350   1.088   1.310   5.706
  821SOL    HW2 3351   1.207   1.340   5.794
  822SOL     OW 3352   0.619   0.831   7.021
  822SOL    HW1 3353   0.675   0.907   7.005
  822SOL    HW2 3354   0.681   0.758   7.029
  823SOL     OW 3355   1.484   1.776   6.565
  823SOL    HW1 3356   1.507   1.835   6.493
  823SOL    HW2 3357   1.567   1.758   6.609
  824SOL     OW 3358   0.712   0.573   7.290
  824SOL    HW1 3359   0.755   0.636   7.348
  824SOL    HW2 3360   0.745   0.488   7.319
  825SOL     OW 3361   1.471   1.200   7.218
  825SOL    HW1 3362   1.459   1.214   7.312
  825SOL    HW2 3363   1.564   1.215   7.204
  826SOL     OW 3364   0.378   1.742   7.150
  826SOL    HW1 3365   0.295   1.788   7.134
  826SOL    HW2 3366   0.353   1.662   7.195
  827SOL     OW 3367   1.670   0.881   6.841
  827SOL    HW1 3368   1.663   0.796   6.798
  827SOL    HW2 3369   1.660   0.945   6.770
  828SOL     OW 3370   1.221   0.319   6.051
  828SOL    HW1 3371   1.284   0.247   6.045
  828SOL    HW2 3372   1.251   0.371   6.126
  829SOL     OW 3373   0.590   0.738   6.255
  829SOL    HW1 3374   0.629   0.824   6.239
  829SOL    HW2 3375   0.521   0.731   6.189
  830SOL     OW 3376   1.766   0.361   7.236
  830SOL    HW1 3377   1.748   0.376   7.143
  830SOL    HW2 3378   1.694   0.306   7.266
  831SOL     OW 3379   1.744   0.933   7.098
  831SOL    HW1 3380   1.742   1.028   7.112
  831SOL    HW2 3381   1.729   0.922   7.005
  832SOL     OW 3382   0.862   1.367   5.620
  832SOL    HW1 3383   0.824   1.396   5.702
  832SOL    HW2 3384   0.881   1.448   5.572
  833SOL     OW 3385   0.663   1.794   6.530
  833SOL    HW1 3386   0.642   1.884   6.507
  833SOL    HW2 3387   0.758   1.789   6.523
  834SOL     OW 3388   0.867   0.966   6.440
  834SOL    HW1 3389   0.918   0.895   6.480
  834SOL    HW2 3390   0.833   1.016   6.515
  835SOL     OW 3391   1.077   0.987   5.674
  835SOL    HW1 3392   1.057   1.039   5.596
  835SOL    HW2 3393   1.153   0.934   5.649
  836SOL     OW 3394   1.854   1.555   6.431
  836SOL    HW1 3395   1.776   1.543   6.376
  836SOL    HW2 3396   1.846   1.488   6.498
  837SOL     OW 3397   0.225   1.305   7.446
  837SOL    HW1 3398   0.155   1.245   7.420
  837SOL    HW2 3399   0.213   1.317   7.540
  838SOL     OW 3400   0.087   1.219   6.240
  838SOL    HW1 3401   0.100   1.188   6.329
  838SOL    HW2 3402   0.174   1.214   6.200
  839SOL     OW 3403   0.681   1.401   7.214
  839SOL    HW1 3404   0.600   1.360   7.244
  839SOL    HW2 3405   0.677   1.490   7.250
  840SOL     OW 3406   1.814   0.177   6.819
  840SOL    HW1 3407   1.781   0.088   6.824
  840SOL    HW2 3408   1.832   0.190   6.726
  841SOL     OW 3409   0.432   0.436   6.108
  841SOL    HW1 3410   0.464   0.362   6.056
  841SOL    HW2 3411   0.386   0.396   6.182
  842SOL     OW 3412   1.700   1.490   6.683
  842SOL    HW1 3413   1.619   1.466   6.637
  842SOL    HW2 3414   1.712   1.420   6.748
  843SOL     OW 3415   0.336   0.560   6.875
  843SOL    HW1 3416   0.394   0.503   6.925
  843SOL    HW2 3417   0.350   0.534   6.784
  844SOL     OW 3418   0.828   1.577   6.264
  844SOL    HW1 3419   0.816   1.632   6.186
  844SOL    HW2 3420   0.751   1.521   6.266
  845SOL     OW 3421   1.428   0.218   6.702
  845SOL    HW1 3422   1.465   0.144   6.750
  845SOL    HW2 3423   1.379   0.268   6.768
  846SOL     OW 3424   1.002   0.021   6.727
  846SOL    HW1 3425   0.952   5.252   6.683
  846SOL    HW2 3426   1.088   5.283   6.740
  847SOL     OW 3427   0.771   1.333   5.901
  847SOL    HW1 3428   0.741   1.242   5.907
  847SOL    HW2 3429   0.854   1.334   5.950
  848SOL     OW 3430   0.623   1.556   6.873
  848SOL    HW1 3431   0.624   1.638   6.922
  848SOL    HW2 3432   0.709   1.550   6.833
  849SOL     OW 3433   1.354   0.039   5.748
  849SOL    HW1 3434   1.388   5.297   5.669
  849SOL    HW2 3435   1.276   5.288   5.770
  850SOL     OW 3436   1.301   0.463   6.271
  850SOL    HW1 3437   1.246   0.542   6.276
  850SOL    HW2 3438   1.294   0.423   6.357
  851SOL     OW 3439   1.594   0.216   6.468
  851SOL    HW1 3440   1.528   0.227   6.536
  851SOL    HW2 3441   1.587   0.294   6.414
  852SOL     OW 3442   0.048   1.069   5.876
  852SOL    HW1 3443   0.137   1.037   5.866
  852SOL    HW2 3444   5.300   0.994   5.911
  853SOL     OW 3445   0.884   1.651   5.928
  853SOL    HW1 3446   0.812   1.636   5.868
  853SOL    HW2 3447   0.857   1.727   5.980
  854SOL     OW 3448   0.228   0.631   7.566
  854SOL    HW1 3449   0.151   0.595   7.609
  854SOL    HW2 3450   0.220   0.604   7.475
  855SOL     OW 3451   1.768   0.598   7.679
  855SOL    HW1 3452   1.747   0.593   7.586
  855SOL    HW2 3453   1.726   0.521   7.717
  856SOL     OW 3454   0.230   1.706   7.921
  856SOL    HW1 3455   0.264   1.752   7.998
  856SOL    HW2 3456   0.300   1.713   7.856
  857SOL     OW 3457   0.217   1.436   7.991
  857SOL    HW1 3458   0.209   1.531   7.983
  857SOL    HW2 3459   0.154   1.412   8.059
  858SOL     OW 3460   0.583   0.984   7.581
  858SOL    HW1 3461   0.628   1.032   7.511
  858SOL    HW2 3462   0.625   1.014   7.661
  859SOL     OW 3463   1.837   1.758   7.797
  859SOL    HW1 3464   1.907   1.728   7.854
  859SOL    HW2 3465   1.862   1.847   7.772
  860SOL     OW 3466   0.036   1.601   7.582
  860SOL    HW1 3467   0.027   1.508   7.603
  860SOL    HW2 3468   5.277   1.645   7.643
  861SOL     OW 3469   1.683   0.866   8.034
  861SOL    HW1 3470   1.763   0.878   0.005
  861SOL    HW2 3471   1.670   0.950   7.990
  862SOL     OW 3472   1.655   1.099   7.877
  862SOL    HW1 3473   1.742   1.124   7.847
  862SOL    HW2 3474   1.627   1.170   7.934
  863SOL     OW 3475   0.810   5.290   7.943
  863SOL    HW1 3476   0.852   0.075   7.930
  863SOL    HW2 3477   0.716   0.008   7.942
  864SOL     OW 3478   1.533   0.994   7.649
  864SOL    HW1 3479   1.466   0.935   7.683
  864SOL    HW2 3480   1.576   1.029   7.727
  865SOL     OW 3481   0.588   0.723   7.707
  865SOL    HW1 3482   0.597   0.805   7.658
  865SOL    HW2 3483   0.534   0.746   7.782
  866SOL     OW 3484   1.574   1.671   7.757
  866SOL    HW1 3485   1.665   1.700   7.766
  866SOL    HW2 3486   1.562   1.658   7.663
  867SOL     OW 3487   0.050   0.816   0.199
  867SOL    HW1 3488   0.123   0.766   0.162
  867SOL    HW2 3489   0.029   0.881   0.132
  868SOL     OW 3490   0.867   0.357   7.629
  868SOL    HW1 3491   0.913   0.421   7.575
  868SOL    HW2 3492   0.930   0.285   7.640
  869SOL     OW 3493   0.319   0.949   7.694
  869SOL    HW1 3494   0.400   0.976   7.650
  869SOL    HW2 3495   0.297   0.866   7.653
  870SOL     OW 3496   1.123   1.776   7.682
  870SOL    HW1 3497   1.047   1.735   7.723
  870SOL    HW2 3498   1.147   1.715   7.611
  871SOL     OW 3499   1.629   1.380   7.533
  871SOL    HW1 3500   1.587   1.465   7.520
  871SOL    HW2 3501   1.560   1.316   7.516
  872SOL     OW 3502   0.470   1.737   7.769
  872SOL    HW1 3503   0.515   1.791   7.834
  872SOL    HW2 3504   0.539   1.704   7.713
  873SOL     OW 3505   1.409   0.106   7.882
  873SOL    HW1 3506   1.404   0.083   7.789
  873SOL    HW2 3507   1.503   0.112   7.900
  874SOL     OW 3508   0.378   0.697   7.921
  874SOL    HW1 3509   0.401   0.604   7.925
  874SOL    HW2 3510   0.289   0.701   7.956
  875SOL     OW 3511   0.615   0.131   7.559
  875SOL    HW1 3512   0.691   0.076   7.578
  875SOL    HW2 3513   0.573   0.089   7.484
  876SOL     OW 3514   0.546   0.062   7.952
  876SOL    HW1 3515   0.455   0.047   7.975
  876SOL    HW2 3516   0.543   0.135   7.890
  877SOL     OW 3517   1.428   1.198   7.489
  877SOL    HW1 3518   1.459   1.124   7.542
  877SOL    HW2 3519   1.344   1.221   7.528
  878SOL     OW 3520   0.314   0.070   7.652
  878SOL    HW1 3521   0.372   0.126   7.602
  878SOL    HW2 3522   0.359   5.286   7.657
  879SOL     OW 3523   0.950   0.228   7.909
  879SOL    HW1 3524   0.900   0.299   7.868
  879SOL    HW2 3525   1.038   0.263   7.918
  880SOL     OW 3526   0.446   1.157   0.091
  880SOL    HW1 3527   0.374   1.182   0.149
  880SOL    HW2 3528   0.405   1.140   0.007
  881SOL     OW 3529   1.291   1.811   8.014
  881SOL    HW1 3530   1.326   1.880   7.958
  881SOL    HW2 3531   1.207   1.846   8.045
  882SOL     OW 3532   1.027   0.546   7.467
  882SOL    HW1 3533   0.983   0.631   7.452
  882SOL    HW2 3534   1.086   0.563   7.540
  883SOL     OW 3535   1.872   0.817   7.801
  883SOL    HW1 3536   1.866   0.790   7.893
  883SOL    HW2 3537   1.831   0.745   7.752
  884SOL     OW 3538   0.490   1.415   7.606
  884SOL    HW1 3539   0.415   1.387   7.658
  884SOL    HW2 3540   0.472   1.382   7.518
  885SOL     OW 3541   1.393   0.572   7.519
  885SOL    HW1 3542   1.332   0.552   7.590
  885SOL    HW2 3543   1.478   0.540   7.551
  886SOL     OW 3544   0.524   0.271   7.773
  886SOL    HW1 3545   0.566   0.218   7.705
  886SOL    HW2 3546   0.503   0.353   7.730
  887SOL     OW 3547   0.709   1.061   7.814
  887SOL    HW1 3548   0.693   1.050   7.907
  887SOL    HW2 3549   0.788   1.008   7.797
  888SOL     OW 3550   0.346   1.095   7.928
  888SOL    HW1 3551   0.346   1.179   7.883
  888SOL    HW2 3552   0.348   1.030   7.858
  889SOL     OW 3553   1.224   1.356   7.821
  889SOL    HW1 3554   1.286   1.425   7.846
  889SOL    HW2 3555   1.184   1.329   7.904
  890SOL     OW 3556   1.589   0.626   7.921
  890SOL    HW1 3557   1.573   0.684   7.996
  890SOL    HW2 3558   1.627   0.683   7.854
  891SOL     OW 3559   1.203   0.526   7.715
  891SOL    HW1 3560   1.205   0.439   7.755
  891SOL    HW2 3561   1.182   0.585   7.787
  892SOL     OW 3562   1.616   0.376   7.814
  892SOL    HW1 3563   1.637   0.308   7.879
  892SOL    HW2 3564   1.592   0.452   7.866
  893SOL     OW 3565   1.528   0.273   7.575
  893SOL    HW1 3566   1.465   0.207   7.605
  893SOL    HW2 3567   1.564   0.310   7.656
  894SOL     OW 3568   1.294   0.827   7.481
  894SOL    HW1 3569   1.335   0.741   7.483
  894SOL    HW2 3570   1.324   0.867   7.399
  895SOL     OW 3571   0.003   1.333   7.656
  895SOL    HW1 3572   5.220   1.331   7.608
  895SOL    HW2 3573   0.013   1.244   7.691
  896SOL     OW 3574   0.837   0.601   7.764
  896SOL    HW1 3575   0.828   0.510   7.733
  896SOL    HW2 3576   0.747   0.635   7.764
  897SOL     OW 3577   0.460   0.493   7.632
  897SOL    HW1 3578   0.523   0.563   7.651
  897SOL    HW2 3579   0.376   0.539   7.622
  898SOL     OW 3580   1.312   0.851   7.754
  898SOL    HW1 3581   1.225   0.853   7.795
  898SOL    HW2 3582   1.294   0.841   7.661
  899SOL     OW 3583   1.709   0.130   7.945
  899SOL    HW1 3584   1.784   0.131   7.886
  899SOL    HW2 3585   1.740   0.084   8.023
  900SOL     OW 3586   1.364   1.577   7.896
  900SOL    HW1 3587   1.439   1.597   7.840
  900SOL    HW2 3588   1.333   1.662   7.927
  901SOL     OW 3589   0.668   1.619   7.604
  901SOL    HW1 3590   0.680   1.631   7.509
  901SOL    HW2 3591   0.616   1.539   7.611
  902SOL     OW 3592   1.209   1.607   7.478
  902SOL    HW1 3593   1.198   1.516   7.506
  902SOL    HW2 3594   1.142   1.620   7.411
  903SOL     OW 3595   0.924   0.910   7.754
  903SOL    HW1 3596   0.979   0.934   7.680
  903SOL    HW2 3597   0.923   0.814   7.753
  904SOL     OW 3598   1.494   1.626   7.488
  904SOL    HW1 3599   1.399   1.619   7.477
  904SOL    HW2 3600   1.529   1.631   7.400
  905SOL     OW 3601   0.605   1.505   7.936
  905SOL    HW1 3602   0.650   1.446   7.875
  905SOL    HW2 3603   0.534   1.543   7.884
  906SOL     OW 3604   0.260   1.347   7.742
  906SOL    HW1 3605   0.167   1.351   7.718
  906SOL    HW2 3606   0.263   1.382   7.830
  907SOL     OW 3607   0.077   0.343   7.487
  907SOL    HW1 3608   5.290   0.309   7.470
  907SOL    HW2 3609   0.092   0.407   7.417
  908SOL     OW 3610   0.068   0.143   7.736
  908SOL    HW1 3611   0.068   0.237   7.723
  908SOL    HW2 3612   0.157   0.115   7.714
  909SOL     OW 3613   1.177   1.338   7.556
  909SOL    HW1 3614   1.084   1.313   7.557
  909SOL    HW2 3615   1.201   1.345   7.649
  910SOL     OW 3616   1.222   0.319   7.916
  910SOL    HW1 3617   1.288   0.250   7.910
  910SOL    HW2 3618   1.246   0.367   7.995
  911SOL     OW 3619   0.623   0.741   8.046
  911SOL    HW1 3620   0.629   0.818   0.023
  911SOL    HW2 3621   0.531   0.738   8.020
  912SOL     OW 3622   0.862   1.367   7.482
  912SOL    HW1 3623   0.825   1.396   7.565
  912SOL    HW2 3624   0.882   1.448   7.435
  913SOL     OW 3625   1.072   0.977   7.537
  913SOL    HW1 3626   1.054   1.035   7.463
  913SOL    HW2 3627   1.151   0.930   7.511
  914SOL     OW 3628   0.399   0.428   7.981
  914SOL    HW1 3629   0.446   0.367   7.925
  914SOL    HW2 3630   0.441   0.418   8.067
  915SOL     OW 3631   0.766   1.335   7.761
  915SOL    HW1 3632   0.736   1.244   7.763
  915SOL    HW2 3633   0.847   1.334   7.811
  916SOL     OW 3634   1.363   0.038   7.611
  916SOL    HW1 3635   1.378   5.291   7.528
  916SOL    HW2 3636   1.282   5.299   7.645
  917SOL     OW 3637   0.048   1.070   7.721
  917SOL    HW1 3638   0.137   1.037   7.721
  917SOL    HW2 3639   5.300   1.010   7.779
  918SOL     OW 3640   0.893   1.651   7.781
  918SOL    HW1 3641   0.816   1.628   7.727
  918SOL    HW2 3642   0.859   1.714   7.844
  919SOL     OW 3643   0.224   2.486   0.115
  919SOL    HW1 3644   0.154   2.441   0.164
  919SOL    HW2 3645   0.232   2.435   0.034
  920SOL     OW 3646   0.241   2.137   0.989
  920SOL    HW1 3647   0.256   2.103   1.077
  920SOL    HW2 3648   0.157   2.099   0.963
  921SOL     OW 3649   5.297   2.259   0.648
  921SOL    HW1 3650   5.206   2.286   0.658
  921SOL    HW2 3651   5.292   2.166   0.627
  922SOL     OW 3652   0.574   3.146   1.181
  922SOL    HW1 3653   0.491   3.154   1.134
  922SOL    HW2 3654   0.590   3.234   1.216
  923SOL     OW 3655   1.561   3.374   0.707
  923SOL    HW1 3656   1.518   3.354   0.790
  923SOL    HW2 3657   1.489   3.377   0.644
  924SOL     OW 3658   1.131   2.560   0.701
  924SOL    HW1 3659   1.180   2.641   0.687
  924SOL    HW2 3660   1.084   2.575   0.784
  925SOL     OW 3661   1.765   2.463   0.234
  925SOL    HW1 3662   1.730   2.466   0.145
  925SOL    HW2 3663   1.727   2.385   0.273
  926SOL     OW 3664   0.756   3.003   1.039
  926SOL    HW1 3665   0.689   3.037   1.098
  926SOL    HW2 3666   0.791   3.081   0.995
  927SOL     OW 3667   0.866   2.637   1.822
  927SOL    HW1 3668   0.857   2.709   1.884
  927SOL    HW2 3669   0.889   2.680   1.739
  928SOL     OW 3670   0.684   2.863   0.650
  928SOL    HW1 3671   0.750   2.852   0.718
  928SOL    HW2 3672   0.616   2.917   0.690
  929SOL     OW 3673   0.709   3.013   1.813
  929SOL    HW1 3674   0.758   3.091   1.839
  929SOL    HW2 3675   0.627   3.046   1.777
  930SOL     OW 3676   0.358   3.267   1.060
  930SOL    HW1 3677   0.271   3.264   1.021
  930SOL    HW2 3678   0.406   3.329   1.006
  931SOL     OW 3679   1.461   3.361   1.354
  931SOL    HW1 3680   1.511   3.442   1.363
  931SOL    HW2 3681   1.400   3.362   1.427
  932SOL     OW 3682   0.450   2.262   1.493
  932SOL    HW1 3683   0.524   2.202   1.494
  932SOL    HW2 3684   0.373   2.206   1.502
  933SOL     OW 3685   1.613   2.310   0.740
  933SOL    HW1 3686   1.538   2.333   0.685
  933SOL    HW2 3687   1.626   2.388   0.795
  934SOL     OW 3688   0.217   3.591   0.466
  934SOL    HW1 3689   0.259   3.647   0.531
  934SOL    HW2 3690   0.287   3.569   0.404
  935SOL     OW 3691   1.136   3.204   1.692
  935SOL    HW1 3692   1.177   3.199   1.779
  935SOL    HW2 3693   1.084   3.124   1.686
  936SOL     OW 3694   0.221   3.310   0.533
  936SOL    HW1 3695   0.201   3.404   0.540
  936SOL    HW2 3696   0.159   3.268   0.593
  937SOL     OW 3697   0.253   2.941   0.878
  937SOL    HW1 3698   0.260   2.854   0.918
  937SOL    HW2 3699   0.199   2.991   0.938
  938SOL     OW 3700   0.614   3.652   1.433
  938SOL    HW1 3701   0.530   3.635   1.475
  938SOL    HW2 3702   0.634   3.743   1.455
  939SOL     OW 3703   0.622   2.822   0.136
  939SOL    HW1 3704   0.578   2.902   0.107
  939SOL    HW2 3705   0.677   2.850   0.209
  940SOL     OW 3706   1.596   1.985   1.468
  940SOL    HW1 3707   1.602   2.066   1.417
  940SOL    HW2 3708   1.582   2.014   1.558
  941SOL     OW 3709   0.129   2.497   0.582
  941SOL    HW1 3710   0.087   2.414   0.606
  941SOL    HW2 3711   0.099   2.559   0.649
  942SOL     OW 3712   1.845   3.620   0.332
  942SOL    HW1 3713   1.909   3.590   0.396
  942SOL    HW2 3714   1.870   3.711   0.314
  943SOL     OW 3715   0.032   3.447   0.105
  943SOL    HW1 3716   0.024   3.361   0.147
  943SOL    HW2 3717   0.006   3.509   0.172
  944SOL     OW 3718   1.687   2.780   0.643
  944SOL    HW1 3719   1.770   2.738   0.620
  944SOL    HW2 3720   1.665   2.832   0.566
  945SOL     OW 3721   1.646   2.967   0.435
  945SOL    HW1 3722   1.726   2.981   0.384
  945SOL    HW2 3723   1.652   3.029   0.507
  946SOL     OW 3724   0.131   2.610   1.585
  946SOL    HW1 3725   0.225   2.624   1.588
  946SOL    HW2 3726   0.093   2.697   1.601
  947SOL     OW 3727   0.615   3.248   0.734
  947SOL    HW1 3728   0.567   3.165   0.745
  947SOL    HW2 3729   0.598   3.274   0.644
  948SOL     OW 3730   1.289   3.100   1.424
  948SOL    HW1 3731   1.321   3.033   1.364
  948SOL    HW2 3732   1.346   3.094   1.500
  949SOL     OW 3733   0.823   1.863   0.512
  949SOL    HW1 3734   0.862   1.948   0.490
  949SOL    HW2 3735   0.729   1.881   0.517
  950SOL     OW 3736   0.177   2.808   1.278
  950SOL    HW1 3737   0.268   2.779   1.268
  950SOL    HW2 3738   0.135   2.784   1.196
  951SOL     OW 3739   1.509   2.870   0.212
  951SOL    HW1 3740   1.449   2.803   0.245
  951SOL    HW2 3741   1.562   2.893   0.288
  952SOL     OW 3742   1.185   3.668   1.622
  952SOL    HW1 3743   1.196   3.727   1.547
  952SOL    HW2 3744   1.202   3.581   1.587
  953SOL     OW 3745   0.336   2.115   1.816
  953SOL    HW1 3746   0.383   2.197   1.829
  953SOL    HW2 3747   0.249   2.132   1.852
  954SOL     OW 3748   1.467   3.281   0.952
  954SOL    HW1 3749   1.398   3.297   1.017
  954SOL    HW2 3750   1.454   3.190   0.925
  955SOL     OW 3751   1.659   3.602   0.581
  955SOL    HW1 3752   1.638   3.574   0.492
  955SOL    HW2 3753   1.634   3.528   0.636
  956SOL     OW 3754   0.597   2.575   0.281
  956SOL    HW1 3755   0.617   2.654   0.230
  956SOL    HW2 3756   0.534   2.605   0.347
  957SOL     OW 3757   1.279   2.214   0.932
  957SOL    HW1 3758   1.190   2.181   0.941
  957SOL    HW2 3759   1.330   2.161   0.994
  958SOL     OW 3760   1.586   3.533   0.319
  958SOL    HW1 3761   1.677   3.562   0.312
  958SOL    HW2 3762   1.560   3.516   0.229
  959SOL     OW 3763   0.792   2.479   1.452
  959SOL    HW1 3764   0.765   2.456   1.540
  959SOL    HW2 3765   0.752   2.413   1.396
  960SOL     OW 3766   1.393   2.336   1.678
  960SOL    HW1 3767   1.396   2.381   1.762
  960SOL    HW2 3768   1.455   2.263   1.688
  961SOL     OW 3769   0.955   2.749   1.582
  961SOL    HW1 3770   1.009   2.679   1.547
  961SOL    HW2 3771   0.907   2.783   1.507
  962SOL     OW 3772   0.992   2.274   1.239
  962SOL    HW1 3773   0.907   2.296   1.276
  962SOL    HW2 3774   0.972   2.228   1.157
  963SOL     OW 3775   1.052   2.561   0.427
  963SOL    HW1 3776   1.067   2.554   0.521
  963SOL    HW2 3777   0.970   2.514   0.413
  964SOL     OW 3778   0.068   2.650   0.816
  964SOL    HW1 3779   0.151   2.655   0.863
  964SOL    HW2 3780   0.066   2.731   0.764
  965SOL     OW 3781   0.130   3.745   1.584
  965SOL    HW1 3782   0.133   3.715   1.675
  965SOL    HW2 3783   0.059   3.695   1.545
  966SOL     OW 3784   0.884   2.219   0.202
  966SOL    HW1 3785   0.930   2.269   0.133
  966SOL    HW2 3786   0.885   2.129   0.170
  967SOL     OW 3787   1.708   2.435   1.827
  967SOL    HW1 3788   1.672   2.510   1.781
  967SOL    HW2 3789   1.736   2.376   1.757
  968SOL     OW 3790   1.376   3.003   0.541
  968SOL    HW1 3791   1.455   2.990   0.488
  968SOL    HW2 3792   1.323   3.066   0.492
  969SOL     OW 3793   0.554   2.046   0.893
  969SOL    HW1 3794   0.552   2.073   0.985
  969SOL    HW2 3795   0.553   2.128   0.844
  970SOL     OW 3796   1.005   3.307   0.473
  970SOL    HW1 3797   0.967   3.379   0.423
  970SOL    HW2 3798   0.986   3.328   0.564
  971SOL     OW 3799   0.357   3.664   0.868
  971SOL    HW1 3800   0.398   3.578   0.882
  971SOL    HW2 3801   0.423   3.726   0.899
  972SOL     OW 3802   1.798   2.918   0.868
  972SOL    HW1 3803   1.742   2.902   0.792
  972SOL    HW2 3804   1.737   2.925   0.942
  973SOL     OW 3805   1.228   3.401   1.513
  973SOL    HW1 3806   1.214   3.328   1.573
  973SOL    HW2 3807   1.165   3.387   1.443
  974SOL     OW 3808   0.331   2.813   0.251
  974SOL    HW1 3809   0.411   2.826   0.201
  974SOL    HW2 3810   0.313   2.719   0.245
  975SOL     OW 3811   1.478   2.603   0.727
  975SOL    HW1 3812   1.470   2.561   0.812
  975SOL    HW2 3813   1.555   2.660   0.735
  976SOL     OW 3814   0.465   3.126   1.738
  976SOL    HW1 3815   0.438   3.132   1.646
  976SOL    HW2 3816   0.383   3.126   1.787
  977SOL     OW 3817   1.108   3.643   0.224
  977SOL    HW1 3818   1.052   3.603   0.290
  977SOL    HW2 3819   1.128   3.572   0.163
  978SOL     OW 3820   0.205   2.142   1.497
  978SOL    HW1 3821   0.126   2.194   1.481
  978SOL    HW2 3822   0.174   2.064   1.542
  979SOL     OW 3823   1.634   3.235   0.082
  979SOL    HW1 3824   1.592   3.321   0.082
  979SOL    HW2 3825   1.562   3.174   0.064
  980SOL     OW 3826   0.470   3.596   0.325
  980SOL    HW1 3827   0.513   3.656   0.386
  980SOL    HW2 3828   0.540   3.570   0.265
  981SOL     OW 3829   1.407   1.973   0.444
  981SOL    HW1 3830   1.397   1.952   0.351
  981SOL    HW2 3831   1.501   1.981   0.457
  982SOL     OW 3832   0.276   3.663   1.213
  982SOL    HW1 3833   0.306   3.586   1.262
  982SOL    HW2 3834   0.225   3.627   1.141
  983SOL     OW 3835   0.938   3.561   0.899
  983SOL    HW1 3836   1.016   3.508   0.920
  983SOL    HW2 3837   0.894   3.511   0.830
  984SOL     OW 3838   0.382   2.561   0.476
  984SOL    HW1 3839   0.414   2.471   0.485
  984SOL    HW2 3840   0.290   2.556   0.502
  985SOL     OW 3841   1.536   2.087   1.725
  985SOL    HW1 3842   1.545   2.108   1.818
  985SOL    HW2 3843   1.466   2.022   1.722
  986SOL     OW 3844   0.628   1.972   0.136
  986SOL    HW1 3845   0.723   1.961   0.141
  986SOL    HW2 3846   0.607   1.954   0.045
  987SOL     OW 3847   0.767   2.140   1.754
  987SOL    HW1 3848   0.842   2.081   1.756
  987SOL    HW2 3849   0.718   2.119   1.833
  988SOL     OW 3850   0.877   3.384   1.193
  988SOL    HW1 3851   0.861   3.347   1.106
  988SOL    HW2 3852   0.947   3.329   1.230
  989SOL     OW 3853   1.341   2.450   1.432
  989SOL    HW1 3854   1.371   2.420   1.517
  989SOL    HW2 3855   1.376   2.539   1.424
  990SOL     OW 3856   0.815   3.256   0.939
  990SOL    HW1 3857   0.900   3.246   0.895
  990SOL    HW2 3858   0.751   3.258   0.868
  991SOL     OW 3859   0.928   2.371   0.903
  991SOL    HW1 3860   0.904   2.363   0.810
  991SOL    HW2 3861   0.959   2.284   0.927
  992SOL     OW 3862   0.560   1.924   0.500
  992SOL    HW1 3863   0.485   1.923   0.559
  992SOL    HW2 3864   0.549   2.003   0.448
  993SOL     OW 3865   1.433   3.061   0.036
  993SOL    HW1 3866   1.457   2.988   0.091
  993SOL    HW2 3867   1.345   3.086   0.065
  994SOL     OW 3868   0.314   1.908   0.175
  994SOL    HW1 3869   0.378   1.979   0.179
  994SOL    HW2 3870   0.356   1.835   0.218
  995SOL     OW 3871   0.940   2.109   0.459
  995SOL    HW1 3872   0.912   2.151   0.377
  995SOL    HW2 3873   1.035   2.125   0.463
  996SOL     OW 3874   1.080   2.542   1.460
  996SOL    HW1 3875   1.011   2.476   1.464
  996SOL    HW2 3876   1.161   2.492   1.453
  997SOL     OW 3877   1.224   3.431   0.794
  997SOL    HW1 3878   1.239   3.498   0.728
  997SOL    HW2 3879   1.292   3.446   0.860
  998SOL     OW 3880   0.468   3.012   0.732
  998SOL    HW1 3881   0.399   2.993   0.795
  998SOL    HW2 3882   0.428   2.996   0.647
  999SOL     OW 3883   1.268   3.656   0.607
  999SOL    HW1 3884   1.317   3.719   0.554
  999SOL    HW2 3885   1.201   3.708   0.651
 1000SOL     OW 3886   1.031   2.391   0.032
 1000SOL    HW1 3887   0.991   2.472   0.000
 1000SOL    HW2 3888   1.094   2.419   0.097
 1001SOL     OW 3889   0.087   2.408   1.398
 1001SOL    HW1 3890   0.175   2.415   1.361
 1001SOL    HW2 3891   0.079   2.483   1.456
 1002SOL     OW 3892   0.560   2.089   1.166
 1002SOL    HW1 3893   0.598   2.010   1.203
 1002SOL    HW2 3894   0.469   2.088   1.194
 1003SOL     OW 3895   0.867   2.320   0.639
 1003SOL    HW1 3896   0.825   2.376   0.574
 1003SOL    HW2 3897   0.889   2.240   0.592
 1004SOL     OW 3898   1.016   1.914   0.751
 1004SOL    HW1 3899   0.956   1.908   0.676
 1004SOL    HW2 3900   0.994   1.839   0.806
 1005SOL     OW 3901   1.437   3.024   0.857
 1005SOL    HW1 3902   1.368   2.959   0.856
 1005SOL    HW2 3903   1.461   3.036   0.765
 1006SOL     OW 3904   1.467   2.467   0.977
 1006SOL    HW1 3905   1.415   2.386   0.981
 1006SOL    HW2 3906   1.526   2.461   1.052
 1007SOL     OW 3907   1.847   2.679   0.387
 1007SOL    HW1 3908   1.891   2.622   0.450
 1007SOL    HW2 3909   1.817   2.619   0.318
 1008SOL     OW 3910   0.483   3.302   0.173
 1008SOL    HW1 3911   0.410   3.263   0.221
 1008SOL    HW2 3912   0.488   3.252   0.092
 1009SOL     OW 3913   1.670   3.127   0.648
 1009SOL    HW1 3914   1.765   3.130   0.661
 1009SOL    HW2 3915   1.640   3.215   0.668
 1010SOL     OW 3916   1.397   2.440   0.086
 1010SOL    HW1 3917   1.336   2.421   0.157
 1010SOL    HW2 3918   1.455   2.364   0.082
 1011SOL     OW 3919   0.515   2.125   0.323
 1011SOL    HW1 3920   0.565   2.073   0.260
 1011SOL    HW2 3921   0.501   2.209   0.280
 1012SOL     OW 3922   1.752   3.101   1.573
 1012SOL    HW1 3923   1.839   3.062   1.569
 1012SOL    HW2 3924   1.767   3.191   1.603
 1013SOL     OW 3925   1.059   3.215   1.333
 1013SOL    HW1 3926   0.984   3.184   1.385
 1013SOL    HW2 3927   1.135   3.174   1.375
 1014SOL     OW 3928   1.607   3.487   1.654
 1014SOL    HW1 3929   1.602   3.521   1.564
 1014SOL    HW2 3930   1.691   3.440   1.656
 1015SOL     OW 3931   1.128   3.065   1.105
 1015SOL    HW1 3932   1.070   3.103   1.171
 1015SOL    HW2 3933   1.096   3.097   1.022
 1016SOL     OW 3934   1.628   2.960   1.078
 1016SOL    HW1 3935   1.623   3.022   1.150
 1016SOL    HW2 3936   1.549   2.977   1.026
 1017SOL     OW 3937   0.919   1.958   1.397
 1017SOL    HW1 3938   0.941   1.940   1.306
 1017SOL    HW2 3939   0.998   1.998   1.433
 1018SOL     OW 3940   0.984   2.977   1.722
 1018SOL    HW1 3941   0.892   2.993   1.743
 1018SOL    HW2 3942   0.983   2.899   1.667
 1019SOL     OW 3943   0.714   2.924   0.381
 1019SOL    HW1 3944   0.697   2.907   0.473
 1019SOL    HW2 3945   0.792   2.872   0.360
 1020SOL     OW 3946   0.420   2.681   1.252
 1020SOL    HW1 3947   0.489   2.688   1.318
 1020SOL    HW2 3948   0.386   2.592   1.263
 1021SOL     OW 3949   1.266   2.239   1.275
 1021SOL    HW1 3950   1.298   2.316   1.321
 1021SOL    HW2 3951   1.175   2.261   1.252
 1022SOL     OW 3952   0.101   3.485   1.367
 1022SOL    HW1 3953   0.079   3.493   1.274
 1022SOL    HW2 3954   0.187   3.443   1.367
 1023SOL     OW 3955   0.346   2.970   0.488
 1023SOL    HW1 3956   0.346   3.049   0.434
 1023SOL    HW2 3957   0.359   2.899   0.425
 1024SOL     OW 3958   0.554   2.397   0.859
 1024SOL    HW1 3959   0.570   2.456   0.785
 1024SOL    HW2 3960   0.618   2.424   0.925
 1025SOL     OW 3961   1.247   3.209   0.394
 1025SOL    HW1 3962   1.303   3.282   0.422
 1025SOL    HW2 3963   1.160   3.232   0.425
 1026SOL     OW 3964   1.281   3.319   1.147
 1026SOL    HW1 3965   1.336   3.322   1.225
 1026SOL    HW2 3966   1.225   3.243   1.160
 1027SOL     OW 3967   1.582   2.484   0.482
 1027SOL    HW1 3968   1.533   2.537   0.545
 1027SOL    HW2 3969   1.621   2.548   0.422
 1028SOL     OW 3970   0.352   3.381   1.311
 1028SOL    HW1 3971   0.341   3.338   1.226
 1028SOL    HW2 3972   0.445   3.399   1.317
 1029SOL     OW 3973   0.413   2.604   1.602
 1029SOL    HW1 3974   0.474   2.651   1.544
 1029SOL    HW2 3975   0.454   2.519   1.615
 1030SOL     OW 3976   1.601   2.640   1.682
 1030SOL    HW1 3977   1.515   2.682   1.675
 1030SOL    HW2 3978   1.653   2.682   1.614
 1031SOL     OW 3979   0.996   1.985   1.755
 1031SOL    HW1 3980   1.051   2.057   1.727
 1031SOL    HW2 3981   1.044   1.906   1.730
 1032SOL     OW 3982   0.497   1.903   1.748
 1032SOL    HW1 3983   0.455   1.849   1.681
 1032SOL    HW2 3984   0.438   1.977   1.760
 1033SOL     OW 3985   0.585   2.735   1.032
 1033SOL    HW1 3986   0.616   2.826   1.031
 1033SOL    HW2 3987   0.529   2.730   1.109
 1034SOL     OW 3988   1.358   2.720   1.030
 1034SOL    HW1 3989   1.275   2.712   0.983
 1034SOL    HW2 3990   1.398   2.634   1.024
 1035SOL     OW 3991   1.204   2.389   0.271
 1035SOL    HW1 3992   1.211   2.311   0.325
 1035SOL    HW2 3993   1.161   2.454   0.328
 1036SOL     OW 3994   0.301   2.065   1.248
 1036SOL    HW1 3995   0.267   2.090   1.333
 1036SOL    HW2 3996   0.289   1.971   1.243
 1037SOL     OW 3997   0.069   3.181   1.281
 1037SOL    HW1 3998   0.091   3.121   1.352
 1037SOL    HW2 3999   5.300   3.236   1.316
 1038SOL     OW 4000   0.724   2.493   1.058
 1038SOL    HW1 4001   0.799   2.477   1.000
 1038SOL    HW2 4002   0.696   2.582   1.037
 1039SOL     OW 4003   1.733   2.822   1.852
 1039SOL    HW1 4004   1.687   2.760   1.795
 1039SOL    HW2 4005   1.674   2.835   1.927
 1040SOL     OW 4006   0.325   1.925   0.635
 1040SOL    HW1 4007   0.309   2.015   0.664
 1040SOL    HW2 4008   0.331   1.874   0.716
 1041SOL     OW 4009   1.619   2.236   0.370
 1041SOL    HW1 4010   1.644   2.172   0.437
 1041SOL    HW2 4011   1.594   2.314   0.419
 1042SOL     OW 4012   1.028   2.621   0.961
 1042SOL    HW1 4013   1.025   2.639   1.055
 1042SOL    HW2 4014   1.001   2.529   0.952
 1043SOL     OW 4015   0.982   3.428   1.717
 1043SOL    HW1 4016   0.967   3.472   1.633
 1043SOL    HW2 4017   1.026   3.346   1.693
 1044SOL     OW 4018   1.855   3.369   1.605
 1044SOL    HW1 4019   1.873   3.394   1.515
 1044SOL    HW2 4020   1.936   3.386   1.653
 1045SOL     OW 4021   0.354   2.780   1.806
 1045SOL    HW1 4022   0.435   2.799   1.853
 1045SOL    HW2 4023   0.379   2.715   1.740
 1046SOL     OW 4024   1.519   2.161   0.126
 1046SOL    HW1 4025   1.469   2.081   0.143
 1046SOL    HW2 4026   1.558   2.183   0.211
 1047SOL     OW 4027   1.295   2.686   0.021
 1047SOL    HW1 4028   1.333   2.601   0.038
 1047SOL    HW2 4029   1.356   2.728   8.040
 1048SOL     OW 4030   1.066   3.197   0.854
 1048SOL    HW1 4031   1.069   3.125   0.791
 1048SOL    HW2 4032   1.127   3.262   0.819
 1049SOL     OW 4033   0.314   2.671   0.950
 1049SOL    HW1 4034   0.408   2.690   0.946
 1049SOL    HW2 4035   0.309   2.581   0.982
 1050SOL     OW 4036   0.335   2.387   1.015
 1050SOL    HW1 4037   0.300   2.299   1.001
 1050SOL    HW2 4038   0.410   2.393   0.956
 1051SOL     OW 4039   1.134   2.238   1.682
 1051SOL    HW1 4040   1.087   2.293   1.744
 1051SOL    HW2 4041   1.222   2.276   1.678
 1052SOL     OW 4042   1.161   2.065   1.470
 1052SOL    HW1 4043   1.150   2.127   1.542
 1052SOL    HW2 4044   1.200   2.116   1.399
 1053SOL     OW 4045   0.009   3.191   0.202
 1053SOL    HW1 4046   5.235   3.177   0.143
 1053SOL    HW2 4047   0.014   3.110   0.253
 1054SOL     OW 4048   0.093   3.644   0.949
 1054SOL    HW1 4049   0.059   3.572   0.895
 1054SOL    HW2 4050   0.181   3.660   0.914
 1055SOL     OW 4051   0.505   3.435   0.907
 1055SOL    HW1 4052   0.572   3.500   0.928
 1055SOL    HW2 4053   0.548   3.374   0.848
 1056SOL     OW 4054   0.983   2.654   1.226
 1056SOL    HW1 4055   1.039   2.631   1.301
 1056SOL    HW2 4056   0.898   2.617   1.249
 1057SOL     OW 4057   0.033   2.420   1.115
 1057SOL    HW1 4058   0.120   2.399   1.083
 1057SOL    HW2 4059   0.037   2.404   1.209
 1058SOL     OW 4060   0.174   2.375   1.712
 1058SOL    HW1 4061   0.240   2.339   1.652
 1058SOL    HW2 4062   0.146   2.456   1.670
 1059SOL     OW 4063   1.377   2.801   1.659
 1059SOL    HW1 4064   1.398   2.894   1.657
 1059SOL    HW2 4065   1.374   2.775   1.566
 1060SOL     OW 4066   0.818   2.431   0.367
 1060SOL    HW1 4067   0.828   2.360   0.304
 1060SOL    HW2 4068   0.742   2.480   0.336
 1061SOL     OW 4069   1.641   2.463   1.186
 1061SOL    HW1 4070   1.630   2.405   1.261
 1061SOL    HW2 4071   1.728   2.442   1.152
 1062SOL     OW 4072   0.256   3.418   1.735
 1062SOL    HW1 4073   0.234   3.481   1.803
 1062SOL    HW2 4074   0.249   3.332   1.777
 1063SOL     OW 4075   0.701   2.312   1.260
 1063SOL    HW1 4076   0.648   2.238   1.230
 1063SOL    HW2 4077   0.697   2.375   1.188
 1064SOL     OW 4078   0.929   3.541   1.467
 1064SOL    HW1 4079   0.902   3.507   1.382
 1064SOL    HW2 4080   0.924   3.636   1.458
 1065SOL     OW 4081   0.467   2.352   0.180
 1065SOL    HW1 4082   0.532   2.419   0.200
 1065SOL    HW2 4083   0.383   2.398   0.184
 1066SOL     OW 4084   0.148   2.999   1.471
 1066SOL    HW1 4085   0.146   2.951   1.553
 1066SOL    HW2 4086   0.160   2.933   1.404
 1067SOL     OW 4087   1.326   2.909   1.223
 1067SOL    HW1 4088   1.349   2.846   1.155
 1067SOL    HW2 4089   1.256   2.961   1.185
 1068SOL     OW 4090   1.306   2.710   0.308
 1068SOL    HW1 4091   1.228   2.682   0.356
 1068SOL    HW2 4092   1.283   2.699   0.216
 1069SOL     OW 4093   1.771   3.607   1.150
 1069SOL    HW1 4094   1.832   3.632   1.080
 1069SOL    HW2 4095   1.747   3.516   1.129
 1070SOL     OW 4096   1.241   3.595   1.113
 1070SOL    HW1 4097   1.323   3.616   1.068
 1070SOL    HW2 4098   1.247   3.501   1.131
 1071SOL     OW 4099   0.083   3.079   1.027
 1071SOL    HW1 4100   0.069   3.105   1.119
 1071SOL    HW2 4101   5.294   3.068   0.992
 1072SOL     OW 4102   0.678   3.528   1.729
 1072SOL    HW1 4103   0.622   3.606   1.724
 1072SOL    HW2 4104   0.742   3.539   1.659
 1073SOL     OW 4105   0.905   1.953   0.133
 1073SOL    HW1 4106   0.924   1.938   0.040
 1073SOL    HW2 4107   0.969   1.900   0.180
 1074SOL     OW 4108   1.721   2.007   0.511
 1074SOL    HW1 4109   1.791   1.991   0.449
 1074SOL    HW2 4110   1.704   1.922   0.552
 1075SOL     OW 4111   1.390   3.430   0.485
 1075SOL    HW1 4112   1.453   3.463   0.421
 1075SOL    HW2 4113   1.342   3.508   0.515
 1076SOL     OW 4114   0.145   3.660   1.842
 1076SOL    HW1 4115   0.090   3.597   1.889
 1076SOL    HW2 4116   0.191   3.708   1.911
 1077SOL     OW 4117   1.277   2.787   0.671
 1077SOL    HW1 4118   1.351   2.726   0.677
 1077SOL    HW2 4119   1.310   2.860   0.619
 1078SOL     OW 4120   0.815   3.135   1.430
 1078SOL    HW1 4121   0.786   3.175   1.512
 1078SOL    HW2 4122   0.745   3.156   1.368
 1079SOL     OW 4123   0.678   3.482   0.155
 1079SOL    HW1 4124   0.681   3.489   0.060
 1079SOL    HW2 4125   0.617   3.410   0.172
 1080SOL     OW 4126   1.626   3.588   1.391
 1080SOL    HW1 4127   1.676   3.595   1.310
 1080SOL    HW2 4128   1.613   3.679   1.419
 1081SOL     OW 4129   1.837   2.033   0.967
 1081SOL    HW1 4130   1.866   1.946   0.939
 1081SOL    HW2 4131   1.751   2.044   0.927
 1082SOL     OW 4132   0.270   2.178   0.717
 1082SOL    HW1 4133   0.187   2.222   0.698
 1082SOL    HW2 4134   0.270   2.168   0.812
 1083SOL     OW 4135   1.157   3.443   0.051
 1083SOL    HW1 4136   1.173   3.351   0.071
 1083SOL    HW2 4137   1.167   3.450   8.036
 1084SOL     OW 4138   0.824   2.868   1.372
 1084SOL    HW1 4139   0.867   2.864   1.287
 1084SOL    HW2 4140   0.823   2.961   1.395
 1085SOL     OW 4141   0.918   2.775   0.297
 1085SOL    HW1 4142   0.972   2.800   0.222
 1085SOL    HW2 4143   0.966   2.704   0.339
 1086SOL     OW 4144   1.510   3.486   0.061
 1086SOL    HW1 4145   1.415   3.486   0.049
 1086SOL    HW2 4146   1.545   3.487   8.051
 1087SOL     OW 4147   0.368   3.166   1.493
 1087SOL    HW1 4148   0.359   3.240   1.434
 1087SOL    HW2 4149   0.292   3.111   1.474
 1088SOL     OW 4150   1.610   3.144   1.280
 1088SOL    HW1 4151   1.671   3.135   1.354
 1088SOL    HW2 4152   1.550   3.214   1.308
 1089SOL     OW 4153   1.052   2.969   0.707
 1089SOL    HW1 4154   0.981   2.917   0.746
 1089SOL    HW2 4155   1.114   2.904   0.674
 1090SOL     OW 4156   1.021   2.102   0.966
 1090SOL    HW1 4157   1.017   2.054   0.883
 1090SOL    HW2 4158   1.016   2.034   1.033
 1091SOL     OW 4159   0.602   3.349   0.479
 1091SOL    HW1 4160   0.645   3.300   0.409
 1091SOL    HW2 4161   0.534   3.400   0.435
 1092SOL     OW 4162   1.718   2.252   1.380
 1092SOL    HW1 4163   1.789   2.317   1.380
 1092SOL    HW2 4164   1.750   2.182   1.323
 1093SOL     OW 4165   0.269   3.188   0.300
 1093SOL    HW1 4166   0.183   3.198   0.258
 1093SOL    HW2 4167   0.261   3.234   0.383
 1094SOL     OW 4168   0.116   2.878   1.718
 1094SOL    HW1 4169   0.045   2.843   1.772
 1094SOL    HW2 4170   0.196   2.847   1.761
 1095SOL     OW 4171   0.674   2.058   1.499
 1095SOL    HW1 4172   0.758   2.038   1.458
 1095SOL    HW2 4173   0.697   2.089   1.587
 1096SOL     OW 4174   0.041   2.254   0.028
 1096SOL    HW1 4175   0.019   2.167   0.060
 1096SOL    HW2 4176   0.122   2.242   8.058
 1097SOL     OW 4177   1.430   2.720   1.400
 1097SOL    HW1 4178   1.382   2.781   1.345
 1097SOL    HW2 4179   1.520   2.723   1.367
 1098SOL     OW 4180   0.052   1.997   0.217
 1098SOL    HW1 4181   0.054   2.084   0.256
 1098SOL    HW2 4182   0.144   1.973   0.207
 1099SOL     OW 4183   1.184   3.180   0.122
 1099SOL    HW1 4184   1.089   3.170   0.121
 1099SOL    HW2 4185   1.208   3.182   0.214
 1100SOL     OW 4186   0.619   2.693   1.435
 1100SOL    HW1 4187   0.675   2.769   1.419
 1100SOL    HW2 4188   0.680   2.619   1.443
 1101SOL     OW 4189   1.484   3.638   0.978
 1101SOL    HW1 4190   1.508   3.698   0.907
 1101SOL    HW2 4191   1.566   3.620   1.023
 1102SOL     OW 4192   0.717   2.426   1.705
 1102SOL    HW1 4193   0.758   2.489   1.764
 1102SOL    HW2 4194   0.746   2.341   1.737
 1103SOL     OW 4195   1.471   3.062   1.632
 1103SOL    HW1 4196   1.459   3.076   1.726
 1103SOL    HW2 4197   1.565   3.077   1.617
 1104SOL     OW 4198   0.378   3.604   1.564
 1104SOL    HW1 4199   0.296   3.650   1.548
 1104SOL    HW2 4200   0.353   3.524   1.609
 1105SOL     OW 4201   1.671   2.743   1.255
 1105SOL    HW1 4202   1.662   2.658   1.212
 1105SOL    HW2 4203   1.660   2.807   1.184
 1106SOL     OW 4204   1.217   2.180   0.460
 1106SOL    HW1 4205   1.282   2.110   0.453
 1106SOL    HW2 4206   1.245   2.231   0.536
 1107SOL     OW 4207   0.589   2.599   0.669
 1107SOL    HW1 4208   0.629   2.685   0.655
 1107SOL    HW2 4209   0.519   2.594   0.604
 1108SOL     OW 4210   1.764   2.222   1.648
 1108SOL    HW1 4211   1.743   2.238   1.556
 1108SOL    HW2 4212   1.692   2.167   1.679
 1109SOL     OW 4213   1.744   2.796   1.512
 1109SOL    HW1 4214   1.742   2.891   1.526
 1109SOL    HW2 4215   1.729   2.785   1.418
 1110SOL     OW 4216   0.894   3.234   0.035
 1110SOL    HW1 4217   0.831   3.225   0.107
 1110SOL    HW2 4218   0.878   3.322   0.000
 1111SOL     OW 4219   0.663   3.656   0.944
 1111SOL    HW1 4220   0.642   3.746   0.921
 1111SOL    HW2 4221   0.758   3.651   0.937
 1112SOL     OW 4222   0.867   2.828   0.855
 1112SOL    HW1 4223   0.918   2.757   0.895
 1112SOL    HW2 4224   0.833   2.878   0.929
 1113SOL     OW 4225   1.076   2.838   0.085
 1113SOL    HW1 4226   1.068   2.903   0.016
 1113SOL    HW2 4227   1.154   2.788   0.061
 1114SOL     OW 4228   1.854   3.416   0.844
 1114SOL    HW1 4229   1.775   3.405   0.791
 1114SOL    HW2 4230   1.847   3.350   0.913
 1115SOL     OW 4231   0.225   3.167   1.860
 1115SOL    HW1 4232   0.157   3.104   1.834
 1115SOL    HW2 4233   0.213   3.177   1.954
 1116SOL     OW 4234   0.093   3.095   0.660
 1116SOL    HW1 4235   0.099   3.050   0.745
 1116SOL    HW2 4236   0.169   3.064   0.611
 1117SOL     OW 4237   0.681   3.264   1.628
 1117SOL    HW1 4238   0.600   3.222   1.658
 1117SOL    HW2 4239   0.677   3.353   1.664
 1118SOL     OW 4240   1.815   2.047   1.238
 1118SOL    HW1 4241   1.822   1.952   1.252
 1118SOL    HW2 4242   1.821   2.057   1.143
 1119SOL     OW 4243   0.431   2.301   0.523
 1119SOL    HW1 4244   0.462   2.228   0.469
 1119SOL    HW2 4245   0.387   2.259   0.597
 1120SOL     OW 4246   1.700   3.352   1.097
 1120SOL    HW1 4247   1.619   3.328   1.052
 1120SOL    HW2 4248   1.713   3.282   1.161
 1121SOL     OW 4249   0.336   2.421   1.291
 1121SOL    HW1 4250   0.389   2.362   1.345
 1121SOL    HW2 4251   0.350   2.391   1.202
 1122SOL     OW 4252   0.828   3.439   0.678
 1122SOL    HW1 4253   0.816   3.493   0.600
 1122SOL    HW2 4254   0.751   3.382   0.680
 1123SOL     OW 4255   1.432   2.087   1.118
 1123SOL    HW1 4256   1.456   2.007   1.165
 1123SOL    HW2 4257   1.380   2.137   1.181
 1124SOL     OW 4258   1.009   1.881   1.142
 1124SOL    HW1 4259   0.954   1.813   1.103
 1124SOL    HW2 4260   1.097   1.843   1.145
 1125SOL     OW 4261   0.771   3.189   0.307
 1125SOL    HW1 4262   0.740   3.100   0.323
 1125SOL    HW2 4263   0.852   3.195   0.358
 1126SOL     OW 4264   0.623   3.418   1.287
 1126SOL    HW1 4265   0.624   3.500   1.336
 1126SOL    HW2 4266   0.709   3.412   1.247
 1127SOL     OW 4267   1.356   1.916   0.184
 1127SOL    HW1 4268   1.377   1.869   0.104
 1127SOL    HW2 4269   1.270   1.883   0.210
 1128SOL     OW 4270   1.297   2.323   0.681
 1128SOL    HW1 4271   1.244   2.402   0.688
 1128SOL    HW2 4272   1.292   2.283   0.768
 1129SOL     OW 4273   1.585   2.065   0.877
 1129SOL    HW1 4274   1.525   2.085   0.949
 1129SOL    HW2 4275   1.585   2.143   0.823
 1130SOL     OW 4276   0.046   2.939   0.318
 1130SOL    HW1 4277   0.135   2.915   0.291
 1130SOL    HW2 4278   5.298   2.856   0.319
 1131SOL     OW 4279   0.883   3.515   0.347
 1131SOL    HW1 4280   0.814   3.499   0.282
 1131SOL    HW2 4281   0.852   3.590   0.396
 1132SOL     OW 4282   0.233   2.494   1.978
 1132SOL    HW1 4283   0.159   2.461   2.029
 1132SOL    HW2 4284   0.219   2.459   1.890
 1133SOL     OW 4285   0.242   2.138   2.852
 1133SOL    HW1 4286   0.256   2.103   2.940
 1133SOL    HW2 4287   0.158   2.101   2.825
 1134SOL     OW 4288   5.298   2.260   2.515
 1134SOL    HW1 4289   5.206   2.282   2.521
 1134SOL    HW2 4290   5.299   2.169   2.484
 1135SOL     OW 4291   0.574   3.146   3.044
 1135SOL    HW1 4292   0.491   3.154   2.996
 1135SOL    HW2 4293   0.590   3.234   3.078
 1136SOL     OW 4294   1.561   3.374   2.569
 1136SOL    HW1 4295   1.518   3.354   2.652
 1136SOL    HW2 4296   1.490   3.378   2.505
 1137SOL     OW 4297   1.129   2.561   2.563
 1137SOL    HW1 4298   1.180   2.641   2.549
 1137SOL    HW2 4299   1.084   2.575   2.645
 1138SOL     OW 4300   1.764   2.468   2.090
 1138SOL    HW1 4301   1.745   2.459   1.997
 1138SOL    HW2 4302   1.730   2.388   2.130
 1139SOL     OW 4303   0.756   3.003   2.902
 1139SOL    HW1 4304   0.689   3.038   2.960
 1139SOL    HW2 4305   0.791   3.081   2.857
 1140SOL     OW 4306   0.867   2.637   3.684
 1140SOL    HW1 4307   0.854   2.709   3.746
 1140SOL    HW2 4308   0.889   2.680   3.602
 1141SOL     OW 4309   0.685   2.865   2.509
 1141SOL    HW1 4310   0.751   2.853   2.578
 1141SOL    HW2 4311   0.617   2.918   2.551
 1142SOL     OW 4312   0.710   3.013   3.675
 1142SOL    HW1 4313   0.758   3.092   3.701
 1142SOL    HW2 4314   0.628   3.046   3.639
 1143SOL     OW 4315   0.358   3.267   2.922
 1143SOL    HW1 4316   0.270   3.267   2.885
 1143SOL    HW2 4317   0.407   3.329   2.868
 1144SOL     OW 4318   1.461   3.359   3.217
 1144SOL    HW1 4319   1.510   3.441   3.224
 1144SOL    HW2 4320   1.396   3.364   3.287
 1145SOL     OW 4321   0.450   2.262   3.355
 1145SOL    HW1 4322   0.524   2.201   3.356
 1145SOL    HW2 4323   0.373   2.206   3.364
 1146SOL     OW 4324   1.613   2.309   2.602
 1146SOL    HW1 4325   1.538   2.333   2.547
 1146SOL    HW2 4326   1.631   2.388   2.653
 1147SOL     OW 4327   0.231   3.576   2.339
 1147SOL    HW1 4328   0.264   3.645   2.397
 1147SOL    HW2 4329   0.293   3.573   2.267
 1148SOL     OW 4330   1.137   3.203   3.555
 1148SOL    HW1 4331   1.174   3.199   3.643
 1148SOL    HW2 4332   1.084   3.123   3.548
 1149SOL     OW 4333   0.222   3.306   2.401
 1149SOL    HW1 4334   0.215   3.401   2.398
 1149SOL    HW2 4335   0.152   3.279   2.460
 1150SOL     OW 4336   0.250   2.940   2.737
 1150SOL    HW1 4337   0.261   2.855   2.780
 1150SOL    HW2 4338   0.198   2.991   2.800
 1151SOL     OW 4339   0.615   3.652   3.296
 1151SOL    HW1 4340   0.530   3.635   3.337
 1151SOL    HW2 4341   0.635   3.743   3.317
 1152SOL     OW 4342   0.584   2.845   1.997
 1152SOL    HW1 4343   0.629   2.893   1.928
 1152SOL    HW2 4344   0.625   2.874   2.078
 1153SOL     OW 4345   1.597   1.988   3.331
 1153SOL    HW1 4346   1.586   2.070   3.284
 1153SOL    HW2 4347   1.586   2.010   3.423
 1154SOL     OW 4348   0.126   2.496   2.441
 1154SOL    HW1 4349   0.089   2.413   2.470
 1154SOL    HW2 4350   0.099   2.559   2.508
 1155SOL     OW 4351   1.842   3.621   2.197
 1155SOL    HW1 4352   1.906   3.592   2.262
 1155SOL    HW2 4353   1.866   3.712   2.178
 1156SOL     OW 4354   0.038   3.461   1.994
 1156SOL    HW1 4355   0.024   3.369   2.019
 1156SOL    HW2 4356   5.283   3.510   2.054
 1157SOL     OW 4357   1.689   2.779   2.503
 1157SOL    HW1 4358   1.772   2.736   2.486
 1157SOL    HW2 4359   1.670   2.828   2.423
 1158SOL     OW 4360   1.646   2.969   2.291
 1158SOL    HW1 4361   1.732   2.974   2.249
 1158SOL    HW2 4362   1.651   3.030   2.365
 1159SOL     OW 4363   0.131   2.610   3.447
 1159SOL    HW1 4364   0.225   2.624   3.450
 1159SOL    HW2 4365   0.093   2.697   3.463
 1160SOL     OW 4366   0.615   3.247   2.597
 1160SOL    HW1 4367   0.567   3.165   2.607
 1160SOL    HW2 4368   0.598   3.274   2.506
 1161SOL     OW 4369   1.286   3.101   3.287
 1161SOL    HW1 4370   1.316   3.034   3.225
 1161SOL    HW2 4371   1.345   3.091   3.362
 1162SOL     OW 4372   0.822   1.861   2.371
 1162SOL    HW1 4373   0.862   1.946   2.352
 1162SOL    HW2 4374   0.729   1.880   2.378
 1163SOL     OW 4375   0.177   2.808   3.140
 1163SOL    HW1 4376   0.268   2.779   3.130
 1163SOL    HW2 4377   0.135   2.783   3.058
 1164SOL     OW 4378   1.531   2.856   2.060
 1164SOL    HW1 4379   1.462   2.798   2.093
 1164SOL    HW2 4380   1.573   2.890   2.139
 1165SOL     OW 4381   1.186   3.668   3.484
 1165SOL    HW1 4382   1.196   3.727   3.410
 1165SOL    HW2 4383   1.202   3.581   3.448
 1166SOL     OW 4384   0.336   2.115   3.679
 1166SOL    HW1 4385   0.383   2.197   3.691
 1166SOL    HW2 4386   0.249   2.132   3.714
 1167SOL     OW 4387   1.465   3.282   2.813
 1167SOL    HW1 4388   1.397   3.297   2.878
 1167SOL    HW2 4389   1.452   3.192   2.784
 1168SOL     OW 4390   1.658   3.602   2.440
 1168SOL    HW1 4391   1.639   3.572   2.351
 1168SOL    HW2 4392   1.634   3.528   2.496
 1169SOL     OW 4393   0.595   2.583   2.127
 1169SOL    HW1 4394   0.603   2.664   2.077
 1169SOL    HW2 4395   0.531   2.604   2.195
 1170SOL     OW 4396   1.280   2.215   2.795
 1170SOL    HW1 4397   1.191   2.181   2.803
 1170SOL    HW2 4398   1.331   2.162   2.856
 1171SOL     OW 4399   1.581   3.532   2.171
 1171SOL    HW1 4400   1.671   3.563   2.164
 1171SOL    HW2 4401   1.554   3.515   2.081
 1172SOL     OW 4402   0.794   2.479   3.314
 1172SOL    HW1 4403   0.766   2.456   3.402
 1172SOL    HW2 4404   0.753   2.413   3.258
 1173SOL     OW 4405   1.391   2.333   3.538
 1173SOL    HW1 4406   1.396   2.385   3.618
 1173SOL    HW2 4407   1.462   2.270   3.546
 1174SOL     OW 4408   0.956   2.750   3.444
 1174SOL    HW1 4409   1.008   2.678   3.408
 1174SOL    HW2 4410   0.908   2.784   3.369
 1175SOL     OW 4411   0.992   2.275   3.101
 1175SOL    HW1 4412   0.906   2.295   3.137
 1175SOL    HW2 4413   0.973   2.229   3.019
 1176SOL     OW 4414   1.051   2.561   2.288
 1176SOL    HW1 4415   1.067   2.554   2.382
 1176SOL    HW2 4416   0.968   2.514   2.274
 1177SOL     OW 4417   0.071   2.649   2.673
 1177SOL    HW1 4418   0.153   2.654   2.723
 1177SOL    HW2 4419   0.063   2.735   2.632
 1178SOL     OW 4420   0.130   3.745   3.446
 1178SOL    HW1 4421   0.133   3.715   3.537
 1178SOL    HW2 4422   0.059   3.695   3.407
 1179SOL     OW 4423   0.892   2.211   2.056
 1179SOL    HW1 4424   0.933   2.273   1.996
 1179SOL    HW2 4425   0.909   2.125   2.017
 1180SOL     OW 4426   1.647   2.448   3.660
 1180SOL    HW1 4427   1.693   2.530   3.680
 1180SOL    HW2 4428   1.715   2.391   3.625
 1181SOL     OW 4429   1.376   3.004   2.403
 1181SOL    HW1 4430   1.456   2.991   2.351
 1181SOL    HW2 4431   1.325   3.066   2.352
 1182SOL     OW 4432   0.555   2.045   2.755
 1182SOL    HW1 4433   0.552   2.073   2.847
 1182SOL    HW2 4434   0.551   2.127   2.705
 1183SOL     OW 4435   1.005   3.306   2.334
 1183SOL    HW1 4436   0.968   3.379   2.285
 1183SOL    HW2 4437   0.989   3.328   2.426
 1184SOL     OW 4438   0.357   3.664   2.731
 1184SOL    HW1 4439   0.397   3.579   2.744
 1184SOL    HW2 4440   0.423   3.727   2.760
 1185SOL     OW 4441   1.797   2.924   2.728
 1185SOL    HW1 4442   1.744   2.902   2.651
 1185SOL    HW2 4443   1.733   2.932   2.799
 1186SOL     OW 4444   1.229   3.400   3.374
 1186SOL    HW1 4445   1.214   3.327   3.434
 1186SOL    HW2 4446   1.164   3.387   3.304
 1187SOL     OW 4447   0.316   2.814   2.109
 1187SOL    HW1 4448   0.398   2.838   2.065
 1187SOL    HW2 4449   0.293   2.728   2.073
 1188SOL     OW 4450   1.478   2.605   2.589
 1188SOL    HW1 4451   1.470   2.561   2.674
 1188SOL    HW2 4452   1.556   2.659   2.597
 1189SOL     OW 4453   0.465   3.125   3.599
 1189SOL    HW1 4454   0.438   3.132   3.508
 1189SOL    HW2 4455   0.383   3.126   3.649
 1190SOL     OW 4456   1.122   3.640   2.093
 1190SOL    HW1 4457   1.049   3.597   2.139
 1190SOL    HW2 4458   1.145   3.579   2.023
 1191SOL     OW 4459   0.205   2.143   3.360
 1191SOL    HW1 4460   0.126   2.194   3.343
 1191SOL    HW2 4461   0.174   2.064   3.404
 1192SOL     OW 4462   1.629   3.242   1.949
 1192SOL    HW1 4463   1.587   3.327   1.934
 1192SOL    HW2 4464   1.560   3.178   1.930
 1193SOL     OW 4465   0.471   3.597   2.182
 1193SOL    HW1 4466   0.513   3.655   2.245
 1193SOL    HW2 4467   0.542   3.566   2.126
 1194SOL     OW 4468   1.401   1.969   2.295
 1194SOL    HW1 4469   1.391   1.945   2.203
 1194SOL    HW2 4470   1.496   1.977   2.308
 1195SOL     OW 4471   0.276   3.663   3.076
 1195SOL    HW1 4472   0.306   3.585   3.123
 1195SOL    HW2 4473   0.225   3.628   3.003
 1196SOL     OW 4474   0.939   3.560   2.761
 1196SOL    HW1 4475   1.017   3.509   2.781
 1196SOL    HW2 4476   0.894   3.511   2.693
 1197SOL     OW 4477   0.386   2.558   2.341
 1197SOL    HW1 4478   0.415   2.467   2.350
 1197SOL    HW2 4479   0.292   2.555   2.362
 1198SOL     OW 4480   1.537   2.082   3.588
 1198SOL    HW1 4481   1.547   2.108   3.680
 1198SOL    HW2 4482   1.464   2.020   3.588
 1199SOL     OW 4483   0.633   1.984   1.968
 1199SOL    HW1 4484   0.704   1.921   1.979
 1199SOL    HW2 4485   0.585   1.953   1.891
 1200SOL     OW 4486   0.767   2.140   3.616
 1200SOL    HW1 4487   0.842   2.081   3.617
 1200SOL    HW2 4488   0.717   2.118   3.695
 1201SOL     OW 4489   0.877   3.384   3.055
 1201SOL    HW1 4490   0.861   3.348   2.968
 1201SOL    HW2 4491   0.947   3.329   3.091
 1202SOL     OW 4492   1.340   2.445   3.296
 1202SOL    HW1 4493   1.365   2.408   3.381
 1202SOL    HW2 4494   1.387   2.528   3.291
 1203SOL     OW 4495   0.815   3.256   2.801
 1203SOL    HW1 4496   0.900   3.246   2.757
 1203SOL    HW2 4497   0.751   3.258   2.731
 1204SOL     OW 4498   0.928   2.371   2.765
 1204SOL    HW1 4499   0.904   2.363   2.673
 1204SOL    HW2 4500   0.959   2.284   2.790
 1205SOL     OW 4501   0.560   1.923   2.358
 1205SOL    HW1 4502   0.485   1.923   2.418
 1205SOL    HW2 4503   0.550   2.003   2.306
 1206SOL     OW 4504   1.428   3.060   1.903
 1206SOL    HW1 4505   1.459   2.985   1.953
 1206SOL    HW2 4506   1.343   3.081   1.941
 1207SOL     OW 4507   0.305   1.909   2.041
 1207SOL    HW1 4508   0.368   1.973   2.006
 1207SOL    HW2 4509   0.360   1.844   2.086
 1208SOL     OW 4510   0.939   2.109   2.322
 1208SOL    HW1 4511   0.912   2.150   2.240
 1208SOL    HW2 4512   1.034   2.123   2.326
 1209SOL     OW 4513   1.079   2.541   3.322
 1209SOL    HW1 4514   1.006   2.479   3.326
 1209SOL    HW2 4515   1.157   2.486   3.315
 1210SOL     OW 4516   1.223   3.432   2.656
 1210SOL    HW1 4517   1.239   3.499   2.589
 1210SOL    HW2 4518   1.292   3.446   2.721
 1211SOL     OW 4519   0.467   3.012   2.594
 1211SOL    HW1 4520   0.398   2.992   2.657
 1211SOL    HW2 4521   0.428   2.994   2.508
 1212SOL     OW 4522   1.269   3.656   2.470
 1212SOL    HW1 4523   1.315   3.717   2.412
 1212SOL    HW2 4524   1.203   3.709   2.513
 1213SOL     OW 4525   1.023   2.404   1.885
 1213SOL    HW1 4526   0.982   2.488   1.865
 1213SOL    HW2 4527   1.089   2.425   1.951
 1214SOL     OW 4528   0.087   2.407   3.260
 1214SOL    HW1 4529   0.175   2.414   3.223
 1214SOL    HW2 4530   0.079   2.483   3.318
 1215SOL     OW 4531   0.560   2.090   3.028
 1215SOL    HW1 4532   0.598   2.010   3.065
 1215SOL    HW2 4533   0.469   2.088   3.056
 1216SOL     OW 4534   0.867   2.321   2.502
 1216SOL    HW1 4535   0.823   2.375   2.437
 1216SOL    HW2 4536   0.889   2.240   2.455
 1217SOL     OW 4537   1.015   1.915   2.614
 1217SOL    HW1 4538   0.957   1.907   2.538
 1217SOL    HW2 4539   0.993   1.840   2.669
 1218SOL     OW 4540   1.431   3.028   2.717
 1218SOL    HW1 4541   1.365   2.959   2.715
 1218SOL    HW2 4542   1.459   3.037   2.626
 1219SOL     OW 4543   1.462   2.467   2.836
 1219SOL    HW1 4544   1.413   2.385   2.837
 1219SOL    HW2 4545   1.521   2.461   2.911
 1220SOL     OW 4546   1.842   2.681   2.240
 1220SOL    HW1 4547   1.895   2.631   2.302
 1220SOL    HW2 4548   1.816   2.618   2.173
 1221SOL     OW 4549   0.492   3.279   2.020
 1221SOL    HW1 4550   0.416   3.251   2.072
 1221SOL    HW2 4551   0.475   3.244   1.933
 1222SOL     OW 4552   1.670   3.126   2.508
 1222SOL    HW1 4553   1.764   3.128   2.522
 1222SOL    HW2 4554   1.641   3.215   2.529
 1223SOL     OW 4555   1.394   2.434   1.933
 1223SOL    HW1 4556   1.333   2.414   2.005
 1223SOL    HW2 4557   1.479   2.404   1.965
 1224SOL     OW 4558   0.524   2.125   2.180
 1224SOL    HW1 4559   0.569   2.078   2.110
 1224SOL    HW2 4560   0.502   2.210   2.141
 1225SOL     OW 4561   1.058   3.216   3.195
 1225SOL    HW1 4562   0.983   3.184   3.246
 1225SOL    HW2 4563   1.134   3.174   3.236
 1226SOL     OW 4564   1.604   3.486   3.514
 1226SOL    HW1 4565   1.604   3.517   3.424
 1226SOL    HW2 4566   1.692   3.451   3.528
 1227SOL     OW 4567   1.127   3.065   2.966
 1227SOL    HW1 4568   1.068   3.103   3.031
 1227SOL    HW2 4569   1.095   3.098   2.882
 1228SOL     OW 4570   1.622   2.978   2.928
 1228SOL    HW1 4571   1.618   3.034   3.005
 1228SOL    HW2 4572   1.540   2.995   2.882
 1229SOL     OW 4573   0.918   1.958   3.259
 1229SOL    HW1 4574   0.940   1.940   3.168
 1229SOL    HW2 4575   0.998   1.998   3.295
 1230SOL     OW 4576   0.985   2.976   3.586
 1230SOL    HW1 4577   0.893   2.993   3.606
 1230SOL    HW2 4578   0.983   2.899   3.529
 1231SOL     OW 4579   0.707   2.922   2.234
 1231SOL    HW1 4580   0.696   2.906   2.328
 1231SOL    HW2 4581   0.784   2.869   2.210
 1232SOL     OW 4582   0.420   2.681   3.114
 1232SOL    HW1 4583   0.489   2.687   3.180
 1232SOL    HW2 4584   0.386   2.592   3.125
 1233SOL     OW 4585   1.264   2.237   3.137
 1233SOL    HW1 4586   1.297   2.314   3.182
 1233SOL    HW2 4587   1.174   2.259   3.113
 1234SOL     OW 4588   0.101   3.485   3.229
 1234SOL    HW1 4589   0.079   3.494   3.136
 1234SOL    HW2 4590   0.187   3.443   3.229
 1235SOL     OW 4591   0.343   2.968   2.350
 1235SOL    HW1 4592   0.353   3.047   2.297
 1235SOL    HW2 4593   0.353   2.896   2.287
 1236SOL     OW 4594   0.555   2.398   2.721
 1236SOL    HW1 4595   0.570   2.457   2.647
 1236SOL    HW2 4596   0.619   2.425   2.787
 1237SOL     OW 4597   1.248   3.210   2.251
 1237SOL    HW1 4598   1.304   3.282   2.282
 1237SOL    HW2 4599   1.161   3.232   2.285
 1238SOL     OW 4600   1.280   3.319   3.009
 1238SOL    HW1 4601   1.335   3.320   3.087
 1238SOL    HW2 4602   1.225   3.241   3.020
 1239SOL     OW 4603   1.579   2.484   2.339
 1239SOL    HW1 4604   1.535   2.540   2.403
 1239SOL    HW2 4605   1.632   2.545   2.287
 1240SOL     OW 4606   0.352   3.381   3.173
 1240SOL    HW1 4607   0.341   3.338   3.088
 1240SOL    HW2 4608   0.445   3.399   3.179
 1241SOL     OW 4609   0.413   2.605   3.464
 1241SOL    HW1 4610   0.474   2.651   3.406
 1241SOL    HW2 4611   0.453   2.518   3.477
 1242SOL     OW 4612   0.995   1.985   3.617
 1242SOL    HW1 4613   1.051   2.057   3.589
 1242SOL    HW2 4614   1.044   1.906   3.591
 1243SOL     OW 4615   0.497   1.904   3.610
 1243SOL    HW1 4616   0.455   1.849   3.543
 1243SOL    HW2 4617   0.438   1.977   3.622
 1244SOL     OW 4618   0.585   2.736   2.894
 1244SOL    HW1 4619   0.616   2.826   2.893
 1244SOL    HW2 4620   0.529   2.731   2.971
 1245SOL     OW 4621   1.358   2.719   2.900
 1245SOL    HW1 4622   1.277   2.716   2.849
 1245SOL    HW2 4623   1.397   2.632   2.887
 1246SOL     OW 4624   1.204   2.390   2.129
 1246SOL    HW1 4625   1.213   2.312   2.184
 1246SOL    HW2 4626   1.162   2.455   2.185
 1247SOL     OW 4627   0.302   2.065   3.110
 1247SOL    HW1 4628   0.267   2.090   3.196
 1247SOL    HW2 4629   0.289   1.970   3.105
 1248SOL     OW 4630   0.069   3.181   3.143
 1248SOL    HW1 4631   0.091   3.121   3.214
 1248SOL    HW2 4632   5.300   3.236   3.178
 1249SOL     OW 4633   0.725   2.494   2.920
 1249SOL    HW1 4634   0.799   2.477   2.862
 1249SOL    HW2 4635   0.697   2.583   2.899
 1250SOL     OW 4636   1.688   2.752   3.742
 1250SOL    HW1 4637   1.657   2.792   3.661
 1250SOL    HW2 4638   1.636   2.792   3.811
 1251SOL     OW 4639   0.327   1.924   2.496
 1251SOL    HW1 4640   0.307   2.013   2.524
 1251SOL    HW2 4641   0.331   1.874   2.578
 1252SOL     OW 4642   1.615   2.236   2.229
 1252SOL    HW1 4643   1.643   2.173   2.296
 1252SOL    HW2 4644   1.593   2.315   2.278
 1253SOL     OW 4645   1.027   2.621   2.822
 1253SOL    HW1 4646   1.025   2.639   2.916
 1253SOL    HW2 4647   1.001   2.529   2.814
 1254SOL     OW 4648   0.983   3.428   3.578
 1254SOL    HW1 4649   0.967   3.473   3.495
 1254SOL    HW2 4650   1.025   3.346   3.554
 1255SOL     OW 4651   0.354   2.780   3.668
 1255SOL    HW1 4652   0.435   2.799   3.715
 1255SOL    HW2 4653   0.378   2.715   3.603
 1256SOL     OW 4654   1.530   2.134   1.989
 1256SOL    HW1 4655   1.465   2.070   2.016
 1256SOL    HW2 4656   1.562   2.171   2.071
 1257SOL     OW 4657   1.291   2.688   1.893
 1257SOL    HW1 4658   1.335   2.603   1.897
 1257SOL    HW2 4659   1.323   2.728   1.812
 1258SOL     OW 4660   1.066   3.197   2.716
 1258SOL    HW1 4661   1.069   3.125   2.653
 1258SOL    HW2 4662   1.127   3.262   2.681
 1259SOL     OW 4663   0.314   2.672   2.812
 1259SOL    HW1 4664   0.408   2.690   2.808
 1259SOL    HW2 4665   0.308   2.582   2.844
 1260SOL     OW 4666   0.335   2.388   2.877
 1260SOL    HW1 4667   0.300   2.300   2.863
 1260SOL    HW2 4668   0.410   2.393   2.817
 1261SOL     OW 4669   1.133   2.237   3.544
 1261SOL    HW1 4670   1.086   2.293   3.606
 1261SOL    HW2 4671   1.222   2.273   3.543
 1262SOL     OW 4672   1.161   2.064   3.332
 1262SOL    HW1 4673   1.150   2.127   3.404
 1262SOL    HW2 4674   1.199   2.115   3.261
 1263SOL     OW 4675   0.002   3.192   2.072
 1263SOL    HW1 4676   5.228   3.181   2.012
 1263SOL    HW2 4677   0.012   3.106   2.113
 1264SOL     OW 4678   0.093   3.643   2.813
 1264SOL    HW1 4679   0.059   3.573   2.757
 1264SOL    HW2 4680   0.180   3.662   2.778
 1265SOL     OW 4681   0.505   3.435   2.770
 1265SOL    HW1 4682   0.572   3.501   2.790
 1265SOL    HW2 4683   0.548   3.374   2.710
 1266SOL     OW 4684   0.983   2.654   3.089
 1266SOL    HW1 4685   1.038   2.630   3.163
 1266SOL    HW2 4686   0.897   2.616   3.109
 1267SOL     OW 4687   0.033   2.424   2.978
 1267SOL    HW1 4688   0.119   2.398   2.944
 1267SOL    HW2 4689   0.037   2.405   3.071
 1268SOL     OW 4690   0.175   2.375   3.574
 1268SOL    HW1 4691   0.240   2.338   3.514
 1268SOL    HW2 4692   0.146   2.456   3.532
 1269SOL     OW 4693   1.381   2.805   3.520
 1269SOL    HW1 4694   1.405   2.897   3.520
 1269SOL    HW2 4695   1.356   2.786   3.429
 1270SOL     OW 4696   0.816   2.430   2.222
 1270SOL    HW1 4697   0.820   2.356   2.162
 1270SOL    HW2 4698   0.742   2.483   2.190
 1271SOL     OW 4699   1.628   2.457   3.046
 1271SOL    HW1 4700   1.618   2.398   3.120
 1271SOL    HW2 4701   1.714   2.436   3.009
 1272SOL     OW 4702   0.257   3.418   3.597
 1272SOL    HW1 4703   0.233   3.481   3.665
 1272SOL    HW2 4704   0.249   3.332   3.640
 1273SOL     OW 4705   0.701   2.313   3.122
 1273SOL    HW1 4706   0.649   2.239   3.093
 1273SOL    HW2 4707   0.697   2.375   3.050
 1274SOL     OW 4708   0.929   3.541   3.329
 1274SOL    HW1 4709   0.902   3.506   3.244
 1274SOL    HW2 4710   0.924   3.636   3.319
 1275SOL     OW 4711   0.465   2.355   2.048
 1275SOL    HW1 4712   0.525   2.427   2.069
 1275SOL    HW2 4713   0.380   2.398   2.036
 1276SOL     OW 4714   0.148   3.000   3.333
 1276SOL    HW1 4715   0.146   2.951   3.415
 1276SOL    HW2 4716   0.161   2.933   3.266
 1277SOL     OW 4717   1.332   2.921   3.087
 1277SOL    HW1 4718   1.356   2.847   3.032
 1277SOL    HW2 4719   1.259   2.963   3.041
 1278SOL     OW 4720   1.310   2.719   2.168
 1278SOL    HW1 4721   1.235   2.688   2.218
 1278SOL    HW2 4722   1.286   2.705   2.076
 1279SOL     OW 4723   1.769   3.609   3.011
 1279SOL    HW1 4724   1.831   3.635   2.943
 1279SOL    HW2 4725   1.746   3.519   2.989
 1280SOL     OW 4726   1.242   3.595   2.976
 1280SOL    HW1 4727   1.323   3.616   2.931
 1280SOL    HW2 4728   1.247   3.501   2.993
 1281SOL     OW 4729   0.083   3.079   2.889
 1281SOL    HW1 4730   0.070   3.105   2.981
 1281SOL    HW2 4731   5.294   3.068   2.855
 1282SOL     OW 4732   0.678   3.528   3.591
 1282SOL    HW1 4733   0.622   3.605   3.586
 1282SOL    HW2 4734   0.741   3.540   3.520
 1283SOL     OW 4735   1.719   2.008   2.371
 1283SOL    HW1 4736   1.791   1.993   2.311
 1283SOL    HW2 4737   1.703   1.923   2.413
 1284SOL     OW 4738   1.390   3.430   2.347
 1284SOL    HW1 4739   1.451   3.462   2.280
 1284SOL    HW2 4740   1.342   3.507   2.375
 1285SOL     OW 4741   0.145   3.659   3.704
 1285SOL    HW1 4742   0.090   3.597   3.751
 1285SOL    HW2 4743   0.191   3.708   3.773
 1286SOL     OW 4744   1.277   2.788   2.533
 1286SOL    HW1 4745   1.351   2.727   2.540
 1286SOL    HW2 4746   1.311   2.860   2.480
 1287SOL     OW 4747   0.814   3.135   3.293
 1287SOL    HW1 4748   0.785   3.175   3.375
 1287SOL    HW2 4749   0.745   3.156   3.230
 1288SOL     OW 4750   0.672   3.481   2.017
 1288SOL    HW1 4751   0.682   3.494   1.923
 1288SOL    HW2 4752   0.618   3.403   2.025
 1289SOL     OW 4753   1.626   3.588   3.254
 1289SOL    HW1 4754   1.676   3.594   3.173
 1289SOL    HW2 4755   1.613   3.679   3.281
 1290SOL     OW 4756   1.866   2.053   2.808
 1290SOL    HW1 4757   1.886   1.959   2.810
 1290SOL    HW2 4758   1.772   2.057   2.789
 1291SOL     OW 4759   0.272   2.179   2.580
 1291SOL    HW1 4760   0.188   2.218   2.559
 1291SOL    HW2 4761   0.271   2.168   2.675
 1292SOL     OW 4762   1.207   3.468   1.894
 1292SOL    HW1 4763   1.198   3.377   1.920
 1292SOL    HW2 4764   1.142   3.480   1.824
 1293SOL     OW 4765   0.824   2.868   3.235
 1293SOL    HW1 4766   0.867   2.863   3.149
 1293SOL    HW2 4767   0.823   2.961   3.256
 1294SOL     OW 4768   0.915   2.772   2.152
 1294SOL    HW1 4769   0.976   2.804   2.085
 1294SOL    HW2 4770   0.963   2.703   2.197
 1295SOL     OW 4771   1.492   3.487   1.904
 1295SOL    HW1 4772   1.397   3.481   1.891
 1295SOL    HW2 4773   1.529   3.493   1.816
 1296SOL     OW 4774   0.368   3.166   3.355
 1296SOL    HW1 4775   0.359   3.240   3.296
 1296SOL    HW2 4776   0.292   3.111   3.336
 1297SOL     OW 4777   1.630   3.159   3.140
 1297SOL    HW1 4778   1.674   3.136   3.222
 1297SOL    HW2 4779   1.561   3.220   3.165
 1298SOL     OW 4780   1.052   2.969   2.568
 1298SOL    HW1 4781   0.981   2.917   2.607
 1298SOL    HW2 4782   1.115   2.904   2.537
 1299SOL     OW 4783   1.022   2.102   2.829
 1299SOL    HW1 4784   1.017   2.055   2.746
 1299SOL    HW2 4785   1.016   2.034   2.896
 1300SOL     OW 4786   0.601   3.349   2.343
 1300SOL    HW1 4787   0.646   3.301   2.274
 1300SOL    HW2 4788   0.535   3.401   2.298
 1301SOL     OW 4789   1.701   2.247   3.226
 1301SOL    HW1 4790   1.766   2.318   3.231
 1301SOL    HW2 4791   1.734   2.189   3.158
 1302SOL     OW 4792   0.260   3.210   2.154
 1302SOL    HW1 4793   0.167   3.212   2.132
 1302SOL    HW2 4794   0.264   3.247   2.242
 1303SOL     OW 4795   0.116   2.878   3.580
 1303SOL    HW1 4796   0.045   2.843   3.633
 1303SOL    HW2 4797   0.195   2.847   3.623
 1304SOL     OW 4798   0.674   2.058   3.361
 1304SOL    HW1 4799   0.758   2.038   3.320
 1304SOL    HW2 4800   0.697   2.090   3.449
 1305SOL     OW 4801   0.082   2.212   1.903
 1305SOL    HW1 4802   0.003   2.163   1.879
 1305SOL    HW2 4803   0.098   2.269   1.828
 1306SOL     OW 4804   0.056   1.995   2.105
 1306SOL    HW1 4805   0.055   2.090   2.097
 1306SOL    HW2 4806   0.146   1.970   2.083
 1307SOL     OW 4807   1.179   3.202   1.979
 1307SOL    HW1 4808   1.088   3.171   1.982
 1307SOL    HW2 4809   1.207   3.202   2.070
 1308SOL     OW 4810   0.619   2.693   3.297
 1308SOL    HW1 4811   0.676   2.769   3.281
 1308SOL    HW2 4812   0.680   2.619   3.305
 1309SOL     OW 4813   1.484   3.639   2.841
 1309SOL    HW1 4814   1.507   3.697   2.769
 1309SOL    HW2 4815   1.567   3.619   2.884
 1310SOL     OW 4816   0.718   2.426   3.566
 1310SOL    HW1 4817   0.758   2.488   3.627
 1310SOL    HW2 4818   0.745   2.340   3.598
 1311SOL     OW 4819   1.467   3.065   3.498
 1311SOL    HW1 4820   1.447   3.078   3.591
 1311SOL    HW2 4821   1.557   3.094   3.488
 1312SOL     OW 4822   0.378   3.604   3.426
 1312SOL    HW1 4823   0.296   3.650   3.410
 1312SOL    HW2 4824   0.353   3.524   3.471
 1313SOL     OW 4825   1.689   2.751   3.065
 1313SOL    HW1 4826   1.642   2.673   3.035
 1313SOL    HW2 4827   1.657   2.821   3.009
 1314SOL     OW 4828   1.217   2.181   2.320
 1314SOL    HW1 4829   1.280   2.110   2.311
 1314SOL    HW2 4830   1.245   2.230   2.396
 1315SOL     OW 4831   0.590   2.600   2.531
 1315SOL    HW1 4832   0.629   2.686   2.515
 1315SOL    HW2 4833   0.521   2.593   2.465
 1316SOL     OW 4834   1.753   2.234   3.500
 1316SOL    HW1 4835   1.730   2.226   3.408
 1316SOL    HW2 4836   1.696   2.170   3.545
 1317SOL     OW 4837   0.862   3.229   1.896
 1317SOL    HW1 4838   0.824   3.258   1.979
 1317SOL    HW2 4839   0.881   3.310   1.848
 1318SOL     OW 4840   0.663   3.656   2.806
 1318SOL    HW1 4841   0.642   3.746   2.783
 1318SOL    HW2 4842   0.758   3.651   2.799
 1319SOL     OW 4843   0.867   2.828   2.716
 1319SOL    HW1 4844   0.917   2.757   2.756
 1319SOL    HW2 4845   0.833   2.878   2.791
 1320SOL     OW 4846   1.078   2.849   1.950
 1320SOL    HW1 4847   1.057   2.901   1.872
 1320SOL    HW2 4848   1.153   2.796   1.925
 1321SOL     OW 4849   1.855   3.417   2.705
 1321SOL    HW1 4850   1.777   3.404   2.652
 1321SOL    HW2 4851   1.847   3.352   2.775
 1322SOL     OW 4852   0.225   3.167   3.722
 1322SOL    HW1 4853   0.157   3.104   3.695
 1322SOL    HW2 4854   0.213   3.177   3.816
 1323SOL     OW 4855   0.087   3.083   2.517
 1323SOL    HW1 4856   0.100   3.050   2.606
 1323SOL    HW2 4857   0.173   3.075   2.476
 1324SOL     OW 4858   0.682   3.264   3.492
 1324SOL    HW1 4859   0.601   3.222   3.520
 1324SOL    HW2 4860   0.676   3.353   3.526
 1325SOL     OW 4861   0.434   2.298   2.386
 1325SOL    HW1 4862   0.462   2.225   2.330
 1325SOL    HW2 4863   0.387   2.256   2.458
 1326SOL     OW 4864   1.696   3.357   2.953
 1326SOL    HW1 4865   1.618   3.330   2.906
 1326SOL    HW2 4866   1.704   3.294   3.025
 1327SOL     OW 4867   0.336   2.421   3.153
 1327SOL    HW1 4868   0.389   2.362   3.207
 1327SOL    HW2 4869   0.350   2.391   3.063
 1328SOL     OW 4870   0.828   3.440   2.540
 1328SOL    HW1 4871   0.816   3.494   2.462
 1328SOL    HW2 4872   0.751   3.383   2.542
 1329SOL     OW 4873   1.434   2.087   2.981
 1329SOL    HW1 4874   1.452   2.003   3.023
 1329SOL    HW2 4875   1.380   2.134   3.044
 1330SOL     OW 4876   1.009   1.881   3.005
 1330SOL    HW1 4877   0.955   1.813   2.964
 1330SOL    HW2 4878   1.097   1.843   3.006
 1331SOL     OW 4879   0.771   3.195   2.177
 1331SOL    HW1 4880   0.741   3.104   2.183
 1331SOL    HW2 4881   0.854   3.196   2.226
 1332SOL     OW 4882   0.623   3.418   3.150
 1332SOL    HW1 4883   0.624   3.500   3.198
 1332SOL    HW2 4884   0.709   3.412   3.109
 1333SOL     OW 4885   1.352   1.916   2.027
 1333SOL    HW1 4886   1.380   1.852   1.961
 1333SOL    HW2 4887   1.265   1.886   2.054
 1334SOL     OW 4888   1.295   2.322   2.543
 1334SOL    HW1 4889   1.243   2.402   2.550
 1334SOL    HW2 4890   1.292   2.283   2.630
 1335SOL     OW 4891   1.593   2.064   2.744
 1335SOL    HW1 4892   1.530   2.084   2.814
 1335SOL    HW2 4893   1.592   2.140   2.687
 1336SOL     OW 4894   0.048   2.931   2.153
 1336SOL    HW1 4895   0.137   2.899   2.141
 1336SOL    HW2 4896   5.300   2.855   2.187
 1337SOL     OW 4897   0.884   3.513   2.204
 1337SOL    HW1 4898   0.812   3.498   2.144
 1337SOL    HW2 4899   0.857   3.589   2.256
 1338SOL     OW 4900   0.233   2.494   3.840
 1338SOL    HW1 4901   0.160   2.461   3.891
 1338SOL    HW2 4902   0.219   2.459   3.752
 1339SOL     OW 4903   0.242   2.137   4.714
 1339SOL    HW1 4904   0.256   2.103   4.802
 1339SOL    HW2 4905   0.158   2.101   4.686
 1340SOL     OW 4906   5.298   2.260   4.376
 1340SOL    HW1 4907   5.206   2.282   4.383
 1340SOL    HW2 4908   5.299   2.169   4.346
 1341SOL     OW 4909   0.574   3.146   4.905
 1341SOL    HW1 4910   0.491   3.154   4.858
 1341SOL    HW2 4911   0.590   3.233   4.940
 1342SOL     OW 4912   1.558   3.375   4.425
 1342SOL    HW1 4913   1.522   3.345   4.509
 1342SOL    HW2 4914   1.484   3.370   4.364
 1343SOL     OW 4915   1.128   2.560   4.427
 1343SOL    HW1 4916   1.173   2.643   4.411
 1343SOL    HW2 4917   1.081   2.573   4.509
 1344SOL     OW 4918   0.756   3.003   4.763
 1344SOL    HW1 4919   0.689   3.037   4.822
 1344SOL    HW2 4920   0.791   3.081   4.719
 1345SOL     OW 4921   0.866   2.637   5.546
 1345SOL    HW1 4922   0.856   2.709   5.608
 1345SOL    HW2 4923   0.889   2.680   5.464
 1346SOL     OW 4924   0.686   2.865   4.371
 1346SOL    HW1 4925   0.751   2.853   4.440
 1346SOL    HW2 4926   0.617   2.918   4.413
 1347SOL     OW 4927   0.709   3.013   5.537
 1347SOL    HW1 4928   0.758   3.091   5.563
 1347SOL    HW2 4929   0.627   3.046   5.501
 1348SOL     OW 4930   0.358   3.267   4.784
 1348SOL    HW1 4931   0.270   3.267   4.747
 1348SOL    HW2 4932   0.406   3.329   4.730
 1349SOL     OW 4933   1.461   3.361   5.079
 1349SOL    HW1 4934   1.510   3.442   5.088
 1349SOL    HW2 4935   1.399   3.363   5.152
 1350SOL     OW 4936   0.450   2.262   5.217
 1350SOL    HW1 4937   0.524   2.202   5.218
 1350SOL    HW2 4938   0.373   2.206   5.226
 1351SOL     OW 4939   1.592   2.310   4.480
 1351SOL    HW1 4940   1.526   2.330   4.414
 1351SOL    HW2 4941   1.662   2.373   4.463
 1352SOL     OW 4942   0.231   3.576   4.202
 1352SOL    HW1 4943   0.264   3.645   4.259
 1352SOL    HW2 4944   0.293   3.573   4.129
 1353SOL     OW 4945   1.136   3.203   5.416
 1353SOL    HW1 4946   1.177   3.199   5.503
 1353SOL    HW2 4947   1.084   3.124   5.410
 1354SOL     OW 4948   0.223   3.306   4.263
 1354SOL    HW1 4949   0.215   3.401   4.260
 1354SOL    HW2 4950   0.153   3.278   4.322
 1355SOL     OW 4951   0.250   2.940   4.600
 1355SOL    HW1 4952   0.261   2.855   4.642
 1355SOL    HW2 4953   0.198   2.991   4.661
 1356SOL     OW 4954   0.614   3.652   5.157
 1356SOL    HW1 4955   0.530   3.635   5.199
 1356SOL    HW2 4956   0.634   3.743   5.179
 1357SOL     OW 4957   0.584   2.845   3.859
 1357SOL    HW1 4958   0.629   2.893   3.790
 1357SOL    HW2 4959   0.625   2.874   3.940
 1358SOL     OW 4960   1.586   1.978   5.197
 1358SOL    HW1 4961   1.608   2.058   5.149
 1358SOL    HW2 4962   1.576   2.006   5.288
 1359SOL     OW 4963   0.126   2.496   4.303
 1359SOL    HW1 4964   0.089   2.413   4.331
 1359SOL    HW2 4965   0.099   2.559   4.370
 1360SOL     OW 4966   1.844   3.621   4.061
 1360SOL    HW1 4967   1.907   3.593   4.127
 1360SOL    HW2 4968   1.869   3.711   4.040
 1361SOL     OW 4969   0.038   3.461   3.856
 1361SOL    HW1 4970   0.024   3.369   3.881
 1361SOL    HW2 4971   5.282   3.510   3.916
 1362SOL     OW 4972   1.641   2.971   4.156
 1362SOL    HW1 4973   1.727   2.969   4.113
 1362SOL    HW2 4974   1.657   3.018   4.238
 1363SOL     OW 4975   0.131   2.610   5.309
 1363SOL    HW1 4976   0.225   2.624   5.312
 1363SOL    HW2 4977   0.093   2.697   5.325
 1364SOL     OW 4978   0.615   3.247   4.459
 1364SOL    HW1 4979   0.568   3.165   4.469
 1364SOL    HW2 4980   0.598   3.274   4.368
 1365SOL     OW 4981   1.288   3.100   5.147
 1365SOL    HW1 4982   1.320   3.032   5.088
 1365SOL    HW2 4983   1.346   3.094   5.224
 1366SOL     OW 4984   0.822   1.861   4.233
 1366SOL    HW1 4985   0.862   1.946   4.214
 1366SOL    HW2 4986   0.729   1.880   4.240
 1367SOL     OW 4987   0.178   2.809   5.002
 1367SOL    HW1 4988   0.268   2.779   4.992
 1367SOL    HW2 4989   0.135   2.782   4.920
 1368SOL     OW 4990   1.522   2.862   3.932
 1368SOL    HW1 4991   1.452   2.805   3.962
 1368SOL    HW2 4992   1.560   2.899   4.012
 1369SOL     OW 4993   1.186   3.668   5.346
 1369SOL    HW1 4994   1.196   3.727   5.271
 1369SOL    HW2 4995   1.202   3.581   5.311
 1370SOL     OW 4996   0.336   2.115   5.540
 1370SOL    HW1 4997   0.383   2.197   5.553
 1370SOL    HW2 4998   0.249   2.132   5.576
 1371SOL     OW 4999   1.466   3.282   4.674
 1371SOL    HW1 5000   1.399   3.297   4.741
 1371SOL    HW2 5001   1.456   3.191   4.649
 1372SOL     OW 5002   1.666   3.597   4.305
 1372SOL    HW1 5003   1.642   3.571   4.216
 1372SOL    HW2 5004   1.639   3.523   4.360
 1373SOL     OW 5005   0.595   2.583   3.990
 1373SOL    HW1 5006   0.602   2.664   3.939
 1373SOL    HW2 5007   0.531   2.603   4.057
 1374SOL     OW 5008   1.279   2.218   4.657
 1374SOL    HW1 5009   1.190   2.184   4.665
 1374SOL    HW2 5010   1.331   2.164   4.716
 1375SOL     OW 5011   1.582   3.532   4.034
 1375SOL    HW1 5012   1.672   3.563   4.027
 1375SOL    HW2 5013   1.555   3.516   3.943
 1376SOL     OW 5014   0.792   2.479   5.176
 1376SOL    HW1 5015   0.765   2.456   5.264
 1376SOL    HW2 5016   0.752   2.413   5.120
 1377SOL     OW 5017   1.393   2.336   5.401
 1377SOL    HW1 5018   1.396   2.380   5.486
 1377SOL    HW2 5019   1.455   2.263   5.409
 1378SOL     OW 5020   0.955   2.749   5.306
 1378SOL    HW1 5021   1.009   2.679   5.271
 1378SOL    HW2 5022   0.907   2.783   5.231
 1379SOL     OW 5023   0.992   2.276   4.962
 1379SOL    HW1 5024   0.906   2.296   5.000
 1379SOL    HW2 5025   0.972   2.227   4.882
 1380SOL     OW 5026   1.050   2.560   4.151
 1380SOL    HW1 5027   1.064   2.553   4.245
 1380SOL    HW2 5028   0.968   2.514   4.135
 1381SOL     OW 5029   0.072   2.648   4.535
 1381SOL    HW1 5030   0.153   2.654   4.585
 1381SOL    HW2 5031   0.063   2.735   4.495
 1382SOL     OW 5032   0.130   3.745   5.308
 1382SOL    HW1 5033   0.133   3.715   5.399
 1382SOL    HW2 5034   0.059   3.695   5.269
 1383SOL     OW 5035   0.893   2.211   3.919
 1383SOL    HW1 5036   0.933   2.272   3.858
 1383SOL    HW2 5037   0.908   2.125   3.879
 1384SOL     OW 5038   1.706   2.437   5.554
 1384SOL    HW1 5039   1.671   2.511   5.504
 1384SOL    HW2 5040   1.736   2.375   5.487
 1385SOL     OW 5041   1.383   3.008   4.270
 1385SOL    HW1 5042   1.455   2.991   4.210
 1385SOL    HW2 5043   1.326   3.068   4.222
 1386SOL     OW 5044   0.555   2.045   4.617
 1386SOL    HW1 5045   0.552   2.073   4.709
 1386SOL    HW2 5046   0.551   2.127   4.567
 1387SOL     OW 5047   1.005   3.305   4.196
 1387SOL    HW1 5048   0.968   3.378   4.146
 1387SOL    HW2 5049   0.988   3.328   4.287
 1388SOL     OW 5050   0.357   3.664   4.593
 1388SOL    HW1 5051   0.397   3.579   4.606
 1388SOL    HW2 5052   0.423   3.727   4.622
 1389SOL     OW 5053   1.228   3.401   5.237
 1389SOL    HW1 5054   1.213   3.328   5.297
 1389SOL    HW2 5055   1.165   3.387   5.167
 1390SOL     OW 5056   0.316   2.814   3.972
 1390SOL    HW1 5057   0.397   2.838   3.927
 1390SOL    HW2 5058   0.293   2.728   3.935
 1391SOL     OW 5059   1.445   2.591   4.450
 1391SOL    HW1 5060   1.420   2.522   4.511
 1391SOL    HW2 5061   1.513   2.640   4.497
 1392SOL     OW 5062   0.465   3.126   5.461
 1392SOL    HW1 5063   0.438   3.132   5.370
 1392SOL    HW2 5064   0.383   3.126   5.511
 1393SOL     OW 5065   1.122   3.640   3.955
 1393SOL    HW1 5066   1.049   3.598   4.001
 1393SOL    HW2 5067   1.144   3.578   3.885
 1394SOL     OW 5068   0.205   2.143   5.221
 1394SOL    HW1 5069   0.126   2.194   5.205
 1394SOL    HW2 5070   0.174   2.064   5.266
 1395SOL     OW 5071   1.627   3.239   3.804
 1395SOL    HW1 5072   1.588   3.326   3.796
 1395SOL    HW2 5073   1.554   3.179   3.791
 1396SOL     OW 5074   0.471   3.597   4.044
 1396SOL    HW1 5075   0.513   3.655   4.107
 1396SOL    HW2 5076   0.543   3.567   3.988
 1397SOL     OW 5077   1.401   1.970   4.157
 1397SOL    HW1 5078   1.392   1.944   4.066
 1397SOL    HW2 5079   1.496   1.978   4.170
 1398SOL     OW 5080   0.276   3.663   4.937
 1398SOL    HW1 5081   0.306   3.586   4.985
 1398SOL    HW2 5082   0.225   3.628   4.865
 1399SOL     OW 5083   0.939   3.561   4.623
 1399SOL    HW1 5084   1.017   3.509   4.644
 1399SOL    HW2 5085   0.894   3.511   4.555
 1400SOL     OW 5086   0.386   2.558   4.203
 1400SOL    HW1 5087   0.415   2.467   4.212
 1400SOL    HW2 5088   0.293   2.555   4.224
 1401SOL     OW 5089   1.533   2.085   5.453
 1401SOL    HW1 5090   1.541   2.106   5.546
 1401SOL    HW2 5091   1.463   2.020   5.449
 1402SOL     OW 5092   0.633   1.985   3.829
 1402SOL    HW1 5093   0.704   1.921   3.841
 1402SOL    HW2 5094   0.585   1.953   3.753
 1403SOL     OW 5095   0.767   2.140   5.478
 1403SOL    HW1 5096   0.842   2.081   5.480
 1403SOL    HW2 5097   0.718   2.119   5.557
 1404SOL     OW 5098   0.877   3.384   4.917
 1404SOL    HW1 5099   0.861   3.348   4.830
 1404SOL    HW2 5100   0.947   3.329   4.954
 1405SOL     OW 5101   1.342   2.451   5.156
 1405SOL    HW1 5102   1.371   2.419   5.241
 1405SOL    HW2 5103   1.375   2.540   5.151
 1406SOL     OW 5104   0.815   3.256   4.663
 1406SOL    HW1 5105   0.899   3.246   4.619
 1406SOL    HW2 5106   0.751   3.258   4.593
 1407SOL     OW 5107   0.929   2.372   4.626
 1407SOL    HW1 5108   0.905   2.363   4.534
 1407SOL    HW2 5109   0.958   2.285   4.652
 1408SOL     OW 5110   0.560   1.923   4.220
 1408SOL    HW1 5111   0.485   1.923   4.280
 1408SOL    HW2 5112   0.549   2.003   4.168
 1409SOL     OW 5113   1.423   3.061   3.766
 1409SOL    HW1 5114   1.451   2.987   3.820
 1409SOL    HW2 5115   1.337   3.086   3.801
 1410SOL     OW 5116   0.305   1.909   3.903
 1410SOL    HW1 5117   0.367   1.973   3.868
 1410SOL    HW2 5118   0.360   1.844   3.948
 1411SOL     OW 5119   0.939   2.109   4.184
 1411SOL    HW1 5120   0.912   2.150   4.102
 1411SOL    HW2 5121   1.034   2.122   4.188
 1412SOL     OW 5122   1.080   2.542   5.183
 1412SOL    HW1 5123   1.010   2.476   5.188
 1412SOL    HW2 5124   1.161   2.492   5.177
 1413SOL     OW 5125   1.224   3.430   4.517
 1413SOL    HW1 5126   1.240   3.498   4.452
 1413SOL    HW2 5127   1.294   3.441   4.581
 1414SOL     OW 5128   0.468   3.012   4.455
 1414SOL    HW1 5129   0.399   2.992   4.519
 1414SOL    HW2 5130   0.428   2.994   4.370
 1415SOL     OW 5131   1.269   3.655   4.332
 1415SOL    HW1 5132   1.315   3.717   4.274
 1415SOL    HW2 5133   1.203   3.708   4.376
 1416SOL     OW 5134   1.023   2.404   3.747
 1416SOL    HW1 5135   0.981   2.487   3.727
 1416SOL    HW2 5136   1.091   2.425   3.811
 1417SOL     OW 5137   0.087   2.407   5.122
 1417SOL    HW1 5138   0.175   2.414   5.085
 1417SOL    HW2 5139   0.079   2.483   5.180
 1418SOL     OW 5140   0.560   2.090   4.890
 1418SOL    HW1 5141   0.598   2.010   4.927
 1418SOL    HW2 5142   0.469   2.088   4.918
 1419SOL     OW 5143   0.869   2.322   4.363
 1419SOL    HW1 5144   0.822   2.375   4.299
 1419SOL    HW2 5145   0.889   2.241   4.316
 1420SOL     OW 5146   1.015   1.916   4.476
 1420SOL    HW1 5147   0.957   1.907   4.400
 1420SOL    HW2 5148   0.994   1.840   4.531
 1421SOL     OW 5149   1.435   3.025   4.578
 1421SOL    HW1 5150   1.369   2.958   4.593
 1421SOL    HW2 5151   1.434   3.039   4.483
 1422SOL     OW 5152   1.458   2.460   4.721
 1422SOL    HW1 5153   1.407   2.382   4.700
 1422SOL    HW2 5154   1.531   2.428   4.774
 1423SOL     OW 5155   0.492   3.279   3.882
 1423SOL    HW1 5156   0.417   3.251   3.934
 1423SOL    HW2 5157   0.474   3.245   3.794
 1424SOL     OW 5158   1.384   2.439   3.793
 1424SOL    HW1 5159   1.335   2.410   3.870
 1424SOL    HW2 5160   1.473   2.405   3.807
 1425SOL     OW 5161   0.524   2.125   4.041
 1425SOL    HW1 5162   0.569   2.078   3.971
 1425SOL    HW2 5163   0.502   2.210   4.003
 1426SOL     OW 5164   1.766   3.091   5.300
 1426SOL    HW1 5165   1.830   3.043   5.352
 1426SOL    HW2 5166   1.781   3.183   5.321
 1427SOL     OW 5167   1.059   3.214   5.056
 1427SOL    HW1 5168   0.984   3.184   5.108
 1427SOL    HW2 5169   1.135   3.174   5.098
 1428SOL     OW 5170   1.608   3.487   5.378
 1428SOL    HW1 5171   1.603   3.521   5.289
 1428SOL    HW2 5172   1.690   3.438   5.380
 1429SOL     OW 5173   1.127   3.063   4.829
 1429SOL    HW1 5174   1.071   3.103   4.895
 1429SOL    HW2 5175   1.095   3.098   4.746
 1430SOL     OW 5176   1.619   2.952   4.811
 1430SOL    HW1 5177   1.621   3.025   4.873
 1430SOL    HW2 5178   1.565   2.982   4.739
 1431SOL     OW 5179   0.918   1.958   5.121
 1431SOL    HW1 5180   0.941   1.940   5.030
 1431SOL    HW2 5181   0.997   1.998   5.157
 1432SOL     OW 5182   0.984   2.977   5.446
 1432SOL    HW1 5183   0.892   2.993   5.467
 1432SOL    HW2 5184   0.983   2.899   5.391
 1433SOL     OW 5185   0.708   2.922   4.096
 1433SOL    HW1 5186   0.696   2.906   4.190
 1433SOL    HW2 5187   0.784   2.869   4.072
 1434SOL     OW 5188   0.421   2.680   4.976
 1434SOL    HW1 5189   0.489   2.687   5.042
 1434SOL    HW2 5190   0.386   2.592   4.987
 1435SOL     OW 5191   1.265   2.239   4.999
 1435SOL    HW1 5192   1.298   2.316   5.045
 1435SOL    HW2 5193   1.175   2.262   4.976
 1436SOL     OW 5194   0.101   3.485   5.091
 1436SOL    HW1 5195   0.079   3.494   4.998
 1436SOL    HW2 5196   0.187   3.443   5.091
 1437SOL     OW 5197   0.344   2.968   4.212
 1437SOL    HW1 5198   0.352   3.047   4.158
 1437SOL    HW2 5199   0.352   2.896   4.149
 1438SOL     OW 5200   0.555   2.398   4.583
 1438SOL    HW1 5201   0.570   2.457   4.509
 1438SOL    HW2 5202   0.618   2.425   4.649
 1439SOL     OW 5203   1.247   3.208   4.115
 1439SOL    HW1 5204   1.302   3.282   4.142
 1439SOL    HW2 5205   1.160   3.230   4.148
 1440SOL     OW 5206   1.281   3.319   4.871
 1440SOL    HW1 5207   1.338   3.322   4.948
 1440SOL    HW2 5208   1.225   3.243   4.886
 1441SOL     OW 5209   1.588   2.487   4.209
 1441SOL    HW1 5210   1.520   2.529   4.262
 1441SOL    HW2 5211   1.601   2.547   4.135
 1442SOL     OW 5212   0.352   3.381   5.035
 1442SOL    HW1 5213   0.341   3.338   4.950
 1442SOL    HW2 5214   0.445   3.399   5.041
 1443SOL     OW 5215   0.413   2.605   5.326
 1443SOL    HW1 5216   0.474   2.651   5.268
 1443SOL    HW2 5217   0.453   2.519   5.339
 1444SOL     OW 5218   1.600   2.640   5.405
 1444SOL    HW1 5219   1.514   2.682   5.399
 1444SOL    HW2 5220   1.653   2.683   5.338
 1445SOL     OW 5221   0.996   1.985   5.479
 1445SOL    HW1 5222   1.051   2.057   5.451
 1445SOL    HW2 5223   1.044   1.906   5.453
 1446SOL     OW 5224   0.497   1.904   5.472
 1446SOL    HW1 5225   0.455   1.849   5.405
 1446SOL    HW2 5226   0.438   1.977   5.484
 1447SOL     OW 5227   0.585   2.736   4.756
 1447SOL    HW1 5228   0.616   2.827   4.756
 1447SOL    HW2 5229   0.529   2.730   4.833
 1448SOL     OW 5230   1.359   2.720   4.746
 1448SOL    HW1 5231   1.270   2.711   4.713
 1448SOL    HW2 5232   1.393   2.631   4.749
 1449SOL     OW 5233   1.206   2.389   3.996
 1449SOL    HW1 5234   1.212   2.310   4.050
 1449SOL    HW2 5235   1.160   2.452   4.051
 1450SOL     OW 5236   0.302   2.065   4.972
 1450SOL    HW1 5237   0.267   2.090   5.058
 1450SOL    HW2 5238   0.289   1.971   4.967
 1451SOL     OW 5239   0.069   3.181   5.005
 1451SOL    HW1 5240   0.091   3.121   5.076
 1451SOL    HW2 5241   5.299   3.236   5.040
 1452SOL     OW 5242   0.724   2.493   4.782
 1452SOL    HW1 5243   0.799   2.477   4.724
 1452SOL    HW2 5244   0.696   2.582   4.761
 1453SOL     OW 5245   1.728   2.824   5.574
 1453SOL    HW1 5246   1.685   2.757   5.520
 1453SOL    HW2 5247   1.671   2.834   5.650
 1454SOL     OW 5248   0.328   1.924   4.358
 1454SOL    HW1 5249   0.307   2.013   4.386
 1454SOL    HW2 5250   0.331   1.874   4.440
 1455SOL     OW 5251   1.613   2.228   4.096
 1455SOL    HW1 5252   1.638   2.164   4.162
 1455SOL    HW2 5253   1.602   2.310   4.145
 1456SOL     OW 5254   1.029   2.621   4.686
 1456SOL    HW1 5255   1.024   2.639   4.780
 1456SOL    HW2 5256   1.001   2.529   4.677
 1457SOL     OW 5257   0.982   3.428   5.441
 1457SOL    HW1 5258   0.967   3.472   5.357
 1457SOL    HW2 5259   1.026   3.346   5.417
 1458SOL     OW 5260   1.855   3.365   5.328
 1458SOL    HW1 5261   1.873   3.394   5.239
 1458SOL    HW2 5262   1.935   3.387   5.377
 1459SOL     OW 5263   0.354   2.780   5.530
 1459SOL    HW1 5264   0.435   2.799   5.577
 1459SOL    HW2 5265   0.379   2.715   5.465
 1460SOL     OW 5266   1.528   2.136   3.852
 1460SOL    HW1 5267   1.463   2.070   3.878
 1460SOL    HW2 5268   1.560   2.172   3.935
 1461SOL     OW 5269   1.297   2.693   3.755
 1461SOL    HW1 5270   1.332   2.604   3.760
 1461SOL    HW2 5271   1.331   2.728   3.673
 1462SOL     OW 5272   1.066   3.197   4.578
 1462SOL    HW1 5273   1.069   3.126   4.515
 1462SOL    HW2 5274   1.127   3.263   4.544
 1463SOL     OW 5275   0.314   2.672   4.674
 1463SOL    HW1 5276   0.408   2.690   4.670
 1463SOL    HW2 5277   0.308   2.582   4.706
 1464SOL     OW 5278   0.335   2.388   4.739
 1464SOL    HW1 5279   0.300   2.300   4.725
 1464SOL    HW2 5280   0.410   2.393   4.679
 1465SOL     OW 5281   1.134   2.238   5.406
 1465SOL    HW1 5282   1.087   2.293   5.469
 1465SOL    HW2 5283   1.222   2.276   5.402
 1466SOL     OW 5284   1.160   2.065   5.194
 1466SOL    HW1 5285   1.150   2.128   5.265
 1466SOL    HW2 5286   1.201   2.115   5.124
 1467SOL     OW 5287   0.002   3.192   3.934
 1467SOL    HW1 5288   5.228   3.181   3.875
 1467SOL    HW2 5289   0.012   3.106   3.975
 1468SOL     OW 5290   0.093   3.643   4.675
 1468SOL    HW1 5291   0.059   3.573   4.619
 1468SOL    HW2 5292   0.180   3.662   4.640
 1469SOL     OW 5293   0.505   3.435   4.631
 1469SOL    HW1 5294   0.572   3.501   4.652
 1469SOL    HW2 5295   0.548   3.374   4.572
 1470SOL     OW 5296   0.983   2.654   4.950
 1470SOL    HW1 5297   1.039   2.631   5.025
 1470SOL    HW2 5298   0.898   2.617   4.973
 1471SOL     OW 5299   0.033   2.424   4.840
 1471SOL    HW1 5300   0.119   2.397   4.806
 1471SOL    HW2 5301   0.037   2.405   4.933
 1472SOL     OW 5302   0.175   2.375   5.436
 1472SOL    HW1 5303   0.240   2.339   5.376
 1472SOL    HW2 5304   0.146   2.456   5.394
 1473SOL     OW 5305   1.376   2.801   5.383
 1473SOL    HW1 5306   1.398   2.895   5.381
 1473SOL    HW2 5307   1.373   2.776   5.291
 1474SOL     OW 5308   0.817   2.432   4.083
 1474SOL    HW1 5309   0.821   2.357   4.024
 1474SOL    HW2 5310   0.742   2.483   4.052
 1475SOL     OW 5311   0.257   3.418   5.459
 1475SOL    HW1 5312   0.233   3.481   5.527
 1475SOL    HW2 5313   0.249   3.332   5.501
 1476SOL     OW 5314   0.701   2.312   4.984
 1476SOL    HW1 5315   0.648   2.238   4.954
 1476SOL    HW2 5316   0.697   2.375   4.912
 1477SOL     OW 5317   0.929   3.541   5.191
 1477SOL    HW1 5318   0.902   3.507   5.106
 1477SOL    HW2 5319   0.924   3.636   5.182
 1478SOL     OW 5320   0.465   2.355   3.910
 1478SOL    HW1 5321   0.525   2.427   3.931
 1478SOL    HW2 5322   0.380   2.398   3.898
 1479SOL     OW 5323   0.148   2.999   5.195
 1479SOL    HW1 5324   0.146   2.951   5.277
 1479SOL    HW2 5325   0.161   2.933   5.128
 1480SOL     OW 5326   1.324   2.907   4.949
 1480SOL    HW1 5327   1.356   2.851   4.878
 1480SOL    HW2 5328   1.253   2.958   4.909
 1481SOL     OW 5329   1.312   2.715   4.032
 1481SOL    HW1 5330   1.234   2.687   4.080
 1481SOL    HW2 5331   1.289   2.702   3.940
 1482SOL     OW 5332   1.774   3.609   4.877
 1482SOL    HW1 5333   1.832   3.632   4.805
 1482SOL    HW2 5334   1.746   3.520   4.858
 1483SOL     OW 5335   1.240   3.595   4.838
 1483SOL    HW1 5336   1.322   3.616   4.792
 1483SOL    HW2 5337   1.247   3.501   4.855
 1484SOL     OW 5338   0.083   3.079   4.751
 1484SOL    HW1 5339   0.070   3.105   4.842
 1484SOL    HW2 5340   5.294   3.068   4.717
 1485SOL     OW 5341   0.678   3.528   5.453
 1485SOL    HW1 5342   0.622   3.606   5.448
 1485SOL    HW2 5343   0.742   3.539   5.383
 1486SOL     OW 5344   1.700   1.995   4.226
 1486SOL    HW1 5345   1.778   1.975   4.174
 1486SOL    HW2 5346   1.685   1.916   4.279
 1487SOL     OW 5347   1.385   3.429   4.202
 1487SOL    HW1 5348   1.450   3.463   4.140
 1487SOL    HW2 5349   1.341   3.507   4.236
 1488SOL     OW 5350   0.145   3.660   5.566
 1488SOL    HW1 5351   0.090   3.597   5.613
 1488SOL    HW2 5352   0.191   3.707   5.635
 1489SOL     OW 5353   1.268   2.791   4.390
 1489SOL    HW1 5354   1.338   2.726   4.398
 1489SOL    HW2 5355   1.309   2.863   4.341
 1490SOL     OW 5356   0.815   3.135   5.154
 1490SOL    HW1 5357   0.786   3.175   5.237
 1490SOL    HW2 5358   0.745   3.156   5.092
 1491SOL     OW 5359   0.673   3.481   3.879
 1491SOL    HW1 5360   0.682   3.494   3.784
 1491SOL    HW2 5361   0.617   3.403   3.887
 1492SOL     OW 5362   1.627   3.589   5.117
 1492SOL    HW1 5363   1.676   3.596   5.035
 1492SOL    HW2 5364   1.613   3.679   5.144
 1493SOL     OW 5365   1.837   2.038   4.691
 1493SOL    HW1 5366   1.875   1.954   4.665
 1493SOL    HW2 5367   1.752   2.041   4.647
 1494SOL     OW 5368   0.272   2.179   4.441
 1494SOL    HW1 5369   0.187   2.218   4.421
 1494SOL    HW2 5370   0.271   2.168   4.536
 1495SOL     OW 5371   1.207   3.468   3.756
 1495SOL    HW1 5372   1.196   3.376   3.782
 1495SOL    HW2 5373   1.142   3.481   3.686
 1496SOL     OW 5374   0.824   2.868   5.096
 1496SOL    HW1 5375   0.868   2.864   5.011
 1496SOL    HW2 5376   0.823   2.961   5.119
 1497SOL     OW 5377   0.916   2.773   4.014
 1497SOL    HW1 5378   0.977   2.804   3.947
 1497SOL    HW2 5379   0.963   2.703   4.059
 1498SOL     OW 5380   1.490   3.484   3.767
 1498SOL    HW1 5381   1.395   3.481   3.756
 1498SOL    HW2 5382   1.524   3.492   3.678
 1499SOL     OW 5383   0.368   3.166   5.217
 1499SOL    HW1 5384   0.359   3.240   5.158
 1499SOL    HW2 5385   0.292   3.111   5.198
 1500SOL     OW 5386   1.615   3.147   5.004
 1500SOL    HW1 5387   1.670   3.134   5.081
 1500SOL    HW2 5388   1.554   3.216   5.030
 1501SOL     OW 5389   1.051   2.970   4.429
 1501SOL    HW1 5390   0.980   2.920   4.470
 1501SOL    HW2 5391   1.114   2.903   4.401
 1502SOL     OW 5392   1.021   2.103   4.690
 1502SOL    HW1 5393   1.016   2.055   4.607
 1502SOL    HW2 5394   1.016   2.035   4.757
 1503SOL     OW 5395   0.601   3.349   4.205
 1503SOL    HW1 5396   0.645   3.301   4.135
 1503SOL    HW2 5397   0.534   3.401   4.160
 1504SOL     OW 5398   1.703   2.219   5.125
 1504SOL    HW1 5399   1.725   2.307   5.095
 1504SOL    HW2 5400   1.741   2.160   5.060
 1505SOL     OW 5401   0.261   3.210   4.017
 1505SOL    HW1 5402   0.168   3.212   3.994
 1505SOL    HW2 5403   0.264   3.247   4.105
 1506SOL     OW 5404   0.116   2.878   5.442
 1506SOL    HW1 5405   0.045   2.843   5.495
 1506SOL    HW2 5406   0.196   2.847   5.485
 1507SOL     OW 5407   0.674   2.058   5.223
 1507SOL    HW1 5408   0.758   2.038   5.182
 1507SOL    HW2 5409   0.697   2.089   5.310
 1508SOL     OW 5410   0.082   2.212   3.765
 1508SOL    HW1 5411   0.003   2.164   3.742
 1508SOL    HW2 5412   0.098   2.269   3.690
 1509SOL     OW 5413   1.429   2.720   5.125
 1509SOL    HW1 5414   1.380   2.781   5.069
 1509SOL    HW2 5415   1.519   2.727   5.093
 1510SOL     OW 5416   0.056   1.995   3.967
 1510SOL    HW1 5417   0.055   2.090   3.959
 1510SOL    HW2 5418   0.146   1.970   3.945
 1511SOL     OW 5419   1.179   3.200   3.841
 1511SOL    HW1 5420   1.087   3.173   3.843
 1511SOL    HW2 5421   1.206   3.201   3.933
 1512SOL     OW 5422   0.619   2.693   5.159
 1512SOL    HW1 5423   0.675   2.769   5.143
 1512SOL    HW2 5424   0.680   2.619   5.167
 1513SOL     OW 5425   1.481   3.641   4.705
 1513SOL    HW1 5426   1.506   3.696   4.630
 1513SOL    HW2 5427   1.564   3.618   4.746
 1514SOL     OW 5428   0.717   2.426   5.429
 1514SOL    HW1 5429   0.758   2.489   5.488
 1514SOL    HW2 5430   0.746   2.340   5.460
 1515SOL     OW 5431   1.471   3.063   5.356
 1515SOL    HW1 5432   1.458   3.076   5.450
 1515SOL    HW2 5433   1.565   3.076   5.342
 1516SOL     OW 5434   0.378   3.604   5.288
 1516SOL    HW1 5435   0.296   3.650   5.272
 1516SOL    HW2 5436   0.353   3.524   5.333
 1517SOL     OW 5437   1.666   2.744   4.977
 1517SOL    HW1 5438   1.665   2.671   4.915
 1517SOL    HW2 5439   1.658   2.822   4.922
 1518SOL     OW 5440   1.217   2.180   4.182
 1518SOL    HW1 5441   1.280   2.109   4.173
 1518SOL    HW2 5442   1.246   2.228   4.259
 1519SOL     OW 5443   0.591   2.599   4.392
 1519SOL    HW1 5444   0.629   2.686   4.377
 1519SOL    HW2 5445   0.521   2.592   4.328
 1520SOL     OW 5446   1.762   2.218   5.387
 1520SOL    HW1 5447   1.745   2.225   5.293
 1520SOL    HW2 5448   1.690   2.164   5.420
 1521SOL     OW 5449   1.744   2.797   5.235
 1521SOL    HW1 5450   1.746   2.892   5.245
 1521SOL    HW2 5451   1.731   2.783   5.141
 1522SOL     OW 5452   0.866   3.229   3.759
 1522SOL    HW1 5453   0.824   3.257   3.841
 1522SOL    HW2 5454   0.881   3.310   3.711
 1523SOL     OW 5455   0.663   3.656   4.667
 1523SOL    HW1 5456   0.642   3.746   4.645
 1523SOL    HW2 5457   0.758   3.651   4.661
 1524SOL     OW 5458   0.868   2.829   4.579
 1524SOL    HW1 5459   0.918   2.758   4.619
 1524SOL    HW2 5460   0.833   2.878   4.652
 1525SOL     OW 5461   1.080   2.849   3.813
 1525SOL    HW1 5462   1.057   2.900   3.735
 1525SOL    HW2 5463   1.156   2.797   3.786
 1526SOL     OW 5464   0.225   3.167   5.584
 1526SOL    HW1 5465   0.157   3.104   5.558
 1526SOL    HW2 5466   0.213   3.177   5.678
 1527SOL     OW 5467   0.087   3.083   4.378
 1527SOL    HW1 5468   0.099   3.051   4.468
 1527SOL    HW2 5469   0.174   3.075   4.339
 1528SOL     OW 5470   0.681   3.264   5.352
 1528SOL    HW1 5471   0.601   3.222   5.382
 1528SOL    HW2 5472   0.676   3.353   5.388
 1529SOL     OW 5473   1.814   2.047   4.960
 1529SOL    HW1 5474   1.842   1.956   4.973
 1529SOL    HW2 5475   1.827   2.062   4.866
 1530SOL     OW 5476   0.435   2.298   4.248
 1530SOL    HW1 5477   0.462   2.225   4.192
 1530SOL    HW2 5478   0.387   2.256   4.320
 1531SOL     OW 5479   1.696   3.360   4.825
 1531SOL    HW1 5480   1.622   3.332   4.771
 1531SOL    HW2 5481   1.715   3.284   4.880
 1532SOL     OW 5482   0.336   2.421   5.015
 1532SOL    HW1 5483   0.389   2.362   5.069
 1532SOL    HW2 5484   0.350   2.391   4.925
 1533SOL     OW 5485   0.829   3.439   4.402
 1533SOL    HW1 5486   0.816   3.494   4.325
 1533SOL    HW2 5487   0.751   3.382   4.404
 1534SOL     OW 5488   1.433   2.089   4.841
 1534SOL    HW1 5489   1.464   2.011   4.888
 1534SOL    HW2 5490   1.379   2.136   4.905
 1535SOL     OW 5491   1.009   1.881   4.866
 1535SOL    HW1 5492   0.955   1.813   4.826
 1535SOL    HW2 5493   1.097   1.843   4.868
 1536SOL     OW 5494   0.772   3.194   4.038
 1536SOL    HW1 5495   0.741   3.104   4.045
 1536SOL    HW2 5496   0.853   3.196   4.088
 1537SOL     OW 5497   0.623   3.418   5.011
 1537SOL    HW1 5498   0.624   3.500   5.060
 1537SOL    HW2 5499   0.709   3.412   4.971
 1538SOL     OW 5500   1.352   1.916   3.890
 1538SOL    HW1 5501   1.380   1.853   3.823
 1538SOL    HW2 5502   1.265   1.885   3.916
 1539SOL     OW 5503   1.294   2.326   4.405
 1539SOL    HW1 5504   1.233   2.399   4.413
 1539SOL    HW2 5505   1.290   2.283   4.490
 1540SOL     OW 5506   1.581   2.058   4.599
 1540SOL    HW1 5507   1.526   2.078   4.675
 1540SOL    HW2 5508   1.583   2.140   4.549
 1541SOL     OW 5509   0.048   2.931   4.015
 1541SOL    HW1 5510   0.137   2.898   4.003
 1541SOL    HW2 5511   5.299   2.856   4.049
 1542SOL     OW 5512   0.885   3.513   4.066
 1542SOL    HW1 5513   0.812   3.498   4.006
 1542SOL    HW2 5514   0.857   3.589   4.118
 1543SOL     OW 5515   0.233   2.494   5.702
 1543SOL    HW1 5516   0.159   2.461   5.753
 1543SOL    HW2 5517   0.219   2.459   5.614
 1544SOL     OW 5518   0.242   2.138   6.576
 1544SOL    HW1 5519   0.256   2.103   6.664
 1544SOL    HW2 5520   0.158   2.101   6.548
 1545SOL     OW 5521   5.298   2.260   6.239
 1545SOL    HW1 5522   5.206   2.282   6.245
 1545SOL    HW2 5523   5.299   2.169   6.208
 1546SOL     OW 5524   0.574   3.146   6.767
 1546SOL    HW1 5525   0.491   3.154   6.720
 1546SOL    HW2 5526   0.590   3.234   6.802
 1547SOL     OW 5527   1.561   3.374   6.293
 1547SOL    HW1 5528   1.518   3.354   6.376
 1547SOL    HW2 5529   1.489   3.378   6.229
 1548SOL     OW 5530   1.130   2.560   6.287
 1548SOL    HW1 5531   1.179   2.641   6.273
 1548SOL    HW2 5532   1.084   2.575   6.369
 1549SOL     OW 5533   1.763   2.468   5.816
 1549SOL    HW1 5534   1.745   2.461   5.723
 1549SOL    HW2 5535   1.730   2.386   5.854
 1550SOL     OW 5536   0.756   3.003   6.625
 1550SOL    HW1 5537   0.689   3.037   6.684
 1550SOL    HW2 5538   0.791   3.081   6.581
 1551SOL     OW 5539   0.865   2.639   7.406
 1551SOL    HW1 5540   0.854   2.714   7.465
 1551SOL    HW2 5541   0.890   2.678   7.322
 1552SOL     OW 5542   0.685   2.865   6.233
 1552SOL    HW1 5543   0.751   2.853   6.302
 1552SOL    HW2 5544   0.617   2.918   6.275
 1553SOL     OW 5545   0.709   3.013   7.399
 1553SOL    HW1 5546   0.758   3.091   7.425
 1553SOL    HW2 5547   0.627   3.047   7.362
 1554SOL     OW 5548   0.358   3.267   6.646
 1554SOL    HW1 5549   0.270   3.266   6.609
 1554SOL    HW2 5550   0.406   3.329   6.592
 1555SOL     OW 5551   1.461   3.361   6.940
 1555SOL    HW1 5552   1.511   3.442   6.949
 1555SOL    HW2 5553   1.399   3.363   7.013
 1556SOL     OW 5554   0.450   2.262   7.079
 1556SOL    HW1 5555   0.525   2.202   7.081
 1556SOL    HW2 5556   0.373   2.206   7.088
 1557SOL     OW 5557   1.612   2.310   6.326
 1557SOL    HW1 5558   1.538   2.333   6.270
 1557SOL    HW2 5559   1.627   2.389   6.379
 1558SOL     OW 5560   0.231   3.576   6.063
 1558SOL    HW1 5561   0.264   3.645   6.121
 1558SOL    HW2 5562   0.293   3.573   5.991
 1559SOL     OW 5563   1.136   3.203   7.276
 1559SOL    HW1 5564   1.177   3.200   7.363
 1559SOL    HW2 5565   1.085   3.123   7.271
 1560SOL     OW 5566   0.222   3.306   6.125
 1560SOL    HW1 5567   0.215   3.401   6.122
 1560SOL    HW2 5568   0.153   3.278   6.184
 1561SOL     OW 5569   0.250   2.940   6.461
 1561SOL    HW1 5570   0.261   2.855   6.504
 1561SOL    HW2 5571   0.198   2.991   6.523
 1562SOL     OW 5572   0.614   3.652   7.018
 1562SOL    HW1 5573   0.530   3.635   7.061
 1562SOL    HW2 5574   0.634   3.743   7.041
 1563SOL     OW 5575   0.584   2.845   5.721
 1563SOL    HW1 5576   0.629   2.893   5.652
 1563SOL    HW2 5577   0.625   2.874   5.802
 1564SOL     OW 5578   1.596   1.985   7.054
 1564SOL    HW1 5579   1.602   2.066   7.003
 1564SOL    HW2 5580   1.582   2.014   7.144
 1565SOL     OW 5581   0.126   2.496   6.165
 1565SOL    HW1 5582   0.089   2.413   6.194
 1565SOL    HW2 5583   0.099   2.559   6.232
 1566SOL     OW 5584   1.842   3.621   5.921
 1566SOL    HW1 5585   1.906   3.592   5.986
 1566SOL    HW2 5586   1.866   3.712   5.902
 1567SOL     OW 5587   0.038   3.461   5.718
 1567SOL    HW1 5588   0.025   3.369   5.743
 1567SOL    HW2 5589   5.283   3.510   5.778
 1568SOL     OW 5590   1.689   2.781   6.226
 1568SOL    HW1 5591   1.771   2.737   6.204
 1568SOL    HW2 5592   1.666   2.831   6.148
 1569SOL     OW 5593   1.646   2.969   6.015
 1569SOL    HW1 5594   1.732   2.974   5.973
 1569SOL    HW2 5595   1.651   3.030   6.089
 1570SOL     OW 5596   0.131   2.609   7.173
 1570SOL    HW1 5597   0.225   2.623   7.174
 1570SOL    HW2 5598   0.093   2.696   7.188
 1571SOL     OW 5599   0.615   3.247   6.321
 1571SOL    HW1 5600   0.568   3.165   6.331
 1571SOL    HW2 5601   0.598   3.274   6.230
 1572SOL     OW 5602   1.289   3.100   7.009
 1572SOL    HW1 5603   1.321   3.033   6.950
 1572SOL    HW2 5604   1.346   3.094   7.086
 1573SOL     OW 5605   0.822   1.861   6.095
 1573SOL    HW1 5606   0.862   1.946   6.076
 1573SOL    HW2 5607   0.729   1.880   6.102
 1574SOL     OW 5608   0.177   2.808   6.864
 1574SOL    HW1 5609   0.268   2.779   6.854
 1574SOL    HW2 5610   0.135   2.783   6.782
 1575SOL     OW 5611   1.531   2.855   5.785
 1575SOL    HW1 5612   1.461   2.798   5.817
 1575SOL    HW2 5613   1.573   2.889   5.864
 1576SOL     OW 5614   1.185   3.668   7.208
 1576SOL    HW1 5615   1.196   3.727   7.133
 1576SOL    HW2 5616   1.202   3.581   7.173
 1577SOL     OW 5617   0.337   2.114   7.401
 1577SOL    HW1 5618   0.384   2.197   7.414
 1577SOL    HW2 5619   0.249   2.131   7.437
 1578SOL     OW 5620   1.466   3.282   6.538
 1578SOL    HW1 5621   1.398   3.297   6.603
 1578SOL    HW2 5622   1.454   3.190   6.511
 1579SOL     OW 5623   1.658   3.601   6.164
 1579SOL    HW1 5624   1.639   3.571   6.075
 1579SOL    HW2 5625   1.634   3.528   6.220
 1580SOL     OW 5626   0.595   2.583   5.852
 1580SOL    HW1 5627   0.603   2.664   5.801
 1580SOL    HW2 5628   0.531   2.603   5.919
 1581SOL     OW 5629   1.279   2.214   6.519
 1581SOL    HW1 5630   1.190   2.181   6.527
 1581SOL    HW2 5631   1.330   2.161   6.580
 1582SOL     OW 5632   1.581   3.532   5.895
 1582SOL    HW1 5633   1.671   3.563   5.888
 1582SOL    HW2 5634   1.554   3.515   5.805
 1583SOL     OW 5635   0.792   2.479   7.038
 1583SOL    HW1 5636   0.765   2.455   7.127
 1583SOL    HW2 5637   0.752   2.413   6.982
 1584SOL     OW 5638   1.394   2.336   7.263
 1584SOL    HW1 5639   1.396   2.380   7.348
 1584SOL    HW2 5640   1.454   2.262   7.274
 1585SOL     OW 5641   0.955   2.749   7.168
 1585SOL    HW1 5642   1.009   2.679   7.132
 1585SOL    HW2 5643   0.907   2.784   7.092
 1586SOL     OW 5644   0.992   2.275   6.825
 1586SOL    HW1 5645   0.907   2.296   6.862
 1586SOL    HW2 5646   0.972   2.228   6.743
 1587SOL     OW 5647   1.051   2.561   6.012
 1587SOL    HW1 5648   1.066   2.554   6.106
 1587SOL    HW2 5649   0.968   2.514   5.998
 1588SOL     OW 5650   0.071   2.649   6.398
 1588SOL    HW1 5651   0.153   2.654   6.447
 1588SOL    HW2 5652   0.063   2.735   6.356
 1589SOL     OW 5653   0.129   3.746   7.170
 1589SOL    HW1 5654   0.131   3.716   7.261
 1589SOL    HW2 5655   0.060   3.695   7.130
 1590SOL     OW 5656   0.892   2.211   5.780
 1590SOL    HW1 5657   0.933   2.273   5.720
 1590SOL    HW2 5658   0.909   2.125   5.741
 1591SOL     OW 5659   1.710   2.438   7.414
 1591SOL    HW1 5660   1.672   2.512   7.368
 1591SOL    HW2 5661   1.734   2.376   7.345
 1592SOL     OW 5662   1.377   3.004   6.127
 1592SOL    HW1 5663   1.456   2.991   6.075
 1592SOL    HW2 5664   1.324   3.066   6.077
 1593SOL     OW 5665   0.555   2.045   6.479
 1593SOL    HW1 5666   0.553   2.073   6.571
 1593SOL    HW2 5667   0.551   2.127   6.429
 1594SOL     OW 5668   1.005   3.306   6.058
 1594SOL    HW1 5669   0.968   3.379   6.009
 1594SOL    HW2 5670   0.989   3.328   6.150
 1595SOL     OW 5671   0.357   3.664   6.455
 1595SOL    HW1 5672   0.397   3.579   6.468
 1595SOL    HW2 5673   0.423   3.727   6.484
 1596SOL     OW 5674   1.798   2.919   6.454
 1596SOL    HW1 5675   1.743   2.902   6.378
 1596SOL    HW2 5676   1.736   2.925   6.527
 1597SOL     OW 5677   1.228   3.401   7.099
 1597SOL    HW1 5678   1.214   3.328   7.159
 1597SOL    HW2 5679   1.164   3.387   7.029
 1598SOL     OW 5680   0.316   2.814   5.833
 1598SOL    HW1 5681   0.398   2.838   5.789
 1598SOL    HW2 5682   0.293   2.728   5.797
 1599SOL     OW 5683   1.478   2.605   6.314
 1599SOL    HW1 5684   1.470   2.561   6.399
 1599SOL    HW2 5685   1.556   2.660   6.322
 1600SOL     OW 5686   0.464   3.125   7.323
 1600SOL    HW1 5687   0.438   3.131   7.232
 1600SOL    HW2 5688   0.382   3.126   7.373
 1601SOL     OW 5689   1.122   3.640   5.817
 1601SOL    HW1 5690   1.049   3.597   5.863
 1601SOL    HW2 5691   1.145   3.578   5.747
 1602SOL     OW 5692   0.205   2.143   7.084
 1602SOL    HW1 5693   0.125   2.193   7.066
 1602SOL    HW2 5694   0.173   2.063   7.127
 1603SOL     OW 5695   1.629   3.241   5.672
 1603SOL    HW1 5696   1.588   3.327   5.658
 1603SOL    HW2 5697   1.560   3.178   5.654
 1604SOL     OW 5698   0.471   3.597   5.906
 1604SOL    HW1 5699   0.513   3.655   5.969
 1604SOL    HW2 5700   0.542   3.566   5.850
 1605SOL     OW 5701   1.401   1.969   6.019
 1605SOL    HW1 5702   1.390   1.944   5.927
 1605SOL    HW2 5703   1.496   1.977   6.031
 1606SOL     OW 5704   0.276   3.663   6.800
 1606SOL    HW1 5705   0.307   3.586   6.847
 1606SOL    HW2 5706   0.225   3.628   6.727
 1607SOL     OW 5707   0.939   3.561   6.485
 1607SOL    HW1 5708   1.016   3.509   6.506
 1607SOL    HW2 5709   0.894   3.511   6.416
 1608SOL     OW 5710   0.386   2.558   6.065
 1608SOL    HW1 5711   0.415   2.467   6.074
 1608SOL    HW2 5712   0.292   2.555   6.086
 1609SOL     OW 5713   1.536   2.087   7.312
 1609SOL    HW1 5714   1.545   2.108   7.405
 1609SOL    HW2 5715   1.467   2.021   7.309
 1610SOL     OW 5716   0.633   1.984   5.692
 1610SOL    HW1 5717   0.704   1.921   5.703
 1610SOL    HW2 5718   0.585   1.953   5.615
 1611SOL     OW 5719   0.766   2.138   7.339
 1611SOL    HW1 5720   0.842   2.080   7.341
 1611SOL    HW2 5721   0.723   2.125   7.423
 1612SOL     OW 5722   0.877   3.384   6.779
 1612SOL    HW1 5723   0.861   3.347   6.692
 1612SOL    HW2 5724   0.947   3.329   6.816
 1613SOL     OW 5725   1.341   2.451   7.018
 1613SOL    HW1 5726   1.371   2.420   7.103
 1613SOL    HW2 5727   1.377   2.539   7.010
 1614SOL     OW 5728   0.815   3.256   6.525
 1614SOL    HW1 5729   0.900   3.246   6.481
 1614SOL    HW2 5730   0.751   3.258   6.454
 1615SOL     OW 5731   0.928   2.371   6.489
 1615SOL    HW1 5732   0.904   2.363   6.397
 1615SOL    HW2 5733   0.959   2.284   6.514
 1616SOL     OW 5734   0.560   1.923   6.082
 1616SOL    HW1 5735   0.485   1.923   6.142
 1616SOL    HW2 5736   0.550   2.003   6.030
 1617SOL     OW 5737   1.428   3.060   5.627
 1617SOL    HW1 5738   1.459   2.985   5.677
 1617SOL    HW2 5739   1.343   3.081   5.665
 1618SOL     OW 5740   0.305   1.909   5.765
 1618SOL    HW1 5741   0.367   1.973   5.730
 1618SOL    HW2 5742   0.360   1.844   5.810
 1619SOL     OW 5743   0.939   2.109   6.046
 1619SOL    HW1 5744   0.912   2.150   5.964
 1619SOL    HW2 5745   1.034   2.123   6.050
 1620SOL     OW 5746   1.080   2.542   7.046
 1620SOL    HW1 5747   1.011   2.476   7.050
 1620SOL    HW2 5748   1.161   2.492   7.039
 1621SOL     OW 5749   1.224   3.431   6.380
 1621SOL    HW1 5750   1.240   3.499   6.313
 1621SOL    HW2 5751   1.292   3.446   6.445
 1622SOL     OW 5752   0.467   3.012   6.318
 1622SOL    HW1 5753   0.398   2.992   6.381
 1622SOL    HW2 5754   0.428   2.994   6.232
 1623SOL     OW 5755   1.269   3.656   6.194
 1623SOL    HW1 5756   1.315   3.717   6.137
 1623SOL    HW2 5757   1.202   3.709   6.238
 1624SOL     OW 5758   1.023   2.404   5.609
 1624SOL    HW1 5759   0.982   2.488   5.589
 1624SOL    HW2 5760   1.089   2.425   5.675
 1625SOL     OW 5761   0.088   2.406   6.985
 1625SOL    HW1 5762   0.175   2.414   6.947
 1625SOL    HW2 5763   0.080   2.483   7.042
 1626SOL     OW 5764   0.560   2.089   6.752
 1626SOL    HW1 5765   0.598   2.010   6.789
 1626SOL    HW2 5766   0.469   2.088   6.780
 1627SOL     OW 5767   0.868   2.321   6.226
 1627SOL    HW1 5768   0.822   2.375   6.161
 1627SOL    HW2 5769   0.889   2.240   6.178
 1628SOL     OW 5770   1.015   1.915   6.338
 1628SOL    HW1 5771   0.957   1.907   6.262
 1628SOL    HW2 5772   0.993   1.840   6.392
 1629SOL     OW 5773   1.437   3.025   6.443
 1629SOL    HW1 5774   1.368   2.959   6.442
 1629SOL    HW2 5775   1.462   3.036   6.352
 1630SOL     OW 5776   1.466   2.467   6.563
 1630SOL    HW1 5777   1.416   2.386   6.566
 1630SOL    HW2 5778   1.526   2.461   6.638
 1631SOL     OW 5779   1.841   2.680   5.969
 1631SOL    HW1 5780   1.894   2.628   6.029
 1631SOL    HW2 5781   1.816   2.619   5.900
 1632SOL     OW 5782   0.492   3.279   5.744
 1632SOL    HW1 5783   0.417   3.251   5.796
 1632SOL    HW2 5784   0.475   3.244   5.657
 1633SOL     OW 5785   1.670   3.126   6.232
 1633SOL    HW1 5786   1.764   3.129   6.246
 1633SOL    HW2 5787   1.640   3.215   6.253
 1634SOL     OW 5788   1.394   2.434   5.657
 1634SOL    HW1 5789   1.334   2.414   5.729
 1634SOL    HW2 5790   1.479   2.404   5.687
 1635SOL     OW 5791   0.524   2.125   5.904
 1635SOL    HW1 5792   0.569   2.078   5.834
 1635SOL    HW2 5793   0.502   2.210   5.865
 1636SOL     OW 5794   1.752   3.100   7.159
 1636SOL    HW1 5795   1.840   3.063   7.152
 1636SOL    HW2 5796   1.767   3.190   7.190
 1637SOL     OW 5797   1.059   3.215   6.919
 1637SOL    HW1 5798   0.984   3.184   6.971
 1637SOL    HW2 5799   1.135   3.174   6.961
 1638SOL     OW 5800   1.607   3.487   7.238
 1638SOL    HW1 5801   1.603   3.521   7.149
 1638SOL    HW2 5802   1.690   3.440   7.241
 1639SOL     OW 5803   1.128   3.065   6.691
 1639SOL    HW1 5804   1.070   3.103   6.757
 1639SOL    HW2 5805   1.096   3.098   6.608
 1640SOL     OW 5806   1.628   2.959   6.664
 1640SOL    HW1 5807   1.623   3.022   6.736
 1640SOL    HW2 5808   1.549   2.977   6.612
 1641SOL     OW 5809   0.918   1.958   6.983
 1641SOL    HW1 5810   0.941   1.940   6.892
 1641SOL    HW2 5811   0.997   1.998   7.019
 1642SOL     OW 5812   0.984   2.976   7.311
 1642SOL    HW1 5813   0.892   2.993   7.329
 1642SOL    HW2 5814   0.984   2.898   7.254
 1643SOL     OW 5815   0.707   2.922   5.958
 1643SOL    HW1 5816   0.696   2.906   6.052
 1643SOL    HW2 5817   0.784   2.869   5.934
 1644SOL     OW 5818   0.420   2.681   6.838
 1644SOL    HW1 5819   0.489   2.687   6.904
 1644SOL    HW2 5820   0.386   2.592   6.849
 1645SOL     OW 5821   1.265   2.239   6.861
 1645SOL    HW1 5822   1.298   2.316   6.907
 1645SOL    HW2 5823   1.175   2.261   6.838
 1646SOL     OW 5824   0.102   3.485   6.953
 1646SOL    HW1 5825   0.079   3.493   6.860
 1646SOL    HW2 5826   0.188   3.443   6.953
 1647SOL     OW 5827   0.343   2.968   6.074
 1647SOL    HW1 5828   0.353   3.047   6.020
 1647SOL    HW2 5829   0.353   2.896   6.011
 1648SOL     OW 5830   0.555   2.398   6.445
 1648SOL    HW1 5831   0.570   2.457   6.371
 1648SOL    HW2 5832   0.619   2.425   6.511
 1649SOL     OW 5833   1.248   3.210   5.975
 1649SOL    HW1 5834   1.304   3.282   6.006
 1649SOL    HW2 5835   1.161   3.231   6.009
 1650SOL     OW 5836   1.281   3.319   6.733
 1650SOL    HW1 5837   1.337   3.322   6.811
 1650SOL    HW2 5838   1.225   3.243   6.746
 1651SOL     OW 5839   1.581   2.483   6.065
 1651SOL    HW1 5840   1.536   2.540   6.127
 1651SOL    HW2 5841   1.629   2.544   6.008
 1652SOL     OW 5842   0.352   3.381   6.897
 1652SOL    HW1 5843   0.342   3.338   6.812
 1652SOL    HW2 5844   0.445   3.399   6.903
 1653SOL     OW 5845   0.414   2.605   7.188
 1653SOL    HW1 5846   0.474   2.651   7.130
 1653SOL    HW2 5847   0.453   2.518   7.200
 1654SOL     OW 5848   1.601   2.640   7.267
 1654SOL    HW1 5849   1.515   2.681   7.261
 1654SOL    HW2 5850   1.653   2.683   7.199
 1655SOL     OW 5851   0.996   1.985   7.341
 1655SOL    HW1 5852   1.052   2.058   7.313
 1655SOL    HW2 5853   1.045   1.906   7.316
 1656SOL     OW 5854   0.498   1.903   7.333
 1656SOL    HW1 5855   0.456   1.849   7.266
 1656SOL    HW2 5856   0.439   1.977   7.345
 1657SOL     OW 5857   0.585   2.736   6.618
 1657SOL    HW1 5858   0.616   2.826   6.617
 1657SOL    HW2 5859   0.529   2.731   6.695
 1658SOL     OW 5860   1.358   2.720   6.616
 1658SOL    HW1 5861   1.275   2.712   6.569
 1658SOL    HW2 5862   1.398   2.634   6.610
 1659SOL     OW 5863   1.205   2.390   5.853
 1659SOL    HW1 5864   1.213   2.312   5.908
 1659SOL    HW2 5865   1.162   2.455   5.910
 1660SOL     OW 5866   0.301   2.065   6.834
 1660SOL    HW1 5867   0.267   2.090   6.920
 1660SOL    HW2 5868   0.289   1.971   6.829
 1661SOL     OW 5869   0.069   3.180   6.867
 1661SOL    HW1 5870   0.091   3.121   6.938
 1661SOL    HW2 5871   5.299   3.236   6.902
 1662SOL     OW 5872   0.724   2.493   6.644
 1662SOL    HW1 5873   0.799   2.477   6.586
 1662SOL    HW2 5874   0.697   2.582   6.623
 1663SOL     OW 5875   1.735   2.822   7.437
 1663SOL    HW1 5876   1.686   2.761   7.382
 1663SOL    HW2 5877   1.679   2.836   7.514
 1664SOL     OW 5878   0.327   1.924   6.220
 1664SOL    HW1 5879   0.307   2.013   6.248
 1664SOL    HW2 5880   0.331   1.874   6.302
 1665SOL     OW 5881   1.615   2.235   5.954
 1665SOL    HW1 5882   1.643   2.172   6.020
 1665SOL    HW2 5883   1.593   2.314   6.003
 1666SOL     OW 5884   1.028   2.621   6.547
 1666SOL    HW1 5885   1.025   2.639   6.641
 1666SOL    HW2 5886   1.001   2.529   6.539
 1667SOL     OW 5887   0.982   3.427   7.302
 1667SOL    HW1 5888   0.967   3.472   7.219
 1667SOL    HW2 5889   1.026   3.346   7.278
 1668SOL     OW 5890   1.855   3.369   7.191
 1668SOL    HW1 5891   1.873   3.394   7.101
 1668SOL    HW2 5892   1.936   3.386   7.238
 1669SOL     OW 5893   0.354   2.777   7.394
 1669SOL    HW1 5894   0.436   2.799   7.438
 1669SOL    HW2 5895   0.378   2.714   7.327
 1670SOL     OW 5896   1.528   2.135   5.715
 1670SOL    HW1 5897   1.463   2.070   5.742
 1670SOL    HW2 5898   1.561   2.171   5.797
 1671SOL     OW 5899   1.291   2.688   5.617
 1671SOL    HW1 5900   1.334   2.603   5.621
 1671SOL    HW2 5901   1.323   2.727   5.536
 1672SOL     OW 5902   1.066   3.197   6.440
 1672SOL    HW1 5903   1.069   3.125   6.377
 1672SOL    HW2 5904   1.127   3.262   6.405
 1673SOL     OW 5905   0.314   2.672   6.536
 1673SOL    HW1 5906   0.408   2.690   6.532
 1673SOL    HW2 5907   0.308   2.582   6.568
 1674SOL     OW 5908   0.335   2.388   6.601
 1674SOL    HW1 5909   0.300   2.300   6.587
 1674SOL    HW2 5910   0.410   2.393   6.541
 1675SOL     OW 5911   1.135   2.238   7.267
 1675SOL    HW1 5912   1.087   2.293   7.329
 1675SOL    HW2 5913   1.222   2.276   7.263
 1676SOL     OW 5914   1.161   2.065   7.056
 1676SOL    HW1 5915   1.150   2.127   7.127
 1676SOL    HW2 5916   1.200   2.116   6.985
 1677SOL     OW 5917   0.002   3.192   5.796
 1677SOL    HW1 5918   5.228   3.181   5.736
 1677SOL    HW2 5919   0.012   3.106   5.838
 1678SOL     OW 5920   0.093   3.644   6.537
 1678SOL    HW1 5921   0.059   3.573   6.481
 1678SOL    HW2 5922   0.180   3.662   6.502
 1679SOL     OW 5923   0.505   3.435   6.493
 1679SOL    HW1 5924   0.572   3.501   6.514
 1679SOL    HW2 5925   0.548   3.374   6.434
 1680SOL     OW 5926   0.983   2.654   6.813
 1680SOL    HW1 5927   1.039   2.631   6.887
 1680SOL    HW2 5928   0.898   2.617   6.834
 1681SOL     OW 5929   0.033   2.424   6.702
 1681SOL    HW1 5930   0.119   2.398   6.668
 1681SOL    HW2 5931   0.037   2.405   6.795
 1682SOL     OW 5932   0.175   2.375   7.302
 1682SOL    HW1 5933   0.238   2.336   7.242
 1682SOL    HW2 5934   0.146   2.455   7.259
 1683SOL     OW 5935   1.377   2.801   7.245
 1683SOL    HW1 5936   1.398   2.894   7.244
 1683SOL    HW2 5937   1.374   2.776   7.153
 1684SOL     OW 5938   0.816   2.431   5.946
 1684SOL    HW1 5939   0.820   2.356   5.886
 1684SOL    HW2 5940   0.742   2.483   5.914
 1685SOL     OW 5941   1.641   2.463   6.773
 1685SOL    HW1 5942   1.630   2.404   6.847
 1685SOL    HW2 5943   1.728   2.443   6.738
 1686SOL     OW 5944   0.256   3.418   7.321
 1686SOL    HW1 5945   0.233   3.479   7.391
 1686SOL    HW2 5946   0.250   3.332   7.362
 1687SOL     OW 5947   0.701   2.313   6.846
 1687SOL    HW1 5948   0.648   2.238   6.816
 1687SOL    HW2 5949   0.697   2.375   6.774
 1688SOL     OW 5950   0.929   3.541   7.053
 1688SOL    HW1 5951   0.902   3.507   6.968
 1688SOL    HW2 5952   0.924   3.636   7.044
 1689SOL     OW 5953   0.465   2.355   5.772
 1689SOL    HW1 5954   0.525   2.427   5.793
 1689SOL    HW2 5955   0.380   2.398   5.760
 1690SOL     OW 5956   0.148   2.999   7.057
 1690SOL    HW1 5957   0.146   2.950   7.139
 1690SOL    HW2 5958   0.160   2.933   6.989
 1691SOL     OW 5959   1.326   2.909   6.809
 1691SOL    HW1 5960   1.349   2.846   6.742
 1691SOL    HW2 5961   1.255   2.961   6.771
 1692SOL     OW 5962   1.311   2.719   5.892
 1692SOL    HW1 5963   1.235   2.688   5.942
 1692SOL    HW2 5964   1.286   2.705   5.801
 1693SOL     OW 5965   1.771   3.607   6.736
 1693SOL    HW1 5966   1.832   3.632   6.666
 1693SOL    HW2 5967   1.747   3.516   6.715
 1694SOL     OW 5968   1.241   3.595   6.699
 1694SOL    HW1 5969   1.323   3.616   6.654
 1694SOL    HW2 5970   1.247   3.501   6.717
 1695SOL     OW 5971   0.083   3.080   6.613
 1695SOL    HW1 5972   0.070   3.105   6.705
 1695SOL    HW2 5973   5.294   3.068   6.579
 1696SOL     OW 5974   0.677   3.527   7.314
 1696SOL    HW1 5975   0.624   3.606   7.310
 1696SOL    HW2 5976   0.743   3.539   7.245
 1697SOL     OW 5977   1.720   2.008   6.097
 1697SOL    HW1 5978   1.792   1.994   6.035
 1697SOL    HW2 5979   1.704   1.923   6.136
 1698SOL     OW 5980   1.390   3.430   6.071
 1698SOL    HW1 5981   1.451   3.462   6.004
 1698SOL    HW2 5982   1.342   3.507   6.099
 1699SOL     OW 5983   0.141   3.661   7.429
 1699SOL    HW1 5984   0.089   3.597   7.477
 1699SOL    HW2 5985   0.194   3.704   7.496
 1700SOL     OW 5986   1.277   2.787   6.257
 1700SOL    HW1 5987   1.351   2.727   6.264
 1700SOL    HW2 5988   1.311   2.860   6.204
 1701SOL     OW 5989   0.815   3.135   7.016
 1701SOL    HW1 5990   0.786   3.175   7.098
 1701SOL    HW2 5991   0.745   3.156   6.954
 1702SOL     OW 5992   0.672   3.481   5.741
 1702SOL    HW1 5993   0.682   3.494   5.647
 1702SOL    HW2 5994   0.618   3.403   5.749
 1703SOL     OW 5995   1.627   3.589   6.977
 1703SOL    HW1 5996   1.677   3.596   6.895
 1703SOL    HW2 5997   1.613   3.679   7.004
 1704SOL     OW 5998   1.839   2.034   6.553
 1704SOL    HW1 5999   1.868   1.947   6.525
 1704SOL    HW2 6000   1.753   2.045   6.513
 1705SOL     OW 6001   0.272   2.179   6.303
 1705SOL    HW1 6002   0.188   2.218   6.283
 1705SOL    HW2 6003   0.271   2.168   6.399
 1706SOL     OW 6004   1.207   3.468   5.617
 1706SOL    HW1 6005   1.197   3.377   5.644
 1706SOL    HW2 6006   1.142   3.480   5.548
 1707SOL     OW 6007   0.824   2.868   6.958
 1707SOL    HW1 6008   0.868   2.863   6.873
 1707SOL    HW2 6009   0.824   2.961   6.980
 1708SOL     OW 6010   0.915   2.772   5.876
 1708SOL    HW1 6011   0.976   2.804   5.809
 1708SOL    HW2 6012   0.963   2.703   5.921
 1709SOL     OW 6013   1.492   3.487   5.629
 1709SOL    HW1 6014   1.397   3.481   5.615
 1709SOL    HW2 6015   1.528   3.493   5.540
 1710SOL     OW 6016   0.367   3.166   7.079
 1710SOL    HW1 6017   0.359   3.240   7.020
 1710SOL    HW2 6018   0.292   3.111   7.060
 1711SOL     OW 6019   1.610   3.144   6.866
 1711SOL    HW1 6020   1.671   3.135   6.939
 1711SOL    HW2 6021   1.550   3.214   6.894
 1712SOL     OW 6022   1.052   2.969   6.292
 1712SOL    HW1 6023   0.981   2.917   6.332
 1712SOL    HW2 6024   1.114   2.903   6.261
 1713SOL     OW 6025   1.021   2.102   6.552
 1713SOL    HW1 6026   1.016   2.055   6.469
 1713SOL    HW2 6027   1.016   2.035   6.619
 1714SOL     OW 6028   0.601   3.349   6.067
 1714SOL    HW1 6029   0.646   3.301   5.998
 1714SOL    HW2 6030   0.534   3.400   6.022
 1715SOL     OW 6031   1.719   2.252   6.966
 1715SOL    HW1 6032   1.789   2.317   6.966
 1715SOL    HW2 6033   1.750   2.182   6.910
 1716SOL     OW 6034   0.260   3.210   5.878
 1716SOL    HW1 6035   0.167   3.212   5.856
 1716SOL    HW2 6036   0.264   3.247   5.966
 1717SOL     OW 6037   0.116   2.876   7.303
 1717SOL    HW1 6038   0.044   2.846   7.358
 1717SOL    HW2 6039   0.195   2.846   7.347
 1718SOL     OW 6040   0.674   2.058   7.085
 1718SOL    HW1 6041   0.758   2.038   7.044
 1718SOL    HW2 6042   0.696   2.088   7.173
 1719SOL     OW 6043   0.082   2.212   5.627
 1719SOL    HW1 6044   0.003   2.164   5.604
 1719SOL    HW2 6045   0.098   2.269   5.552
 1720SOL     OW 6046   1.430   2.720   6.986
 1720SOL    HW1 6047   1.381   2.781   6.931
 1720SOL    HW2 6048   1.519   2.723   6.952
 1721SOL     OW 6049   0.056   1.995   5.829
 1721SOL    HW1 6050   0.055   2.090   5.821
 1721SOL    HW2 6051   0.146   1.970   5.807
 1722SOL     OW 6052   1.179   3.202   5.703
 1722SOL    HW1 6053   1.088   3.172   5.706
 1722SOL    HW2 6054   1.207   3.202   5.794
 1723SOL     OW 6055   0.619   2.693   7.021
 1723SOL    HW1 6056   0.675   2.769   7.005
 1723SOL    HW2 6057   0.680   2.619   7.029
 1724SOL     OW 6058   1.484   3.638   6.565
 1724SOL    HW1 6059   1.508   3.698   6.493
 1724SOL    HW2 6060   1.567   3.620   6.609
 1725SOL     OW 6061   0.717   2.426   7.291
 1725SOL    HW1 6062   0.758   2.488   7.351
 1725SOL    HW2 6063   0.746   2.340   7.322
 1726SOL     OW 6064   1.471   3.062   7.218
 1726SOL    HW1 6065   1.459   3.075   7.312
 1726SOL    HW2 6066   1.564   3.077   7.204
 1727SOL     OW 6067   0.378   3.604   7.150
 1727SOL    HW1 6068   0.295   3.650   7.134
 1727SOL    HW2 6069   0.353   3.524   7.195
 1728SOL     OW 6070   1.670   2.743   6.842
 1728SOL    HW1 6071   1.662   2.658   6.798
 1728SOL    HW2 6072   1.660   2.807   6.771
 1729SOL     OW 6073   1.217   2.181   6.044
 1729SOL    HW1 6074   1.280   2.110   6.035
 1729SOL    HW2 6075   1.246   2.230   6.121
 1730SOL     OW 6076   0.590   2.600   6.255
 1730SOL    HW1 6077   0.629   2.686   6.239
 1730SOL    HW2 6078   0.521   2.593   6.189
 1731SOL     OW 6079   1.762   2.224   7.236
 1731SOL    HW1 6080   1.744   2.239   7.143
 1731SOL    HW2 6081   1.692   2.167   7.266
 1732SOL     OW 6082   1.750   2.793   7.098
 1732SOL    HW1 6083   1.744   2.887   7.114
 1732SOL    HW2 6084   1.731   2.783   7.004
 1733SOL     OW 6085   0.862   3.229   5.620
 1733SOL    HW1 6086   0.824   3.258   5.703
 1733SOL    HW2 6087   0.881   3.310   5.573
 1734SOL     OW 6088   0.663   3.656   6.530
 1734SOL    HW1 6089   0.642   3.746   6.507
 1734SOL    HW2 6090   0.758   3.651   6.523
 1735SOL     OW 6091   0.867   2.828   6.440
 1735SOL    HW1 6092   0.918   2.757   6.480
 1735SOL    HW2 6093   0.833   2.878   6.515
 1736SOL     OW 6094   1.078   2.849   5.674
 1736SOL    HW1 6095   1.057   2.901   5.596
 1736SOL    HW2 6096   1.153   2.796   5.649
 1737SOL     OW 6097   1.854   3.417   6.430
 1737SOL    HW1 6098   1.776   3.404   6.376
 1737SOL    HW2 6099   1.848   3.349   6.498
 1738SOL     OW 6100   0.225   3.166   7.446
 1738SOL    HW1 6101   0.156   3.106   7.419
 1738SOL    HW2 6102   0.212   3.178   7.540
 1739SOL     OW 6103   0.087   3.083   6.241
 1739SOL    HW1 6104   0.100   3.050   6.330
 1739SOL    HW2 6105   0.173   3.075   6.200
 1740SOL     OW 6106   0.681   3.263   7.214
 1740SOL    HW1 6107   0.600   3.222   7.244
 1740SOL    HW2 6108   0.677   3.352   7.250
 1741SOL     OW 6109   1.814   2.047   6.824
 1741SOL    HW1 6110   1.823   1.952   6.838
 1741SOL    HW2 6111   1.822   2.057   6.729
 1742SOL     OW 6112   0.434   2.298   6.110
 1742SOL    HW1 6113   0.462   2.225   6.054
 1742SOL    HW2 6114   0.387   2.256   6.182
 1743SOL     OW 6115   1.700   3.352   6.683
 1743SOL    HW1 6116   1.619   3.328   6.638
 1743SOL    HW2 6117   1.713   3.282   6.748
 1744SOL     OW 6118   0.336   2.421   6.877
 1744SOL    HW1 6119   0.389   2.362   6.931
 1744SOL    HW2 6120   0.350   2.392   6.787
 1745SOL     OW 6121   0.828   3.439   6.264
 1745SOL    HW1 6122   0.816   3.494   6.186
 1745SOL    HW2 6123   0.751   3.382   6.266
 1746SOL     OW 6124   1.432   2.087   6.704
 1746SOL    HW1 6125   1.456   2.007   6.750
 1746SOL    HW2 6126   1.380   2.136   6.768
 1747SOL     OW 6127   1.009   1.881   6.728
 1747SOL    HW1 6128   0.954   1.813   6.688
 1747SOL    HW2 6129   1.097   1.843   6.731
 1748SOL     OW 6130   0.772   3.195   5.901
 1748SOL    HW1 6131   0.741   3.104   5.907
 1748SOL    HW2 6132   0.854   3.196   5.950
 1749SOL     OW 6133   0.623   3.418   6.873
 1749SOL    HW1 6134   0.624   3.500   6.922
 1749SOL    HW2 6135   0.709   3.412   6.833
 1750SOL     OW 6136   1.352   1.915   5.752
 1750SOL    HW1 6137   1.380   1.853   5.685
 1750SOL    HW2 6138   1.265   1.885   5.778
 1751SOL     OW 6139   1.296   2.322   6.267
 1751SOL    HW1 6140   1.243   2.402   6.274
 1751SOL    HW2 6141   1.293   2.283   6.354
 1752SOL     OW 6142   1.586   2.065   6.464
 1752SOL    HW1 6143   1.525   2.085   6.535
 1752SOL    HW2 6144   1.585   2.143   6.408
 1753SOL     OW 6145   0.048   2.931   5.877
 1753SOL    HW1 6146   0.137   2.899   5.865
 1753SOL    HW2 6147   5.300   2.855   5.910
 1754SOL     OW 6148   0.885   3.514   5.928
 1754SOL    HW1 6149   0.812   3.498   5.868
 1754SOL    HW2 6150   0.857   3.589   5.980
 1755SOL     OW 6151   0.230   2.492   7.566
 1755SOL    HW1 6152   0.155   2.453   7.610
 1755SOL    HW2 6153   0.222   2.463   7.475
 1756SOL     OW 6154   1.770   2.459   7.679
 1756SOL    HW1 6155   1.748   2.456   7.586
 1756SOL    HW2 6156   1.725   2.383   7.716
 1757SOL     OW 6157   0.229   3.569   7.921
 1757SOL    HW1 6158   0.264   3.613   7.998
 1757SOL    HW2 6159   0.300   3.575   7.856
 1758SOL     OW 6160   0.217   3.298   7.991
 1758SOL    HW1 6161   0.209   3.393   7.984
 1758SOL    HW2 6162   0.154   3.273   8.059
 1759SOL     OW 6163   0.584   2.845   7.581
 1759SOL    HW1 6164   0.629   2.894   7.511
 1759SOL    HW2 6165   0.625   2.876   7.661
 1760SOL     OW 6166   1.837   3.621   7.797
 1760SOL    HW1 6167   1.907   3.591   7.854
 1760SOL    HW2 6168   1.863   3.710   7.772
 1761SOL     OW 6169   0.036   3.463   7.582
 1761SOL    HW1 6170   0.027   3.370   7.602
 1761SOL    HW2 6171   5.277   3.507   7.643
 1762SOL     OW 6172   1.678   2.729   8.039
 1762SOL    HW1 6173   1.761   2.737   0.005
 1762SOL    HW2 6174   1.670   2.811   7.989
 1763SOL     OW 6175   1.654   2.961   7.876
 1763SOL    HW1 6176   1.743   2.986   7.848
 1763SOL    HW2 6177   1.627   3.031   7.935
 1764SOL     OW 6178   0.800   1.856   7.938
 1764SOL    HW1 6179   0.849   1.937   7.922
 1764SOL    HW2 6180   0.709   1.886   7.948
 1765SOL     OW 6181   1.533   2.856   7.649
 1765SOL    HW1 6182   1.467   2.796   7.683
 1765SOL    HW2 6183   1.577   2.891   7.726
 1766SOL     OW 6184   0.589   2.586   7.708
 1766SOL    HW1 6185   0.597   2.667   7.658
 1766SOL    HW2 6186   0.533   2.608   7.782
 1767SOL     OW 6187   1.574   3.533   7.757
 1767SOL    HW1 6188   1.665   3.562   7.766
 1767SOL    HW2 6189   1.562   3.520   7.663
 1768SOL     OW 6190   0.057   2.686   0.203
 1768SOL    HW1 6191   0.123   2.624   0.169
 1768SOL    HW2 6192   0.031   2.737   0.126
 1769SOL     OW 6193   0.881   2.208   7.636
 1769SOL    HW1 6194   0.927   2.269   7.578
 1769SOL    HW2 6195   0.916   2.122   7.614
 1770SOL     OW 6196   0.318   2.810   7.694
 1770SOL    HW1 6197   0.399   2.837   7.650
 1770SOL    HW2 6198   0.295   2.727   7.652
 1771SOL     OW 6199   1.123   3.638   7.681
 1771SOL    HW1 6200   1.047   3.598   7.723
 1771SOL    HW2 6201   1.147   3.577   7.611
 1772SOL     OW 6202   1.629   3.242   7.533
 1772SOL    HW1 6203   1.586   3.327   7.520
 1772SOL    HW2 6204   1.560   3.178   7.516
 1773SOL     OW 6205   0.470   3.599   7.769
 1773SOL    HW1 6206   0.515   3.653   7.834
 1773SOL    HW2 6207   0.539   3.565   7.713
 1774SOL     OW 6208   1.416   1.993   7.864
 1774SOL    HW1 6209   1.404   1.959   7.776
 1774SOL    HW2 6210   1.510   1.991   7.878
 1775SOL     OW 6211   0.379   2.562   7.923
 1775SOL    HW1 6212   0.399   2.468   7.927
 1775SOL    HW2 6213   0.285   2.567   7.939
 1776SOL     OW 6214   0.627   1.981   7.559
 1776SOL    HW1 6215   0.704   1.925   7.568
 1776SOL    HW2 6216   0.584   1.951   7.479
 1777SOL     OW 6217   0.527   1.937   7.961
 1777SOL    HW1 6218   0.440   1.942   8.000
 1777SOL    HW2 6219   0.528   2.007   7.896
 1778SOL     OW 6220   1.428   3.060   7.489
 1778SOL    HW1 6221   1.459   2.986   7.542
 1778SOL    HW2 6222   1.344   3.083   7.528
 1779SOL     OW 6223   0.306   1.906   7.619
 1779SOL    HW1 6224   0.368   1.970   7.584
 1779SOL    HW2 6225   0.361   1.843   7.667
 1780SOL     OW 6226   0.944   2.087   7.911
 1780SOL    HW1 6227   0.900   2.153   7.857
 1780SOL    HW2 6228   1.035   2.117   7.915
 1781SOL     OW 6229   0.447   3.021   0.090
 1781SOL    HW1 6230   0.375   3.042   0.149
 1781SOL    HW2 6231   0.405   3.002   0.006
 1782SOL     OW 6232   1.291   3.673   8.014
 1782SOL    HW1 6233   1.326   3.742   7.958
 1782SOL    HW2 6234   1.207   3.707   8.045
 1783SOL     OW 6235   1.025   2.404   7.467
 1783SOL    HW1 6236   0.981   2.487   7.450
 1783SOL    HW2 6237   1.086   2.424   7.538
 1784SOL     OW 6238   1.863   2.682   7.802
 1784SOL    HW1 6239   1.884   2.648   7.889
 1784SOL    HW2 6240   1.830   2.607   7.753
 1785SOL     OW 6241   0.490   3.277   7.605
 1785SOL    HW1 6242   0.415   3.249   7.658
 1785SOL    HW2 6243   0.472   3.243   7.518
 1786SOL     OW 6244   1.394   2.433   7.519
 1786SOL    HW1 6245   1.332   2.414   7.590
 1786SOL    HW2 6246   1.478   2.401   7.551
 1787SOL     OW 6247   0.527   2.127   7.770
 1787SOL    HW1 6248   0.570   2.077   7.701
 1787SOL    HW2 6249   0.504   2.210   7.729
 1788SOL     OW 6250   0.710   2.923   7.814
 1788SOL    HW1 6251   0.693   2.912   7.907
 1788SOL    HW2 6252   0.788   2.871   7.798
 1789SOL     OW 6253   0.346   2.956   7.928
 1789SOL    HW1 6254   0.345   3.041   7.883
 1789SOL    HW2 6255   0.348   2.891   7.858
 1790SOL     OW 6256   1.224   3.218   7.821
 1790SOL    HW1 6257   1.286   3.286   7.846
 1790SOL    HW2 6258   1.184   3.191   7.904
 1791SOL     OW 6259   1.588   2.491   7.920
 1791SOL    HW1 6260   1.573   2.549   7.995
 1791SOL    HW2 6261   1.630   2.546   7.855
 1792SOL     OW 6262   1.203   2.388   7.714
 1792SOL    HW1 6263   1.205   2.305   7.763
 1792SOL    HW2 6264   1.183   2.454   7.780
 1793SOL     OW 6265   1.618   2.241   7.814
 1793SOL    HW1 6266   1.639   2.175   7.879
 1793SOL    HW2 6267   1.593   2.318   7.865
 1794SOL     OW 6268   1.530   2.136   7.575
 1794SOL    HW1 6269   1.465   2.071   7.601
 1794SOL    HW2 6270   1.562   2.172   7.658
 1795SOL     OW 6271   1.294   2.689   7.481
 1795SOL    HW1 6272   1.336   2.603   7.483
 1795SOL    HW2 6273   1.324   2.729   7.399
 1796SOL     OW 6274   0.003   3.195   7.656
 1796SOL    HW1 6275   5.221   3.193   7.607
 1796SOL    HW2 6276   0.013   3.107   7.691
 1797SOL     OW 6277   0.838   2.461   7.762
 1797SOL    HW1 6278   0.830   2.370   7.733
 1797SOL    HW2 6279   0.748   2.494   7.762
 1798SOL     OW 6280   0.462   2.355   7.639
 1798SOL    HW1 6281   0.523   2.427   7.654
 1798SOL    HW2 6282   0.378   2.397   7.624
 1799SOL     OW 6283   1.310   2.710   7.754
 1799SOL    HW1 6284   1.224   2.721   7.794
 1799SOL    HW2 6285   1.293   2.703   7.661
 1800SOL     OW 6286   1.710   2.008   7.947
 1800SOL    HW1 6287   1.789   2.000   7.892
 1800SOL    HW2 6288   1.714   1.931   8.004
 1801SOL     OW 6289   1.364   3.439   7.896
 1801SOL    HW1 6290   1.439   3.459   7.840
 1801SOL    HW2 6291   1.333   3.524   7.927
 1802SOL     OW 6292   0.668   3.481   7.603
 1802SOL    HW1 6293   0.680   3.493   7.509
 1802SOL    HW2 6294   0.616   3.401   7.611
 1803SOL     OW 6295   1.209   3.469   7.478
 1803SOL    HW1 6296   1.199   3.378   7.506
 1803SOL    HW2 6297   1.142   3.481   7.411
 1804SOL     OW 6298   0.925   2.772   7.754
 1804SOL    HW1 6299   0.979   2.797   7.680
 1804SOL    HW2 6300   0.922   2.676   7.752
 1805SOL     OW 6301   1.493   3.488   7.488
 1805SOL    HW1 6302   1.399   3.481   7.476
 1805SOL    HW2 6303   1.529   3.493   7.400
 1806SOL     OW 6304   0.605   3.368   7.935
 1806SOL    HW1 6305   0.650   3.308   7.875
 1806SOL    HW2 6306   0.533   3.404   7.884
 1807SOL     OW 6307   0.260   3.209   7.742
 1807SOL    HW1 6308   0.167   3.213   7.718
 1807SOL    HW2 6309   0.263   3.244   7.830
 1808SOL     OW 6310   0.081   2.203   7.488
 1808SOL    HW1 6311   5.297   2.163   7.463
 1808SOL    HW2 6312   0.099   2.266   7.418
 1809SOL     OW 6313   0.081   1.998   7.738
 1809SOL    HW1 6314   0.066   2.086   7.702
 1809SOL    HW2 6315   0.154   1.963   7.686
 1810SOL     OW 6316   1.177   3.201   7.556
 1810SOL    HW1 6317   1.084   3.175   7.557
 1810SOL    HW2 6318   1.201   3.207   7.649
 1811SOL     OW 6319   1.215   2.180   7.904
 1811SOL    HW1 6320   1.288   2.119   7.892
 1811SOL    HW2 6321   1.236   2.228   7.984
 1812SOL     OW 6322   0.623   2.600   8.050
 1812SOL    HW1 6323   0.629   2.679   0.023
 1812SOL    HW2 6324   0.532   2.598   8.020
 1813SOL     OW 6325   0.863   3.229   7.482
 1813SOL    HW1 6326   0.825   3.258   7.565
 1813SOL    HW2 6327   0.882   3.310   7.435
 1814SOL     OW 6328   1.072   2.840   7.537
 1814SOL    HW1 6329   1.054   2.898   7.463
 1814SOL    HW2 6330   1.151   2.792   7.511
 1815SOL     OW 6331   0.392   2.293   7.979
 1815SOL    HW1 6332   0.437   2.234   7.918
 1815SOL    HW2 6333   0.436   2.278   8.063
 1816SOL     OW 6334   0.766   3.197   7.761
 1816SOL    HW1 6335   0.736   3.106   7.763
 1816SOL    HW2 6336   0.847   3.196   7.811
 1817SOL     OW 6337   1.352   1.915   7.610
 1817SOL    HW1 6338   1.381   1.849   7.547
 1817SOL    HW2 6339   1.266   1.885   7.638
 1818SOL     OW 6340   0.048   2.932   7.722
 1818SOL    HW1 6341   0.137   2.898   7.721
 1818SOL    HW2 6342   5.300   2.872   7.779
 1819SOL     OW 6343   0.893   3.513   7.780
 1819SOL    HW1 6344   0.817   3.490   7.728
 1819SOL    HW2 6345   0.859   3.576   7.844
 1820SOL     OW 6346   0.226   4.348   0.114
 1820SOL    HW1 6347   0.155   4.308   0.164
 1820SOL    HW2 6348   0.231   4.295   0.034
 1821SOL     OW 6349   0.241   3.999   0.989
 1821SOL    HW1 6350   0.255   3.965   1.077
 1821SOL    HW2 6351   0.157   3.961   0.962
 1822SOL     OW 6352   5.296   4.120   0.649
 1822SOL    HW1 6353   5.205   4.148   0.659
 1822SOL    HW2 6354   5.291   4.027   0.628
 1823SOL     OW 6355   0.573   5.000   1.183
 1823SOL    HW1 6356   0.494   5.006   1.130
 1823SOL    HW2 6357   0.592   5.090   1.209
 1824SOL     OW 6358   1.555   5.233   0.688
 1824SOL    HW1 6359   1.532   5.229   0.781
 1824SOL    HW2 6360   1.478   5.268   0.645
 1825SOL     OW 6361   1.130   4.422   0.701
 1825SOL    HW1 6362   1.179   4.503   0.687
 1825SOL    HW2 6363   1.083   4.436   0.784
 1826SOL     OW 6364   1.770   4.324   0.233
 1826SOL    HW1 6365   1.731   4.325   0.145
 1826SOL    HW2 6366   1.730   4.249   0.276
 1827SOL     OW 6367   0.759   4.867   1.037
 1827SOL    HW1 6368   0.691   4.897   1.098
 1827SOL    HW2 6369   0.786   4.947   0.991
 1828SOL     OW 6370   0.867   4.499   1.822
 1828SOL    HW1 6371   0.855   4.571   1.884
 1828SOL    HW2 6372   0.890   4.542   1.740
 1829SOL     OW 6373   0.684   4.725   0.651
 1829SOL    HW1 6374   0.750   4.715   0.720
 1829SOL    HW2 6375   0.617   4.781   0.690
 1830SOL     OW 6376   0.708   4.872   1.812
 1830SOL    HW1 6377   0.756   4.951   1.836
 1830SOL    HW2 6378   0.625   4.904   1.776
 1831SOL     OW 6379   0.377   5.146   1.053
 1831SOL    HW1 6380   0.282   5.155   1.040
 1831SOL    HW2 6381   0.415   5.198   0.983
 1832SOL     OW 6382   1.455   5.220   1.347
 1832SOL    HW1 6383   1.509   5.293   1.379
 1832SOL    HW2 6384   1.388   5.209   1.415
 1833SOL     OW 6385   0.451   4.124   1.493
 1833SOL    HW1 6386   0.524   4.063   1.494
 1833SOL    HW2 6387   0.373   4.068   1.502
 1834SOL     OW 6388   1.612   4.172   0.740
 1834SOL    HW1 6389   1.536   4.195   0.686
 1834SOL    HW2 6390   1.627   4.249   0.795
 1835SOL     OW 6391   1.133   5.072   1.701
 1835SOL    HW1 6392   1.164   5.073   1.791
 1835SOL    HW2 6393   1.080   4.993   1.694
 1836SOL     OW 6394   0.210   5.150   0.530
 1836SOL    HW1 6395   0.251   5.230   0.563
 1836SOL    HW2 6396   0.130   5.140   0.582
 1837SOL     OW 6397   0.253   4.800   0.877
 1837SOL    HW1 6398   0.262   4.713   0.915
 1837SOL    HW2 6399   0.196   4.847   0.938
 1838SOL     OW 6400   0.622   4.684   0.136
 1838SOL    HW1 6401   0.578   4.764   0.106
 1838SOL    HW2 6402   0.675   4.712   0.210
 1839SOL     OW 6403   1.596   3.847   1.468
 1839SOL    HW1 6404   1.603   3.928   1.417
 1839SOL    HW2 6405   1.582   3.877   1.558
 1840SOL     OW 6406   0.132   4.354   0.581
 1840SOL    HW1 6407   0.086   4.275   0.609
 1840SOL    HW2 6408   0.100   4.422   0.641
 1841SOL     OW 6409   0.015   5.295   0.070
 1841SOL    HW1 6410   0.021   5.210   0.115
 1841SOL    HW2 6411   0.043   0.059   0.136
 1842SOL     OW 6412   1.687   4.642   0.643
 1842SOL    HW1 6413   1.770   4.600   0.621
 1842SOL    HW2 6414   1.666   4.694   0.565
 1843SOL     OW 6415   1.646   4.829   0.434
 1843SOL    HW1 6416   1.728   4.842   0.385
 1843SOL    HW2 6417   1.652   4.891   0.507
 1844SOL     OW 6418   0.130   4.472   1.586
 1844SOL    HW1 6419   0.225   4.487   1.588
 1844SOL    HW2 6420   0.092   4.559   1.598
 1845SOL     OW 6421   0.627   5.096   0.735
 1845SOL    HW1 6422   0.569   5.020   0.735
 1845SOL    HW2 6423   0.601   5.146   0.657
 1846SOL     OW 6424   1.289   4.954   1.426
 1846SOL    HW1 6425   1.323   4.889   1.365
 1846SOL    HW2 6426   1.349   4.951   1.500
 1847SOL     OW 6427   0.823   3.725   0.512
 1847SOL    HW1 6428   0.862   3.810   0.490
 1847SOL    HW2 6429   0.729   3.743   0.517
 1848SOL     OW 6430   0.176   4.667   1.282
 1848SOL    HW1 6431   0.266   4.637   1.268
 1848SOL    HW2 6432   0.134   4.656   1.196
 1849SOL     OW 6433   1.510   4.734   0.210
 1849SOL    HW1 6434   1.449   4.667   0.242
 1849SOL    HW2 6435   1.562   4.757   0.286
 1850SOL     OW 6436   0.336   3.977   1.817
 1850SOL    HW1 6437   0.383   4.059   1.829
 1850SOL    HW2 6438   0.249   3.994   1.851
 1851SOL     OW 6439   1.477   5.146   0.963
 1851SOL    HW1 6440   1.403   5.159   1.023
 1851SOL    HW2 6441   1.464   5.058   0.928
 1852SOL     OW 6442   0.597   4.438   0.280
 1852SOL    HW1 6443   0.617   4.517   0.231
 1852SOL    HW2 6444   0.535   4.466   0.347
 1853SOL     OW 6445   1.279   4.076   0.932
 1853SOL    HW1 6446   1.190   4.043   0.941
 1853SOL    HW2 6447   1.330   4.023   0.994
 1854SOL     OW 6448   0.792   4.341   1.452
 1854SOL    HW1 6449   0.765   4.318   1.540
 1854SOL    HW2 6450   0.752   4.275   1.396
 1855SOL     OW 6451   1.393   4.198   1.678
 1855SOL    HW1 6452   1.396   4.242   1.763
 1855SOL    HW2 6453   1.455   4.125   1.687
 1856SOL     OW 6454   0.955   4.612   1.583
 1856SOL    HW1 6455   1.009   4.541   1.547
 1856SOL    HW2 6456   0.907   4.645   1.507
 1857SOL     OW 6457   0.992   4.137   1.239
 1857SOL    HW1 6458   0.907   4.158   1.276
 1857SOL    HW2 6459   0.972   4.090   1.158
 1858SOL     OW 6460   1.052   4.423   0.427
 1858SOL    HW1 6461   1.067   4.416   0.522
 1858SOL    HW2 6462   0.970   4.377   0.413
 1859SOL     OW 6463   0.068   4.511   0.818
 1859SOL    HW1 6464   0.152   4.516   0.862
 1859SOL    HW2 6465   0.063   4.592   0.767
 1860SOL     OW 6466   0.885   4.081   0.201
 1860SOL    HW1 6467   0.930   4.130   0.132
 1860SOL    HW2 6468   0.885   3.991   0.170
 1861SOL     OW 6469   1.709   4.299   1.828
 1861SOL    HW1 6470   1.671   4.373   1.780
 1861SOL    HW2 6471   1.736   4.238   1.760
 1862SOL     OW 6472   1.376   4.864   0.540
 1862SOL    HW1 6473   1.457   4.850   0.489
 1862SOL    HW2 6474   1.325   4.926   0.488
 1863SOL     OW 6475   0.555   3.908   0.893
 1863SOL    HW1 6476   0.552   3.935   0.985
 1863SOL    HW2 6477   0.553   3.990   0.844
 1864SOL     OW 6478   1.019   5.164   0.470
 1864SOL    HW1 6479   0.944   5.224   0.467
 1864SOL    HW2 6480   1.040   5.155   0.563
 1865SOL     OW 6481   1.800   4.781   0.867
 1865SOL    HW1 6482   1.742   4.763   0.792
 1865SOL    HW2 6483   1.741   4.788   0.941
 1866SOL     OW 6484   1.250   5.240   1.524
 1866SOL    HW1 6485   1.214   5.173   1.582
 1866SOL    HW2 6486   1.179   5.259   1.463
 1867SOL     OW 6487   0.329   4.673   0.247
 1867SOL    HW1 6488   0.412   4.686   0.200
 1867SOL    HW2 6489   0.316   4.579   0.247
 1868SOL     OW 6490   1.478   4.465   0.727
 1868SOL    HW1 6491   1.469   4.423   0.812
 1868SOL    HW2 6492   1.555   4.521   0.735
 1869SOL     OW 6493   0.463   4.989   1.742
 1869SOL    HW1 6494   0.437   4.992   1.650
 1869SOL    HW2 6495   0.380   4.988   1.790
 1870SOL     OW 6496   1.157   0.160   0.237
 1870SOL    HW1 6497   1.073   0.176   0.280
 1870SOL    HW2 6498   1.134   0.140   0.146
 1871SOL     OW 6499   0.205   4.005   1.497
 1871SOL    HW1 6500   0.126   4.056   1.481
 1871SOL    HW2 6501   0.173   3.926   1.542
 1872SOL     OW 6502   1.630   5.094   0.076
 1872SOL    HW1 6503   1.592   5.180   0.093
 1872SOL    HW2 6504   1.555   5.037   0.062
 1873SOL     OW 6505   1.407   3.835   0.444
 1873SOL    HW1 6506   1.398   3.814   0.351
 1873SOL    HW2 6507   1.501   3.842   0.457
 1874SOL     OW 6508   0.382   4.423   0.475
 1874SOL    HW1 6509   0.414   4.333   0.485
 1874SOL    HW2 6510   0.290   4.419   0.501
 1875SOL     OW 6511   1.535   3.949   1.725
 1875SOL    HW1 6512   1.545   3.970   1.818
 1875SOL    HW2 6513   1.466   3.883   1.722
 1876SOL     OW 6514   0.629   3.835   0.136
 1876SOL    HW1 6515   0.723   3.823   0.141
 1876SOL    HW2 6516   0.607   3.816   0.045
 1877SOL     OW 6517   0.767   4.002   1.754
 1877SOL    HW1 6518   0.842   3.943   1.756
 1877SOL    HW2 6519   0.718   3.981   1.833
 1878SOL     OW 6520   1.341   4.312   1.432
 1878SOL    HW1 6521   1.371   4.281   1.517
 1878SOL    HW2 6522   1.376   4.401   1.424
 1879SOL     OW 6523   0.813   5.120   0.936
 1879SOL    HW1 6524   0.894   5.105   0.887
 1879SOL    HW2 6525   0.745   5.126   0.869
 1880SOL     OW 6526   0.928   4.233   0.902
 1880SOL    HW1 6527   0.904   4.225   0.810
 1880SOL    HW2 6528   0.959   4.146   0.927
 1881SOL     OW 6529   0.560   3.786   0.500
 1881SOL    HW1 6530   0.485   3.785   0.559
 1881SOL    HW2 6531   0.549   3.865   0.448
 1882SOL     OW 6532   1.426   4.925   0.036
 1882SOL    HW1 6533   1.455   4.851   0.089
 1882SOL    HW2 6534   1.339   4.947   0.070
 1883SOL     OW 6535   0.314   3.770   0.174
 1883SOL    HW1 6536   0.377   3.841   0.179
 1883SOL    HW2 6537   0.356   3.696   0.218
 1884SOL     OW 6538   0.940   3.971   0.459
 1884SOL    HW1 6539   0.912   4.013   0.377
 1884SOL    HW2 6540   1.035   3.987   0.463
 1885SOL     OW 6541   1.080   4.405   1.460
 1885SOL    HW1 6542   1.011   4.338   1.464
 1885SOL    HW2 6543   1.161   4.354   1.453
 1886SOL     OW 6544   1.263   5.266   0.780
 1886SOL    HW1 6545   1.223   0.046   0.748
 1886SOL    HW2 6546   1.306   5.292   0.862
 1887SOL     OW 6547   0.466   4.874   0.729
 1887SOL    HW1 6548   0.397   4.853   0.793
 1887SOL    HW2 6549   0.425   4.855   0.644
 1888SOL     OW 6550   1.032   4.253   0.030
 1888SOL    HW1 6551   0.989   4.334   0.002
 1888SOL    HW2 6552   1.094   4.281   0.098
 1889SOL     OW 6553   0.087   4.269   1.398
 1889SOL    HW1 6554   0.175   4.277   1.361
 1889SOL    HW2 6555   0.079   4.345   1.455
 1890SOL     OW 6556   0.560   3.951   1.166
 1890SOL    HW1 6557   0.598   3.872   1.203
 1890SOL    HW2 6558   0.469   3.950   1.194
 1891SOL     OW 6559   0.868   4.182   0.639
 1891SOL    HW1 6560   0.824   4.238   0.574
 1891SOL    HW2 6561   0.889   4.102   0.592
 1892SOL     OW 6562   1.016   3.776   0.751
 1892SOL    HW1 6563   0.956   3.770   0.676
 1892SOL    HW2 6564   0.994   3.701   0.806
 1893SOL     OW 6565   1.437   4.889   0.859
 1893SOL    HW1 6566   1.370   4.822   0.855
 1893SOL    HW2 6567   1.461   4.904   0.767
 1894SOL     OW 6568   1.467   4.329   0.977
 1894SOL    HW1 6569   1.416   4.248   0.981
 1894SOL    HW2 6570   1.526   4.323   1.052
 1895SOL     OW 6571   1.849   4.539   0.388
 1895SOL    HW1 6572   1.901   4.486   0.448
 1895SOL    HW2 6573   1.817   4.477   0.322
 1896SOL     OW 6574   0.474   5.158   0.158
 1896SOL    HW1 6575   0.421   5.108   0.220
 1896SOL    HW2 6576   0.501   5.094   0.092
 1897SOL     OW 6577   1.670   4.988   0.647
 1897SOL    HW1 6578   1.763   4.995   0.666
 1897SOL    HW2 6579   1.635   5.076   0.664
 1898SOL     OW 6580   1.398   4.303   0.087
 1898SOL    HW1 6581   1.336   4.284   0.157
 1898SOL    HW2 6582   1.454   4.226   0.082
 1899SOL     OW 6583   0.515   3.987   0.323
 1899SOL    HW1 6584   0.565   3.935   0.260
 1899SOL    HW2 6585   0.501   4.071   0.280
 1900SOL     OW 6586   1.751   4.960   1.576
 1900SOL    HW1 6587   1.837   4.918   1.576
 1900SOL    HW2 6588   1.770   5.053   1.589
 1901SOL     OW 6589   1.064   5.075   1.332
 1901SOL    HW1 6590   0.986   5.049   1.380
 1901SOL    HW2 6591   1.137   5.035   1.380
 1902SOL     OW 6592   1.126   4.926   1.108
 1902SOL    HW1 6593   1.075   4.967   1.177
 1902SOL    HW2 6594   1.082   4.952   1.027
 1903SOL     OW 6595   1.629   4.823   1.077
 1903SOL    HW1 6596   1.624   4.884   1.150
 1903SOL    HW2 6597   1.551   4.841   1.025
 1904SOL     OW 6598   0.919   3.820   1.397
 1904SOL    HW1 6599   0.941   3.802   1.306
 1904SOL    HW2 6600   0.998   3.860   1.433
 1905SOL     OW 6601   0.984   4.839   1.725
 1905SOL    HW1 6602   0.892   4.855   1.743
 1905SOL    HW2 6603   0.985   4.762   1.667
 1906SOL     OW 6604   0.708   4.781   0.381
 1906SOL    HW1 6605   0.694   4.766   0.474
 1906SOL    HW2 6606   0.789   4.733   0.361
 1907SOL     OW 6607   0.421   4.542   1.251
 1907SOL    HW1 6608   0.489   4.549   1.318
 1907SOL    HW2 6609   0.386   4.454   1.262
 1908SOL     OW 6610   1.265   4.101   1.275
 1908SOL    HW1 6611   1.298   4.178   1.321
 1908SOL    HW2 6612   1.175   4.123   1.252
 1909SOL     OW 6613   0.112   5.286   1.321
 1909SOL    HW1 6614   0.054   0.050   1.362
 1909SOL    HW2 6615   0.191   5.288   1.375
 1910SOL     OW 6616   0.346   4.829   0.487
 1910SOL    HW1 6617   0.341   4.907   0.433
 1910SOL    HW2 6618   0.358   4.757   0.425
 1911SOL     OW 6619   0.555   4.259   0.859
 1911SOL    HW1 6620   0.570   4.318   0.785
 1911SOL    HW2 6621   0.618   4.287   0.925
 1912SOL     OW 6622   1.258   5.072   0.386
 1912SOL    HW1 6623   1.312   5.147   0.411
 1912SOL    HW2 6624   1.169   5.096   0.412
 1913SOL     OW 6625   1.269   5.182   1.141
 1913SOL    HW1 6626   1.328   5.195   1.216
 1913SOL    HW2 6627   1.225   5.099   1.160
 1914SOL     OW 6628   1.583   4.348   0.481
 1914SOL    HW1 6629   1.533   4.398   0.546
 1914SOL    HW2 6630   1.618   4.414   0.422
 1915SOL     OW 6631   0.381   5.233   1.315
 1915SOL    HW1 6632   0.364   5.193   1.230
 1915SOL    HW2 6633   0.474   5.256   1.312
 1916SOL     OW 6634   0.414   4.467   1.602
 1916SOL    HW1 6635   0.474   4.513   1.544
 1916SOL    HW2 6636   0.453   4.380   1.615
 1917SOL     OW 6637   1.601   4.503   1.682
 1917SOL    HW1 6638   1.515   4.544   1.675
 1917SOL    HW2 6639   1.653   4.544   1.613
 1918SOL     OW 6640   0.996   3.847   1.755
 1918SOL    HW1 6641   1.051   3.919   1.727
 1918SOL    HW2 6642   1.044   3.768   1.730
 1919SOL     OW 6643   0.497   3.766   1.748
 1919SOL    HW1 6644   0.455   3.711   1.681
 1919SOL    HW2 6645   0.438   3.839   1.760
 1920SOL     OW 6646   0.586   4.597   1.032
 1920SOL    HW1 6647   0.614   4.688   1.029
 1920SOL    HW2 6648   0.529   4.591   1.109
 1921SOL     OW 6649   1.358   4.582   1.029
 1921SOL    HW1 6650   1.274   4.573   0.983
 1921SOL    HW2 6651   1.398   4.495   1.024
 1922SOL     OW 6652   1.204   4.252   0.271
 1922SOL    HW1 6653   1.211   4.173   0.324
 1922SOL    HW2 6654   1.161   4.316   0.328
 1923SOL     OW 6655   0.302   3.927   1.248
 1923SOL    HW1 6656   0.267   3.952   1.333
 1923SOL    HW2 6657   0.289   3.833   1.243
 1924SOL     OW 6658   0.043   5.021   1.277
 1924SOL    HW1 6659   0.074   4.971   1.352
 1924SOL    HW2 6660   0.046   5.112   1.306
 1925SOL     OW 6661   0.724   4.355   1.058
 1925SOL    HW1 6662   0.799   4.339   1.000
 1925SOL    HW2 6663   0.696   4.444   1.037
 1926SOL     OW 6664   1.734   4.684   1.852
 1926SOL    HW1 6665   1.689   4.622   1.795
 1926SOL    HW2 6666   1.675   4.697   1.926
 1927SOL     OW 6667   0.325   3.787   0.635
 1927SOL    HW1 6668   0.309   3.877   0.664
 1927SOL    HW2 6669   0.331   3.736   0.716
 1928SOL     OW 6670   1.621   4.099   0.370
 1928SOL    HW1 6671   1.645   4.034   0.436
 1928SOL    HW2 6672   1.595   4.176   0.420
 1929SOL     OW 6673   1.028   4.483   0.961
 1929SOL    HW1 6674   1.025   4.500   1.055
 1929SOL    HW2 6675   1.001   4.391   0.952
 1930SOL     OW 6676   1.855   5.214   1.585
 1930SOL    HW1 6677   1.849   5.289   1.526
 1930SOL    HW2 6678   1.924   5.237   1.647
 1931SOL     OW 6679   0.354   4.642   1.806
 1931SOL    HW1 6680   0.435   4.660   1.854
 1931SOL    HW2 6681   0.379   4.577   1.740
 1932SOL     OW 6682   1.519   4.024   0.126
 1932SOL    HW1 6683   1.469   3.944   0.143
 1932SOL    HW2 6684   1.558   4.045   0.211
 1933SOL     OW 6685   1.295   4.548   0.019
 1933SOL    HW1 6686   1.333   4.462   0.039
 1933SOL    HW2 6687   1.355   4.588   8.037
 1934SOL     OW 6688   1.059   5.078   0.828
 1934SOL    HW1 6689   1.064   4.993   0.783
 1934SOL    HW2 6690   1.144   5.118   0.814
 1935SOL     OW 6691   0.315   4.533   0.949
 1935SOL    HW1 6692   0.409   4.551   0.945
 1935SOL    HW2 6693   0.309   4.443   0.981
 1936SOL     OW 6694   0.335   4.249   1.015
 1936SOL    HW1 6695   0.300   4.161   1.001
 1936SOL    HW2 6696   0.410   4.255   0.956
 1937SOL     OW 6697   1.134   4.100   1.682
 1937SOL    HW1 6698   1.087   4.155   1.744
 1937SOL    HW2 6699   1.222   4.138   1.678
 1938SOL     OW 6700   1.161   3.927   1.470
 1938SOL    HW1 6701   1.150   3.990   1.542
 1938SOL    HW2 6702   1.200   3.978   1.399
 1939SOL     OW 6703   0.012   5.052   0.196
 1939SOL    HW1 6704   5.221   5.057   0.167
 1939SOL    HW2 6705   0.017   4.968   0.242
 1940SOL     OW 6706   0.983   4.516   1.227
 1940SOL    HW1 6707   1.039   4.493   1.301
 1940SOL    HW2 6708   0.898   4.479   1.248
 1941SOL     OW 6709   0.032   4.278   1.115
 1941SOL    HW1 6710   0.121   4.261   1.083
 1941SOL    HW2 6711   0.037   4.266   1.209
 1942SOL     OW 6712   0.175   4.237   1.712
 1942SOL    HW1 6713   0.240   4.201   1.652
 1942SOL    HW2 6714   0.146   4.318   1.670
 1943SOL     OW 6715   1.377   4.663   1.658
 1943SOL    HW1 6716   1.397   4.756   1.656
 1943SOL    HW2 6717   1.373   4.636   1.566
 1944SOL     OW 6718   0.819   4.294   0.366
 1944SOL    HW1 6719   0.828   4.222   0.304
 1944SOL    HW2 6720   0.742   4.342   0.335
 1945SOL     OW 6721   1.642   4.325   1.186
 1945SOL    HW1 6722   1.632   4.266   1.261
 1945SOL    HW2 6723   1.729   4.305   1.152
 1946SOL     OW 6724   0.210   5.280   1.732
 1946SOL    HW1 6725   0.176   0.022   1.810
 1946SOL    HW2 6726   0.213   5.187   1.755
 1947SOL     OW 6727   0.701   4.174   1.260
 1947SOL    HW1 6728   0.648   4.100   1.230
 1947SOL    HW2 6729   0.697   4.237   1.188
 1948SOL     OW 6730   0.467   4.214   0.180
 1948SOL    HW1 6731   0.532   4.281   0.201
 1948SOL    HW2 6732   0.383   4.259   0.183
 1949SOL     OW 6733   0.151   4.861   1.472
 1949SOL    HW1 6734   0.147   4.812   1.554
 1949SOL    HW2 6735   0.161   4.794   1.404
 1950SOL     OW 6736   1.327   4.770   1.223
 1950SOL    HW1 6737   1.350   4.707   1.154
 1950SOL    HW2 6738   1.256   4.822   1.185
 1951SOL     OW 6739   1.307   4.573   0.307
 1951SOL    HW1 6740   1.230   4.545   0.357
 1951SOL    HW2 6741   1.281   4.561   0.216
 1952SOL     OW 6742   0.076   4.919   1.030
 1952SOL    HW1 6743   0.064   4.959   1.116
 1952SOL    HW2 6744   5.290   4.925   0.989
 1953SOL     OW 6745   0.751   0.039   1.709
 1953SOL    HW1 6746   0.659   0.061   1.718
 1953SOL    HW2 6747   0.773   0.060   1.618
 1954SOL     OW 6748   0.905   3.815   0.133
 1954SOL    HW1 6749   0.924   3.800   0.040
 1954SOL    HW2 6750   0.969   3.762   0.180
 1955SOL     OW 6751   1.719   3.869   0.510
 1955SOL    HW1 6752   1.791   3.853   0.449
 1955SOL    HW2 6753   1.703   3.784   0.552
 1956SOL     OW 6754   1.277   4.649   0.671
 1956SOL    HW1 6755   1.351   4.588   0.678
 1956SOL    HW2 6756   1.311   4.721   0.619
 1957SOL     OW 6757   0.819   4.993   1.421
 1957SOL    HW1 6758   0.788   5.030   1.504
 1957SOL    HW2 6759   0.743   5.001   1.362
 1958SOL     OW 6760   1.841   3.897   0.967
 1958SOL    HW1 6761   1.869   3.810   0.940
 1958SOL    HW2 6762   1.754   3.907   0.927
 1959SOL     OW 6763   0.270   4.040   0.716
 1959SOL    HW1 6764   0.188   4.085   0.697
 1959SOL    HW2 6765   0.270   4.030   0.812
 1960SOL     OW 6766   1.140   0.019   0.004
 1960SOL    HW1 6767   1.155   5.230   0.034
 1960SOL    HW2 6768   1.144   0.013   7.989
 1961SOL     OW 6769   0.825   4.728   1.371
 1961SOL    HW1 6770   0.869   4.721   1.286
 1961SOL    HW2 6771   0.828   4.821   1.393
 1962SOL     OW 6772   0.918   4.638   0.298
 1962SOL    HW1 6773   0.973   4.665   0.225
 1962SOL    HW2 6774   0.966   4.566   0.339
 1963SOL     OW 6775   0.366   5.029   1.500
 1963SOL    HW1 6776   0.365   5.099   1.434
 1963SOL    HW2 6777   0.291   4.973   1.476
 1964SOL     OW 6778   1.613   5.004   1.282
 1964SOL    HW1 6779   1.669   4.998   1.359
 1964SOL    HW2 6780   1.550   5.073   1.304
 1965SOL     OW 6781   1.054   4.833   0.712
 1965SOL    HW1 6782   0.982   4.782   0.748
 1965SOL    HW2 6783   1.115   4.768   0.677
 1966SOL     OW 6784   1.021   3.964   0.966
 1966SOL    HW1 6785   1.016   3.916   0.883
 1966SOL    HW2 6786   1.016   3.896   1.033
 1967SOL     OW 6787   1.722   4.116   1.380
 1967SOL    HW1 6788   1.793   4.179   1.379
 1967SOL    HW2 6789   1.751   4.045   1.324
 1968SOL     OW 6790   0.270   5.035   0.295
 1968SOL    HW1 6791   0.188   5.049   0.248
 1968SOL    HW2 6792   0.258   5.082   0.378
 1969SOL     OW 6793   0.116   4.742   1.719
 1969SOL    HW1 6794   0.044   4.704   1.771
 1969SOL    HW2 6795   0.195   4.709   1.761
 1970SOL     OW 6796   0.674   3.920   1.499
 1970SOL    HW1 6797   0.758   3.900   1.458
 1970SOL    HW2 6798   0.697   3.952   1.587
 1971SOL     OW 6799   0.042   4.116   0.027
 1971SOL    HW1 6800   0.019   4.029   0.060
 1971SOL    HW2 6801   0.123   4.102   8.058
 1972SOL     OW 6802   1.430   4.582   1.400
 1972SOL    HW1 6803   1.381   4.642   1.344
 1972SOL    HW2 6804   1.519   4.584   1.366
 1973SOL     OW 6805   0.052   3.859   0.217
 1973SOL    HW1 6806   0.053   3.946   0.257
 1973SOL    HW2 6807   0.144   3.836   0.207
 1974SOL     OW 6808   1.182   5.064   0.112
 1974SOL    HW1 6809   1.087   5.049   0.111
 1974SOL    HW2 6810   1.205   5.060   0.205
 1975SOL     OW 6811   0.619   4.555   1.435
 1975SOL    HW1 6812   0.676   4.630   1.419
 1975SOL    HW2 6813   0.680   4.481   1.443
 1976SOL     OW 6814   0.717   4.288   1.705
 1976SOL    HW1 6815   0.758   4.351   1.765
 1976SOL    HW2 6816   0.746   4.202   1.736
 1977SOL     OW 6817   1.473   4.923   1.631
 1977SOL    HW1 6818   1.460   4.936   1.725
 1977SOL    HW2 6819   1.567   4.937   1.618
 1978SOL     OW 6820   1.670   4.605   1.255
 1978SOL    HW1 6821   1.663   4.520   1.212
 1978SOL    HW2 6822   1.660   4.669   1.184
 1979SOL     OW 6823   1.217   4.042   0.459
 1979SOL    HW1 6824   1.282   3.972   0.453
 1979SOL    HW2 6825   1.245   4.093   0.536
 1980SOL     OW 6826   0.590   4.461   0.668
 1980SOL    HW1 6827   0.628   4.547   0.655
 1980SOL    HW2 6828   0.519   4.456   0.604
 1981SOL     OW 6829   1.762   4.086   1.650
 1981SOL    HW1 6830   1.745   4.100   1.557
 1981SOL    HW2 6831   1.691   4.029   1.679
 1982SOL     OW 6832   1.745   4.657   1.512
 1982SOL    HW1 6833   1.741   4.752   1.525
 1982SOL    HW2 6834   1.729   4.645   1.418
 1983SOL     OW 6835   0.908   5.095   0.035
 1983SOL    HW1 6836   0.850   5.078   0.108
 1983SOL    HW2 6837   0.861   5.160   8.062
 1984SOL     OW 6838   0.868   4.691   0.855
 1984SOL    HW1 6839   0.917   4.620   0.896
 1984SOL    HW2 6840   0.833   4.741   0.929
 1985SOL     OW 6841   1.079   4.702   0.088
 1985SOL    HW1 6842   1.061   4.758   0.013
 1985SOL    HW2 6843   1.156   4.651   0.062
 1986SOL     OW 6844   0.220   5.025   1.854
 1986SOL    HW1 6845   0.155   4.957   1.835
 1986SOL    HW2 6846   0.216   5.035   1.950
 1987SOL     OW 6847   0.081   4.929   0.657
 1987SOL    HW1 6848   0.104   4.905   0.746
 1987SOL    HW2 6849   0.165   4.944   0.614
 1988SOL     OW 6850   0.671   5.106   1.609
 1988SOL    HW1 6851   0.594   5.073   1.656
 1988SOL    HW2 6852   0.702   5.179   1.663
 1989SOL     OW 6853   1.813   3.909   1.238
 1989SOL    HW1 6854   1.823   3.814   1.252
 1989SOL    HW2 6855   1.822   3.919   1.143
 1990SOL     OW 6856   0.433   4.163   0.523
 1990SOL    HW1 6857   0.462   4.090   0.469
 1990SOL    HW2 6858   0.386   4.121   0.596
 1991SOL     OW 6859   1.707   5.223   1.119
 1991SOL    HW1 6860   1.633   5.207   1.060
 1991SOL    HW2 6861   1.713   5.144   1.172
 1992SOL     OW 6862   0.336   4.283   1.291
 1992SOL    HW1 6863   0.389   4.224   1.345
 1992SOL    HW2 6864   0.350   4.253   1.202
 1993SOL     OW 6865   1.432   3.949   1.118
 1993SOL    HW1 6866   1.457   3.869   1.165
 1993SOL    HW2 6867   1.380   3.998   1.181
 1994SOL     OW 6868   1.009   3.743   1.142
 1994SOL    HW1 6869   0.954   3.675   1.103
 1994SOL    HW2 6870   1.097   3.705   1.145
 1995SOL     OW 6871   0.797   5.039   0.281
 1995SOL    HW1 6872   0.739   4.967   0.308
 1995SOL    HW2 6873   0.853   5.054   0.358
 1996SOL     OW 6874   0.639   0.002   1.287
 1996SOL    HW1 6875   0.644   0.057   1.365
 1996SOL    HW2 6876   0.731   5.285   1.265
 1997SOL     OW 6877   1.356   3.779   0.184
 1997SOL    HW1 6878   1.378   3.730   0.104
 1997SOL    HW2 6879   1.270   3.745   0.210
 1998SOL     OW 6880   1.297   4.185   0.681
 1998SOL    HW1 6881   1.243   4.264   0.688
 1998SOL    HW2 6882   1.293   4.145   0.768
 1999SOL     OW 6883   1.587   3.926   0.878
 1999SOL    HW1 6884   1.526   3.946   0.949
 1999SOL    HW2 6885   1.586   4.004   0.823
 2000SOL     OW 6886   0.041   4.801   0.306
 2000SOL    HW1 6887   0.133   4.776   0.293
 2000SOL    HW2 6888   5.296   4.719   0.322
 2001SOL     OW 6889   0.234   4.356   1.978
 2001SOL    HW1 6890   0.160   4.324   2.029
 2001SOL    HW2 6891   0.219   4.321   1.890
 2002SOL     OW 6892   0.242   3.999   2.852
 2002SOL    HW1 6893   0.255   3.965   2.940
 2002SOL    HW2 6894   0.158   3.963   2.824
 2003SOL     OW 6895   5.298   4.121   2.515
 2003SOL    HW1 6896   5.205   4.144   2.521
 2003SOL    HW2 6897   5.299   4.031   2.484
 2004SOL     OW 6898   0.573   5.000   3.045
 2004SOL    HW1 6899   0.494   5.006   2.992
 2004SOL    HW2 6900   0.592   5.090   3.072
 2005SOL     OW 6901   1.555   5.232   2.551
 2005SOL    HW1 6902   1.535   5.228   2.644
 2005SOL    HW2 6903   1.476   5.267   2.511
 2006SOL     OW 6904   1.130   4.422   2.563
 2006SOL    HW1 6905   1.179   4.503   2.549
 2006SOL    HW2 6906   1.083   4.436   2.645
 2007SOL     OW 6907   1.766   4.330   2.091
 2007SOL    HW1 6908   1.746   4.322   1.998
 2007SOL    HW2 6909   1.731   4.250   2.130
 2008SOL     OW 6910   0.759   4.868   2.899
 2008SOL    HW1 6911   0.691   4.897   2.960
 2008SOL    HW2 6912   0.786   4.947   2.854
 2009SOL     OW 6913   0.867   4.499   3.684
 2009SOL    HW1 6914   0.855   4.571   3.746
 2009SOL    HW2 6915   0.890   4.542   3.602
 2010SOL     OW 6916   0.686   4.727   2.510
 2010SOL    HW1 6917   0.751   4.715   2.579
 2010SOL    HW2 6918   0.618   4.781   2.550
 2011SOL     OW 6919   0.708   4.872   3.674
 2011SOL    HW1 6920   0.756   4.951   3.698
 2011SOL    HW2 6921   0.625   4.904   3.639
 2012SOL     OW 6922   0.377   5.145   2.915
 2012SOL    HW1 6923   0.282   5.154   2.903
 2012SOL    HW2 6924   0.415   5.199   2.846
 2013SOL     OW 6925   1.455   5.220   3.209
 2013SOL    HW1 6926   1.509   5.293   3.241
 2013SOL    HW2 6927   1.388   5.209   3.277
 2014SOL     OW 6928   0.450   4.124   3.355
 2014SOL    HW1 6929   0.524   4.063   3.356
 2014SOL    HW2 6930   0.373   4.069   3.364
 2015SOL     OW 6931   1.612   4.172   2.602
 2015SOL    HW1 6932   1.537   4.195   2.547
 2015SOL    HW2 6933   1.628   4.250   2.655
 2016SOL     OW 6934   1.133   5.072   3.563
 2016SOL    HW1 6935   1.164   5.073   3.653
 2016SOL    HW2 6936   1.080   4.993   3.556
 2017SOL     OW 6937   0.212   5.151   2.394
 2017SOL    HW1 6938   0.251   5.231   2.429
 2017SOL    HW2 6939   0.133   5.137   2.446
 2018SOL     OW 6940   0.252   4.799   2.738
 2018SOL    HW1 6941   0.264   4.713   2.777
 2018SOL    HW2 6942   0.196   4.846   2.799
 2019SOL     OW 6943   0.583   4.706   1.997
 2019SOL    HW1 6944   0.630   4.754   1.928
 2019SOL    HW2 6945   0.624   4.735   2.078
 2020SOL     OW 6946   1.596   3.847   3.331
 2020SOL    HW1 6947   1.603   3.927   3.278
 2020SOL    HW2 6948   1.581   3.878   3.420
 2021SOL     OW 6949   0.127   4.356   2.440
 2021SOL    HW1 6950   0.088   4.274   2.471
 2021SOL    HW2 6951   0.099   4.421   2.505
 2022SOL     OW 6952   5.299   5.300   1.944
 2022SOL    HW1 6953   0.015   5.212   1.978
 2022SOL    HW2 6954   0.026   0.058   2.015
 2023SOL     OW 6955   1.689   4.642   2.502
 2023SOL    HW1 6956   1.772   4.600   2.482
 2023SOL    HW2 6957   1.667   4.693   2.424
 2024SOL     OW 6958   1.645   4.831   2.291
 2024SOL    HW1 6959   1.731   4.836   2.249
 2024SOL    HW2 6960   1.652   4.892   2.365
 2025SOL     OW 6961   0.130   4.472   3.448
 2025SOL    HW1 6962   0.225   4.486   3.450
 2025SOL    HW2 6963   0.092   4.559   3.461
 2026SOL     OW 6964   0.626   5.096   2.597
 2026SOL    HW1 6965   0.569   5.019   2.597
 2026SOL    HW2 6966   0.601   5.144   2.519
 2027SOL     OW 6967   1.289   4.954   3.288
 2027SOL    HW1 6968   1.323   4.889   3.227
 2027SOL    HW2 6969   1.348   4.952   3.362
 2028SOL     OW 6970   0.822   3.723   2.372
 2028SOL    HW1 6971   0.862   3.808   2.352
 2028SOL    HW2 6972   0.729   3.742   2.378
 2029SOL     OW 6973   0.177   4.668   3.144
 2029SOL    HW1 6974   0.267   4.637   3.130
 2029SOL    HW2 6975   0.134   4.655   3.059
 2030SOL     OW 6976   1.531   4.719   2.059
 2030SOL    HW1 6977   1.461   4.661   2.091
 2030SOL    HW2 6978   1.572   4.753   2.139
 2031SOL     OW 6979   0.336   3.977   3.679
 2031SOL    HW1 6980   0.383   4.060   3.691
 2031SOL    HW2 6981   0.249   3.994   3.713
 2032SOL     OW 6982   1.476   5.146   2.824
 2032SOL    HW1 6983   1.404   5.159   2.885
 2032SOL    HW2 6984   1.464   5.058   2.790
 2033SOL     OW 6985   0.596   4.445   2.128
 2033SOL    HW1 6986   0.603   4.526   2.077
 2033SOL    HW2 6987   0.531   4.465   2.196
 2034SOL     OW 6988   1.279   4.077   2.795
 2034SOL    HW1 6989   1.190   4.043   2.803
 2034SOL    HW2 6990   1.330   4.023   2.856
 2035SOL     OW 6991   0.792   4.341   3.314
 2035SOL    HW1 6992   0.765   4.318   3.402
 2035SOL    HW2 6993   0.752   4.275   3.258
 2036SOL     OW 6994   1.393   4.198   3.540
 2036SOL    HW1 6995   1.396   4.243   3.624
 2036SOL    HW2 6996   1.455   4.126   3.549
 2037SOL     OW 6997   0.955   4.612   3.445
 2037SOL    HW1 6998   1.009   4.541   3.409
 2037SOL    HW2 6999   0.907   4.645   3.369
 2038SOL     OW 7000   0.992   4.136   3.101
 2038SOL    HW1 7001   0.906   4.158   3.138
 2038SOL    HW2 7002   0.972   4.090   3.019
 2039SOL     OW 7003   1.051   4.422   2.288
 2039SOL    HW1 7004   1.066   4.415   2.382
 2039SOL    HW2 7005   0.968   4.376   2.274
 2040SOL     OW 7006   0.072   4.510   2.672
 2040SOL    HW1 7007   0.154   4.515   2.723
 2040SOL    HW2 7008   0.061   4.598   2.636
 2041SOL     OW 7009   0.893   4.072   2.056
 2041SOL    HW1 7010   0.933   4.134   1.995
 2041SOL    HW2 7011   0.908   3.986   2.017
 2042SOL     OW 7012   1.708   4.299   3.690
 2042SOL    HW1 7013   1.671   4.373   3.642
 2042SOL    HW2 7014   1.736   4.238   3.622
 2043SOL     OW 7015   1.377   4.864   2.402
 2043SOL    HW1 7016   1.458   4.850   2.353
 2043SOL    HW2 7017   1.327   4.925   2.348
 2044SOL     OW 7018   0.556   3.907   2.755
 2044SOL    HW1 7019   0.552   3.936   2.847
 2044SOL    HW2 7020   0.551   3.988   2.705
 2045SOL     OW 7021   1.023   5.169   2.332
 2045SOL    HW1 7022   0.946   5.225   2.327
 2045SOL    HW2 7023   1.038   5.158   2.426
 2046SOL     OW 7024   1.800   4.781   2.728
 2046SOL    HW1 7025   1.743   4.764   2.653
 2046SOL    HW2 7026   1.740   4.788   2.803
 2047SOL     OW 7027   1.250   5.240   3.386
 2047SOL    HW1 7028   1.214   5.173   3.445
 2047SOL    HW2 7029   1.179   5.259   3.325
 2048SOL     OW 7030   0.316   4.676   2.109
 2048SOL    HW1 7031   0.398   4.699   2.065
 2048SOL    HW2 7032   0.293   4.591   2.073
 2049SOL     OW 7033   1.478   4.466   2.589
 2049SOL    HW1 7034   1.469   4.423   2.674
 2049SOL    HW2 7035   1.556   4.521   2.598
 2050SOL     OW 7036   0.463   4.988   3.604
 2050SOL    HW1 7037   0.437   4.991   3.512
 2050SOL    HW2 7038   0.380   4.988   3.652
 2051SOL     OW 7039   1.069   0.180   2.069
 2051SOL    HW1 7040   1.079   0.106   2.129
 2051SOL    HW2 7041   1.104   0.148   1.985
 2052SOL     OW 7042   0.205   4.005   3.359
 2052SOL    HW1 7043   0.126   4.056   3.343
 2052SOL    HW2 7044   0.173   3.926   3.404
 2053SOL     OW 7045   1.623   5.100   1.969
 2053SOL    HW1 7046   1.620   5.177   1.912
 2053SOL    HW2 7047   1.555   5.042   1.936
 2054SOL     OW 7048   1.401   3.832   2.295
 2054SOL    HW1 7049   1.391   3.807   2.203
 2054SOL    HW2 7050   1.496   3.838   2.308
 2055SOL     OW 7051   0.386   4.420   2.341
 2055SOL    HW1 7052   0.415   4.329   2.350
 2055SOL    HW2 7053   0.293   4.417   2.361
 2056SOL     OW 7054   1.536   3.950   3.587
 2056SOL    HW1 7055   1.545   3.970   3.680
 2056SOL    HW2 7056   1.465   3.885   3.584
 2057SOL     OW 7057   0.633   3.847   1.967
 2057SOL    HW1 7058   0.704   3.783   1.979
 2057SOL    HW2 7059   0.585   3.815   1.891
 2058SOL     OW 7060   0.767   4.002   3.616
 2058SOL    HW1 7061   0.842   3.943   3.618
 2058SOL    HW2 7062   0.717   3.981   3.695
 2059SOL     OW 7063   1.340   4.313   3.294
 2059SOL    HW1 7064   1.371   4.282   3.379
 2059SOL    HW2 7065   1.376   4.401   3.286
 2060SOL     OW 7066   0.813   5.120   2.798
 2060SOL    HW1 7067   0.894   5.105   2.748
 2060SOL    HW2 7068   0.745   5.126   2.731
 2061SOL     OW 7069   0.928   4.234   2.765
 2061SOL    HW1 7070   0.904   4.225   2.673
 2061SOL    HW2 7071   0.959   4.146   2.790
 2062SOL     OW 7072   0.560   3.785   2.358
 2062SOL    HW1 7073   0.485   3.785   2.418
 2062SOL    HW2 7074   0.550   3.865   2.306
 2063SOL     OW 7075   1.428   4.924   1.901
 2063SOL    HW1 7076   1.458   4.848   1.951
 2063SOL    HW2 7077   1.340   4.941   1.934
 2064SOL     OW 7078   0.305   3.771   2.041
 2064SOL    HW1 7079   0.367   3.835   2.006
 2064SOL    HW2 7080   0.360   3.706   2.086
 2065SOL     OW 7081   0.939   3.971   2.322
 2065SOL    HW1 7082   0.912   4.012   2.240
 2065SOL    HW2 7083   1.034   3.985   2.326
 2066SOL     OW 7084   1.080   4.405   3.322
 2066SOL    HW1 7085   1.011   4.338   3.326
 2066SOL    HW2 7086   1.161   4.354   3.314
 2067SOL     OW 7087   1.264   5.267   2.640
 2067SOL    HW1 7088   1.221   0.048   2.613
 2067SOL    HW2 7089   1.308   5.290   2.723
 2068SOL     OW 7090   0.465   4.873   2.591
 2068SOL    HW1 7091   0.397   4.853   2.655
 2068SOL    HW2 7092   0.425   4.853   2.506
 2069SOL     OW 7093   1.023   4.266   1.885
 2069SOL    HW1 7094   0.981   4.350   1.864
 2069SOL    HW2 7095   1.089   4.288   1.951
 2070SOL     OW 7096   0.088   4.269   3.260
 2070SOL    HW1 7097   0.175   4.277   3.223
 2070SOL    HW2 7098   0.079   4.345   3.317
 2071SOL     OW 7099   0.560   3.952   3.028
 2071SOL    HW1 7100   0.598   3.871   3.064
 2071SOL    HW2 7101   0.469   3.950   3.056
 2072SOL     OW 7102   0.868   4.183   2.502
 2072SOL    HW1 7103   0.822   4.237   2.438
 2072SOL    HW2 7104   0.889   4.103   2.454
 2073SOL     OW 7105   1.015   3.777   2.614
 2073SOL    HW1 7106   0.957   3.769   2.538
 2073SOL    HW2 7107   0.994   3.702   2.668
 2074SOL     OW 7108   1.437   4.890   2.721
 2074SOL    HW1 7109   1.371   4.821   2.717
 2074SOL    HW2 7110   1.463   4.903   2.629
 2075SOL     OW 7111   1.466   4.329   2.839
 2075SOL    HW1 7112   1.416   4.248   2.842
 2075SOL    HW2 7113   1.526   4.323   2.914
 2076SOL     OW 7114   1.846   4.540   2.245
 2076SOL    HW1 7115   1.902   4.489   2.303
 2076SOL    HW2 7116   1.817   4.478   2.178
 2077SOL     OW 7117   0.483   5.144   2.016
 2077SOL    HW1 7118   0.420   5.094   2.068
 2077SOL    HW2 7119   0.481   5.102   1.929
 2078SOL     OW 7120   1.669   4.987   2.509
 2078SOL    HW1 7121   1.763   4.993   2.526
 2078SOL    HW2 7122   1.635   5.075   2.525
 2079SOL     OW 7123   1.394   4.296   1.933
 2079SOL    HW1 7124   1.333   4.276   2.005
 2079SOL    HW2 7125   1.478   4.263   1.964
 2080SOL     OW 7126   0.524   3.987   2.179
 2080SOL    HW1 7127   0.569   3.940   2.109
 2080SOL    HW2 7128   0.502   4.072   2.141
 2081SOL     OW 7129   1.751   4.960   3.438
 2081SOL    HW1 7130   1.837   4.918   3.438
 2081SOL    HW2 7131   1.770   5.053   3.451
 2082SOL     OW 7132   1.064   5.075   3.193
 2082SOL    HW1 7133   0.986   5.049   3.242
 2082SOL    HW2 7134   1.137   5.035   3.242
 2083SOL     OW 7135   1.126   4.926   2.970
 2083SOL    HW1 7136   1.075   4.967   3.040
 2083SOL    HW2 7137   1.081   4.951   2.889
 2084SOL     OW 7138   1.629   4.822   2.939
 2084SOL    HW1 7139   1.624   4.884   3.012
 2084SOL    HW2 7140   1.551   4.841   2.887
 2085SOL     OW 7141   0.919   3.820   3.259
 2085SOL    HW1 7142   0.940   3.802   3.168
 2085SOL    HW2 7143   0.998   3.860   3.295
 2086SOL     OW 7144   0.984   4.839   3.587
 2086SOL    HW1 7145   0.892   4.855   3.605
 2086SOL    HW2 7146   0.985   4.762   3.529
 2087SOL     OW 7147   0.703   4.781   2.235
 2087SOL    HW1 7148   0.693   4.766   2.329
 2087SOL    HW2 7149   0.781   4.731   2.211
 2088SOL     OW 7150   0.421   4.542   3.113
 2088SOL    HW1 7151   0.489   4.549   3.180
 2088SOL    HW2 7152   0.386   4.454   3.124
 2089SOL     OW 7153   1.265   4.101   3.138
 2089SOL    HW1 7154   1.298   4.178   3.183
 2089SOL    HW2 7155   1.175   4.123   3.114
 2090SOL     OW 7156   0.113   5.290   3.180
 2090SOL    HW1 7157   0.052   0.048   3.226
 2090SOL    HW2 7158   0.190   5.287   3.237
 2091SOL     OW 7159   0.344   4.828   2.349
 2091SOL    HW1 7160   0.350   4.906   2.295
 2091SOL    HW2 7161   0.351   4.755   2.287
 2092SOL     OW 7162   0.555   4.260   2.721
 2092SOL    HW1 7163   0.570   4.319   2.647
 2092SOL    HW2 7164   0.619   4.287   2.787
 2093SOL     OW 7165   1.260   5.077   2.247
 2093SOL    HW1 7166   1.316   5.144   2.286
 2093SOL    HW2 7167   1.172   5.099   2.277
 2094SOL     OW 7168   1.269   5.182   3.003
 2094SOL    HW1 7169   1.328   5.195   3.078
 2094SOL    HW2 7170   1.225   5.099   3.022
 2095SOL     OW 7171   1.582   4.347   2.341
 2095SOL    HW1 7172   1.535   4.401   2.405
 2095SOL    HW2 7173   1.627   4.410   2.285
 2096SOL     OW 7174   0.381   5.231   3.178
 2096SOL    HW1 7175   0.364   5.192   3.092
 2096SOL    HW2 7176   0.474   5.256   3.174
 2097SOL     OW 7177   0.414   4.467   3.464
 2097SOL    HW1 7178   0.474   4.513   3.406
 2097SOL    HW2 7179   0.453   4.380   3.477
 2098SOL     OW 7180   1.601   4.503   3.544
 2098SOL    HW1 7181   1.515   4.544   3.537
 2098SOL    HW2 7182   1.653   4.544   3.475
 2099SOL     OW 7183   0.996   3.847   3.618
 2099SOL    HW1 7184   1.051   3.920   3.589
 2099SOL    HW2 7185   1.045   3.768   3.591
 2100SOL     OW 7186   0.497   3.765   3.610
 2100SOL    HW1 7187   0.455   3.711   3.543
 2100SOL    HW2 7188   0.438   3.839   3.622
 2101SOL     OW 7189   0.586   4.597   2.894
 2101SOL    HW1 7190   0.614   4.688   2.892
 2101SOL    HW2 7191   0.529   4.591   2.971
 2102SOL     OW 7192   1.358   4.582   2.891
 2102SOL    HW1 7193   1.274   4.572   2.845
 2102SOL    HW2 7194   1.398   4.496   2.886
 2103SOL     OW 7195   1.205   4.253   2.129
 2103SOL    HW1 7196   1.213   4.174   2.183
 2103SOL    HW2 7197   1.162   4.317   2.186
 2104SOL     OW 7198   0.302   3.927   3.110
 2104SOL    HW1 7199   0.267   3.952   3.196
 2104SOL    HW2 7200   0.289   3.832   3.105
 2105SOL     OW 7201   0.044   5.022   3.138
 2105SOL    HW1 7202   0.074   4.972   3.214
 2105SOL    HW2 7203   0.044   5.113   3.168
 2106SOL     OW 7204   0.725   4.355   2.920
 2106SOL    HW1 7205   0.799   4.339   2.862
 2106SOL    HW2 7206   0.696   4.444   2.899
 2107SOL     OW 7207   1.734   4.684   3.714
 2107SOL    HW1 7208   1.689   4.622   3.657
 2107SOL    HW2 7209   1.675   4.697   3.788
 2108SOL     OW 7210   0.328   3.786   2.496
 2108SOL    HW1 7211   0.307   3.875   2.524
 2108SOL    HW2 7212   0.331   3.736   2.578
 2109SOL     OW 7213   1.616   4.098   2.229
 2109SOL    HW1 7214   1.644   4.034   2.295
 2109SOL    HW2 7215   1.593   4.176   2.279
 2110SOL     OW 7216   1.028   4.483   2.823
 2110SOL    HW1 7217   1.024   4.501   2.917
 2110SOL    HW2 7218   1.001   4.392   2.814
 2111SOL     OW 7219   1.855   5.214   3.447
 2111SOL    HW1 7220   1.849   5.289   3.388
 2111SOL    HW2 7221   1.924   5.237   3.509
 2112SOL     OW 7222   0.354   4.643   3.668
 2112SOL    HW1 7223   0.435   4.660   3.716
 2112SOL    HW2 7224   0.379   4.577   3.602
 2113SOL     OW 7225   1.529   3.997   1.989
 2113SOL    HW1 7226   1.464   3.932   2.016
 2113SOL    HW2 7227   1.562   4.033   2.072
 2114SOL     OW 7228   1.292   4.550   1.893
 2114SOL    HW1 7229   1.335   4.465   1.897
 2114SOL    HW2 7230   1.323   4.589   1.811
 2115SOL     OW 7231   1.058   5.078   2.688
 2115SOL    HW1 7232   1.063   4.993   2.645
 2115SOL    HW2 7233   1.145   5.117   2.675
 2116SOL     OW 7234   0.315   4.533   2.811
 2116SOL    HW1 7235   0.409   4.551   2.807
 2116SOL    HW2 7236   0.308   4.443   2.844
 2117SOL     OW 7237   0.335   4.249   2.877
 2117SOL    HW1 7238   0.300   4.162   2.863
 2117SOL    HW2 7239   0.410   4.255   2.817
 2118SOL     OW 7240   1.134   4.100   3.544
 2118SOL    HW1 7241   1.086   4.155   3.606
 2118SOL    HW2 7242   1.222   4.138   3.540
 2119SOL     OW 7243   1.161   3.926   3.333
 2119SOL    HW1 7244   1.150   3.989   3.404
 2119SOL    HW2 7245   1.200   3.977   3.261
 2120SOL     OW 7246   0.002   5.048   2.069
 2120SOL    HW1 7247   5.226   5.037   2.013
 2120SOL    HW2 7248   0.014   4.963   2.112
 2121SOL     OW 7249   0.983   4.516   3.089
 2121SOL    HW1 7250   1.039   4.493   3.163
 2121SOL    HW2 7251   0.898   4.478   3.110
 2122SOL     OW 7252   0.033   4.283   2.977
 2122SOL    HW1 7253   0.120   4.260   2.944
 2122SOL    HW2 7254   0.037   4.267   3.071
 2123SOL     OW 7255   0.175   4.237   3.574
 2123SOL    HW1 7256   0.240   4.201   3.514
 2123SOL    HW2 7257   0.146   4.318   3.532
 2124SOL     OW 7258   1.377   4.663   3.520
 2124SOL    HW1 7259   1.397   4.756   3.518
 2124SOL    HW2 7260   1.373   4.636   3.428
 2125SOL     OW 7261   0.816   4.293   2.221
 2125SOL    HW1 7262   0.820   4.218   2.162
 2125SOL    HW2 7263   0.742   4.345   2.190
 2126SOL     OW 7264   1.642   4.325   3.048
 2126SOL    HW1 7265   1.632   4.266   3.123
 2126SOL    HW2 7266   1.729   4.305   3.014
 2127SOL     OW 7267   0.210   5.279   3.594
 2127SOL    HW1 7268   0.176   0.023   3.672
 2127SOL    HW2 7269   0.213   5.187   3.617
 2128SOL     OW 7270   0.701   4.174   3.122
 2128SOL    HW1 7271   0.648   4.100   3.092
 2128SOL    HW2 7272   0.697   4.237   3.050
 2129SOL     OW 7273   0.465   4.217   2.048
 2129SOL    HW1 7274   0.525   4.289   2.069
 2129SOL    HW2 7275   0.380   4.259   2.036
 2130SOL     OW 7276   0.151   4.861   3.334
 2130SOL    HW1 7277   0.147   4.812   3.416
 2130SOL    HW2 7278   0.161   4.794   3.266
 2131SOL     OW 7279   1.327   4.770   3.085
 2131SOL    HW1 7280   1.350   4.707   3.016
 2131SOL    HW2 7281   1.256   4.822   3.047
 2132SOL     OW 7282   1.310   4.582   2.168
 2132SOL    HW1 7283   1.235   4.550   2.218
 2132SOL    HW2 7284   1.286   4.567   2.077
 2133SOL     OW 7285   0.076   4.919   2.892
 2133SOL    HW1 7286   0.065   4.959   2.978
 2133SOL    HW2 7287   5.289   4.924   2.852
 2134SOL     OW 7288   0.751   0.038   3.571
 2134SOL    HW1 7289   0.659   0.061   3.580
 2134SOL    HW2 7290   0.773   0.061   3.480
 2135SOL     OW 7291   1.719   3.870   2.372
 2135SOL    HW1 7292   1.792   3.856   2.311
 2135SOL    HW2 7293   1.703   3.785   2.412
 2136SOL     OW 7294   1.277   4.650   2.534
 2136SOL    HW1 7295   1.350   4.588   2.541
 2136SOL    HW2 7296   1.311   4.721   2.481
 2137SOL     OW 7297   0.819   4.993   3.283
 2137SOL    HW1 7298   0.789   5.030   3.366
 2137SOL    HW2 7299   0.743   5.001   3.225
 2138SOL     OW 7300   1.841   3.897   2.829
 2138SOL    HW1 7301   1.870   3.810   2.802
 2138SOL    HW2 7302   1.754   3.907   2.789
 2139SOL     OW 7303   0.273   4.041   2.579
 2139SOL    HW1 7304   0.188   4.080   2.559
 2139SOL    HW2 7305   0.271   4.029   2.674
 2140SOL     OW 7306   0.825   4.728   3.233
 2140SOL    HW1 7307   0.870   4.721   3.149
 2140SOL    HW2 7308   0.828   4.821   3.255
 2141SOL     OW 7309   0.915   4.636   2.152
 2141SOL    HW1 7310   0.977   4.668   2.086
 2141SOL    HW2 7311   0.963   4.566   2.197
 2142SOL     OW 7312   0.366   5.028   3.362
 2142SOL    HW1 7313   0.366   5.098   3.297
 2142SOL    HW2 7314   0.291   4.973   3.338
 2143SOL     OW 7315   1.612   5.004   3.144
 2143SOL    HW1 7316   1.669   4.998   3.221
 2143SOL    HW2 7317   1.550   5.073   3.166
 2144SOL     OW 7318   1.054   4.833   2.573
 2144SOL    HW1 7319   0.982   4.782   2.609
 2144SOL    HW2 7320   1.116   4.768   2.540
 2145SOL     OW 7321   1.021   3.964   2.828
 2145SOL    HW1 7322   1.016   3.917   2.745
 2145SOL    HW2 7323   1.016   3.896   2.895
 2146SOL     OW 7324   1.722   4.116   3.242
 2146SOL    HW1 7325   1.794   4.179   3.241
 2146SOL    HW2 7326   1.752   4.044   3.186
 2147SOL     OW 7327   0.259   5.059   2.148
 2147SOL    HW1 7328   0.167   5.063   2.124
 2147SOL    HW2 7329   0.262   5.097   2.236
 2148SOL     OW 7330   0.116   4.742   3.581
 2148SOL    HW1 7331   0.044   4.704   3.633
 2148SOL    HW2 7332   0.195   4.709   3.623
 2149SOL     OW 7333   0.674   3.920   3.361
 2149SOL    HW1 7334   0.758   3.900   3.320
 2149SOL    HW2 7335   0.697   3.952   3.448
 2150SOL     OW 7336   0.082   4.074   1.903
 2150SOL    HW1 7337   0.002   4.026   1.880
 2150SOL    HW2 7338   0.098   4.131   1.828
 2151SOL     OW 7339   1.430   4.582   3.262
 2151SOL    HW1 7340   1.381   4.642   3.207
 2151SOL    HW2 7341   1.519   4.584   3.228
 2152SOL     OW 7342   0.056   3.857   2.105
 2152SOL    HW1 7343   0.055   3.952   2.097
 2152SOL    HW2 7344   0.145   3.832   2.083
 2153SOL     OW 7345   1.182   5.064   1.982
 2153SOL    HW1 7346   1.091   5.035   1.983
 2153SOL    HW2 7347   1.210   5.056   2.074
 2154SOL     OW 7348   0.619   4.555   3.297
 2154SOL    HW1 7349   0.676   4.630   3.281
 2154SOL    HW2 7350   0.680   4.481   3.305
 2155SOL     OW 7351   0.717   4.288   3.567
 2155SOL    HW1 7352   0.758   4.351   3.627
 2155SOL    HW2 7353   0.746   4.202   3.598
 2156SOL     OW 7354   1.473   4.923   3.493
 2156SOL    HW1 7355   1.460   4.936   3.587
 2156SOL    HW2 7356   1.567   4.937   3.480
 2157SOL     OW 7357   1.670   4.605   3.117
 2157SOL    HW1 7358   1.663   4.520   3.074
 2157SOL    HW2 7359   1.660   4.669   3.046
 2158SOL     OW 7360   1.217   4.043   2.320
 2158SOL    HW1 7361   1.280   3.972   2.311
 2158SOL    HW2 7362   1.246   4.092   2.397
 2159SOL     OW 7363   0.591   4.462   2.531
 2159SOL    HW1 7364   0.629   4.548   2.516
 2159SOL    HW2 7365   0.521   4.454   2.466
 2160SOL     OW 7366   1.763   4.085   3.512
 2160SOL    HW1 7367   1.746   4.100   3.419
 2160SOL    HW2 7368   1.691   4.029   3.541
 2161SOL     OW 7369   1.745   4.657   3.374
 2161SOL    HW1 7370   1.741   4.752   3.387
 2161SOL    HW2 7371   1.729   4.645   3.280
 2162SOL     OW 7372   0.849   5.094   1.881
 2162SOL    HW1 7373   0.830   5.095   1.975
 2162SOL    HW2 7374   0.866   5.186   1.860
 2163SOL     OW 7375   0.868   4.691   2.717
 2163SOL    HW1 7376   0.917   4.620   2.757
 2163SOL    HW2 7377   0.833   4.741   2.790
 2164SOL     OW 7378   1.080   4.713   1.951
 2164SOL    HW1 7379   1.057   4.763   1.873
 2164SOL    HW2 7380   1.154   4.659   1.925
 2165SOL     OW 7381   0.220   5.025   3.716
 2165SOL    HW1 7382   0.155   4.957   3.697
 2165SOL    HW2 7383   0.216   5.035   3.812
 2166SOL     OW 7384   0.082   4.929   2.517
 2166SOL    HW1 7385   0.101   4.908   2.609
 2166SOL    HW2 7386   0.168   4.940   2.477
 2167SOL     OW 7387   0.671   5.106   3.471
 2167SOL    HW1 7388   0.594   5.073   3.518
 2167SOL    HW2 7389   0.702   5.179   3.525
 2168SOL     OW 7390   1.813   3.908   3.100
 2168SOL    HW1 7391   1.822   3.814   3.113
 2168SOL    HW2 7392   1.822   3.919   3.005
 2169SOL     OW 7393   0.435   4.160   2.386
 2169SOL    HW1 7394   0.462   4.087   2.330
 2169SOL    HW2 7395   0.387   4.118   2.458
 2170SOL     OW 7396   1.707   5.224   2.981
 2170SOL    HW1 7397   1.633   5.207   2.922
 2170SOL    HW2 7398   1.714   5.144   3.034
 2171SOL     OW 7399   0.336   4.283   3.153
 2171SOL    HW1 7400   0.389   4.224   3.207
 2171SOL    HW2 7401   0.350   4.253   3.063
 2172SOL     OW 7402   1.432   3.950   2.980
 2172SOL    HW1 7403   1.457   3.869   3.025
 2172SOL    HW2 7404   1.380   3.998   3.044
 2173SOL     OW 7405   1.009   3.743   3.005
 2173SOL    HW1 7406   0.955   3.675   2.964
 2173SOL    HW2 7407   1.097   3.705   3.007
 2174SOL     OW 7408   0.804   5.047   2.146
 2174SOL    HW1 7409   0.742   4.976   2.165
 2174SOL    HW2 7410   0.857   5.054   2.225
 2175SOL     OW 7411   0.639   0.003   3.149
 2175SOL    HW1 7412   0.643   0.057   3.227
 2175SOL    HW2 7413   0.731   5.285   3.127
 2176SOL     OW 7414   1.352   3.778   2.027
 2176SOL    HW1 7415   1.380   3.714   1.961
 2176SOL    HW2 7416   1.265   3.748   2.053
 2177SOL     OW 7417   1.297   4.185   2.543
 2177SOL    HW1 7418   1.243   4.264   2.550
 2177SOL    HW2 7419   1.293   4.145   2.630
 2178SOL     OW 7420   1.587   3.926   2.740
 2178SOL    HW1 7421   1.526   3.947   2.811
 2178SOL    HW2 7422   1.586   4.005   2.684
 2179SOL     OW 7423   0.047   4.790   2.152
 2179SOL    HW1 7424   0.137   4.760   2.142
 2179SOL    HW2 7425   0.000   4.716   2.189
 2180SOL     OW 7426   0.234   4.356   3.840
 2180SOL    HW1 7427   0.160   4.324   3.891
 2180SOL    HW2 7428   0.219   4.321   3.752
 2181SOL     OW 7429   0.242   3.999   4.714
 2181SOL    HW1 7430   0.255   3.965   4.802
 2181SOL    HW2 7431   0.158   3.963   4.686
 2182SOL     OW 7432   5.298   4.122   4.377
 2182SOL    HW1 7433   5.205   4.144   4.383
 2182SOL    HW2 7434   5.299   4.031   4.346
 2183SOL     OW 7435   0.573   4.999   4.907
 2183SOL    HW1 7436   0.494   5.006   4.854
 2183SOL    HW2 7437   0.591   5.090   4.934
 2184SOL     OW 7438   1.555   5.232   4.413
 2184SOL    HW1 7439   1.535   5.229   4.506
 2184SOL    HW2 7440   1.476   5.268   4.373
 2185SOL     OW 7441   1.130   4.422   4.425
 2185SOL    HW1 7442   1.179   4.503   4.411
 2185SOL    HW2 7443   1.083   4.436   4.507
 2186SOL     OW 7444   1.766   4.330   3.953
 2186SOL    HW1 7445   1.746   4.322   3.860
 2186SOL    HW2 7446   1.731   4.250   3.992
 2187SOL     OW 7447   0.759   4.868   4.761
 2187SOL    HW1 7448   0.691   4.897   4.822
 2187SOL    HW2 7449   0.786   4.947   4.716
 2188SOL     OW 7450   0.867   4.499   5.546
 2188SOL    HW1 7451   0.855   4.571   5.608
 2188SOL    HW2 7452   0.890   4.542   5.464
 2189SOL     OW 7453   0.686   4.727   4.372
 2189SOL    HW1 7454   0.751   4.715   4.441
 2189SOL    HW2 7455   0.618   4.781   4.412
 2190SOL     OW 7456   0.708   4.872   5.536
 2190SOL    HW1 7457   0.756   4.951   5.560
 2190SOL    HW2 7458   0.625   4.904   5.501
 2191SOL     OW 7459   0.377   5.145   4.777
 2191SOL    HW1 7460   0.282   5.154   4.765
 2191SOL    HW2 7461   0.415   5.199   4.708
 2192SOL     OW 7462   1.455   5.220   5.071
 2192SOL    HW1 7463   1.509   5.293   5.103
 2192SOL    HW2 7464   1.388   5.209   5.139
 2193SOL     OW 7465   0.450   4.124   5.217
 2193SOL    HW1 7466   0.524   4.063   5.218
 2193SOL    HW2 7467   0.373   4.068   5.226
 2194SOL     OW 7468   1.612   4.172   4.464
 2194SOL    HW1 7469   1.537   4.195   4.409
 2194SOL    HW2 7470   1.627   4.250   4.518
 2195SOL     OW 7471   1.133   5.072   5.425
 2195SOL    HW1 7472   1.164   5.073   5.515
 2195SOL    HW2 7473   1.080   4.993   5.418
 2196SOL     OW 7474   0.212   5.151   4.256
 2196SOL    HW1 7475   0.251   5.231   4.291
 2196SOL    HW2 7476   0.133   5.137   4.307
 2197SOL     OW 7477   0.252   4.799   4.600
 2197SOL    HW1 7478   0.264   4.713   4.639
 2197SOL    HW2 7479   0.196   4.846   4.661
 2198SOL     OW 7480   0.583   4.706   3.859
 2198SOL    HW1 7481   0.630   4.754   3.790
 2198SOL    HW2 7482   0.624   4.735   3.940
 2199SOL     OW 7483   1.597   3.847   5.192
 2199SOL    HW1 7484   1.601   3.928   5.141
 2199SOL    HW2 7485   1.582   3.877   5.282
 2200SOL     OW 7486   0.127   4.356   4.302
 2200SOL    HW1 7487   0.088   4.274   4.333
 2200SOL    HW2 7488   0.099   4.421   4.367
 2201SOL     OW 7489   5.299   5.299   3.806
 2201SOL    HW1 7490   0.015   5.211   3.840
 2201SOL    HW2 7491   0.026   0.058   3.877
 2202SOL     OW 7492   1.689   4.642   4.364
 2202SOL    HW1 7493   1.772   4.600   4.343
 2202SOL    HW2 7494   1.667   4.693   4.286
 2203SOL     OW 7495   1.645   4.831   4.154
 2203SOL    HW1 7496   1.731   4.836   4.111
 2203SOL    HW2 7497   1.652   4.892   4.227
 2204SOL     OW 7498   0.130   4.472   5.310
 2204SOL    HW1 7499   0.225   4.486   5.312
 2204SOL    HW2 7500   0.092   4.559   5.323
 2205SOL     OW 7501   0.627   5.096   4.459
 2205SOL    HW1 7502   0.569   5.019   4.459
 2205SOL    HW2 7503   0.601   5.145   4.381
 2206SOL     OW 7504   1.289   4.954   5.150
 2206SOL    HW1 7505   1.323   4.889   5.089
 2206SOL    HW2 7506   1.348   4.952   5.224
 2207SOL     OW 7507   0.822   3.723   4.233
 2207SOL    HW1 7508   0.862   3.807   4.214
 2207SOL    HW2 7509   0.729   3.741   4.240
 2208SOL     OW 7510   0.177   4.668   5.006
 2208SOL    HW1 7511   0.267   4.637   4.992
 2208SOL    HW2 7512   0.134   4.654   4.921
 2209SOL     OW 7513   1.531   4.719   3.921
 2209SOL    HW1 7514   1.461   4.661   3.953
 2209SOL    HW2 7515   1.572   4.753   4.001
 2210SOL     OW 7516   0.336   3.977   5.541
 2210SOL    HW1 7517   0.383   4.060   5.553
 2210SOL    HW2 7518   0.249   3.994   5.576
 2211SOL     OW 7519   1.476   5.146   4.686
 2211SOL    HW1 7520   1.404   5.159   4.747
 2211SOL    HW2 7521   1.464   5.058   4.652
 2212SOL     OW 7522   0.596   4.445   3.990
 2212SOL    HW1 7523   0.603   4.526   3.939
 2212SOL    HW2 7524   0.531   4.465   4.058
 2213SOL     OW 7525   1.279   4.076   4.656
 2213SOL    HW1 7526   1.190   4.043   4.665
 2213SOL    HW2 7527   1.330   4.023   4.718
 2214SOL     OW 7528   0.792   4.341   5.176
 2214SOL    HW1 7529   0.765   4.318   5.264
 2214SOL    HW2 7530   0.752   4.275   5.120
 2215SOL     OW 7531   1.394   4.198   5.402
 2215SOL    HW1 7532   1.396   4.243   5.487
 2215SOL    HW2 7533   1.455   4.125   5.411
 2216SOL     OW 7534   0.955   4.612   5.307
 2216SOL    HW1 7535   1.009   4.541   5.271
 2216SOL    HW2 7536   0.907   4.645   5.231
 2217SOL     OW 7537   0.992   4.136   4.963
 2217SOL    HW1 7538   0.907   4.158   5.000
 2217SOL    HW2 7539   0.972   4.090   4.882
 2218SOL     OW 7540   1.051   4.422   4.150
 2218SOL    HW1 7541   1.066   4.415   4.244
 2218SOL    HW2 7542   0.968   4.376   4.136
 2219SOL     OW 7543   0.073   4.510   4.534
 2219SOL    HW1 7544   0.154   4.515   4.585
 2219SOL    HW2 7545   0.061   4.598   4.499
 2220SOL     OW 7546   0.893   4.072   3.918
 2220SOL    HW1 7547   0.933   4.134   3.857
 2220SOL    HW2 7548   0.908   3.987   3.879
 2221SOL     OW 7549   1.709   4.299   5.552
 2221SOL    HW1 7550   1.671   4.373   5.504
 2221SOL    HW2 7551   1.736   4.238   5.483
 2222SOL     OW 7552   1.377   4.864   4.263
 2222SOL    HW1 7553   1.458   4.850   4.215
 2222SOL    HW2 7554   1.327   4.925   4.210
 2223SOL     OW 7555   0.556   3.907   4.617
 2223SOL    HW1 7556   0.553   3.935   4.709
 2223SOL    HW2 7557   0.551   3.989   4.567
 2224SOL     OW 7558   1.023   5.169   4.194
 2224SOL    HW1 7559   0.946   5.225   4.189
 2224SOL    HW2 7560   1.038   5.158   4.288
 2225SOL     OW 7561   1.800   4.781   4.590
 2225SOL    HW1 7562   1.743   4.764   4.515
 2225SOL    HW2 7563   1.740   4.788   4.665
 2226SOL     OW 7564   1.250   5.239   5.248
 2226SOL    HW1 7565   1.214   5.173   5.306
 2226SOL    HW2 7566   1.179   5.259   5.187
 2227SOL     OW 7567   0.316   4.676   3.971
 2227SOL    HW1 7568   0.398   4.699   3.927
 2227SOL    HW2 7569   0.293   4.591   3.935
 2228SOL     OW 7570   1.478   4.466   4.451
 2228SOL    HW1 7571   1.469   4.423   4.536
 2228SOL    HW2 7572   1.555   4.521   4.460
 2229SOL     OW 7573   0.463   4.988   5.466
 2229SOL    HW1 7574   0.437   4.991   5.374
 2229SOL    HW2 7575   0.380   4.988   5.514
 2230SOL     OW 7576   1.068   0.180   3.931
 2230SOL    HW1 7577   1.080   0.106   3.991
 2230SOL    HW2 7578   1.104   0.149   3.848
 2231SOL     OW 7579   0.205   4.005   5.221
 2231SOL    HW1 7580   0.126   4.056   5.205
 2231SOL    HW2 7581   0.173   3.926   5.266
 2232SOL     OW 7582   1.623   5.101   3.831
 2232SOL    HW1 7583   1.620   5.177   3.774
 2232SOL    HW2 7584   1.555   5.043   3.798
 2233SOL     OW 7585   1.401   3.832   4.157
 2233SOL    HW1 7586   1.390   3.807   4.065
 2233SOL    HW2 7587   1.496   3.839   4.169
 2234SOL     OW 7588   0.386   4.420   4.203
 2234SOL    HW1 7589   0.415   4.329   4.212
 2234SOL    HW2 7590   0.293   4.417   4.223
 2235SOL     OW 7591   1.535   3.949   5.449
 2235SOL    HW1 7592   1.545   3.970   5.542
 2235SOL    HW2 7593   1.466   3.883   5.446
 2236SOL     OW 7594   0.633   3.847   3.829
 2236SOL    HW1 7595   0.704   3.783   3.841
 2236SOL    HW2 7596   0.585   3.815   3.753
 2237SOL     OW 7597   0.767   4.002   5.478
 2237SOL    HW1 7598   0.842   3.943   5.480
 2237SOL    HW2 7599   0.717   3.980   5.557
 2238SOL     OW 7600   1.341   4.312   5.156
 2238SOL    HW1 7601   1.371   4.281   5.241
 2238SOL    HW2 7602   1.376   4.401   5.148
 2239SOL     OW 7603   0.813   5.120   4.660
 2239SOL    HW1 7604   0.894   5.105   4.610
 2239SOL    HW2 7605   0.745   5.126   4.593
 2240SOL     OW 7606   0.928   4.234   4.627
 2240SOL    HW1 7607   0.904   4.225   4.535
 2240SOL    HW2 7608   0.959   4.146   4.652
 2241SOL     OW 7609   0.560   3.785   4.220
 2241SOL    HW1 7610   0.485   3.785   4.280
 2241SOL    HW2 7611   0.550   3.865   4.168
 2242SOL     OW 7612   1.428   4.924   3.763
 2242SOL    HW1 7613   1.458   4.848   3.813
 2242SOL    HW2 7614   1.340   4.941   3.796
 2243SOL     OW 7615   0.305   3.771   3.903
 2243SOL    HW1 7616   0.367   3.835   3.868
 2243SOL    HW2 7617   0.360   3.706   3.948
 2244SOL     OW 7618   0.939   3.970   4.184
 2244SOL    HW1 7619   0.912   4.012   4.102
 2244SOL    HW2 7620   1.034   3.985   4.188
 2245SOL     OW 7621   1.080   4.405   5.184
 2245SOL    HW1 7622   1.010   4.339   5.188
 2245SOL    HW2 7623   1.161   4.354   5.177
 2246SOL     OW 7624   1.264   5.267   4.502
 2246SOL    HW1 7625   1.221   0.048   4.475
 2246SOL    HW2 7626   1.308   5.290   4.585
 2247SOL     OW 7627   0.465   4.873   4.453
 2247SOL    HW1 7628   0.397   4.853   4.517
 2247SOL    HW2 7629   0.425   4.853   4.368
 2248SOL     OW 7630   1.023   4.266   3.747
 2248SOL    HW1 7631   0.981   4.349   3.726
 2248SOL    HW2 7632   1.089   4.288   3.813
 2249SOL     OW 7633   0.087   4.269   5.122
 2249SOL    HW1 7634   0.175   4.277   5.085
 2249SOL    HW2 7635   0.079   4.345   5.179
 2250SOL     OW 7636   0.560   3.952   4.890
 2250SOL    HW1 7637   0.598   3.871   4.927
 2250SOL    HW2 7638   0.469   3.950   4.918
 2251SOL     OW 7639   0.868   4.183   4.364
 2251SOL    HW1 7640   0.822   4.237   4.300
 2251SOL    HW2 7641   0.889   4.103   4.316
 2252SOL     OW 7642   1.016   3.777   4.475
 2252SOL    HW1 7643   0.957   3.770   4.400
 2252SOL    HW2 7644   0.994   3.702   4.530
 2253SOL     OW 7645   1.437   4.890   4.583
 2253SOL    HW1 7646   1.371   4.821   4.579
 2253SOL    HW2 7647   1.463   4.903   4.491
 2254SOL     OW 7648   1.466   4.329   4.701
 2254SOL    HW1 7649   1.416   4.248   4.705
 2254SOL    HW2 7650   1.526   4.323   4.776
 2255SOL     OW 7651   1.846   4.540   4.107
 2255SOL    HW1 7652   1.902   4.489   4.164
 2255SOL    HW2 7653   1.817   4.478   4.040
 2256SOL     OW 7654   0.483   5.144   3.878
 2256SOL    HW1 7655   0.420   5.094   3.930
 2256SOL    HW2 7656   0.481   5.102   3.791
 2257SOL     OW 7657   1.669   4.987   4.371
 2257SOL    HW1 7658   1.763   4.993   4.388
 2257SOL    HW2 7659   1.635   5.075   4.387
 2258SOL     OW 7660   1.394   4.296   3.795
 2258SOL    HW1 7661   1.333   4.276   3.867
 2258SOL    HW2 7662   1.479   4.264   3.826
 2259SOL     OW 7663   0.524   3.987   4.042
 2259SOL    HW1 7664   0.569   3.940   3.971
 2259SOL    HW2 7665   0.502   4.072   4.003
 2260SOL     OW 7666   1.751   4.960   5.300
 2260SOL    HW1 7667   1.837   4.918   5.299
 2260SOL    HW2 7668   1.770   5.053   5.313
 2261SOL     OW 7669   1.064   5.075   5.055
 2261SOL    HW1 7670   0.986   5.049   5.104
 2261SOL    HW2 7671   1.137   5.035   5.104
 2262SOL     OW 7672   1.126   4.926   4.832
 2262SOL    HW1 7673   1.075   4.967   4.902
 2262SOL    HW2 7674   1.081   4.951   4.751
 2263SOL     OW 7675   1.629   4.822   4.801
 2263SOL    HW1 7676   1.624   4.884   4.874
 2263SOL    HW2 7677   1.551   4.841   4.749
 2264SOL     OW 7678   0.919   3.820   5.121
 2264SOL    HW1 7679   0.941   3.802   5.030
 2264SOL    HW2 7680   0.998   3.860   5.157
 2265SOL     OW 7681   0.984   4.839   5.449
 2265SOL    HW1 7682   0.892   4.855   5.467
 2265SOL    HW2 7683   0.985   4.762   5.391
 2266SOL     OW 7684   0.703   4.781   4.097
 2266SOL    HW1 7685   0.693   4.766   4.191
 2266SOL    HW2 7686   0.781   4.731   4.073
 2267SOL     OW 7687   0.421   4.542   4.975
 2267SOL    HW1 7688   0.489   4.549   5.042
 2267SOL    HW2 7689   0.386   4.454   4.986
 2268SOL     OW 7690   1.265   4.101   4.999
 2268SOL    HW1 7691   1.298   4.178   5.045
 2268SOL    HW2 7692   1.175   4.123   4.976
 2269SOL     OW 7693   0.113   5.291   5.042
 2269SOL    HW1 7694   0.051   0.048   5.088
 2269SOL    HW2 7695   0.190   5.287   5.099
 2270SOL     OW 7696   0.344   4.828   4.211
 2270SOL    HW1 7697   0.350   4.906   4.157
 2270SOL    HW2 7698   0.351   4.755   4.149
 2271SOL     OW 7699   0.555   4.260   4.583
 2271SOL    HW1 7700   0.570   4.319   4.509
 2271SOL    HW2 7701   0.619   4.287   4.649
 2272SOL     OW 7702   1.260   5.077   4.109
 2272SOL    HW1 7703   1.316   5.144   4.148
 2272SOL    HW2 7704   1.172   5.099   4.139
 2273SOL     OW 7705   1.269   5.182   4.865
 2273SOL    HW1 7706   1.328   5.195   4.939
 2273SOL    HW2 7707   1.225   5.099   4.885
 2274SOL     OW 7708   1.582   4.347   4.203
 2274SOL    HW1 7709   1.535   4.401   4.267
 2274SOL    HW2 7710   1.627   4.409   4.146
 2275SOL     OW 7711   0.381   5.231   5.040
 2275SOL    HW1 7712   0.364   5.192   4.954
 2275SOL    HW2 7713   0.474   5.256   5.036
 2276SOL     OW 7714   0.414   4.467   5.326
 2276SOL    HW1 7715   0.474   4.513   5.268
 2276SOL    HW2 7716   0.453   4.380   5.339
 2277SOL     OW 7717   1.601   4.503   5.406
 2277SOL    HW1 7718   1.515   4.544   5.399
 2277SOL    HW2 7719   1.653   4.544   5.337
 2278SOL     OW 7720   0.996   3.847   5.479
 2278SOL    HW1 7721   1.051   3.919   5.451
 2278SOL    HW2 7722   1.044   3.768   5.454
 2279SOL     OW 7723   0.497   3.766   5.472
 2279SOL    HW1 7724   0.455   3.711   5.405
 2279SOL    HW2 7725   0.438   3.839   5.484
 2280SOL     OW 7726   0.586   4.597   4.756
 2280SOL    HW1 7727   0.614   4.688   4.754
 2280SOL    HW2 7728   0.529   4.591   4.833
 2281SOL     OW 7729   1.358   4.582   4.753
 2281SOL    HW1 7730   1.274   4.572   4.707
 2281SOL    HW2 7731   1.398   4.496   4.748
 2282SOL     OW 7732   1.205   4.253   3.991
 2282SOL    HW1 7733   1.213   4.174   4.046
 2282SOL    HW2 7734   1.162   4.317   4.048
 2283SOL     OW 7735   0.302   3.927   4.972
 2283SOL    HW1 7736   0.267   3.952   5.058
 2283SOL    HW2 7737   0.289   3.833   4.967
 2284SOL     OW 7738   0.045   5.022   5.000
 2284SOL    HW1 7739   0.074   4.972   5.076
 2284SOL    HW2 7740   0.044   5.113   5.029
 2285SOL     OW 7741   0.725   4.355   4.782
 2285SOL    HW1 7742   0.799   4.339   4.724
 2285SOL    HW2 7743   0.696   4.444   4.761
 2286SOL     OW 7744   1.734   4.684   5.576
 2286SOL    HW1 7745   1.688   4.622   5.519
 2286SOL    HW2 7746   1.675   4.697   5.650
 2287SOL     OW 7747   0.328   3.786   4.358
 2287SOL    HW1 7748   0.307   3.875   4.385
 2287SOL    HW2 7749   0.331   3.736   4.440
 2288SOL     OW 7750   1.616   4.098   4.091
 2288SOL    HW1 7751   1.643   4.034   4.158
 2288SOL    HW2 7752   1.593   4.176   4.141
 2289SOL     OW 7753   1.028   4.483   4.685
 2289SOL    HW1 7754   1.024   4.501   4.779
 2289SOL    HW2 7755   1.001   4.392   4.676
 2290SOL     OW 7756   1.855   5.214   5.309
 2290SOL    HW1 7757   1.849   5.289   5.250
 2290SOL    HW2 7758   1.924   5.237   5.371
 2291SOL     OW 7759   0.354   4.643   5.530
 2291SOL    HW1 7760   0.435   4.660   5.578
 2291SOL    HW2 7761   0.379   4.577   5.464
 2292SOL     OW 7762   1.529   3.997   3.851
 2292SOL    HW1 7763   1.464   3.932   3.878
 2292SOL    HW2 7764   1.562   4.033   3.934
 2293SOL     OW 7765   1.292   4.550   3.755
 2293SOL    HW1 7766   1.335   4.465   3.759
 2293SOL    HW2 7767   1.323   4.589   3.673
 2294SOL     OW 7768   1.058   5.078   4.550
 2294SOL    HW1 7769   1.063   4.993   4.507
 2294SOL    HW2 7770   1.145   5.117   4.537
 2295SOL     OW 7771   0.315   4.533   4.673
 2295SOL    HW1 7772   0.409   4.551   4.669
 2295SOL    HW2 7773   0.308   4.443   4.706
 2296SOL     OW 7774   0.335   4.249   4.739
 2296SOL    HW1 7775   0.300   4.162   4.725
 2296SOL    HW2 7776   0.410   4.255   4.679
 2297SOL     OW 7777   1.134   4.100   5.406
 2297SOL    HW1 7778   1.086   4.155   5.468
 2297SOL    HW2 7779   1.222   4.138   5.402
 2298SOL     OW 7780   1.161   3.927   5.194
 2298SOL    HW1 7781   1.150   3.989   5.266
 2298SOL    HW2 7782   1.200   3.978   5.123
 2299SOL     OW 7783   0.002   5.048   3.931
 2299SOL    HW1 7784   5.226   5.037   3.875
 2299SOL    HW2 7785   0.014   4.963   3.974
 2300SOL     OW 7786   0.983   4.516   4.951
 2300SOL    HW1 7787   1.039   4.493   5.025
 2300SOL    HW2 7788   0.898   4.478   4.972
 2301SOL     OW 7789   0.033   4.284   4.839
 2301SOL    HW1 7790   0.119   4.260   4.806
 2301SOL    HW2 7791   0.037   4.267   4.933
 2302SOL     OW 7792   0.175   4.237   5.436
 2302SOL    HW1 7793   0.240   4.200   5.376
 2302SOL    HW2 7794   0.146   4.318   5.394
 2303SOL     OW 7795   1.377   4.663   5.382
 2303SOL    HW1 7796   1.397   4.756   5.380
 2303SOL    HW2 7797   1.373   4.636   5.290
 2304SOL     OW 7798   0.816   4.293   4.083
 2304SOL    HW1 7799   0.820   4.218   4.024
 2304SOL    HW2 7800   0.742   4.345   4.052
 2305SOL     OW 7801   1.642   4.325   4.910
 2305SOL    HW1 7802   1.631   4.266   4.985
 2305SOL    HW2 7803   1.729   4.305   4.876
 2306SOL     OW 7804   0.210   5.279   5.456
 2306SOL    HW1 7805   0.176   0.023   5.534
 2306SOL    HW2 7806   0.213   5.187   5.479
 2307SOL     OW 7807   0.701   4.174   4.984
 2307SOL    HW1 7808   0.648   4.100   4.954
 2307SOL    HW2 7809   0.697   4.237   4.912
 2308SOL     OW 7810   0.465   4.217   3.910
 2308SOL    HW1 7811   0.525   4.289   3.931
 2308SOL    HW2 7812   0.380   4.259   3.898
 2309SOL     OW 7813   0.151   4.861   5.196
 2309SOL    HW1 7814   0.147   4.812   5.278
 2309SOL    HW2 7815   0.161   4.794   5.128
 2310SOL     OW 7816   1.327   4.770   4.946
 2310SOL    HW1 7817   1.350   4.707   4.878
 2310SOL    HW2 7818   1.256   4.822   4.909
 2311SOL     OW 7819   1.310   4.581   4.030
 2311SOL    HW1 7820   1.235   4.550   4.080
 2311SOL    HW2 7821   1.286   4.567   3.939
 2312SOL     OW 7822   0.076   4.919   4.754
 2312SOL    HW1 7823   0.065   4.959   4.840
 2312SOL    HW2 7824   5.289   4.924   4.714
 2313SOL     OW 7825   0.751   0.038   5.433
 2313SOL    HW1 7826   0.659   0.061   5.442
 2313SOL    HW2 7827   0.773   0.061   5.342
 2314SOL     OW 7828   1.720   3.869   4.234
 2314SOL    HW1 7829   1.792   3.855   4.173
 2314SOL    HW2 7830   1.705   3.783   4.274
 2315SOL     OW 7831   1.277   4.649   4.395
 2315SOL    HW1 7832   1.350   4.588   4.403
 2315SOL    HW2 7833   1.311   4.721   4.343
 2316SOL     OW 7834   0.819   4.993   5.145
 2316SOL    HW1 7835   0.789   5.030   5.228
 2316SOL    HW2 7836   0.743   5.001   5.087
 2317SOL     OW 7837   1.842   3.894   4.691
 2317SOL    HW1 7838   1.867   3.807   4.661
 2317SOL    HW2 7839   1.755   3.908   4.653
 2318SOL     OW 7840   0.272   4.041   4.441
 2318SOL    HW1 7841   0.188   4.080   4.420
 2318SOL    HW2 7842   0.271   4.029   4.536
 2319SOL     OW 7843   0.825   4.728   5.095
 2319SOL    HW1 7844   0.870   4.721   5.011
 2319SOL    HW2 7845   0.828   4.821   5.117
 2320SOL     OW 7846   0.915   4.636   4.014
 2320SOL    HW1 7847   0.977   4.668   3.948
 2320SOL    HW2 7848   0.963   4.566   4.059
 2321SOL     OW 7849   0.366   5.028   5.224
 2321SOL    HW1 7850   0.366   5.098   5.159
 2321SOL    HW2 7851   0.291   4.973   5.200
 2322SOL     OW 7852   1.613   5.004   5.006
 2322SOL    HW1 7853   1.669   4.998   5.083
 2322SOL    HW2 7854   1.550   5.073   5.028
 2323SOL     OW 7855   1.054   4.833   4.435
 2323SOL    HW1 7856   0.982   4.782   4.472
 2323SOL    HW2 7857   1.115   4.767   4.402
 2324SOL     OW 7858   1.022   3.964   4.690
 2324SOL    HW1 7859   1.016   3.917   4.607
 2324SOL    HW2 7860   1.016   3.897   4.757
 2325SOL     OW 7861   1.721   4.116   5.104
 2325SOL    HW1 7862   1.793   4.180   5.103
 2325SOL    HW2 7863   1.752   4.045   5.048
 2326SOL     OW 7864   0.259   5.060   4.010
 2326SOL    HW1 7865   0.166   5.063   3.986
 2326SOL    HW2 7866   0.262   5.097   4.098
 2327SOL     OW 7867   0.116   4.742   5.443
 2327SOL    HW1 7868   0.044   4.704   5.495
 2327SOL    HW2 7869   0.195   4.709   5.485
 2328SOL     OW 7870   0.674   3.920   5.223
 2328SOL    HW1 7871   0.758   3.900   5.182
 2328SOL    HW2 7872   0.697   3.952   5.311
 2329SOL     OW 7873   0.082   4.073   3.765
 2329SOL    HW1 7874   0.002   4.026   3.742
 2329SOL    HW2 7875   0.098   4.131   3.690
 2330SOL     OW 7876   1.430   4.582   5.124
 2330SOL    HW1 7877   1.381   4.642   5.068
 2330SOL    HW2 7878   1.519   4.584   5.090
 2331SOL     OW 7879   0.056   3.857   3.967
 2331SOL    HW1 7880   0.055   3.952   3.959
 2331SOL    HW2 7881   0.146   3.832   3.945
 2332SOL     OW 7882   1.182   5.064   3.845
 2332SOL    HW1 7883   1.091   5.035   3.845
 2332SOL    HW2 7884   1.210   5.056   3.936
 2333SOL     OW 7885   0.619   4.555   5.159
 2333SOL    HW1 7886   0.676   4.630   5.143
 2333SOL    HW2 7887   0.679   4.481   5.167
 2334SOL     OW 7888   0.718   4.288   5.429
 2334SOL    HW1 7889   0.758   4.350   5.489
 2334SOL    HW2 7890   0.746   4.202   5.460
 2335SOL     OW 7891   1.473   4.923   5.355
 2335SOL    HW1 7892   1.460   4.936   5.449
 2335SOL    HW2 7893   1.567   4.937   5.342
 2336SOL     OW 7894   1.670   4.605   4.979
 2336SOL    HW1 7895   1.663   4.520   4.936
 2336SOL    HW2 7896   1.660   4.669   4.908
 2337SOL     OW 7897   1.217   4.043   4.182
 2337SOL    HW1 7898   1.280   3.972   4.174
 2337SOL    HW2 7899   1.246   4.092   4.259
 2338SOL     OW 7900   0.591   4.462   4.393
 2338SOL    HW1 7901   0.629   4.548   4.378
 2338SOL    HW2 7902   0.521   4.454   4.328
 2339SOL     OW 7903   1.763   4.085   5.374
 2339SOL    HW1 7904   1.745   4.100   5.281
 2339SOL    HW2 7905   1.691   4.029   5.403
 2340SOL     OW 7906   1.745   4.657   5.236
 2340SOL    HW1 7907   1.741   4.752   5.249
 2340SOL    HW2 7908   1.729   4.645   5.142
 2341SOL     OW 7909   0.849   5.094   3.743
 2341SOL    HW1 7910   0.830   5.095   3.837
 2341SOL    HW2 7911   0.866   5.186   3.722
 2342SOL     OW 7912   0.868   4.691   4.579
 2342SOL    HW1 7913   0.917   4.620   4.619
 2342SOL    HW2 7914   0.833   4.741   4.652
 2343SOL     OW 7915   1.080   4.713   3.814
 2343SOL    HW1 7916   1.057   4.763   3.735
 2343SOL    HW2 7917   1.154   4.659   3.787
 2344SOL     OW 7918   0.220   5.025   5.578
 2344SOL    HW1 7919   0.155   4.957   5.559
 2344SOL    HW2 7920   0.216   5.035   5.674
 2345SOL     OW 7921   0.082   4.929   4.379
 2345SOL    HW1 7922   0.101   4.908   4.471
 2345SOL    HW2 7923   0.169   4.940   4.339
 2346SOL     OW 7924   0.671   5.106   5.333
 2346SOL    HW1 7925   0.594   5.073   5.380
 2346SOL    HW2 7926   0.702   5.179   5.387
 2347SOL     OW 7927   1.814   3.909   4.962
 2347SOL    HW1 7928   1.820   3.814   4.977
 2347SOL    HW2 7929   1.823   3.919   4.868
 2348SOL     OW 7930   0.435   4.160   4.248
 2348SOL    HW1 7931   0.462   4.087   4.192
 2348SOL    HW2 7932   0.387   4.118   4.320
 2349SOL     OW 7933   1.707   5.223   4.843
 2349SOL    HW1 7934   1.633   5.207   4.784
 2349SOL    HW2 7935   1.713   5.144   4.896
 2350SOL     OW 7936   0.336   4.283   5.015
 2350SOL    HW1 7937   0.389   4.224   5.069
 2350SOL    HW2 7938   0.350   4.253   4.925
 2351SOL     OW 7939   1.432   3.950   4.842
 2351SOL    HW1 7940   1.455   3.868   4.887
 2351SOL    HW2 7941   1.380   3.999   4.906
 2352SOL     OW 7942   1.009   3.743   4.866
 2352SOL    HW1 7943   0.954   3.675   4.827
 2352SOL    HW2 7944   1.097   3.705   4.869
 2353SOL     OW 7945   0.804   5.047   4.008
 2353SOL    HW1 7946   0.742   4.976   4.027
 2353SOL    HW2 7947   0.857   5.054   4.087
 2354SOL     OW 7948   0.639   0.003   5.011
 2354SOL    HW1 7949   0.643   0.057   5.089
 2354SOL    HW2 7950   0.731   5.285   4.989
 2355SOL     OW 7951   1.352   3.778   3.890
 2355SOL    HW1 7952   1.379   3.716   3.822
 2355SOL    HW2 7953   1.265   3.748   3.916
 2356SOL     OW 7954   1.297   4.185   4.405
 2356SOL    HW1 7955   1.243   4.264   4.412
 2356SOL    HW2 7956   1.293   4.145   4.492
 2357SOL     OW 7957   1.589   3.928   4.603
 2357SOL    HW1 7958   1.526   3.946   4.673
 2357SOL    HW2 7959   1.587   4.005   4.547
 2358SOL     OW 7960   0.047   4.790   4.014
 2358SOL    HW1 7961   0.137   4.759   4.004
 2358SOL    HW2 7962   0.000   4.716   4.052
 2359SOL     OW 7963   0.233   4.356   5.702
 2359SOL    HW1 7964   0.160   4.324   5.753
 2359SOL    HW2 7965   0.219   4.321   5.614
 2360SOL     OW 7966   0.242   3.999   6.576
 2360SOL    HW1 7967   0.256   3.965   6.664
 2360SOL    HW2 7968   0.158   3.963   6.548
 2361SOL     OW 7969   5.298   4.121   6.239
 2361SOL    HW1 7970   5.205   4.144   6.245
 2361SOL    HW2 7971   5.299   4.031   6.208
 2362SOL     OW 7972   0.573   5.000   6.769
 2362SOL    HW1 7973   0.494   5.006   6.716
 2362SOL    HW2 7974   0.592   5.090   6.795
 2363SOL     OW 7975   1.555   5.232   6.275
 2363SOL    HW1 7976   1.535   5.228   6.368
 2363SOL    HW2 7977   1.476   5.268   6.234
 2364SOL     OW 7978   1.130   4.422   6.287
 2364SOL    HW1 7979   1.179   4.503   6.273
 2364SOL    HW2 7980   1.083   4.436   6.369
 2365SOL     OW 7981   1.767   4.329   5.815
 2365SOL    HW1 7982   1.746   4.321   5.722
 2365SOL    HW2 7983   1.731   4.250   5.854
 2366SOL     OW 7984   0.758   4.867   6.623
 2366SOL    HW1 7985   0.691   4.897   6.684
 2366SOL    HW2 7986   0.786   4.947   6.578
 2367SOL     OW 7987   0.866   4.501   7.406
 2367SOL    HW1 7988   0.852   4.576   7.464
 2367SOL    HW2 7989   0.891   4.540   7.322
 2368SOL     OW 7990   0.686   4.727   6.234
 2368SOL    HW1 7991   0.751   4.715   6.303
 2368SOL    HW2 7992   0.618   4.781   6.274
 2369SOL     OW 7993   0.708   4.872   7.398
 2369SOL    HW1 7994   0.756   4.952   7.421
 2369SOL    HW2 7995   0.625   4.905   7.362
 2370SOL     OW 7996   0.377   5.145   6.639
 2370SOL    HW1 7997   0.282   5.155   6.627
 2370SOL    HW2 7998   0.415   5.199   6.570
 2371SOL     OW 7999   1.455   5.220   6.933
 2371SOL    HW1 8000   1.509   5.293   6.965
 2371SOL    HW2 8001   1.388   5.209   7.001
 2372SOL     OW 8002   0.450   4.124   7.080
 2372SOL    HW1 8003   0.525   4.064   7.081
 2372SOL    HW2 8004   0.373   4.068   7.089
 2373SOL     OW 8005   1.612   4.172   6.326
 2373SOL    HW1 8006   1.537   4.195   6.272
 2373SOL    HW2 8007   1.627   4.250   6.380
 2374SOL     OW 8008   1.133   5.072   7.285
 2374SOL    HW1 8009   1.165   5.071   7.375
 2374SOL    HW2 8010   1.079   4.993   7.279
 2375SOL     OW 8011   0.213   5.151   6.118
 2375SOL    HW1 8012   0.251   5.231   6.153
 2375SOL    HW2 8013   0.133   5.137   6.169
 2376SOL     OW 8014   0.252   4.799   6.462
 2376SOL    HW1 8015   0.264   4.713   6.501
 2376SOL    HW2 8016   0.196   4.846   6.523
 2377SOL     OW 8017   0.583   4.706   5.721
 2377SOL    HW1 8018   0.630   4.754   5.652
 2377SOL    HW2 8019   0.624   4.735   5.802
 2378SOL     OW 8020   1.596   3.847   7.054
 2378SOL    HW1 8021   1.602   3.928   7.003
 2378SOL    HW2 8022   1.582   3.877   7.144
 2379SOL     OW 8023   0.127   4.356   6.164
 2379SOL    HW1 8024   0.088   4.274   6.195
 2379SOL    HW2 8025   0.099   4.421   6.229
 2380SOL     OW 8026   5.299   5.299   5.668
 2380SOL    HW1 8027   0.015   5.211   5.702
 2380SOL    HW2 8028   0.026   0.058   5.739
 2381SOL     OW 8029   1.689   4.642   6.226
 2381SOL    HW1 8030   1.772   4.600   6.206
 2381SOL    HW2 8031   1.668   4.693   6.148
 2382SOL     OW 8032   1.645   4.831   6.015
 2382SOL    HW1 8033   1.731   4.836   5.973
 2382SOL    HW2 8034   1.652   4.892   6.089
 2383SOL     OW 8035   0.131   4.470   7.174
 2383SOL    HW1 8036   0.225   4.485   7.174
 2383SOL    HW2 8037   0.092   4.557   7.184
 2384SOL     OW 8038   0.626   5.096   6.321
 2384SOL    HW1 8039   0.569   5.019   6.321
 2384SOL    HW2 8040   0.601   5.145   6.243
 2385SOL     OW 8041   1.289   4.954   7.012
 2385SOL    HW1 8042   1.323   4.889   6.951
 2385SOL    HW2 8043   1.348   4.952   7.086
 2386SOL     OW 8044   0.822   3.723   6.095
 2386SOL    HW1 8045   0.862   3.808   6.076
 2386SOL    HW2 8046   0.729   3.742   6.102
 2387SOL     OW 8047   0.177   4.667   6.868
 2387SOL    HW1 8048   0.266   4.637   6.854
 2387SOL    HW2 8049   0.134   4.655   6.783
 2388SOL     OW 8050   1.531   4.719   5.783
 2388SOL    HW1 8051   1.461   4.661   5.815
 2388SOL    HW2 8052   1.572   4.753   5.863
 2389SOL     OW 8053   0.337   3.976   7.402
 2389SOL    HW1 8054   0.384   4.059   7.414
 2389SOL    HW2 8055   0.249   3.993   7.437
 2390SOL     OW 8056   1.476   5.146   6.548
 2390SOL    HW1 8057   1.403   5.159   6.609
 2390SOL    HW2 8058   1.464   5.058   6.514
 2391SOL     OW 8059   0.596   4.445   5.852
 2391SOL    HW1 8060   0.603   4.526   5.801
 2391SOL    HW2 8061   0.531   4.465   5.920
 2392SOL     OW 8062   1.279   4.076   6.518
 2392SOL    HW1 8063   1.190   4.043   6.527
 2392SOL    HW2 8064   1.330   4.023   6.580
 2393SOL     OW 8065   0.791   4.342   7.038
 2393SOL    HW1 8066   0.765   4.317   7.127
 2393SOL    HW2 8067   0.752   4.275   6.982
 2394SOL     OW 8068   1.394   4.198   7.263
 2394SOL    HW1 8069   1.396   4.242   7.348
 2394SOL    HW2 8070   1.454   4.125   7.273
 2395SOL     OW 8071   0.955   4.612   7.168
 2395SOL    HW1 8072   1.010   4.541   7.133
 2395SOL    HW2 8073   0.907   4.645   7.092
 2396SOL     OW 8074   0.992   4.137   6.825
 2396SOL    HW1 8075   0.906   4.158   6.862
 2396SOL    HW2 8076   0.972   4.090   6.744
 2397SOL     OW 8077   1.051   4.423   6.012
 2397SOL    HW1 8078   1.066   4.415   6.106
 2397SOL    HW2 8079   0.968   4.376   5.998
 2398SOL     OW 8080   0.072   4.510   6.397
 2398SOL    HW1 8081   0.153   4.515   6.447
 2398SOL    HW2 8082   0.061   4.597   6.360
 2399SOL     OW 8083   0.893   4.072   5.780
 2399SOL    HW1 8084   0.933   4.134   5.719
 2399SOL    HW2 8085   0.908   3.986   5.741
 2400SOL     OW 8086   1.709   4.300   7.415
 2400SOL    HW1 8087   1.671   4.374   7.368
 2400SOL    HW2 8088   1.736   4.238   7.347
 2401SOL     OW 8089   1.377   4.864   6.125
 2401SOL    HW1 8090   1.458   4.850   6.077
 2401SOL    HW2 8091   1.327   4.925   6.072
 2402SOL     OW 8092   0.556   3.907   6.479
 2402SOL    HW1 8093   0.553   3.935   6.571
 2402SOL    HW2 8094   0.551   3.989   6.429
 2403SOL     OW 8095   1.023   5.169   6.056
 2403SOL    HW1 8096   0.946   5.225   6.051
 2403SOL    HW2 8097   1.038   5.158   6.150
 2404SOL     OW 8098   1.800   4.781   6.452
 2404SOL    HW1 8099   1.743   4.764   6.377
 2404SOL    HW2 8100   1.740   4.788   6.527
 2405SOL     OW 8101   1.250   5.240   7.110
 2405SOL    HW1 8102   1.214   5.173   7.168
 2405SOL    HW2 8103   1.179   5.259   7.049
 2406SOL     OW 8104   0.316   4.676   5.833
 2406SOL    HW1 8105   0.398   4.699   5.789
 2406SOL    HW2 8106   0.293   4.590   5.797
 2407SOL     OW 8107   1.478   4.466   6.313
 2407SOL    HW1 8108   1.469   4.423   6.398
 2407SOL    HW2 8109   1.556   4.521   6.322
 2408SOL     OW 8110   0.462   4.988   7.329
 2408SOL    HW1 8111   0.437   4.991   7.237
 2408SOL    HW2 8112   0.379   4.988   7.377
 2409SOL     OW 8113   1.068   0.180   5.793
 2409SOL    HW1 8114   1.080   0.107   5.853
 2409SOL    HW2 8115   1.105   0.149   5.710
 2410SOL     OW 8116   0.205   4.005   7.084
 2410SOL    HW1 8117   0.125   4.055   7.066
 2410SOL    HW2 8118   0.173   3.925   7.127
 2411SOL     OW 8119   1.623   5.100   5.693
 2411SOL    HW1 8120   1.620   5.177   5.636
 2411SOL    HW2 8121   1.554   5.043   5.659
 2412SOL     OW 8122   1.401   3.832   6.019
 2412SOL    HW1 8123   1.391   3.807   5.927
 2412SOL    HW2 8124   1.496   3.838   6.031
 2413SOL     OW 8125   0.386   4.420   6.065
 2413SOL    HW1 8126   0.415   4.329   6.074
 2413SOL    HW2 8127   0.293   4.417   6.085
 2414SOL     OW 8128   1.535   3.949   7.311
 2414SOL    HW1 8129   1.544   3.970   7.404
 2414SOL    HW2 8130   1.467   3.882   7.309
 2415SOL     OW 8131   0.633   3.847   5.691
 2415SOL    HW1 8132   0.704   3.783   5.703
 2415SOL    HW2 8133   0.585   3.815   5.615
 2416SOL     OW 8134   0.766   4.001   7.339
 2416SOL    HW1 8135   0.842   3.943   7.341
 2416SOL    HW2 8136   0.722   3.986   7.423
 2417SOL     OW 8137   1.340   4.313   7.018
 2417SOL    HW1 8138   1.371   4.281   7.103
 2417SOL    HW2 8139   1.377   4.401   7.010
 2418SOL     OW 8140   0.813   5.120   6.522
 2418SOL    HW1 8141   0.894   5.105   6.472
 2418SOL    HW2 8142   0.745   5.126   6.455
 2419SOL     OW 8143   0.928   4.234   6.489
 2419SOL    HW1 8144   0.904   4.225   6.397
 2419SOL    HW2 8145   0.959   4.147   6.514
 2420SOL     OW 8146   0.560   3.785   6.082
 2420SOL    HW1 8147   0.485   3.785   6.142
 2420SOL    HW2 8148   0.549   3.865   6.030
 2421SOL     OW 8149   1.428   4.924   5.624
 2421SOL    HW1 8150   1.458   4.848   5.675
 2421SOL    HW2 8151   1.340   4.941   5.658
 2422SOL     OW 8152   0.305   3.771   5.765
 2422SOL    HW1 8153   0.367   3.835   5.730
 2422SOL    HW2 8154   0.360   3.706   5.810
 2423SOL     OW 8155   0.939   3.971   6.046
 2423SOL    HW1 8156   0.912   4.012   5.964
 2423SOL    HW2 8157   1.034   3.985   6.050
 2424SOL     OW 8158   1.080   4.404   7.046
 2424SOL    HW1 8159   1.011   4.338   7.050
 2424SOL    HW2 8160   1.161   4.355   7.039
 2425SOL     OW 8161   1.264   5.267   6.364
 2425SOL    HW1 8162   1.221   0.048   6.337
 2425SOL    HW2 8163   1.308   5.290   6.446
 2426SOL     OW 8164   0.465   4.873   6.315
 2426SOL    HW1 8165   0.397   4.853   6.379
 2426SOL    HW2 8166   0.425   4.853   6.230
 2427SOL     OW 8167   1.024   4.266   5.608
 2427SOL    HW1 8168   0.981   4.350   5.588
 2427SOL    HW2 8169   1.089   4.288   5.675
 2428SOL     OW 8170   0.088   4.268   6.985
 2428SOL    HW1 8171   0.175   4.276   6.947
 2428SOL    HW2 8172   0.079   4.345   7.042
 2429SOL     OW 8173   0.560   3.952   6.752
 2429SOL    HW1 8174   0.598   3.872   6.789
 2429SOL    HW2 8175   0.469   3.950   6.780
 2430SOL     OW 8176   0.868   4.183   6.226
 2430SOL    HW1 8177   0.822   4.237   6.161
 2430SOL    HW2 8178   0.889   4.103   6.178
 2431SOL     OW 8179   1.015   3.777   6.337
 2431SOL    HW1 8180   0.957   3.769   6.262
 2431SOL    HW2 8181   0.994   3.702   6.392
 2432SOL     OW 8182   1.437   4.890   6.445
 2432SOL    HW1 8183   1.371   4.821   6.441
 2432SOL    HW2 8184   1.463   4.903   6.353
 2433SOL     OW 8185   1.466   4.329   6.563
 2433SOL    HW1 8186   1.416   4.248   6.566
 2433SOL    HW2 8187   1.526   4.323   6.638
 2434SOL     OW 8188   1.846   4.540   5.969
 2434SOL    HW1 8189   1.902   4.489   6.027
 2434SOL    HW2 8190   1.817   4.477   5.902
 2435SOL     OW 8191   0.483   5.144   5.740
 2435SOL    HW1 8192   0.420   5.094   5.792
 2435SOL    HW2 8193   0.481   5.102   5.653
 2436SOL     OW 8194   1.669   4.987   6.233
 2436SOL    HW1 8195   1.763   4.993   6.250
 2436SOL    HW2 8196   1.635   5.075   6.249
 2437SOL     OW 8197   1.394   4.296   5.657
 2437SOL    HW1 8198   1.333   4.276   5.729
 2437SOL    HW2 8199   1.478   4.263   5.689
 2438SOL     OW 8200   0.524   3.987   5.903
 2438SOL    HW1 8201   0.569   3.940   5.833
 2438SOL    HW2 8202   0.502   4.072   5.865
 2439SOL     OW 8203   1.751   4.959   7.161
 2439SOL    HW1 8204   1.837   4.918   7.161
 2439SOL    HW2 8205   1.769   5.052   7.175
 2440SOL     OW 8206   1.065   5.075   6.917
 2440SOL    HW1 8207   0.986   5.049   6.966
 2440SOL    HW2 8208   1.137   5.035   6.966
 2441SOL     OW 8209   1.126   4.926   6.694
 2441SOL    HW1 8210   1.075   4.967   6.764
 2441SOL    HW2 8211   1.081   4.951   6.613
 2442SOL     OW 8212   1.629   4.823   6.663
 2442SOL    HW1 8213   1.624   4.884   6.736
 2442SOL    HW2 8214   1.550   4.841   6.611
 2443SOL     OW 8215   0.918   3.821   6.983
 2443SOL    HW1 8216   0.941   3.802   6.892
 2443SOL    HW2 8217   0.998   3.860   7.019
 2444SOL     OW 8218   0.985   4.838   7.313
 2444SOL    HW1 8219   0.892   4.855   7.329
 2444SOL    HW2 8220   0.985   4.762   7.254
 2445SOL     OW 8221   0.703   4.781   5.959
 2445SOL    HW1 8222   0.693   4.766   6.053
 2445SOL    HW2 8223   0.781   4.731   5.935
 2446SOL     OW 8224   0.421   4.542   6.837
 2446SOL    HW1 8225   0.490   4.549   6.904
 2446SOL    HW2 8226   0.386   4.454   6.848
 2447SOL     OW 8227   1.265   4.101   6.861
 2447SOL    HW1 8228   1.298   4.178   6.907
 2447SOL    HW2 8229   1.175   4.123   6.838
 2448SOL     OW 8230   0.113   5.290   6.904
 2448SOL    HW1 8231   0.052   0.048   6.950
 2448SOL    HW2 8232   0.190   5.287   6.961
 2449SOL     OW 8233   0.344   4.828   6.073
 2449SOL    HW1 8234   0.350   4.906   6.019
 2449SOL    HW2 8235   0.351   4.755   6.011
 2450SOL     OW 8236   0.555   4.260   6.445
 2450SOL    HW1 8237   0.570   4.319   6.371
 2450SOL    HW2 8238   0.619   4.287   6.511
 2451SOL     OW 8239   1.260   5.077   5.971
 2451SOL    HW1 8240   1.316   5.144   6.010
 2451SOL    HW2 8241   1.172   5.099   6.001
 2452SOL     OW 8242   1.269   5.182   6.727
 2452SOL    HW1 8243   1.328   5.195   6.801
 2452SOL    HW2 8244   1.225   5.099   6.747
 2453SOL     OW 8245   1.582   4.347   6.065
 2453SOL    HW1 8246   1.535   4.401   6.129
 2453SOL    HW2 8247   1.627   4.410   6.009
 2454SOL     OW 8248   0.382   5.231   6.902
 2454SOL    HW1 8249   0.364   5.192   6.816
 2454SOL    HW2 8250   0.474   5.256   6.898
 2455SOL     OW 8251   0.414   4.467   7.188
 2455SOL    HW1 8252   0.474   4.513   7.130
 2455SOL    HW2 8253   0.452   4.380   7.200
 2456SOL     OW 8254   1.601   4.503   7.268
 2456SOL    HW1 8255   1.515   4.544   7.260
 2456SOL    HW2 8256   1.653   4.544   7.200
 2457SOL     OW 8257   0.996   3.847   7.341
 2457SOL    HW1 8258   1.052   3.919   7.312
 2457SOL    HW2 8259   1.044   3.768   7.316
 2458SOL     OW 8260   0.498   3.765   7.333
 2458SOL    HW1 8261   0.456   3.711   7.266
 2458SOL    HW2 8262   0.439   3.839   7.345
 2459SOL     OW 8263   0.586   4.597   6.618
 2459SOL    HW1 8264   0.614   4.688   6.616
 2459SOL    HW2 8265   0.529   4.591   6.695
 2460SOL     OW 8266   1.358   4.582   6.615
 2460SOL    HW1 8267   1.274   4.572   6.569
 2460SOL    HW2 8268   1.398   4.496   6.610
 2461SOL     OW 8269   1.205   4.253   5.853
 2461SOL    HW1 8270   1.213   4.174   5.907
 2461SOL    HW2 8271   1.162   4.317   5.910
 2462SOL     OW 8272   0.302   3.927   6.834
 2462SOL    HW1 8273   0.267   3.952   6.920
 2462SOL    HW2 8274   0.289   3.833   6.829
 2463SOL     OW 8275   0.044   5.022   6.862
 2463SOL    HW1 8276   0.074   4.972   6.938
 2463SOL    HW2 8277   0.044   5.113   6.891
 2464SOL     OW 8278   0.725   4.355   6.644
 2464SOL    HW1 8279   0.799   4.339   6.586
 2464SOL    HW2 8280   0.697   4.444   6.623
 2465SOL     OW 8281   1.735   4.684   7.437
 2465SOL    HW1 8282   1.688   4.622   7.382
 2465SOL    HW2 8283   1.677   4.698   7.513
 2466SOL     OW 8284   0.328   3.786   6.220
 2466SOL    HW1 8285   0.307   3.875   6.248
 2466SOL    HW2 8286   0.331   3.736   6.302
 2467SOL     OW 8287   1.616   4.098   5.953
 2467SOL    HW1 8288   1.643   4.034   6.019
 2467SOL    HW2 8289   1.593   4.176   6.003
 2468SOL     OW 8290   1.028   4.483   6.547
 2468SOL    HW1 8291   1.024   4.501   6.641
 2468SOL    HW2 8292   1.001   4.392   6.539
 2469SOL     OW 8293   1.854   5.213   7.170
 2469SOL    HW1 8294   1.849   5.289   7.111
 2469SOL    HW2 8295   1.924   5.236   7.231
 2470SOL     OW 8296   0.354   4.641   7.393
 2470SOL    HW1 8297   0.436   4.660   7.439
 2470SOL    HW2 8298   0.378   4.577   7.326
 2471SOL     OW 8299   1.529   3.997   5.713
 2471SOL    HW1 8300   1.464   3.932   5.740
 2471SOL    HW2 8301   1.562   4.033   5.796
 2472SOL     OW 8302   1.292   4.550   5.617
 2472SOL    HW1 8303   1.335   4.465   5.621
 2472SOL    HW2 8304   1.323   4.589   5.535
 2473SOL     OW 8305   1.058   5.078   6.412
 2473SOL    HW1 8306   1.063   4.993   6.369
 2473SOL    HW2 8307   1.145   5.117   6.399
 2474SOL     OW 8308   0.315   4.533   6.535
 2474SOL    HW1 8309   0.409   4.550   6.531
 2474SOL    HW2 8310   0.308   4.443   6.568
 2475SOL     OW 8311   0.335   4.250   6.601
 2475SOL    HW1 8312   0.300   4.162   6.587
 2475SOL    HW2 8313   0.410   4.255   6.541
 2476SOL     OW 8314   1.135   4.100   7.267
 2476SOL    HW1 8315   1.087   4.155   7.329
 2476SOL    HW2 8316   1.222   4.138   7.263
 2477SOL     OW 8317   1.161   3.927   7.055
 2477SOL    HW1 8318   1.150   3.989   7.127
 2477SOL    HW2 8319   1.200   3.978   6.985
 2478SOL     OW 8320   0.002   5.048   5.793
 2478SOL    HW1 8321   5.226   5.037   5.737
 2478SOL    HW2 8322   0.014   4.963   5.836
 2479SOL     OW 8323   0.983   4.516   6.813
 2479SOL    HW1 8324   1.039   4.493   6.887
 2479SOL    HW2 8325   0.898   4.477   6.834
 2480SOL     OW 8326   0.033   4.284   6.701
 2480SOL    HW1 8327   0.119   4.260   6.668
 2480SOL    HW2 8328   0.037   4.267   6.795
 2481SOL     OW 8329   0.175   4.236   7.302
 2481SOL    HW1 8330   0.238   4.197   7.241
 2481SOL    HW2 8331   0.146   4.317   7.259
 2482SOL     OW 8332   1.376   4.663   7.245
 2482SOL    HW1 8333   1.397   4.756   7.242
 2482SOL    HW2 8334   1.373   4.637   7.153
 2483SOL     OW 8335   0.816   4.293   5.945
 2483SOL    HW1 8336   0.820   4.218   5.886
 2483SOL    HW2 8337   0.742   4.345   5.914
 2484SOL     OW 8338   1.642   4.325   6.772
 2484SOL    HW1 8339   1.632   4.266   6.847
 2484SOL    HW2 8340   1.729   4.305   6.738
 2485SOL     OW 8341   0.209   5.279   7.319
 2485SOL    HW1 8342   0.163   0.018   7.392
 2485SOL    HW2 8343   0.215   5.186   7.341
 2486SOL     OW 8344   0.701   4.175   6.846
 2486SOL    HW1 8345   0.648   4.100   6.817
 2486SOL    HW2 8346   0.697   4.237   6.774
 2487SOL     OW 8347   0.465   4.217   5.772
 2487SOL    HW1 8348   0.525   4.289   5.793
 2487SOL    HW2 8349   0.380   4.259   5.760
 2488SOL     OW 8350   0.151   4.861   7.058
 2488SOL    HW1 8351   0.147   4.811   7.140
 2488SOL    HW2 8352   0.161   4.794   6.990
 2489SOL     OW 8353   1.327   4.770   6.809
 2489SOL    HW1 8354   1.350   4.707   6.740
 2489SOL    HW2 8355   1.256   4.822   6.771
 2490SOL     OW 8356   1.310   4.582   5.892
 2490SOL    HW1 8357   1.235   4.550   5.942
 2490SOL    HW2 8358   1.286   4.567   5.801
 2491SOL     OW 8359   0.076   4.919   6.616
 2491SOL    HW1 8360   0.065   4.959   6.702
 2491SOL    HW2 8361   5.289   4.924   6.576
 2492SOL     OW 8362   0.751   0.036   7.296
 2492SOL    HW1 8363   0.659   0.061   7.305
 2492SOL    HW2 8364   0.774   0.061   7.207
 2493SOL     OW 8365   1.719   3.870   6.096
 2493SOL    HW1 8366   1.792   3.855   6.035
 2493SOL    HW2 8367   1.703   3.785   6.136
 2494SOL     OW 8368   1.277   4.650   6.258
 2494SOL    HW1 8369   1.350   4.588   6.265
 2494SOL    HW2 8370   1.311   4.721   6.205
 2495SOL     OW 8371   0.819   4.994   7.007
 2495SOL    HW1 8372   0.788   5.029   7.090
 2495SOL    HW2 8373   0.743   5.001   6.948
 2496SOL     OW 8374   1.841   3.897   6.553
 2496SOL    HW1 8375   1.870   3.810   6.526
 2496SOL    HW2 8376   1.754   3.907   6.513
 2497SOL     OW 8377   0.273   4.041   6.303
 2497SOL    HW1 8378   0.188   4.080   6.283
 2497SOL    HW2 8379   0.271   4.030   6.398
 2498SOL     OW 8380   0.824   4.728   6.957
 2498SOL    HW1 8381   0.870   4.720   6.873
 2498SOL    HW2 8382   0.828   4.821   6.978
 2499SOL     OW 8383   0.915   4.636   5.876
 2499SOL    HW1 8384   0.977   4.668   5.810
 2499SOL    HW2 8385   0.963   4.566   5.921
 2500SOL     OW 8386   0.365   5.029   7.087
 2500SOL    HW1 8387   0.366   5.098   7.021
 2500SOL    HW2 8388   0.291   4.973   7.062
 2501SOL     OW 8389   1.612   5.004   6.868
 2501SOL    HW1 8390   1.669   4.997   6.945
 2501SOL    HW2 8391   1.550   5.073   6.890
 2502SOL     OW 8392   1.054   4.833   6.297
 2502SOL    HW1 8393   0.982   4.782   6.334
 2502SOL    HW2 8394   1.116   4.768   6.264
 2503SOL     OW 8395   1.021   3.964   6.552
 2503SOL    HW1 8396   1.016   3.917   6.469
 2503SOL    HW2 8397   1.016   3.897   6.619
 2504SOL     OW 8398   1.722   4.116   6.967
 2504SOL    HW1 8399   1.794   4.179   6.965
 2504SOL    HW2 8400   1.751   4.045   6.910
 2505SOL     OW 8401   0.259   5.059   5.872
 2505SOL    HW1 8402   0.166   5.063   5.848
 2505SOL    HW2 8403   0.262   5.097   5.960
 2506SOL     OW 8404   0.116   4.742   7.305
 2506SOL    HW1 8405   0.044   4.705   7.357
 2506SOL    HW2 8406   0.195   4.708   7.348
 2507SOL     OW 8407   0.674   3.920   7.085
 2507SOL    HW1 8408   0.758   3.900   7.044
 2507SOL    HW2 8409   0.697   3.950   7.173
 2508SOL     OW 8410   0.082   4.074   5.627
 2508SOL    HW1 8411   0.003   4.026   5.604
 2508SOL    HW2 8412   0.098   4.131   5.552
 2509SOL     OW 8413   1.430   4.582   6.987
 2509SOL    HW1 8414   1.381   4.643   6.931
 2509SOL    HW2 8415   1.519   4.584   6.953
 2510SOL     OW 8416   0.056   3.857   5.829
 2510SOL    HW1 8417   0.055   3.952   5.821
 2510SOL    HW2 8418   0.145   3.832   5.808
 2511SOL     OW 8419   1.182   5.064   5.707
 2511SOL    HW1 8420   1.091   5.035   5.707
 2511SOL    HW2 8421   1.210   5.056   5.798
 2512SOL     OW 8422   0.619   4.555   7.022
 2512SOL    HW1 8423   0.676   4.630   7.005
 2512SOL    HW2 8424   0.679   4.481   7.029
 2513SOL     OW 8425   0.717   4.288   7.291
 2513SOL    HW1 8426   0.758   4.349   7.352
 2513SOL    HW2 8427   0.746   4.202   7.322
 2514SOL     OW 8428   1.473   4.923   7.218
 2514SOL    HW1 8429   1.460   4.936   7.312
 2514SOL    HW2 8430   1.567   4.937   7.204
 2515SOL     OW 8431   1.670   4.605   6.841
 2515SOL    HW1 8432   1.663   4.520   6.799
 2515SOL    HW2 8433   1.660   4.669   6.770
 2516SOL     OW 8434   1.217   4.043   6.044
 2516SOL    HW1 8435   1.280   3.972   6.035
 2516SOL    HW2 8436   1.246   4.092   6.121
 2517SOL     OW 8437   0.591   4.462   6.255
 2517SOL    HW1 8438   0.629   4.548   6.239
 2517SOL    HW2 8439   0.521   4.454   6.190
 2518SOL     OW 8440   1.762   4.086   7.237
 2518SOL    HW1 8441   1.746   4.101   7.144
 2518SOL    HW2 8442   1.690   4.029   7.265
 2519SOL     OW 8443   1.745   4.657   7.098
 2519SOL    HW1 8444   1.740   4.752   7.111
 2519SOL    HW2 8445   1.729   4.645   7.004
 2520SOL     OW 8446   0.849   5.094   5.605
 2520SOL    HW1 8447   0.830   5.095   5.699
 2520SOL    HW2 8448   0.866   5.186   5.584
 2521SOL     OW 8449   0.868   4.691   6.441
 2521SOL    HW1 8450   0.917   4.619   6.481
 2521SOL    HW2 8451   0.833   4.741   6.514
 2522SOL     OW 8452   1.080   4.713   5.675
 2522SOL    HW1 8453   1.057   4.763   5.597
 2522SOL    HW2 8454   1.154   4.659   5.649
 2523SOL     OW 8455   0.219   5.024   7.442
 2523SOL    HW1 8456   0.155   4.957   7.420
 2523SOL    HW2 8457   0.210   5.036   7.537
 2524SOL     OW 8458   0.082   4.929   6.241
 2524SOL    HW1 8459   0.101   4.908   6.333
 2524SOL    HW2 8460   0.168   4.940   6.201
 2525SOL     OW 8461   0.671   5.105   7.195
 2525SOL    HW1 8462   0.593   5.073   7.242
 2525SOL    HW2 8463   0.702   5.179   7.248
 2526SOL     OW 8464   1.813   3.909   6.824
 2526SOL    HW1 8465   1.823   3.815   6.838
 2526SOL    HW2 8466   1.822   3.919   6.729
 2527SOL     OW 8467   0.435   4.160   6.110
 2527SOL    HW1 8468   0.462   4.087   6.054
 2527SOL    HW2 8469   0.387   4.118   6.182
 2528SOL     OW 8470   1.707   5.224   6.705
 2528SOL    HW1 8471   1.633   5.207   6.646
 2528SOL    HW2 8472   1.713   5.144   6.758
 2529SOL     OW 8473   0.336   4.283   6.877
 2529SOL    HW1 8474   0.389   4.224   6.931
 2529SOL    HW2 8475   0.350   4.253   6.787
 2530SOL     OW 8476   1.432   3.949   6.704
 2530SOL    HW1 8477   1.457   3.869   6.750
 2530SOL    HW2 8478   1.380   3.998   6.768
 2531SOL     OW 8479   1.009   3.743   6.728
 2531SOL    HW1 8480   0.954   3.675   6.689
 2531SOL    HW2 8481   1.097   3.705   6.731
 2532SOL     OW 8482   0.804   5.047   5.870
 2532SOL    HW1 8483   0.742   4.976   5.889
 2532SOL    HW2 8484   0.857   5.054   5.949
 2533SOL     OW 8485   0.639   0.003   6.873
 2533SOL    HW1 8486   0.644   0.057   6.952
 2533SOL    HW2 8487   0.731   5.285   6.851
 2534SOL     OW 8488   1.352   3.778   5.751
 2534SOL    HW1 8489   1.380   3.714   5.685
 2534SOL    HW2 8490   1.265   3.748   5.778
 2535SOL     OW 8491   1.297   4.185   6.267
 2535SOL    HW1 8492   1.243   4.264   6.274
 2535SOL    HW2 8493   1.293   4.145   6.354
 2536SOL     OW 8494   1.587   3.926   6.464
 2536SOL    HW1 8495   1.526   3.946   6.535
 2536SOL    HW2 8496   1.586   4.004   6.409
 2537SOL     OW 8497   0.047   4.790   5.876
 2537SOL    HW1 8498   0.137   4.759   5.866
 2537SOL    HW2 8499   0.000   4.716   5.913
 2538SOL     OW 8500   0.230   4.355   7.566
 2538SOL    HW1 8501   0.155   4.315   7.611
 2538SOL    HW2 8502   0.222   4.325   7.475
 2539SOL     OW 8503   1.767   4.322   7.679
 2539SOL    HW1 8504   1.747   4.318   7.586
 2539SOL    HW2 8505   1.726   4.244   7.717
 2540SOL     OW 8506   0.279   0.133   7.958
 2540SOL    HW1 8507   0.242   0.210   7.999
 2540SOL    HW2 8508   0.287   0.156   7.865
 2541SOL     OW 8509   0.225   5.158   7.990
 2541SOL    HW1 8510   0.233   5.253   7.995
 2541SOL    HW2 8511   0.156   5.136   8.053
 2542SOL     OW 8512   0.583   4.707   7.581
 2542SOL    HW1 8513   0.629   4.755   7.512
 2542SOL    HW2 8514   0.624   4.736   7.662
 2543SOL     OW 8515   0.002   5.298   7.524
 2543SOL    HW1 8516   0.016   5.211   7.561
 2543SOL    HW2 8517   0.019   0.058   7.596
 2544SOL     OW 8518   1.682   4.591   8.034
 2544SOL    HW1 8519   1.763   4.602   0.005
 2544SOL    HW2 8520   1.671   4.675   7.990
 2545SOL     OW 8521   1.656   4.825   7.876
 2545SOL    HW1 8522   1.744   4.844   7.844
 2545SOL    HW2 8523   1.636   4.896   7.938
 2546SOL     OW 8524   0.800   3.719   7.938
 2546SOL    HW1 8525   0.849   3.799   7.922
 2546SOL    HW2 8526   0.709   3.748   7.948
 2547SOL     OW 8527   1.532   4.721   7.648
 2547SOL    HW1 8528   1.466   4.660   7.681
 2547SOL    HW2 8529   1.576   4.754   7.726
 2548SOL     OW 8530   0.589   4.448   7.708
 2548SOL    HW1 8531   0.596   4.529   7.659
 2548SOL    HW2 8532   0.534   4.470   7.783
 2549SOL     OW 8533   0.053   4.541   0.203
 2549SOL    HW1 8534   0.124   4.488   0.166
 2549SOL    HW2 8535   0.031   4.603   0.133
 2550SOL     OW 8536   0.882   4.070   7.637
 2550SOL    HW1 8537   0.926   4.131   7.578
 2550SOL    HW2 8538   0.915   3.984   7.614
 2551SOL     OW 8539   0.318   4.673   7.693
 2551SOL    HW1 8540   0.399   4.698   7.650
 2551SOL    HW2 8541   0.295   4.589   7.653
 2552SOL     OW 8542   1.084   0.192   7.647
 2552SOL    HW1 8543   1.066   0.125   7.713
 2552SOL    HW2 8544   1.095   0.143   7.565
 2553SOL     OW 8545   1.626   5.100   7.551
 2553SOL    HW1 8546   1.612   5.180   7.500
 2553SOL    HW2 8547   1.557   5.041   7.522
 2554SOL     OW 8548   1.416   3.855   7.864
 2554SOL    HW1 8549   1.403   3.820   7.776
 2554SOL    HW2 8550   1.510   3.853   7.878
 2555SOL     OW 8551   0.379   4.424   7.922
 2555SOL    HW1 8552   0.399   4.330   7.927
 2555SOL    HW2 8553   0.286   4.429   7.941
 2556SOL     OW 8554   0.627   3.844   7.559
 2556SOL    HW1 8555   0.704   3.787   7.568
 2556SOL    HW2 8556   0.584   3.813   7.479
 2557SOL     OW 8557   0.527   3.799   7.961
 2557SOL    HW1 8558   0.440   3.804   8.000
 2557SOL    HW2 8559   0.528   3.869   7.896
 2558SOL     OW 8560   1.428   4.925   7.488
 2558SOL    HW1 8561   1.458   4.850   7.539
 2558SOL    HW2 8562   1.340   4.943   7.521
 2559SOL     OW 8563   0.306   3.768   7.619
 2559SOL    HW1 8564   0.368   3.832   7.585
 2559SOL    HW2 8565   0.361   3.705   7.667
 2560SOL     OW 8566   0.944   3.949   7.911
 2560SOL    HW1 8567   0.900   4.014   7.856
 2560SOL    HW2 8568   1.035   3.979   7.914
 2561SOL     OW 8569   0.448   4.883   0.090
 2561SOL    HW1 8570   0.375   4.902   0.150
 2561SOL    HW2 8571   0.405   4.863   0.006
 2562SOL     OW 8572   1.026   4.266   7.467
 2562SOL    HW1 8573   0.981   4.349   7.450
 2562SOL    HW2 8574   1.086   4.286   7.538
 2563SOL     OW 8575   1.870   4.541   7.802
 2563SOL    HW1 8576   1.868   4.511   7.893
 2563SOL    HW2 8577   1.831   4.469   7.752
 2564SOL     OW 8578   0.477   5.147   7.602
 2564SOL    HW1 8579   0.417   5.095   7.656
 2564SOL    HW2 8580   0.480   5.100   7.518
 2565SOL     OW 8581   1.394   4.296   7.519
 2565SOL    HW1 8582   1.333   4.276   7.590
 2565SOL    HW2 8583   1.478   4.262   7.550
 2566SOL     OW 8584   0.527   3.989   7.770
 2566SOL    HW1 8585   0.570   3.939   7.701
 2566SOL    HW2 8586   0.503   4.072   7.729
 2567SOL     OW 8587   0.706   4.781   7.815
 2567SOL    HW1 8588   0.690   4.771   7.909
 2567SOL    HW2 8589   0.787   4.732   7.799
 2568SOL     OW 8590   0.347   4.818   7.928
 2568SOL    HW1 8591   0.342   4.902   7.882
 2568SOL    HW2 8592   0.348   4.753   7.858
 2569SOL     OW 8593   1.226   5.115   7.831
 2569SOL    HW1 8594   1.311   5.124   7.873
 2569SOL    HW2 8595   1.175   5.061   7.892
 2570SOL     OW 8596   1.587   4.352   7.921
 2570SOL    HW1 8597   1.574   4.411   7.995
 2570SOL    HW2 8598   1.627   4.407   7.854
 2571SOL     OW 8599   1.204   4.251   7.716
 2571SOL    HW1 8600   1.207   4.167   7.762
 2571SOL    HW2 8601   1.177   4.314   7.782
 2572SOL     OW 8602   1.619   4.103   7.814
 2572SOL    HW1 8603   1.640   4.036   7.879
 2572SOL    HW2 8604   1.593   4.179   7.866
 2573SOL     OW 8605   1.529   3.999   7.575
 2573SOL    HW1 8606   1.464   3.933   7.601
 2573SOL    HW2 8607   1.562   4.034   7.658
 2574SOL     OW 8608   1.294   4.551   7.481
 2574SOL    HW1 8609   1.336   4.465   7.483
 2574SOL    HW2 8610   1.324   4.591   7.399
 2575SOL     OW 8611   0.004   5.051   7.655
 2575SOL    HW1 8612   5.225   5.043   7.602
 2575SOL    HW2 8613   0.017   4.964   7.693
 2576SOL     OW 8614   0.839   4.324   7.761
 2576SOL    HW1 8615   0.831   4.232   7.734
 2576SOL    HW2 8616   0.749   4.356   7.762
 2577SOL     OW 8617   0.462   4.217   7.639
 2577SOL    HW1 8618   0.523   4.289   7.654
 2577SOL    HW2 8619   0.377   4.259   7.624
 2578SOL     OW 8620   1.310   4.578   7.755
 2578SOL    HW1 8621   1.223   4.577   7.794
 2578SOL    HW2 8622   1.294   4.566   7.661
 2579SOL     OW 8623   1.711   3.870   7.947
 2579SOL    HW1 8624   1.789   3.862   7.892
 2579SOL    HW2 8625   1.714   3.792   8.003
 2580SOL     OW 8626   0.926   4.635   7.756
 2580SOL    HW1 8627   0.980   4.660   7.681
 2580SOL    HW2 8628   0.921   4.539   7.751
 2581SOL     OW 8629   0.259   5.061   7.745
 2581SOL    HW1 8630   0.167   5.068   7.720
 2581SOL    HW2 8631   0.264   5.099   7.832
 2582SOL     OW 8632   0.081   4.066   7.488
 2582SOL    HW1 8633   5.298   4.025   7.463
 2582SOL    HW2 8634   0.099   4.128   7.418
 2583SOL     OW 8635   0.081   3.860   7.737
 2583SOL    HW1 8636   0.066   3.948   7.702
 2583SOL    HW2 8637   0.154   3.825   7.686
 2584SOL     OW 8638   1.181   5.059   7.564
 2584SOL    HW1 8639   1.089   5.034   7.562
 2584SOL    HW2 8640   1.200   5.073   7.657
 2585SOL     OW 8641   1.215   4.042   7.903
 2585SOL    HW1 8642   1.288   3.981   7.892
 2585SOL    HW2 8643   1.236   4.089   7.984
 2586SOL     OW 8644   0.624   4.465   8.047
 2586SOL    HW1 8645   0.629   4.542   0.023
 2586SOL    HW2 8646   0.532   4.460   8.020
 2587SOL     OW 8647   0.851   5.094   7.466
 2587SOL    HW1 8648   0.833   5.094   7.560
 2587SOL    HW2 8649   0.865   5.186   7.444
 2588SOL     OW 8650   1.074   4.704   7.538
 2588SOL    HW1 8651   1.054   4.759   7.463
 2588SOL    HW2 8652   1.152   4.654   7.511
 2589SOL     OW 8653   0.393   4.155   7.979
 2589SOL    HW1 8654   0.437   4.095   7.918
 2589SOL    HW2 8655   0.436   4.139   8.063
 2590SOL     OW 8656   0.806   5.047   7.731
 2590SOL    HW1 8657   0.748   4.974   7.750
 2590SOL    HW2 8658   0.825   5.086   7.816
 2591SOL     OW 8659   1.352   3.777   7.610
 2591SOL    HW1 8660   1.381   3.710   7.547
 2591SOL    HW2 8661   1.266   3.747   7.638
 2592SOL     OW 8662   0.049   4.792   7.724
 2592SOL    HW1 8663   0.138   4.758   7.723
 2592SOL    HW2 8664   0.001   4.731   7.780
 2593SOL     OW 8665   2.080   0.624   0.120
 2593SOL    HW1 8666   2.001   0.589   0.162
 2593SOL    HW2 8667   2.105   0.557   0.057
 2594SOL     OW 8668   2.080   0.284   0.993
 2594SOL    HW1 8669   2.109   0.249   1.077
 2594SOL    HW2 8670   1.995   0.243   0.978
 2595SOL     OW 8671   1.866   0.386   0.638
 2595SOL    HW1 8672   1.782   0.408   0.678
 2595SOL    HW2 8673   1.848   0.308   0.586
 2596SOL     OW 8674   2.429   1.287   1.175
 2596SOL    HW1 8675   2.341   1.291   1.137
 2596SOL    HW2 8676   2.444   1.376   1.208
 2597SOL     OW 8677   3.423   1.512   0.707
 2597SOL    HW1 8678   3.380   1.492   0.790
 2597SOL    HW2 8679   3.351   1.515   0.644
 2598SOL     OW 8680   2.993   0.698   0.702
 2598SOL    HW1 8681   3.042   0.779   0.687
 2598SOL    HW2 8682   2.946   0.713   0.784
 2599SOL     OW 8683   3.633   0.599   0.231
 2599SOL    HW1 8684   3.590   0.604   0.146
 2599SOL    HW2 8685   3.592   0.525   0.275
 2600SOL     OW 8686   2.617   1.142   1.040
 2600SOL    HW1 8687   2.549   1.177   1.097
 2600SOL    HW2 8688   2.653   1.219   0.996
 2601SOL     OW 8689   2.728   0.777   1.822
 2601SOL    HW1 8690   2.716   0.849   1.885
 2601SOL    HW2 8691   2.752   0.820   1.740
 2602SOL     OW 8692   2.547   1.002   0.649
 2602SOL    HW1 8693   2.612   0.991   0.718
 2602SOL    HW2 8694   2.478   1.055   0.691
 2603SOL     OW 8695   2.572   1.151   1.812
 2603SOL    HW1 8696   2.620   1.229   1.838
 2603SOL    HW2 8697   2.489   1.184   1.777
 2604SOL     OW 8698   2.192   1.426   1.068
 2604SOL    HW1 8699   2.120   1.388   1.018
 2604SOL    HW2 8700   2.242   1.476   1.004
 2605SOL     OW 8701   3.323   1.499   1.354
 2605SOL    HW1 8702   3.373   1.580   1.363
 2605SOL    HW2 8703   3.262   1.500   1.428
 2606SOL     OW 8704   2.306   0.398   1.486
 2606SOL    HW1 8705   2.381   0.339   1.484
 2606SOL    HW2 8706   2.230   0.341   1.501
 2607SOL     OW 8707   3.473   0.451   0.738
 2607SOL    HW1 8708   3.394   0.473   0.687
 2607SOL    HW2 8709   3.490   0.530   0.790
 2608SOL     OW 8710   2.082   1.716   0.472
 2608SOL    HW1 8711   2.104   1.792   0.526
 2608SOL    HW2 8712   2.156   1.706   0.412
 2609SOL     OW 8713   2.998   1.342   1.693
 2609SOL    HW1 8714   3.039   1.336   1.779
 2609SOL    HW2 8715   2.946   1.262   1.686
 2610SOL     OW 8716   2.089   1.441   0.530
 2610SOL    HW1 8717   2.074   1.535   0.535
 2610SOL    HW2 8718   2.030   1.404   0.596
 2611SOL     OW 8719   2.119   1.090   0.891
 2611SOL    HW1 8720   2.116   1.003   0.932
 2611SOL    HW2 8721   2.061   1.144   0.945
 2612SOL     OW 8722   2.474   1.790   1.430
 2612SOL    HW1 8723   2.391   1.774   1.476
 2612SOL    HW2 8724   2.497   1.880   1.454
 2613SOL     OW 8725   2.490   0.961   0.133
 2613SOL    HW1 8726   2.440   1.038   0.108
 2613SOL    HW2 8727   2.541   0.990   0.209
 2614SOL     OW 8728   3.448   0.135   1.456
 2614SOL    HW1 8729   3.470   0.220   1.417
 2614SOL    HW2 8730   3.446   0.152   1.551
 2615SOL     OW 8731   1.976   0.651   0.562
 2615SOL    HW1 8732   1.948   0.562   0.583
 2615SOL    HW2 8733   1.969   0.699   0.644
 2616SOL     OW 8734   3.707   1.758   0.332
 2616SOL    HW1 8735   3.771   1.728   0.396
 2616SOL    HW2 8736   3.732   1.849   0.314
 2617SOL     OW 8737   1.892   1.596   0.111
 2617SOL    HW1 8738   1.878   1.507   0.145
 2617SOL    HW2 8739   1.875   1.653   0.186
 2618SOL     OW 8740   3.551   0.919   0.644
 2618SOL    HW1 8741   3.633   0.876   0.621
 2618SOL    HW2 8742   3.528   0.970   0.566
 2619SOL     OW 8743   3.508   1.105   0.434
 2619SOL    HW1 8744   3.588   1.119   0.385
 2619SOL    HW2 8745   3.513   1.167   0.507
 2620SOL     OW 8746   1.984   0.744   1.584
 2620SOL    HW1 8747   2.076   0.769   1.593
 2620SOL    HW2 8748   1.936   0.826   1.593
 2621SOL     OW 8749   2.475   1.386   0.735
 2621SOL    HW1 8750   2.430   1.302   0.744
 2621SOL    HW2 8751   2.460   1.412   0.644
 2622SOL     OW 8752   3.151   1.238   1.424
 2622SOL    HW1 8753   3.183   1.171   1.363
 2622SOL    HW2 8754   3.208   1.232   1.500
 2623SOL     OW 8755   2.673   0.027   0.529
 2623SOL    HW1 8756   2.702   0.113   0.499
 2623SOL    HW2 8757   2.578   0.031   0.523
 2624SOL     OW 8758   2.052   0.967   1.271
 2624SOL    HW1 8759   2.137   0.925   1.256
 2624SOL    HW2 8760   1.989   0.911   1.224
 2625SOL     OW 8761   3.373   1.006   0.212
 2625SOL    HW1 8762   3.311   0.941   0.244
 2625SOL    HW2 8763   3.424   1.031   0.288
 2626SOL     OW 8764   3.047   1.806   1.622
 2626SOL    HW1 8765   3.057   1.865   1.548
 2626SOL    HW2 8766   3.063   1.719   1.586
 2627SOL     OW 8767   2.189   0.266   1.811
 2627SOL    HW1 8768   2.240   0.342   1.839
 2627SOL    HW2 8769   2.103   0.280   1.850
 2628SOL     OW 8770   3.328   1.419   0.951
 2628SOL    HW1 8771   3.260   1.434   1.017
 2628SOL    HW2 8772   3.316   1.328   0.925
 2629SOL     OW 8773   3.521   1.740   0.581
 2629SOL    HW1 8774   3.500   1.712   0.492
 2629SOL    HW2 8775   3.496   1.666   0.637
 2630SOL     OW 8776   2.460   0.714   0.283
 2630SOL    HW1 8777   2.478   0.791   0.228
 2630SOL    HW2 8778   2.394   0.744   0.346
 2631SOL     OW 8779   3.139   0.346   0.932
 2631SOL    HW1 8780   3.049   0.318   0.944
 2631SOL    HW2 8781   3.189   0.296   0.996
 2632SOL     OW 8782   3.448   1.671   0.319
 2632SOL    HW1 8783   3.539   1.700   0.312
 2632SOL    HW2 8784   3.422   1.654   0.229
 2633SOL     OW 8785   2.656   0.618   1.450
 2633SOL    HW1 8786   2.629   0.597   1.539
 2633SOL    HW2 8787   2.614   0.552   1.396
 2634SOL     OW 8788   3.257   0.475   1.678
 2634SOL    HW1 8789   3.259   0.520   1.763
 2634SOL    HW2 8790   3.320   0.404   1.687
 2635SOL     OW 8791   2.817   0.888   1.582
 2635SOL    HW1 8792   2.872   0.817   1.547
 2635SOL    HW2 8793   2.769   0.921   1.506
 2636SOL     OW 8794   2.856   0.417   1.235
 2636SOL    HW1 8795   2.771   0.438   1.274
 2636SOL    HW2 8796   2.835   0.368   1.156
 2637SOL     OW 8797   2.914   0.698   0.427
 2637SOL    HW1 8798   2.929   0.691   0.522
 2637SOL    HW2 8799   2.832   0.652   0.413
 2638SOL     OW 8800   1.951   0.821   0.776
 2638SOL    HW1 8801   2.032   0.814   0.827
 2638SOL    HW2 8802   1.908   0.899   0.811
 2639SOL     OW 8803   1.988   1.850   1.579
 2639SOL    HW1 8804   1.989   1.828   1.672
 2639SOL    HW2 8805   1.897   1.837   1.551
 2640SOL     OW 8806   2.749   0.359   0.203
 2640SOL    HW1 8807   2.792   0.406   0.132
 2640SOL    HW2 8808   2.730   0.272   0.166
 2641SOL     OW 8809   3.570   0.575   1.828
 2641SOL    HW1 8810   3.533   0.648   1.780
 2641SOL    HW2 8811   3.599   0.514   1.760
 2642SOL     OW 8812   3.238   1.142   0.542
 2642SOL    HW1 8813   3.316   1.128   0.488
 2642SOL    HW2 8814   3.185   1.204   0.492
 2643SOL     OW 8815   2.387   0.201   0.883
 2643SOL    HW1 8816   2.410   0.217   0.975
 2643SOL    HW2 8817   2.410   0.282   0.838
 2644SOL     OW 8818   2.868   1.445   0.473
 2644SOL    HW1 8819   2.829   1.517   0.423
 2644SOL    HW2 8820   2.849   1.466   0.564
 2645SOL     OW 8821   2.216   1.808   0.860
 2645SOL    HW1 8822   2.260   1.723   0.869
 2645SOL    HW2 8823   2.284   1.872   0.879
 2646SOL     OW 8824   3.661   1.057   0.868
 2646SOL    HW1 8825   3.607   1.038   0.792
 2646SOL    HW2 8826   3.599   1.063   0.941
 2647SOL     OW 8827   3.090   1.539   1.513
 2647SOL    HW1 8828   3.076   1.466   1.573
 2647SOL    HW2 8829   3.027   1.524   1.442
 2648SOL     OW 8830   2.189   0.943   0.254
 2648SOL    HW1 8831   2.260   0.982   0.203
 2648SOL    HW2 8832   2.186   0.851   0.226
 2649SOL     OW 8833   3.340   0.743   0.727
 2649SOL    HW1 8834   3.331   0.699   0.811
 2649SOL    HW2 8835   3.418   0.798   0.736
 2650SOL     OW 8836   2.328   1.265   1.738
 2650SOL    HW1 8837   2.301   1.270   1.646
 2650SOL    HW2 8838   2.246   1.263   1.787
 2651SOL     OW 8839   2.969   1.781   0.224
 2651SOL    HW1 8840   2.914   1.740   0.291
 2651SOL    HW2 8841   2.990   1.710   0.163
 2652SOL     OW 8842   2.059   0.278   1.502
 2652SOL    HW1 8843   1.980   0.331   1.498
 2652SOL    HW2 8844   2.051   0.229   1.585
 2653SOL     OW 8845   3.496   1.373   0.082
 2653SOL    HW1 8846   3.454   1.459   0.082
 2653SOL    HW2 8847   3.424   1.312   0.064
 2654SOL     OW 8848   2.327   1.739   0.322
 2654SOL    HW1 8849   2.371   1.794   0.387
 2654SOL    HW2 8850   2.397   1.709   0.264
 2655SOL     OW 8851   3.277   0.099   0.446
 2655SOL    HW1 8852   3.268   0.079   0.353
 2655SOL    HW2 8853   3.368   0.127   0.456
 2656SOL     OW 8854   2.118   1.792   1.232
 2656SOL    HW1 8855   2.170   1.727   1.278
 2656SOL    HW2 8856   2.109   1.757   1.143
 2657SOL     OW 8857   2.800   1.698   0.900
 2657SOL    HW1 8858   2.878   1.647   0.920
 2657SOL    HW2 8859   2.756   1.648   0.831
 2658SOL     OW 8860   2.248   0.698   0.476
 2658SOL    HW1 8861   2.273   0.606   0.487
 2658SOL    HW2 8862   2.155   0.700   0.500
 2659SOL     OW 8863   3.401   0.228   1.723
 2659SOL    HW1 8864   3.408   0.245   1.817
 2659SOL    HW2 8865   3.326   0.169   1.716
 2660SOL     OW 8866   2.487   0.137   0.124
 2660SOL    HW1 8867   2.578   0.109   0.134
 2660SOL    HW2 8868   2.459   0.098   0.041
 2661SOL     OW 8869   2.643   0.313   1.767
 2661SOL    HW1 8870   2.701   0.236   1.768
 2661SOL    HW2 8871   2.594   0.306   1.849
 2662SOL     OW 8872   2.737   1.520   1.194
 2662SOL    HW1 8873   2.723   1.485   1.106
 2662SOL    HW2 8874   2.808   1.467   1.230
 2663SOL     OW 8875   3.203   0.589   1.432
 2663SOL    HW1 8876   3.233   0.558   1.517
 2663SOL    HW2 8877   3.239   0.677   1.425
 2664SOL     OW 8878   2.677   1.395   0.939
 2664SOL    HW1 8879   2.761   1.384   0.895
 2664SOL    HW2 8880   2.613   1.396   0.868
 2665SOL     OW 8881   2.789   0.510   0.903
 2665SOL    HW1 8882   2.765   0.502   0.810
 2665SOL    HW2 8883   2.821   0.423   0.927
 2666SOL     OW 8884   2.404   0.062   0.511
 2666SOL    HW1 8885   2.317   0.060   0.552
 2666SOL    HW2 8886   2.398   0.131   0.446
 2667SOL     OW 8887   3.296   1.199   0.036
 2667SOL    HW1 8888   3.319   1.125   0.092
 2667SOL    HW2 8889   3.207   1.223   0.065
 2668SOL     OW 8890   2.162   0.069   0.205
 2668SOL    HW1 8891   2.219   0.139   0.173
 2668SOL    HW2 8892   2.215   5.290   0.197
 2669SOL     OW 8893   2.806   0.257   0.454
 2669SOL    HW1 8894   2.779   0.303   0.375
 2669SOL    HW2 8895   2.899   0.279   0.465
 2670SOL     OW 8896   2.943   0.681   1.460
 2670SOL    HW1 8897   2.874   0.615   1.465
 2670SOL    HW2 8898   3.024   0.631   1.453
 2671SOL     OW 8899   3.085   1.570   0.794
 2671SOL    HW1 8900   3.102   1.637   0.728
 2671SOL    HW2 8901   3.153   1.584   0.860
 2672SOL     OW 8902   2.330   1.151   0.734
 2672SOL    HW1 8903   2.261   1.130   0.797
 2672SOL    HW2 8904   2.289   1.134   0.649
 2673SOL     OW 8905   3.130   1.794   0.607
 2673SOL    HW1 8906   3.179   1.857   0.554
 2673SOL    HW2 8907   3.064   1.846   0.652
 2674SOL     OW 8908   2.891   0.529   0.031
 2674SOL    HW1 8909   2.852   0.610   0.001
 2674SOL    HW2 8910   2.955   0.556   0.097
 2675SOL     OW 8911   1.941   0.553   1.393
 2675SOL    HW1 8912   2.032   0.553   1.365
 2675SOL    HW2 8913   1.935   0.624   1.457
 2676SOL     OW 8914   2.418   0.238   1.158
 2676SOL    HW1 8915   2.449   0.152   1.186
 2676SOL    HW2 8916   2.326   0.239   1.185
 2677SOL     OW 8917   2.729   0.460   0.639
 2677SOL    HW1 8918   2.687   0.515   0.573
 2677SOL    HW2 8919   2.751   0.379   0.594
 2678SOL     OW 8920   2.838   0.062   0.763
 2678SOL    HW1 8921   2.775   0.055   0.691
 2678SOL    HW2 8922   2.850   5.271   0.792
 2679SOL     OW 8923   3.299   1.163   0.857
 2679SOL    HW1 8924   3.230   1.096   0.856
 2679SOL    HW2 8925   3.323   1.174   0.765
 2680SOL     OW 8926   3.329   0.606   0.978
 2680SOL    HW1 8927   3.279   0.524   0.981
 2680SOL    HW2 8928   3.389   0.600   1.052
 2681SOL     OW 8929   3.710   0.815   0.387
 2681SOL    HW1 8930   3.762   0.762   0.448
 2681SOL    HW2 8931   3.679   0.753   0.321
 2682SOL     OW 8932   2.344   1.439   0.173
 2682SOL    HW1 8933   2.272   1.397   0.220
 2682SOL    HW2 8934   2.351   1.390   0.091
 2683SOL     OW 8935   3.533   1.265   0.648
 2683SOL    HW1 8936   3.627   1.269   0.661
 2683SOL    HW2 8937   3.502   1.354   0.668
 2684SOL     OW 8938   3.261   0.578   0.087
 2684SOL    HW1 8939   3.198   0.559   0.157
 2684SOL    HW2 8940   3.316   0.500   0.083
 2685SOL     OW 8941   2.385   0.268   0.329
 2685SOL    HW1 8942   2.426   0.212   0.262
 2685SOL    HW2 8943   2.369   0.351   0.284
 2686SOL     OW 8944   3.615   1.239   1.573
 2686SOL    HW1 8945   3.702   1.200   1.569
 2686SOL    HW2 8946   3.630   1.329   1.602
 2687SOL     OW 8947   2.921   1.354   1.334
 2687SOL    HW1 8948   2.846   1.322   1.385
 2687SOL    HW2 8949   2.997   1.312   1.375
 2688SOL     OW 8950   3.469   1.625   1.654
 2688SOL    HW1 8951   3.464   1.660   1.565
 2688SOL    HW2 8952   3.553   1.578   1.656
 2689SOL     OW 8953   2.991   1.203   1.106
 2689SOL    HW1 8954   2.931   1.241   1.170
 2689SOL    HW2 8955   2.958   1.235   1.022
 2690SOL     OW 8956   3.490   1.098   1.077
 2690SOL    HW1 8957   3.486   1.160   1.150
 2690SOL    HW2 8958   3.411   1.115   1.026
 2691SOL     OW 8959   2.766   0.106   1.390
 2691SOL    HW1 8960   2.797   0.072   1.305
 2691SOL    HW2 8961   2.844   0.148   1.428
 2692SOL     OW 8962   2.846   1.115   1.723
 2692SOL    HW1 8963   2.754   1.130   1.743
 2692SOL    HW2 8964   2.845   1.037   1.667
 2693SOL     OW 8965   2.577   1.063   0.380
 2693SOL    HW1 8966   2.559   1.045   0.472
 2693SOL    HW2 8967   2.654   1.011   0.360
 2694SOL     OW 8968   2.280   0.815   1.252
 2694SOL    HW1 8969   2.349   0.824   1.318
 2694SOL    HW2 8970   2.245   0.727   1.265
 2695SOL     OW 8971   3.129   0.379   1.272
 2695SOL    HW1 8972   3.162   0.456   1.319
 2695SOL    HW2 8973   3.039   0.401   1.250
 2696SOL     OW 8974   1.933   1.573   1.353
 2696SOL    HW1 8975   1.903   1.646   1.298
 2696SOL    HW2 8976   2.028   1.576   1.347
 2697SOL     OW 8977   2.207   1.110   0.492
 2697SOL    HW1 8978   2.213   1.182   0.429
 2697SOL    HW2 8979   2.215   1.031   0.438
 2698SOL     OW 8980   2.415   0.538   0.861
 2698SOL    HW1 8981   2.431   0.596   0.786
 2698SOL    HW2 8982   2.481   0.564   0.925
 2699SOL     OW 8983   3.109   1.347   0.394
 2699SOL    HW1 8984   3.165   1.419   0.422
 2699SOL    HW2 8985   3.022   1.370   0.425
 2700SOL     OW 8986   3.143   1.457   1.147
 2700SOL    HW1 8987   3.199   1.460   1.225
 2700SOL    HW2 8988   3.088   1.380   1.159
 2701SOL     OW 8989   3.445   0.625   0.481
 2701SOL    HW1 8990   3.395   0.675   0.546
 2701SOL    HW2 8991   3.479   0.692   0.421
 2702SOL     OW 8992   2.209   1.527   1.315
 2702SOL    HW1 8993   2.196   1.485   1.231
 2702SOL    HW2 8994   2.303   1.539   1.322
 2703SOL     OW 8995   2.276   0.744   1.602
 2703SOL    HW1 8996   2.338   0.789   1.544
 2703SOL    HW2 8997   2.317   0.660   1.620
 2704SOL     OW 8998   3.463   0.779   1.682
 2704SOL    HW1 8999   3.377   0.820   1.675
 2704SOL    HW2 9000   3.515   0.821   1.613
 2705SOL     OW 9001   2.907   0.116   1.784
 2705SOL    HW1 9002   2.931   0.196   1.737
 2705SOL    HW2 9003   2.912   0.047   1.719
 2706SOL     OW 9004   2.345   0.057   1.738
 2706SOL    HW1 9005   2.287   5.292   1.698
 2706SOL    HW2 9006   2.287   0.131   1.760
 2707SOL     OW 9007   2.445   0.873   1.031
 2707SOL    HW1 9008   2.476   0.963   1.031
 2707SOL    HW2 9009   2.389   0.867   1.108
 2708SOL     OW 9010   3.220   0.859   1.030
 2708SOL    HW1 9011   3.137   0.850   0.982
 2708SOL    HW2 9012   3.260   0.772   1.025
 2709SOL     OW 9013   3.066   0.527   0.270
 2709SOL    HW1 9014   3.073   0.447   0.323
 2709SOL    HW2 9015   3.023   0.590   0.328
 2710SOL     OW 9016   2.159   0.204   1.247
 2710SOL    HW1 9017   2.119   0.243   1.325
 2710SOL    HW2 9018   2.158   0.110   1.265
 2711SOL     OW 9019   1.908   1.311   1.276
 2711SOL    HW1 9020   1.941   1.256   1.348
 2711SOL    HW2 9021   1.915   1.400   1.310
 2712SOL     OW 9022   2.588   0.632   1.060
 2712SOL    HW1 9023   2.661   0.615   1.001
 2712SOL    HW2 9024   2.559   0.720   1.037
 2713SOL     OW 9025   3.596   0.959   1.852
 2713SOL    HW1 9026   3.551   0.898   1.795
 2713SOL    HW2 9027   3.537   0.973   1.926
 2714SOL     OW 9028   2.163   0.071   0.651
 2714SOL    HW1 9029   2.147   0.165   0.658
 2714SOL    HW2 9030   2.208   0.048   0.732
 2715SOL     OW 9031   3.483   0.378   0.368
 2715SOL    HW1 9032   3.510   0.312   0.431
 2715SOL    HW2 9033   3.457   0.453   0.421
 2716SOL     OW 9034   2.889   0.759   0.961
 2716SOL    HW1 9035   2.886   0.777   1.055
 2716SOL    HW2 9036   2.863   0.668   0.953
 2717SOL     OW 9037   2.843   1.566   1.717
 2717SOL    HW1 9038   2.829   1.610   1.633
 2717SOL    HW2 9039   2.887   1.484   1.693
 2718SOL     OW 9040   3.717   1.506   1.605
 2718SOL    HW1 9041   3.735   1.532   1.515
 2718SOL    HW2 9042   3.798   1.525   1.652
 2719SOL     OW 9043   2.215   0.916   1.808
 2719SOL    HW1 9044   2.297   0.935   1.854
 2719SOL    HW2 9045   2.240   0.854   1.740
 2720SOL     OW 9046   3.383   0.302   0.126
 2720SOL    HW1 9047   3.346   0.215   0.141
 2720SOL    HW2 9048   3.423   0.325   0.210
 2721SOL     OW 9049   3.157   0.824   0.022
 2721SOL    HW1 9050   3.195   0.738   0.039
 2721SOL    HW2 9051   3.216   0.865   8.038
 2722SOL     OW 9052   2.927   1.336   0.854
 2722SOL    HW1 9053   2.930   1.263   0.792
 2722SOL    HW2 9054   2.989   1.400   0.819
 2723SOL     OW 9055   2.171   0.809   0.947
 2723SOL    HW1 9056   2.264   0.830   0.941
 2723SOL    HW2 9057   2.169   0.719   0.980
 2724SOL     OW 9058   2.194   0.526   1.012
 2724SOL    HW1 9059   2.158   0.439   0.997
 2724SOL    HW2 9060   2.271   0.530   0.955
 2725SOL     OW 9061   2.997   0.378   1.688
 2725SOL    HW1 9062   2.950   0.432   1.750
 2725SOL    HW2 9063   3.085   0.417   1.684
 2726SOL     OW 9064   2.995   0.222   1.466
 2726SOL    HW1 9065   3.000   0.281   1.541
 2726SOL    HW2 9066   3.051   0.264   1.400
 2727SOL     OW 9067   1.873   1.324   0.190
 2727SOL    HW1 9068   1.786   1.338   0.152
 2727SOL    HW2 9069   1.871   1.234   0.222
 2728SOL     OW 9070   1.952   1.788   0.937
 2728SOL    HW1 9071   1.922   1.708   0.894
 2728SOL    HW2 9072   2.042   1.799   0.907
 2729SOL     OW 9073   2.358   1.573   0.905
 2729SOL    HW1 9074   2.426   1.635   0.929
 2729SOL    HW2 9075   2.402   1.509   0.849
 2730SOL     OW 9076   2.845   0.793   1.227
 2730SOL    HW1 9077   2.901   0.769   1.301
 2730SOL    HW2 9078   2.760   0.755   1.248
 2731SOL     OW 9079   1.897   0.544   1.117
 2731SOL    HW1 9080   1.977   0.529   1.066
 2731SOL    HW2 9081   1.927   0.548   1.208
 2732SOL     OW 9082   2.049   0.522   1.727
 2732SOL    HW1 9083   2.112   0.487   1.664
 2732SOL    HW2 9084   2.009   0.596   1.681
 2733SOL     OW 9085   3.239   0.939   1.659
 2733SOL    HW1 9086   3.260   1.032   1.657
 2733SOL    HW2 9087   3.236   0.913   1.566
 2734SOL     OW 9088   2.680   0.570   0.367
 2734SOL    HW1 9089   2.689   0.499   0.304
 2734SOL    HW2 9090   2.604   0.620   0.338
 2735SOL     OW 9091   3.504   0.601   1.186
 2735SOL    HW1 9092   3.493   0.542   1.260
 2735SOL    HW2 9093   3.591   0.581   1.152
 2736SOL     OW 9094   2.105   1.551   1.728
 2736SOL    HW1 9095   2.082   1.615   1.795
 2736SOL    HW2 9096   2.107   1.467   1.773
 2737SOL     OW 9097   2.561   0.452   1.261
 2737SOL    HW1 9098   2.510   0.378   1.227
 2737SOL    HW2 9099   2.560   0.516   1.189
 2738SOL     OW 9100   2.789   1.680   1.468
 2738SOL    HW1 9101   2.764   1.645   1.382
 2738SOL    HW2 9102   2.787   1.775   1.457
 2739SOL     OW 9103   2.330   0.492   0.177
 2739SOL    HW1 9104   2.398   0.557   0.196
 2739SOL    HW2 9105   2.247   0.538   0.193
 2740SOL     OW 9106   2.008   1.140   1.472
 2740SOL    HW1 9107   2.010   1.089   1.553
 2740SOL    HW2 9108   2.025   1.077   1.402
 2741SOL     OW 9109   3.188   1.047   1.223
 2741SOL    HW1 9110   3.211   0.984   1.156
 2741SOL    HW2 9111   3.118   1.099   1.184
 2742SOL     OW 9112   3.168   0.849   0.308
 2742SOL    HW1 9113   3.091   0.819   0.357
 2742SOL    HW2 9114   3.144   0.838   0.216
 2743SOL     OW 9115   3.633   1.744   1.150
 2743SOL    HW1 9116   3.694   1.770   1.080
 2743SOL    HW2 9117   3.609   1.654   1.128
 2744SOL     OW 9118   3.103   1.732   1.113
 2744SOL    HW1 9119   3.185   1.753   1.068
 2744SOL    HW2 9120   3.109   1.638   1.131
 2745SOL     OW 9121   1.946   1.267   1.012
 2745SOL    HW1 9122   1.931   1.279   1.106
 2745SOL    HW2 9123   1.873   1.212   0.984
 2746SOL     OW 9124   2.540   1.666   1.729
 2746SOL    HW1 9125   2.487   1.745   1.724
 2746SOL    HW2 9126   2.606   1.676   1.660
 2747SOL     OW 9127   2.755   0.086   0.139
 2747SOL    HW1 9128   2.803   0.078   0.056
 2747SOL    HW2 9129   2.775   0.005   0.186
 2748SOL     OW 9130   3.575   0.149   0.504
 2748SOL    HW1 9131   3.649   0.127   0.448
 2748SOL    HW2 9132   3.567   0.073   0.563
 2749SOL     OW 9133   3.251   1.568   0.485
 2749SOL    HW1 9134   3.315   1.601   0.421
 2749SOL    HW2 9135   3.204   1.646   0.514
 2750SOL     OW 9136   1.998   1.797   1.843
 2750SOL    HW1 9137   1.947   1.731   1.891
 2750SOL    HW2 9138   2.045   1.844   1.912
 2751SOL     OW 9139   3.139   0.926   0.672
 2751SOL    HW1 9140   3.213   0.865   0.678
 2751SOL    HW2 9141   3.172   0.998   0.619
 2752SOL     OW 9142   2.677   1.273   1.430
 2752SOL    HW1 9143   2.649   1.312   1.513
 2752SOL    HW2 9144   2.607   1.295   1.368
 2753SOL     OW 9145   2.537   1.622   0.156
 2753SOL    HW1 9146   2.544   1.627   0.061
 2753SOL    HW2 9147   2.477   1.548   0.172
 2754SOL     OW 9148   3.488   1.727   1.391
 2754SOL    HW1 9149   3.538   1.733   1.310
 2754SOL    HW2 9150   3.475   1.817   1.419
 2755SOL     OW 9151   3.707   0.157   0.957
 2755SOL    HW1 9152   3.707   0.062   0.944
 2755SOL    HW2 9153   3.620   0.185   0.929
 2756SOL     OW 9154   2.124   0.329   0.720
 2756SOL    HW1 9155   2.036   0.360   0.698
 2756SOL    HW2 9156   2.122   0.317   0.815
 2757SOL     OW 9157   3.019   1.582   0.051
 2757SOL    HW1 9158   3.034   1.489   0.071
 2757SOL    HW2 9159   3.029   1.588   8.036
 2758SOL     OW 9160   2.686   1.006   1.372
 2758SOL    HW1 9161   2.730   1.001   1.288
 2758SOL    HW2 9162   2.686   1.099   1.394
 2759SOL     OW 9163   2.781   0.915   0.299
 2759SOL    HW1 9164   2.835   0.939   0.223
 2759SOL    HW2 9165   2.828   0.841   0.339
 2760SOL     OW 9166   3.372   1.624   0.061
 2760SOL    HW1 9167   3.277   1.624   0.049
 2760SOL    HW2 9168   3.407   1.625   8.051
 2761SOL     OW 9169   2.231   1.303   1.492
 2761SOL    HW1 9170   2.218   1.380   1.436
 2761SOL    HW2 9171   2.154   1.248   1.475
 2762SOL     OW 9172   3.473   1.283   1.280
 2762SOL    HW1 9173   3.533   1.272   1.354
 2762SOL    HW2 9174   3.412   1.352   1.308
 2763SOL     OW 9175   2.914   1.107   0.707
 2763SOL    HW1 9176   2.843   1.055   0.746
 2763SOL    HW2 9177   2.975   1.042   0.674
 2764SOL     OW 9178   2.881   0.243   0.968
 2764SOL    HW1 9179   2.861   0.197   0.886
 2764SOL    HW2 9180   2.874   0.176   1.036
 2765SOL     OW 9181   2.465   1.488   0.480
 2765SOL    HW1 9182   2.510   1.437   0.412
 2765SOL    HW2 9183   2.394   1.532   0.434
 2766SOL     OW 9184   3.586   0.387   1.378
 2766SOL    HW1 9185   3.656   0.452   1.378
 2766SOL    HW2 9186   3.618   0.317   1.320
 2767SOL     OW 9187   2.128   1.320   0.294
 2767SOL    HW1 9188   2.042   1.331   0.253
 2767SOL    HW2 9189   2.121   1.366   0.378
 2768SOL     OW 9190   1.974   1.022   1.719
 2768SOL    HW1 9191   1.898   0.999   1.772
 2768SOL    HW2 9192   2.049   0.984   1.766
 2769SOL     OW 9193   2.534   0.211   1.488
 2769SOL    HW1 9194   2.618   0.194   1.444
 2769SOL    HW2 9195   2.558   0.261   1.566
 2770SOL     OW 9196   1.930   0.362   0.034
 2770SOL    HW1 9197   1.858   0.299   0.023
 2770SOL    HW2 9198   1.945   0.397   8.026
 2771SOL     OW 9199   3.292   0.858   1.401
 2771SOL    HW1 9200   3.243   0.919   1.345
 2771SOL    HW2 9201   3.381   0.861   1.366
 2772SOL     OW 9202   1.930   0.165   0.314
 2772SOL    HW1 9203   1.937   0.253   0.276
 2772SOL    HW2 9204   2.015   0.125   0.296
 2773SOL     OW 9205   3.047   1.319   0.121
 2773SOL    HW1 9206   2.952   1.307   0.120
 2773SOL    HW2 9207   3.070   1.320   0.214
 2774SOL     OW 9208   2.481   0.831   1.433
 2774SOL    HW1 9209   2.537   0.907   1.418
 2774SOL    HW2 9210   2.542   0.757   1.442
 2775SOL     OW 9211   3.346   1.776   0.978
 2775SOL    HW1 9212   3.370   1.836   0.908
 2775SOL    HW2 9213   3.428   1.758   1.023
 2776SOL     OW 9214   2.578   0.572   1.703
 2776SOL    HW1 9215   2.618   0.635   1.762
 2776SOL    HW2 9216   2.608   0.487   1.734
 2777SOL     OW 9217   3.333   1.200   1.632
 2777SOL    HW1 9218   3.321   1.214   1.726
 2777SOL    HW2 9219   3.427   1.215   1.617
 2778SOL     OW 9220   2.241   1.740   1.564
 2778SOL    HW1 9221   2.155   1.781   1.550
 2778SOL    HW2 9222   2.221   1.656   1.605
 2779SOL     OW 9223   3.532   0.881   1.255
 2779SOL    HW1 9224   3.525   0.796   1.213
 2779SOL    HW2 9225   3.522   0.945   1.184
 2780SOL     OW 9226   3.077   0.327   0.474
 2780SOL    HW1 9227   3.136   0.254   0.457
 2780SOL    HW2 9228   3.117   0.374   0.547
 2781SOL     OW 9229   2.450   0.738   0.670
 2781SOL    HW1 9230   2.491   0.823   0.654
 2781SOL    HW2 9231   2.382   0.731   0.603
 2782SOL     OW 9232   3.628   0.362   1.649
 2782SOL    HW1 9233   3.609   0.376   1.556
 2782SOL    HW2 9234   3.557   0.306   1.680
 2783SOL     OW 9235   3.607   0.934   1.512
 2783SOL    HW1 9236   3.604   1.029   1.525
 2783SOL    HW2 9237   3.591   0.922   1.418
 2784SOL     OW 9238   2.757   1.373   0.036
 2784SOL    HW1 9239   2.693   1.364   0.106
 2784SOL    HW2 9240   2.740   1.459   8.079
 2785SOL     OW 9241   2.523   1.786   0.944
 2785SOL    HW1 9242   2.502   1.877   0.923
 2785SOL    HW2 9243   2.619   1.782   0.940
 2786SOL     OW 9244   2.729   0.966   0.855
 2786SOL    HW1 9245   2.779   0.895   0.895
 2786SOL    HW2 9246   2.695   1.016   0.930
 2787SOL     OW 9247   2.939   0.977   0.086
 2787SOL    HW1 9248   2.927   1.038   0.013
 2787SOL    HW2 9249   3.017   0.927   0.062
 2788SOL     OW 9250   3.716   1.554   0.844
 2788SOL    HW1 9251   3.638   1.543   0.790
 2788SOL    HW2 9252   3.708   1.488   0.913
 2789SOL     OW 9253   2.086   1.303   1.856
 2789SOL    HW1 9254   2.020   1.241   1.826
 2789SOL    HW2 9255   2.068   1.316   1.949
 2790SOL     OW 9256   1.947   1.233   0.664
 2790SOL    HW1 9257   1.950   1.184   0.747
 2790SOL    HW2 9258   2.019   1.196   0.612
 2791SOL     OW 9259   2.542   1.403   1.627
 2791SOL    HW1 9260   2.463   1.359   1.658
 2791SOL    HW2 9261   2.538   1.491   1.665
 2792SOL     OW 9262   3.676   0.177   1.233
 2792SOL    HW1 9263   3.643   0.088   1.239
 2792SOL    HW2 9264   3.694   0.190   1.139
 2793SOL     OW 9265   2.287   0.438   0.522
 2793SOL    HW1 9266   2.324   0.366   0.471
 2793SOL    HW2 9267   2.244   0.396   0.596
 2794SOL     OW 9268   3.562   1.489   1.096
 2794SOL    HW1 9269   3.481   1.466   1.051
 2794SOL    HW2 9270   3.574   1.420   1.162
 2795SOL     OW 9271   2.190   0.556   1.290
 2795SOL    HW1 9272   2.246   0.501   1.345
 2795SOL    HW2 9273   2.211   0.528   1.201
 2796SOL     OW 9274   2.689   1.578   0.678
 2796SOL    HW1 9275   2.677   1.629   0.598
 2796SOL    HW2 9276   2.612   1.521   0.681
 2797SOL     OW 9277   3.290   0.218   1.117
 2797SOL    HW1 9278   3.327   0.144   1.164
 2797SOL    HW2 9279   3.241   0.267   1.183
 2798SOL     OW 9280   2.864   0.021   1.141
 2798SOL    HW1 9281   2.814   5.252   1.098
 2798SOL    HW2 9282   2.951   5.283   1.154
 2799SOL     OW 9283   2.631   1.328   0.309
 2799SOL    HW1 9284   2.600   1.238   0.323
 2799SOL    HW2 9285   2.714   1.332   0.357
 2800SOL     OW 9286   2.481   1.557   1.285
 2800SOL    HW1 9287   2.484   1.639   1.334
 2800SOL    HW2 9288   2.569   1.549   1.247
 2801SOL     OW 9289   3.255   0.044   0.169
 2801SOL    HW1 9290   3.247   0.027   0.076
 2801SOL    HW2 9291   3.168   0.071   0.197
 2802SOL     OW 9292   3.170   0.467   0.690
 2802SOL    HW1 9293   3.112   0.543   0.693
 2802SOL    HW2 9294   3.159   0.425   0.775
 2803SOL     OW 9295   3.456   0.216   0.882
 2803SOL    HW1 9296   3.390   0.227   0.950
 2803SOL    HW2 9297   3.449   0.294   0.828
 2804SOL     OW 9298   1.905   1.067   0.304
 2804SOL    HW1 9299   2.001   1.066   0.306
 2804SOL    HW2 9300   1.879   0.985   0.344
 2805SOL     OW 9301   2.744   1.653   0.347
 2805SOL    HW1 9302   2.676   1.636   0.282
 2805SOL    HW2 9303   2.712   1.728   0.397
 2806SOL     OW 9304   2.090   0.625   1.985
 2806SOL    HW1 9305   2.002   0.622   2.020
 2806SOL    HW2 9306   2.081   0.598   1.893
 2807SOL     OW 9307   2.080   0.284   2.855
 2807SOL    HW1 9308   2.109   0.249   2.939
 2807SOL    HW2 9309   1.995   0.243   2.839
 2808SOL     OW 9310   1.866   0.386   2.500
 2808SOL    HW1 9311   1.782   0.407   2.540
 2808SOL    HW2 9312   1.848   0.308   2.447
 2809SOL     OW 9313   2.429   1.287   3.037
 2809SOL    HW1 9314   2.342   1.288   2.998
 2809SOL    HW2 9315   2.442   1.376   3.070
 2810SOL     OW 9316   3.423   1.512   2.568
 2810SOL    HW1 9317   3.380   1.491   2.651
 2810SOL    HW2 9318   3.352   1.516   2.504
 2811SOL     OW 9319   2.993   0.698   2.564
 2811SOL    HW1 9320   3.042   0.779   2.549
 2811SOL    HW2 9321   2.946   0.713   2.646
 2812SOL     OW 9322   3.628   0.606   2.091
 2812SOL    HW1 9323   3.608   0.598   1.997
 2812SOL    HW2 9324   3.594   0.526   2.129
 2813SOL     OW 9325   2.619   1.143   2.904
 2813SOL    HW1 9326   2.549   1.177   2.960
 2813SOL    HW2 9327   2.653   1.220   2.858
 2814SOL     OW 9328   2.728   0.777   3.684
 2814SOL    HW1 9329   2.716   0.849   3.747
 2814SOL    HW2 9330   2.752   0.820   3.602
 2815SOL     OW 9331   2.549   1.004   2.509
 2815SOL    HW1 9332   2.613   0.991   2.578
 2815SOL    HW2 9333   2.478   1.055   2.549
 2816SOL     OW 9334   2.572   1.151   3.673
 2816SOL    HW1 9335   2.620   1.229   3.701
 2816SOL    HW2 9336   2.489   1.183   3.639
 2817SOL     OW 9337   2.194   1.423   2.929
 2817SOL    HW1 9338   2.119   1.387   2.881
 2817SOL    HW2 9339   2.242   1.474   2.864
 2818SOL     OW 9340   3.327   1.498   3.214
 2818SOL    HW1 9341   3.372   1.582   3.225
 2818SOL    HW2 9342   3.260   1.497   3.283
 2819SOL     OW 9343   2.306   0.398   3.348
 2819SOL    HW1 9344   2.381   0.338   3.346
 2819SOL    HW2 9345   2.230   0.341   3.363
 2820SOL     OW 9346   3.472   0.451   2.600
 2820SOL    HW1 9347   3.397   0.475   2.546
 2820SOL    HW2 9348   3.491   0.530   2.651
 2821SOL     OW 9349   2.082   1.715   2.335
 2821SOL    HW1 9350   2.104   1.792   2.387
 2821SOL    HW2 9351   2.154   1.707   2.272
 2822SOL     OW 9352   2.998   1.342   3.555
 2822SOL    HW1 9353   3.040   1.337   3.641
 2822SOL    HW2 9354   2.946   1.263   3.548
 2823SOL     OW 9355   2.093   1.441   2.398
 2823SOL    HW1 9356   2.074   1.535   2.402
 2823SOL    HW2 9357   2.032   1.402   2.460
 2824SOL     OW 9358   2.120   1.090   2.753
 2824SOL    HW1 9359   2.116   1.003   2.794
 2824SOL    HW2 9360   2.062   1.144   2.806
 2825SOL     OW 9361   2.447   0.982   1.996
 2825SOL    HW1 9362   2.493   1.030   1.927
 2825SOL    HW2 9363   2.488   1.012   2.078
 2826SOL     OW 9364   3.448   0.135   3.318
 2826SOL    HW1 9365   3.470   0.220   3.279
 2826SOL    HW2 9366   3.446   0.152   3.412
 2827SOL     OW 9367   1.976   0.653   2.421
 2827SOL    HW1 9368   1.949   0.564   2.443
 2827SOL    HW2 9369   1.969   0.701   2.504
 2828SOL     OW 9370   3.704   1.759   2.198
 2828SOL    HW1 9371   3.769   1.731   2.262
 2828SOL    HW2 9372   3.728   1.849   2.178
 2829SOL     OW 9373   1.894   1.595   1.985
 2829SOL    HW1 9374   1.876   1.503   2.005
 2829SOL    HW2 9375   1.870   1.642   2.065
 2830SOL     OW 9376   3.552   0.919   2.503
 2830SOL    HW1 9377   3.634   0.876   2.482
 2830SOL    HW2 9378   3.529   0.969   2.424
 2831SOL     OW 9379   3.508   1.107   2.291
 2831SOL    HW1 9380   3.593   1.112   2.249
 2831SOL    HW2 9381   3.513   1.168   2.365
 2832SOL     OW 9382   1.984   0.744   3.447
 2832SOL    HW1 9383   2.076   0.769   3.455
 2832SOL    HW2 9384   1.936   0.826   3.455
 2833SOL     OW 9385   2.475   1.385   2.597
 2833SOL    HW1 9386   2.429   1.301   2.607
 2833SOL    HW2 9387   2.458   1.411   2.506
 2834SOL     OW 9388   3.149   1.232   3.285
 2834SOL    HW1 9389   3.183   1.166   3.224
 2834SOL    HW2 9390   3.208   1.228   3.360
 2835SOL     OW 9391   2.672   0.027   2.389
 2835SOL    HW1 9392   2.701   0.115   2.364
 2835SOL    HW2 9393   2.577   0.030   2.383
 2836SOL     OW 9394   2.052   0.966   3.134
 2836SOL    HW1 9395   2.137   0.924   3.118
 2836SOL    HW2 9396   1.989   0.913   3.085
 2837SOL     OW 9397   3.393   0.993   2.060
 2837SOL    HW1 9398   3.324   0.936   2.092
 2837SOL    HW2 9399   3.434   1.027   2.140
 2838SOL     OW 9400   3.074   1.731   3.501
 2838SOL    HW1 9401   3.051   1.804   3.444
 2838SOL    HW2 9402   3.087   1.657   3.442
 2839SOL     OW 9403   2.189   0.266   3.673
 2839SOL    HW1 9404   2.240   0.342   3.701
 2839SOL    HW2 9405   2.103   0.280   3.712
 2840SOL     OW 9406   3.327   1.420   2.812
 2840SOL    HW1 9407   3.260   1.433   2.879
 2840SOL    HW2 9408   3.317   1.329   2.785
 2841SOL     OW 9409   3.520   1.739   2.440
 2841SOL    HW1 9410   3.501   1.710   2.351
 2841SOL    HW2 9411   3.496   1.665   2.495
 2842SOL     OW 9412   2.457   0.721   2.128
 2842SOL    HW1 9413   2.463   0.802   2.077
 2842SOL    HW2 9414   2.391   0.740   2.195
 2843SOL     OW 9415   3.140   0.347   2.793
 2843SOL    HW1 9416   3.049   0.318   2.805
 2843SOL    HW2 9417   3.190   0.297   2.857
 2844SOL     OW 9418   3.443   1.670   2.171
 2844SOL    HW1 9419   3.533   1.701   2.164
 2844SOL    HW2 9420   3.416   1.653   2.081
 2845SOL     OW 9421   2.656   0.618   3.312
 2845SOL    HW1 9422   2.629   0.597   3.401
 2845SOL    HW2 9423   2.614   0.552   3.258
 2846SOL     OW 9424   3.257   0.475   3.540
 2846SOL    HW1 9425   3.259   0.519   3.625
 2846SOL    HW2 9426   3.320   0.404   3.549
 2847SOL     OW 9427   2.817   0.888   3.444
 2847SOL    HW1 9428   2.872   0.817   3.409
 2847SOL    HW2 9429   2.769   0.921   3.369
 2848SOL     OW 9430   2.856   0.417   3.097
 2848SOL    HW1 9431   2.771   0.438   3.136
 2848SOL    HW2 9432   2.834   0.368   3.018
 2849SOL     OW 9433   2.913   0.698   2.289
 2849SOL    HW1 9434   2.928   0.691   2.383
 2849SOL    HW2 9435   2.830   0.652   2.274
 2850SOL     OW 9436   1.950   0.821   2.639
 2850SOL    HW1 9437   2.031   0.814   2.689
 2850SOL    HW2 9438   1.907   0.899   2.673
 2851SOL     OW 9439   1.999   1.836   3.436
 2851SOL    HW1 9440   1.994   1.820   3.530
 2851SOL    HW2 9441   1.909   1.850   3.409
 2852SOL     OW 9442   2.735   0.364   2.051
 2852SOL    HW1 9443   2.778   0.423   1.989
 2852SOL    HW2 9444   2.788   0.284   2.048
 2853SOL     OW 9445   3.570   0.575   3.690
 2853SOL    HW1 9446   3.533   0.648   3.642
 2853SOL    HW2 9447   3.599   0.514   3.622
 2854SOL     OW 9448   3.239   1.142   2.403
 2854SOL    HW1 9449   3.317   1.129   2.351
 2854SOL    HW2 9450   3.186   1.204   2.353
 2855SOL     OW 9451   2.389   0.202   2.745
 2855SOL    HW1 9452   2.411   0.217   2.836
 2855SOL    HW2 9453   2.410   0.284   2.701
 2856SOL     OW 9454   2.869   1.444   2.334
 2856SOL    HW1 9455   2.831   1.517   2.284
 2856SOL    HW2 9456   2.849   1.465   2.425
 2857SOL     OW 9457   2.216   1.807   2.722
 2857SOL    HW1 9458   2.255   1.720   2.730
 2857SOL    HW2 9459   2.288   1.867   2.740
 2858SOL     OW 9460   3.661   1.058   2.730
 2858SOL    HW1 9461   3.607   1.039   2.653
 2858SOL    HW2 9462   3.599   1.062   2.803
 2859SOL     OW 9463   3.087   1.513   3.353
 2859SOL    HW1 9464   3.076   1.449   3.423
 2859SOL    HW2 9465   3.028   1.484   3.284
 2860SOL     OW 9466   2.182   0.957   2.112
 2860SOL    HW1 9467   2.264   0.976   2.067
 2860SOL    HW2 9468   2.151   0.875   2.074
 2861SOL     OW 9469   3.340   0.743   2.589
 2861SOL    HW1 9470   3.332   0.699   2.674
 2861SOL    HW2 9471   3.418   0.798   2.598
 2862SOL     OW 9472   2.328   1.264   3.600
 2862SOL    HW1 9473   2.301   1.269   3.508
 2862SOL    HW2 9474   2.246   1.263   3.649
 2863SOL     OW 9475   2.983   1.778   2.093
 2863SOL    HW1 9476   2.910   1.735   2.139
 2863SOL    HW2 9477   3.007   1.717   2.023
 2864SOL     OW 9478   2.059   0.278   3.364
 2864SOL    HW1 9479   1.980   0.332   3.360
 2864SOL    HW2 9480   2.050   0.229   3.447
 2865SOL     OW 9481   3.490   1.380   1.950
 2865SOL    HW1 9482   3.449   1.465   1.934
 2865SOL    HW2 9483   3.422   1.316   1.930
 2866SOL     OW 9484   2.328   1.738   2.182
 2866SOL    HW1 9485   2.373   1.792   2.248
 2866SOL    HW2 9486   2.399   1.706   2.126
 2867SOL     OW 9487   3.269   0.100   2.293
 2867SOL    HW1 9488   3.261   0.082   2.200
 2867SOL    HW2 9489   3.361   0.122   2.306
 2868SOL     OW 9490   2.103   1.780   3.099
 2868SOL    HW1 9491   2.167   1.725   3.145
 2868SOL    HW2 9492   2.111   1.754   3.008
 2869SOL     OW 9493   2.795   1.687   2.753
 2869SOL    HW1 9494   2.877   1.638   2.765
 2869SOL    HW2 9495   2.751   1.641   2.682
 2870SOL     OW 9496   2.254   0.696   2.338
 2870SOL    HW1 9497   2.276   0.603   2.349
 2870SOL    HW2 9498   2.160   0.701   2.356
 2871SOL     OW 9499   3.401   0.228   3.585
 2871SOL    HW1 9500   3.408   0.246   3.679
 2871SOL    HW2 9501   3.326   0.169   3.578
 2872SOL     OW 9502   2.486   0.132   1.969
 2872SOL    HW1 9503   2.550   0.066   1.993
 2872SOL    HW2 9504   2.435   0.092   1.899
 2873SOL     OW 9505   2.643   0.313   3.629
 2873SOL    HW1 9506   2.701   0.236   3.630
 2873SOL    HW2 9507   2.594   0.306   3.711
 2874SOL     OW 9508   2.740   1.526   3.058
 2874SOL    HW1 9509   2.722   1.492   2.970
 2874SOL    HW2 9510   2.807   1.467   3.093
 2875SOL     OW 9511   3.203   0.589   3.294
 2875SOL    HW1 9512   3.233   0.557   3.379
 2875SOL    HW2 9513   3.239   0.677   3.287
 2876SOL     OW 9514   2.676   1.395   2.802
 2876SOL    HW1 9515   2.760   1.384   2.758
 2876SOL    HW2 9516   2.612   1.396   2.731
 2877SOL     OW 9517   2.789   0.510   2.765
 2877SOL    HW1 9518   2.766   0.502   2.673
 2877SOL    HW2 9519   2.821   0.423   2.790
 2878SOL     OW 9520   2.404   0.063   2.370
 2878SOL    HW1 9521   2.318   0.061   2.413
 2878SOL    HW2 9522   2.397   0.133   2.305
 2879SOL     OW 9523   3.290   1.198   1.903
 2879SOL    HW1 9524   3.321   1.122   1.953
 2879SOL    HW2 9525   3.204   1.219   1.940
 2880SOL     OW 9526   2.163   0.062   2.053
 2880SOL    HW1 9527   2.222   0.131   2.023
 2880SOL    HW2 9528   2.219   5.286   2.063
 2881SOL     OW 9529   2.801   0.261   2.324
 2881SOL    HW1 9530   2.773   0.299   2.241
 2881SOL    HW2 9531   2.896   0.272   2.324
 2882SOL     OW 9532   2.943   0.681   3.321
 2882SOL    HW1 9533   2.874   0.615   3.327
 2882SOL    HW2 9534   3.024   0.631   3.315
 2883SOL     OW 9535   3.082   1.573   2.658
 2883SOL    HW1 9536   3.100   1.638   2.590
 2883SOL    HW2 9537   3.155   1.583   2.719
 2884SOL     OW 9538   2.331   1.149   2.596
 2884SOL    HW1 9539   2.261   1.130   2.659
 2884SOL    HW2 9540   2.291   1.133   2.510
 2885SOL     OW 9541   3.131   1.794   2.471
 2885SOL    HW1 9542   3.177   1.855   2.413
 2885SOL    HW2 9543   3.063   1.846   2.512
 2886SOL     OW 9544   2.888   0.546   1.884
 2886SOL    HW1 9545   2.845   0.630   1.866
 2886SOL    HW2 9546   2.951   0.566   1.953
 2887SOL     OW 9547   1.941   0.553   3.255
 2887SOL    HW1 9548   2.032   0.553   3.227
 2887SOL    HW2 9549   1.935   0.624   3.319
 2888SOL     OW 9550   2.418   0.238   3.020
 2888SOL    HW1 9551   2.449   0.152   3.048
 2888SOL    HW2 9552   2.326   0.240   3.046
 2889SOL     OW 9553   2.729   0.462   2.503
 2889SOL    HW1 9554   2.683   0.516   2.438
 2889SOL    HW2 9555   2.752   0.382   2.456
 2890SOL     OW 9556   2.840   0.061   2.624
 2890SOL    HW1 9557   2.775   0.055   2.554
 2890SOL    HW2 9558   2.850   5.271   2.655
 2891SOL     OW 9559   3.299   1.163   2.719
 2891SOL    HW1 9560   3.230   1.096   2.717
 2891SOL    HW2 9561   3.324   1.174   2.627
 2892SOL     OW 9562   3.328   0.606   2.840
 2892SOL    HW1 9563   3.279   0.524   2.843
 2892SOL    HW2 9564   3.389   0.600   2.914
 2893SOL     OW 9565   3.707   0.817   2.245
 2893SOL    HW1 9566   3.764   0.765   2.303
 2893SOL    HW2 9567   3.679   0.754   2.178
 2894SOL     OW 9568   2.352   1.418   2.019
 2894SOL    HW1 9569   2.277   1.389   2.071
 2894SOL    HW2 9570   2.339   1.379   1.933
 2895SOL     OW 9571   3.532   1.264   2.509
 2895SOL    HW1 9572   3.627   1.267   2.521
 2895SOL    HW2 9573   3.502   1.353   2.529
 2896SOL     OW 9574   3.256   0.572   1.933
 2896SOL    HW1 9575   3.195   0.552   2.004
 2896SOL    HW2 9576   3.341   0.541   1.965
 2897SOL     OW 9577   2.386   0.265   2.183
 2897SOL    HW1 9578   2.430   0.216   2.114
 2897SOL    HW2 9579   2.365   0.349   2.143
 2898SOL     OW 9580   3.615   1.239   3.435
 2898SOL    HW1 9581   3.702   1.200   3.432
 2898SOL    HW2 9582   3.630   1.329   3.464
 2899SOL     OW 9583   2.919   1.352   3.198
 2899SOL    HW1 9584   2.843   1.320   3.247
 2899SOL    HW2 9585   2.993   1.303   3.235
 2900SOL     OW 9586   3.469   1.626   3.513
 2900SOL    HW1 9587   3.466   1.658   3.423
 2900SOL    HW2 9588   3.552   1.579   3.518
 2901SOL     OW 9589   2.992   1.206   2.967
 2901SOL    HW1 9590   2.928   1.239   3.030
 2901SOL    HW2 9591   2.959   1.235   2.882
 2902SOL     OW 9592   3.490   1.098   2.939
 2902SOL    HW1 9593   3.486   1.159   3.012
 2902SOL    HW2 9594   3.411   1.115   2.888
 2903SOL     OW 9595   2.766   0.106   3.252
 2903SOL    HW1 9596   2.797   0.072   3.167
 2903SOL    HW2 9597   2.843   0.148   3.290
 2904SOL     OW 9598   2.846   1.116   3.583
 2904SOL    HW1 9599   2.754   1.130   3.605
 2904SOL    HW2 9600   2.845   1.037   3.528
 2905SOL     OW 9601   2.571   1.062   2.233
 2905SOL    HW1 9602   2.557   1.045   2.326
 2905SOL    HW2 9603   2.647   1.008   2.210
 2906SOL     OW 9604   2.281   0.815   3.113
 2906SOL    HW1 9605   2.349   0.824   3.180
 2906SOL    HW2 9606   2.245   0.727   3.127
 2907SOL     OW 9607   3.129   0.379   3.134
 2907SOL    HW1 9608   3.162   0.456   3.181
 2907SOL    HW2 9609   3.039   0.401   3.112
 2908SOL     OW 9610   1.929   1.572   3.212
 2908SOL    HW1 9611   1.901   1.651   3.166
 2908SOL    HW2 9612   2.025   1.578   3.212
 2909SOL     OW 9613   2.212   1.109   2.353
 2909SOL    HW1 9614   2.216   1.182   2.291
 2909SOL    HW2 9615   2.209   1.031   2.297
 2910SOL     OW 9616   2.416   0.538   2.723
 2910SOL    HW1 9617   2.431   0.595   2.648
 2910SOL    HW2 9618   2.481   0.564   2.787
 2911SOL     OW 9619   3.110   1.348   2.251
 2911SOL    HW1 9620   3.166   1.420   2.282
 2911SOL    HW2 9621   3.023   1.370   2.285
 2912SOL     OW 9622   3.144   1.451   3.009
 2912SOL    HW1 9623   3.198   1.451   3.087
 2912SOL    HW2 9624   3.090   1.372   3.017
 2913SOL     OW 9625   3.444   0.623   2.341
 2913SOL    HW1 9626   3.397   0.678   2.404
 2913SOL    HW2 9627   3.489   0.685   2.284
 2914SOL     OW 9628   2.208   1.517   3.179
 2914SOL    HW1 9629   2.195   1.479   3.092
 2914SOL    HW2 9630   2.302   1.534   3.184
 2915SOL     OW 9631   2.276   0.744   3.464
 2915SOL    HW1 9632   2.337   0.790   3.406
 2915SOL    HW2 9633   2.317   0.660   3.482
 2916SOL     OW 9634   3.463   0.778   3.544
 2916SOL    HW1 9635   3.377   0.819   3.537
 2916SOL    HW2 9636   3.515   0.821   3.475
 2917SOL     OW 9637   2.907   0.116   3.646
 2917SOL    HW1 9638   2.931   0.196   3.599
 2917SOL    HW2 9639   2.912   0.047   3.581
 2918SOL     OW 9640   2.345   0.057   3.600
 2918SOL    HW1 9641   2.287   5.292   3.560
 2918SOL    HW2 9642   2.287   0.131   3.622
 2919SOL     OW 9643   2.446   0.872   2.894
 2919SOL    HW1 9644   2.475   0.963   2.892
 2919SOL    HW2 9645   2.388   0.866   2.970
 2920SOL     OW 9646   3.219   0.859   2.892
 2920SOL    HW1 9647   3.137   0.849   2.844
 2920SOL    HW2 9648   3.260   0.772   2.887
 2921SOL     OW 9649   3.068   0.529   2.129
 2921SOL    HW1 9650   3.072   0.448   2.180
 2921SOL    HW2 9651   3.025   0.591   2.188
 2922SOL     OW 9652   2.159   0.204   3.109
 2922SOL    HW1 9653   2.119   0.243   3.187
 2922SOL    HW2 9654   2.157   0.110   3.127
 2923SOL     OW 9655   1.906   1.311   3.139
 2923SOL    HW1 9656   1.941   1.258   3.211
 2923SOL    HW2 9657   1.915   1.401   3.169
 2924SOL     OW 9658   2.588   0.632   2.922
 2924SOL    HW1 9659   2.661   0.615   2.863
 2924SOL    HW2 9660   2.559   0.720   2.899
 2925SOL     OW 9661   3.596   0.960   3.714
 2925SOL    HW1 9662   3.550   0.898   3.657
 2925SOL    HW2 9663   3.537   0.973   3.788
 2926SOL     OW 9664   2.165   0.072   2.513
 2926SOL    HW1 9665   2.148   0.166   2.520
 2926SOL    HW2 9666   2.207   0.049   2.596
 2927SOL     OW 9667   3.474   0.374   2.227
 2927SOL    HW1 9668   3.507   0.311   2.291
 2927SOL    HW2 9669   3.454   0.452   2.279
 2928SOL     OW 9670   2.890   0.759   2.823
 2928SOL    HW1 9671   2.886   0.777   2.917
 2928SOL    HW2 9672   2.863   0.668   2.814
 2929SOL     OW 9673   2.828   1.557   3.577
 2929SOL    HW1 9674   2.819   1.603   3.493
 2929SOL    HW2 9675   2.884   1.483   3.557
 2930SOL     OW 9676   3.717   1.507   3.467
 2930SOL    HW1 9677   3.737   1.533   3.377
 2930SOL    HW2 9678   3.797   1.525   3.515
 2931SOL     OW 9679   2.215   0.916   3.671
 2931SOL    HW1 9680   2.298   0.934   3.716
 2931SOL    HW2 9681   2.239   0.853   3.602
 2932SOL     OW 9682   3.388   0.272   1.988
 2932SOL    HW1 9683   3.325   0.208   2.019
 2932SOL    HW2 9684   3.425   0.310   2.068
 2933SOL     OW 9685   3.154   0.827   1.894
 2933SOL    HW1 9686   3.196   0.741   1.897
 2933SOL    HW2 9687   3.185   0.866   1.812
 2934SOL     OW 9688   2.927   1.336   2.716
 2934SOL    HW1 9689   2.930   1.263   2.654
 2934SOL    HW2 9690   2.989   1.400   2.681
 2935SOL     OW 9691   2.171   0.809   2.810
 2935SOL    HW1 9692   2.264   0.830   2.802
 2935SOL    HW2 9693   2.169   0.719   2.842
 2936SOL     OW 9694   2.194   0.525   2.875
 2936SOL    HW1 9695   2.158   0.438   2.859
 2936SOL    HW2 9696   2.271   0.530   2.817
 2937SOL     OW 9697   2.997   0.378   3.550
 2937SOL    HW1 9698   2.950   0.432   3.612
 2937SOL    HW2 9699   3.085   0.417   3.546
 2938SOL     OW 9700   2.995   0.223   3.327
 2938SOL    HW1 9701   3.000   0.281   3.403
 2938SOL    HW2 9702   3.051   0.264   3.262
 2939SOL     OW 9703   1.867   1.321   2.057
 2939SOL    HW1 9704   1.780   1.335   2.019
 2939SOL    HW2 9705   1.864   1.232   2.091
 2940SOL     OW 9706   1.950   1.790   2.801
 2940SOL    HW1 9707   1.919   1.711   2.758
 2940SOL    HW2 9708   2.041   1.800   2.770
 2941SOL     OW 9709   2.356   1.572   2.765
 2941SOL    HW1 9710   2.425   1.634   2.789
 2941SOL    HW2 9711   2.400   1.507   2.710
 2942SOL     OW 9712   2.845   0.793   3.089
 2942SOL    HW1 9713   2.901   0.769   3.163
 2942SOL    HW2 9714   2.760   0.755   3.109
 2943SOL     OW 9715   1.897   0.543   2.979
 2943SOL    HW1 9716   1.977   0.530   2.928
 2943SOL    HW2 9717   1.927   0.548   3.070
 2944SOL     OW 9718   2.049   0.522   3.589
 2944SOL    HW1 9719   2.112   0.487   3.526
 2944SOL    HW2 9720   2.009   0.596   3.543
 2945SOL     OW 9721   3.239   0.939   3.521
 2945SOL    HW1 9722   3.260   1.033   3.519
 2945SOL    HW2 9723   3.237   0.913   3.429
 2946SOL     OW 9724   2.676   0.572   2.224
 2946SOL    HW1 9725   2.680   0.498   2.164
 2946SOL    HW2 9726   2.602   0.625   2.193
 2947SOL     OW 9727   3.504   0.602   3.048
 2947SOL    HW1 9728   3.493   0.542   3.122
 2947SOL    HW2 9729   3.591   0.581   3.014
 2948SOL     OW 9730   2.109   1.550   3.589
 2948SOL    HW1 9731   2.084   1.616   3.653
 2948SOL    HW2 9732   2.108   1.467   3.637
 2949SOL     OW 9733   2.561   0.452   3.123
 2949SOL    HW1 9734   2.510   0.378   3.089
 2949SOL    HW2 9735   2.560   0.516   3.051
 2950SOL     OW 9736   2.773   1.680   3.331
 2950SOL    HW1 9737   2.772   1.645   3.241
 2950SOL    HW2 9738   2.826   1.760   3.325
 2951SOL     OW 9739   2.325   0.493   2.045
 2951SOL    HW1 9740   2.385   0.564   2.068
 2951SOL    HW2 9741   2.240   0.535   2.036
 2952SOL     OW 9742   2.008   1.140   3.335
 2952SOL    HW1 9743   2.010   1.088   3.415
 2952SOL    HW2 9744   2.025   1.077   3.265
 2953SOL     OW 9745   3.189   1.047   3.084
 2953SOL    HW1 9746   3.212   0.983   3.017
 2953SOL    HW2 9747   3.118   1.099   3.045
 2954SOL     OW 9748   3.173   0.857   2.169
 2954SOL    HW1 9749   3.097   0.825   2.218
 2954SOL    HW2 9750   3.149   0.843   2.077
 2955SOL     OW 9751   3.635   1.742   3.012
 2955SOL    HW1 9752   3.695   1.768   2.942
 2955SOL    HW2 9753   3.611   1.652   2.990
 2956SOL     OW 9754   3.123   1.723   2.984
 2956SOL    HW1 9755   3.202   1.743   2.934
 2956SOL    HW2 9756   3.126   1.628   2.995
 2957SOL     OW 9757   1.948   1.265   2.876
 2957SOL    HW1 9758   1.932   1.279   2.969
 2957SOL    HW2 9759   1.873   1.214   2.846
 2958SOL     OW 9760   2.537   1.666   3.588
 2958SOL    HW1 9761   2.481   1.738   3.560
 2958SOL    HW2 9762   2.615   1.673   3.534
 2959SOL     OW 9763   3.574   0.148   2.365
 2959SOL    HW1 9764   3.650   0.128   2.309
 2959SOL    HW2 9765   3.567   0.074   2.424
 2960SOL     OW 9766   3.253   1.568   2.347
 2960SOL    HW1 9767   3.313   1.599   2.280
 2960SOL    HW2 9768   3.204   1.646   2.375
 2961SOL     OW 9769   2.001   1.793   3.706
 2961SOL    HW1 9770   1.949   1.726   3.751
 2961SOL    HW2 9771   2.034   1.849   3.777
 2962SOL     OW 9772   3.139   0.926   2.533
 2962SOL    HW1 9773   3.213   0.865   2.540
 2962SOL    HW2 9774   3.173   0.998   2.481
 2963SOL     OW 9775   2.675   1.273   3.291
 2963SOL    HW1 9776   2.648   1.313   3.374
 2963SOL    HW2 9777   2.603   1.291   3.231
 2964SOL     OW 9778   2.533   1.620   2.018
 2964SOL    HW1 9779   2.544   1.632   1.924
 2964SOL    HW2 9780   2.478   1.542   2.026
 2965SOL     OW 9781   3.488   1.735   3.251
 2965SOL    HW1 9782   3.540   1.729   3.171
 2965SOL    HW2 9783   3.485   1.828   3.271
 2966SOL     OW 9784   3.707   0.157   2.819
 2966SOL    HW1 9785   3.707   0.062   2.806
 2966SOL    HW2 9786   3.620   0.185   2.791
 2967SOL     OW 9787   2.124   0.329   2.581
 2967SOL    HW1 9788   2.036   0.360   2.559
 2967SOL    HW2 9789   2.122   0.317   2.676
 2968SOL     OW 9790   3.069   1.606   1.894
 2968SOL    HW1 9791   3.059   1.515   1.920
 2968SOL    HW2 9792   3.004   1.618   1.824
 2969SOL     OW 9793   2.686   1.005   3.235
 2969SOL    HW1 9794   2.729   1.000   3.149
 2969SOL    HW2 9795   2.686   1.099   3.256
 2970SOL     OW 9796   2.778   0.911   2.152
 2970SOL    HW1 9797   2.839   0.942   2.086
 2970SOL    HW2 9798   2.825   0.841   2.197
 2971SOL     OW 9799   3.354   1.625   1.904
 2971SOL    HW1 9800   3.259   1.619   1.891
 2971SOL    HW2 9801   3.391   1.631   1.816
 2972SOL     OW 9802   2.232   1.300   3.354
 2972SOL    HW1 9803   2.218   1.378   3.301
 2972SOL    HW2 9804   2.154   1.246   3.338
 2973SOL     OW 9805   3.473   1.280   3.143
 2973SOL    HW1 9806   3.534   1.270   3.216
 2973SOL    HW2 9807   3.415   1.351   3.170
 2974SOL     OW 9808   2.914   1.107   2.569
 2974SOL    HW1 9809   2.843   1.056   2.607
 2974SOL    HW2 9810   2.976   1.042   2.537
 2975SOL     OW 9811   2.881   0.243   2.830
 2975SOL    HW1 9812   2.861   0.197   2.748
 2975SOL    HW2 9813   2.874   0.176   2.898
 2976SOL     OW 9814   2.465   1.489   2.343
 2976SOL    HW1 9815   2.509   1.438   2.275
 2976SOL    HW2 9816   2.394   1.533   2.297
 2977SOL     OW 9817   3.586   0.387   3.240
 2977SOL    HW1 9818   3.656   0.452   3.240
 2977SOL    HW2 9819   3.618   0.317   3.182
 2978SOL     OW 9820   2.121   1.346   2.151
 2978SOL    HW1 9821   2.028   1.343   2.128
 2978SOL    HW2 9822   2.123   1.382   2.239
 2979SOL     OW 9823   1.975   1.021   3.582
 2979SOL    HW1 9824   1.898   0.998   3.635
 2979SOL    HW2 9825   2.049   0.984   3.629
 2980SOL     OW 9826   2.534   0.211   3.350
 2980SOL    HW1 9827   2.618   0.194   3.306
 2980SOL    HW2 9828   2.558   0.261   3.428
 2981SOL     OW 9829   1.939   0.339   1.903
 2981SOL    HW1 9830   1.856   0.306   1.870
 2981SOL    HW2 9831   1.960   0.412   1.845
 2982SOL     OW 9832   3.292   0.859   3.263
 2982SOL    HW1 9833   3.243   0.919   3.206
 2982SOL    HW2 9834   3.381   0.861   3.229
 2983SOL     OW 9835   1.934   0.167   2.177
 2983SOL    HW1 9836   1.935   0.250   2.129
 2983SOL    HW2 9837   2.018   0.127   2.157
 2984SOL     OW 9838   3.041   1.340   1.979
 2984SOL    HW1 9839   2.951   1.308   1.982
 2984SOL    HW2 9840   3.069   1.340   2.070
 2985SOL     OW 9841   2.481   0.830   3.295
 2985SOL    HW1 9842   2.537   0.907   3.280
 2985SOL    HW2 9843   2.542   0.757   3.304
 2986SOL     OW 9844   3.350   1.777   2.841
 2986SOL    HW1 9845   3.371   1.835   2.767
 2986SOL    HW2 9846   3.435   1.757   2.880
 2987SOL     OW 9847   2.578   0.572   3.565
 2987SOL    HW1 9848   2.618   0.635   3.624
 2987SOL    HW2 9849   2.608   0.487   3.596
 2988SOL     OW 9850   3.333   1.201   3.493
 2988SOL    HW1 9851   3.321   1.214   3.587
 2988SOL    HW2 9852   3.426   1.215   3.479
 2989SOL     OW 9853   2.255   1.731   3.417
 2989SOL    HW1 9854   2.173   1.779   3.406
 2989SOL    HW2 9855   2.231   1.653   3.465
 2990SOL     OW 9856   3.531   0.881   3.117
 2990SOL    HW1 9857   3.525   0.796   3.075
 2990SOL    HW2 9858   3.522   0.944   3.046
 2991SOL     OW 9859   3.082   0.319   2.328
 2991SOL    HW1 9860   3.145   0.248   2.320
 2991SOL    HW2 9861   3.113   0.371   2.403
 2992SOL     OW 9862   2.452   0.739   2.532
 2992SOL    HW1 9863   2.491   0.824   2.515
 2992SOL    HW2 9864   2.384   0.730   2.465
 2993SOL     OW 9865   3.628   0.362   3.511
 2993SOL    HW1 9866   3.609   0.376   3.418
 2993SOL    HW2 9867   3.557   0.306   3.542
 2994SOL     OW 9868   3.606   0.934   3.374
 2994SOL    HW1 9869   3.605   1.028   3.387
 2994SOL    HW2 9870   3.591   0.922   3.280
 2995SOL     OW 9871   2.723   1.367   1.895
 2995SOL    HW1 9872   2.686   1.396   1.979
 2995SOL    HW2 9873   2.743   1.449   1.849
 2996SOL     OW 9874   2.524   1.782   2.801
 2996SOL    HW1 9875   2.505   1.873   2.777
 2996SOL    HW2 9876   2.619   1.774   2.793
 2997SOL     OW 9877   2.729   0.967   2.718
 2997SOL    HW1 9878   2.779   0.895   2.756
 2997SOL    HW2 9879   2.694   1.016   2.792
 2998SOL     OW 9880   2.941   0.988   1.951
 2998SOL    HW1 9881   2.919   1.039   1.872
 2998SOL    HW2 9882   3.016   0.935   1.925
 2999SOL     OW 9883   3.716   1.555   2.707
 2999SOL    HW1 9884   3.638   1.542   2.651
 2999SOL    HW2 9885   3.710   1.485   2.772
 3000SOL     OW 9886   2.087   1.302   3.718
 3000SOL    HW1 9887   2.020   1.242   3.686
 3000SOL    HW2 9888   2.066   1.314   3.811
 3001SOL     OW 9889   1.946   1.233   2.526
 3001SOL    HW1 9890   1.951   1.185   2.609
 3001SOL    HW2 9891   2.015   1.194   2.472
 3002SOL     OW 9892   2.541   1.404   3.488
 3002SOL    HW1 9893   2.462   1.359   3.519
 3002SOL    HW2 9894   2.536   1.491   3.526
 3003SOL     OW 9895   3.676   0.177   3.095
 3003SOL    HW1 9896   3.643   0.088   3.101
 3003SOL    HW2 9897   3.694   0.190   3.001
 3004SOL     OW 9898   2.292   0.435   2.386
 3004SOL    HW1 9899   2.324   0.363   2.333
 3004SOL    HW2 9900   2.245   0.393   2.458
 3005SOL     OW 9901   3.561   1.489   2.960
 3005SOL    HW1 9902   3.481   1.464   2.914
 3005SOL    HW2 9903   3.575   1.419   3.023
 3006SOL     OW 9904   2.190   0.556   3.152
 3006SOL    HW1 9905   2.246   0.501   3.207
 3006SOL    HW2 9906   2.211   0.529   3.063
 3007SOL     OW 9907   2.687   1.574   2.534
 3007SOL    HW1 9908   2.675   1.626   2.454
 3007SOL    HW2 9909   2.610   1.517   2.538
 3008SOL     OW 9910   3.290   0.218   2.978
 3008SOL    HW1 9911   3.327   0.144   3.026
 3008SOL    HW2 9912   3.241   0.268   3.045
 3009SOL     OW 9913   2.865   0.021   3.003
 3009SOL    HW1 9914   2.814   5.252   2.961
 3009SOL    HW2 9915   2.951   5.283   3.016
 3010SOL     OW 9916   2.633   1.333   2.177
 3010SOL    HW1 9917   2.602   1.243   2.182
 3010SOL    HW2 9918   2.716   1.332   2.225
 3011SOL     OW 9919   2.480   1.558   3.147
 3011SOL    HW1 9920   2.484   1.630   3.209
 3011SOL    HW2 9921   2.568   1.552   3.110
 3012SOL     OW 9922   3.218   0.039   2.024
 3012SOL    HW1 9923   3.250   5.295   1.945
 3012SOL    HW2 9924   3.138   5.292   2.046
 3013SOL     OW 9925   3.163   0.464   2.547
 3013SOL    HW1 9926   3.108   0.542   2.552
 3013SOL    HW2 9927   3.156   0.423   2.633
 3014SOL     OW 9928   3.456   0.215   2.744
 3014SOL    HW1 9929   3.390   0.227   2.812
 3014SOL    HW2 9930   3.449   0.294   2.690
 3015SOL     OW 9931   1.906   1.071   2.168
 3015SOL    HW1 9932   1.999   1.062   2.150
 3015SOL    HW2 9933   1.877   0.983   2.191
 3016SOL     OW 9934   2.745   1.652   2.205
 3016SOL    HW1 9935   2.673   1.635   2.145
 3016SOL    HW2 9936   2.717   1.728   2.256
 3017SOL     OW 9937   2.090   0.625   3.847
 3017SOL    HW1 9938   2.001   0.622   3.882
 3017SOL    HW2 9939   2.081   0.599   3.755
 3018SOL     OW 9940   2.080   0.284   4.716
 3018SOL    HW1 9941   2.109   0.249   4.801
 3018SOL    HW2 9942   1.995   0.243   4.701
 3019SOL     OW 9943   1.866   0.386   4.362
 3019SOL    HW1 9944   1.782   0.407   4.402
 3019SOL    HW2 9945   1.848   0.308   4.309
 3020SOL     OW 9946   2.428   1.286   4.898
 3020SOL    HW1 9947   2.340   1.290   4.863
 3020SOL    HW2 9948   2.445   1.374   4.932
 3021SOL     OW 9949   3.421   1.512   4.429
 3021SOL    HW1 9950   3.378   1.489   4.512
 3021SOL    HW2 9951   3.349   1.517   4.366
 3022SOL     OW 9952   2.993   0.698   4.426
 3022SOL    HW1 9953   3.042   0.779   4.411
 3022SOL    HW2 9954   2.946   0.712   4.508
 3023SOL     OW 9955   3.628   0.606   3.953
 3023SOL    HW1 9956   3.608   0.598   3.859
 3023SOL    HW2 9957   3.594   0.526   3.991
 3024SOL     OW 9958   2.617   1.141   4.765
 3024SOL    HW1 9959   2.548   1.176   4.822
 3024SOL    HW2 9960   2.653   1.219   4.721
 3025SOL     OW 9961   2.727   0.777   5.546
 3025SOL    HW1 9962   2.716   0.849   5.609
 3025SOL    HW2 9963   2.752   0.821   5.464
 3026SOL     OW 9964   2.548   1.004   4.371
 3026SOL    HW1 9965   2.613   0.991   4.440
 3026SOL    HW2 9966   2.478   1.055   4.412
 3027SOL     OW 9967   2.572   1.151   5.536
 3027SOL    HW1 9968   2.620   1.229   5.563
 3027SOL    HW2 9969   2.489   1.184   5.501
 3028SOL     OW 9970   2.194   1.427   4.791
 3028SOL    HW1 9971   2.120   1.388   4.743
 3028SOL    HW2 9972   2.243   1.474   4.724
 3029SOL     OW 9973   3.323   1.501   5.077
 3029SOL    HW1 9974   3.375   1.580   5.089
 3029SOL    HW2 9975   3.261   1.502   5.150
 3030SOL     OW 9976   2.306   0.398   5.210
 3030SOL    HW1 9977   2.381   0.338   5.209
 3030SOL    HW2 9978   2.230   0.341   5.225
 3031SOL     OW 9979   3.473   0.451   4.462
 3031SOL    HW1 9980   3.397   0.475   4.408
 3031SOL    HW2 9981   3.491   0.530   4.514
 3032SOL     OW 9982   2.074   1.694   4.169
 3032SOL    HW1 9983   2.092   1.760   4.236
 3032SOL    HW2 9984   2.153   1.692   4.116
 3033SOL     OW 9985   2.999   1.341   5.416
 3033SOL    HW1 9986   3.039   1.337   5.503
 3033SOL    HW2 9987   2.946   1.262   5.410
 3034SOL     OW 9988   2.098   1.436   4.264
 3034SOL    HW1 9989   2.072   1.528   4.254
 3034SOL    HW2 9990   2.033   1.399   4.323
 3035SOL     OW 9991   2.120   1.090   4.615
 3035SOL    HW1 9992   2.117   1.003   4.656
 3035SOL    HW2 9993   2.062   1.144   4.669
 3036SOL     OW 9994   2.479   1.783   5.162
 3036SOL    HW1 9995   2.394   1.771   5.205
 3036SOL    HW2 9996   2.502   1.874   5.179
 3037SOL     OW 9997   2.448   0.981   3.858
 3037SOL    HW1 9998   2.493   1.030   3.789
 3037SOL    HW2 9999   2.488   1.012   3.940
 3038SOL     OW10000   3.448   0.135   5.180
 3038SOL    HW110001   3.470   0.220   5.142
 3038SOL    HW210002   3.446   0.152   5.274
 3039SOL     OW10003   1.976   0.653   4.283
 3039SOL    HW110004   1.949   0.564   4.305
 3039SOL    HW210005   1.969   0.701   4.366
 3040SOL     OW10006   3.704   1.760   4.061
 3040SOL    HW110007   3.771   1.732   4.124
 3040SOL    HW210008   3.727   1.850   4.041
 3041SOL     OW10009   1.895   1.593   3.848
 3041SOL    HW110010   1.878   1.500   3.863
 3041SOL    HW210011   1.865   1.637   3.927
 3042SOL     OW10012   3.551   0.919   4.365
 3042SOL    HW110013   3.635   0.876   4.345
 3042SOL    HW210014   3.530   0.968   4.286
 3043SOL     OW10015   3.508   1.107   4.153
 3043SOL    HW110016   3.593   1.112   4.111
 3043SOL    HW210017   3.513   1.168   4.227
 3044SOL     OW10018   1.985   0.744   5.309
 3044SOL    HW110019   2.076   0.769   5.317
 3044SOL    HW210020   1.936   0.826   5.317
 3045SOL     OW10021   2.475   1.385   4.455
 3045SOL    HW110022   2.429   1.301   4.465
 3045SOL    HW210023   2.458   1.411   4.365
 3046SOL     OW10024   3.152   1.238   5.147
 3046SOL    HW110025   3.184   1.170   5.088
 3046SOL    HW210026   3.209   1.232   5.224
 3047SOL     OW10027   2.672   0.027   4.251
 3047SOL    HW110028   2.701   0.115   4.226
 3047SOL    HW210029   2.577   0.030   4.245
 3048SOL     OW10030   2.052   0.966   4.995
 3048SOL    HW110031   2.137   0.924   4.980
 3048SOL    HW210032   1.990   0.912   4.948
 3049SOL     OW10033   3.393   0.994   3.922
 3049SOL    HW110034   3.323   0.936   3.954
 3049SOL    HW210035   3.434   1.028   4.002
 3050SOL     OW10036   3.049   1.801   5.351
 3050SOL    HW110037   3.053   1.864   5.279
 3050SOL    HW210038   3.065   1.716   5.310
 3051SOL     OW10039   2.189   0.266   5.535
 3051SOL    HW110040   2.240   0.341   5.563
 3051SOL    HW210041   2.103   0.280   5.574
 3052SOL     OW10042   3.321   1.423   4.672
 3052SOL    HW110043   3.257   1.432   4.743
 3052SOL    HW210044   3.314   1.331   4.646
 3053SOL     OW10045   3.519   1.742   4.303
 3053SOL    HW110046   3.503   1.712   4.213
 3053SOL    HW210047   3.496   1.666   4.357
 3054SOL     OW10048   2.457   0.721   3.990
 3054SOL    HW110049   2.462   0.802   3.939
 3054SOL    HW210050   2.391   0.739   4.057
 3055SOL     OW10051   3.140   0.346   4.655
 3055SOL    HW110052   3.049   0.318   4.667
 3055SOL    HW210053   3.190   0.297   4.719
 3056SOL     OW10054   3.447   1.662   4.032
 3056SOL    HW110055   3.535   1.699   4.025
 3056SOL    HW210056   3.418   1.651   3.941
 3057SOL     OW10057   2.657   0.618   5.174
 3057SOL    HW110058   2.629   0.597   5.263
 3057SOL    HW210059   2.614   0.552   5.120
 3058SOL     OW10060   3.257   0.475   5.402
 3058SOL    HW110061   3.258   0.520   5.487
 3058SOL    HW210062   3.320   0.404   5.411
 3059SOL     OW10063   2.817   0.888   5.306
 3059SOL    HW110064   2.872   0.817   5.271
 3059SOL    HW210065   2.769   0.922   5.230
 3060SOL     OW10066   2.856   0.417   4.959
 3060SOL    HW110067   2.771   0.439   4.998
 3060SOL    HW210068   2.834   0.368   4.880
 3061SOL     OW10069   2.913   0.698   4.151
 3061SOL    HW110070   2.928   0.691   4.245
 3061SOL    HW210071   2.830   0.652   4.136
 3062SOL     OW10072   1.950   0.821   4.501
 3062SOL    HW110073   2.031   0.814   4.551
 3062SOL    HW210074   1.907   0.899   4.535
 3063SOL     OW10075   1.989   1.853   5.304
 3063SOL    HW110076   1.988   1.830   5.396
 3063SOL    HW210077   1.900   1.836   5.274
 3064SOL     OW10078   2.735   0.364   3.913
 3064SOL    HW110079   2.778   0.423   3.851
 3064SOL    HW210080   2.788   0.284   3.910
 3065SOL     OW10081   3.570   0.574   5.552
 3065SOL    HW110082   3.533   0.648   5.504
 3065SOL    HW210083   3.599   0.514   5.484
 3066SOL     OW10084   3.239   1.142   4.266
 3066SOL    HW110085   3.318   1.128   4.213
 3066SOL    HW210086   3.187   1.204   4.214
 3067SOL     OW10087   2.389   0.202   4.606
 3067SOL    HW110088   2.411   0.217   4.698
 3067SOL    HW210089   2.410   0.284   4.563
 3068SOL     OW10090   2.871   1.444   4.198
 3068SOL    HW110091   2.828   1.516   4.152
 3068SOL    HW210092   2.858   1.465   4.291
 3069SOL     OW10093   2.221   1.785   4.582
 3069SOL    HW110094   2.255   1.696   4.589
 3069SOL    HW210095   2.291   1.841   4.615
 3070SOL     OW10096   3.661   1.057   4.592
 3070SOL    HW110097   3.606   1.038   4.516
 3070SOL    HW210098   3.599   1.063   4.665
 3071SOL     OW10099   3.091   1.538   5.235
 3071SOL    HW110100   3.077   1.466   5.297
 3071SOL    HW210101   3.023   1.526   5.169
 3072SOL     OW10102   2.182   0.957   3.974
 3072SOL    HW110103   2.264   0.976   3.928
 3072SOL    HW210104   2.151   0.875   3.935
 3073SOL     OW10105   3.340   0.743   4.451
 3073SOL    HW110106   3.331   0.699   4.536
 3073SOL    HW210107   3.418   0.798   4.460
 3074SOL     OW10108   2.328   1.264   5.462
 3074SOL    HW110109   2.301   1.268   5.371
 3074SOL    HW210110   2.246   1.263   5.511
 3075SOL     OW10111   2.980   1.772   3.960
 3075SOL    HW110112   2.908   1.724   4.000
 3075SOL    HW210113   3.010   1.715   3.889
 3076SOL     OW10114   2.059   0.278   5.226
 3076SOL    HW110115   1.980   0.332   5.222
 3076SOL    HW210116   2.051   0.230   5.309
 3077SOL     OW10117   3.490   1.379   3.811
 3077SOL    HW110118   3.450   1.464   3.797
 3077SOL    HW210119   3.421   1.316   3.792
 3078SOL     OW10120   2.328   1.733   4.057
 3078SOL    HW110121   2.376   1.792   4.114
 3078SOL    HW210122   2.391   1.708   3.989
 3079SOL     OW10123   3.269   0.100   4.155
 3079SOL    HW110124   3.261   0.082   4.062
 3079SOL    HW210125   3.361   0.122   4.168
 3080SOL     OW10126   2.088   1.772   4.959
 3080SOL    HW110127   2.158   1.724   5.003
 3080SOL    HW210128   2.104   1.757   4.865
 3081SOL     OW10129   2.793   1.682   4.647
 3081SOL    HW110130   2.886   1.660   4.636
 3081SOL    HW210131   2.754   1.659   4.563
 3082SOL     OW10132   2.254   0.696   4.200
 3082SOL    HW110133   2.276   0.603   4.211
 3082SOL    HW210134   2.160   0.701   4.218
 3083SOL     OW10135   3.401   0.228   5.447
 3083SOL    HW110136   3.409   0.245   5.541
 3083SOL    HW210137   3.326   0.170   5.440
 3084SOL     OW10138   2.486   0.132   3.831
 3084SOL    HW110139   2.550   0.066   3.855
 3084SOL    HW210140   2.435   0.092   3.761
 3085SOL     OW10141   2.643   0.312   5.491
 3085SOL    HW110142   2.701   0.236   5.492
 3085SOL    HW210143   2.595   0.307   5.573
 3086SOL     OW10144   2.732   1.513   4.924
 3086SOL    HW110145   2.728   1.493   4.830
 3086SOL    HW210146   2.808   1.464   4.956
 3087SOL     OW10147   3.203   0.589   5.156
 3087SOL    HW110148   3.233   0.558   5.241
 3087SOL    HW210149   3.239   0.677   5.149
 3088SOL     OW10150   2.672   1.391   4.659
 3088SOL    HW110151   2.759   1.386   4.620
 3088SOL    HW210152   2.611   1.388   4.585
 3089SOL     OW10153   2.789   0.510   4.627
 3089SOL    HW110154   2.766   0.502   4.535
 3089SOL    HW210155   2.821   0.423   4.652
 3090SOL     OW10156   2.404   0.063   4.232
 3090SOL    HW110157   2.318   0.061   4.275
 3090SOL    HW210158   2.397   0.133   4.167
 3091SOL     OW10159   3.290   1.198   3.764
 3091SOL    HW110160   3.320   1.122   3.814
 3091SOL    HW210161   3.204   1.218   3.802
 3092SOL     OW10162   2.163   0.062   3.915
 3092SOL    HW110163   2.221   0.132   3.885
 3092SOL    HW210164   2.219   5.286   3.925
 3093SOL     OW10165   2.801   0.261   4.186
 3093SOL    HW110166   2.773   0.299   4.103
 3093SOL    HW210167   2.896   0.272   4.187
 3094SOL     OW10168   2.943   0.681   5.183
 3094SOL    HW110169   2.874   0.615   5.189
 3094SOL    HW210170   3.024   0.631   5.177
 3095SOL     OW10171   3.081   1.562   4.519
 3095SOL    HW110172   3.096   1.645   4.473
 3095SOL    HW210173   3.147   1.561   4.589
 3096SOL     OW10174   2.331   1.150   4.457
 3096SOL    HW110175   2.262   1.130   4.521
 3096SOL    HW210176   2.291   1.133   4.372
 3097SOL     OW10177   2.888   0.546   3.746
 3097SOL    HW110178   2.845   0.630   3.728
 3097SOL    HW210179   2.951   0.566   3.815
 3098SOL     OW10180   1.940   0.553   5.117
 3098SOL    HW110181   2.032   0.553   5.089
 3098SOL    HW210182   1.935   0.624   5.181
 3099SOL     OW10183   2.417   0.238   4.882
 3099SOL    HW110184   2.449   0.152   4.910
 3099SOL    HW210185   2.326   0.239   4.908
 3100SOL     OW10186   2.729   0.462   4.365
 3100SOL    HW110187   2.683   0.516   4.300
 3100SOL    HW210188   2.752   0.382   4.318
 3101SOL     OW10189   2.840   0.061   4.486
 3101SOL    HW110190   2.775   0.055   4.416
 3101SOL    HW210191   2.850   5.271   4.517
 3102SOL     OW10192   3.299   1.165   4.581
 3102SOL    HW110193   3.231   1.098   4.582
 3102SOL    HW210194   3.323   1.173   4.488
 3103SOL     OW10195   3.328   0.606   4.702
 3103SOL    HW110196   3.279   0.524   4.705
 3103SOL    HW210197   3.389   0.601   4.776
 3104SOL     OW10198   3.707   0.817   4.106
 3104SOL    HW110199   3.763   0.765   4.165
 3104SOL    HW210200   3.679   0.754   4.040
 3105SOL     OW10201   2.352   1.418   3.881
 3105SOL    HW110202   2.277   1.389   3.933
 3105SOL    HW210203   2.338   1.380   3.794
 3106SOL     OW10204   3.532   1.265   4.370
 3106SOL    HW110205   3.627   1.267   4.383
 3106SOL    HW210206   3.503   1.354   4.390
 3107SOL     OW10207   3.256   0.572   3.795
 3107SOL    HW110208   3.195   0.552   3.866
 3107SOL    HW210209   3.341   0.541   3.827
 3108SOL     OW10210   2.386   0.265   4.045
 3108SOL    HW110211   2.430   0.216   3.976
 3108SOL    HW210212   2.365   0.349   4.006
 3109SOL     OW10213   3.615   1.239   5.297
 3109SOL    HW110214   3.702   1.200   5.293
 3109SOL    HW210215   3.630   1.329   5.326
 3110SOL     OW10216   2.922   1.352   5.057
 3110SOL    HW110217   2.847   1.322   5.108
 3110SOL    HW210218   2.998   1.311   5.100
 3111SOL     OW10219   3.469   1.624   5.378
 3111SOL    HW110220   3.464   1.660   5.289
 3111SOL    HW210221   3.553   1.578   5.380
 3112SOL     OW10222   2.990   1.202   4.829
 3112SOL    HW110223   2.932   1.240   4.895
 3112SOL    HW210224   2.956   1.235   4.746
 3113SOL     OW10225   3.491   1.099   4.802
 3113SOL    HW110226   3.486   1.160   4.875
 3113SOL    HW210227   3.411   1.115   4.752
 3114SOL     OW10228   2.767   0.106   5.114
 3114SOL    HW110229   2.797   0.073   5.029
 3114SOL    HW210230   2.844   0.148   5.152
 3115SOL     OW10231   2.846   1.115   5.447
 3115SOL    HW110232   2.754   1.131   5.467
 3115SOL    HW210233   2.845   1.037   5.391
 3116SOL     OW10234   2.571   1.062   4.095
 3116SOL    HW110235   2.557   1.045   4.188
 3116SOL    HW210236   2.647   1.008   4.072
 3117SOL     OW10237   2.281   0.815   4.975
 3117SOL    HW110238   2.349   0.824   5.041
 3117SOL    HW210239   2.245   0.727   4.989
 3118SOL     OW10240   3.129   0.379   4.996
 3118SOL    HW110241   3.162   0.456   5.043
 3118SOL    HW210242   3.039   0.401   4.974
 3119SOL     OW10243   1.928   1.569   5.078
 3119SOL    HW110244   1.897   1.643   5.026
 3119SOL    HW210245   2.024   1.575   5.074
 3120SOL     OW10246   2.212   1.109   4.214
 3120SOL    HW110247   2.215   1.182   4.152
 3120SOL    HW210248   2.210   1.030   4.160
 3121SOL     OW10249   2.416   0.537   4.585
 3121SOL    HW110250   2.431   0.595   4.510
 3121SOL    HW210251   2.481   0.564   4.649
 3122SOL     OW10252   3.112   1.349   4.113
 3122SOL    HW110253   3.166   1.422   4.143
 3122SOL    HW210254   3.025   1.369   4.147
 3123SOL     OW10255   3.143   1.453   4.873
 3123SOL    HW110256   3.197   1.457   4.951
 3123SOL    HW210257   3.085   1.378   4.887
 3124SOL     OW10258   3.444   0.623   4.203
 3124SOL    HW110259   3.397   0.677   4.266
 3124SOL    HW210260   3.489   0.685   4.146
 3125SOL     OW10261   2.211   1.519   5.043
 3125SOL    HW110262   2.197   1.480   4.956
 3125SOL    HW210263   2.305   1.536   5.047
 3126SOL     OW10264   2.276   0.744   5.326
 3126SOL    HW110265   2.337   0.790   5.268
 3126SOL    HW210266   2.318   0.660   5.344
 3127SOL     OW10267   3.463   0.778   5.405
 3127SOL    HW110268   3.377   0.820   5.399
 3127SOL    HW210269   3.515   0.821   5.337
 3128SOL     OW10270   2.906   0.116   5.508
 3128SOL    HW110271   2.931   0.196   5.461
 3128SOL    HW210272   2.912   0.047   5.442
 3129SOL     OW10273   2.345   0.057   5.463
 3129SOL    HW110274   2.286   5.293   5.422
 3129SOL    HW210275   2.287   0.131   5.484
 3130SOL     OW10276   2.445   0.873   4.755
 3130SOL    HW110277   2.476   0.963   4.755
 3130SOL    HW210278   2.389   0.867   4.832
 3131SOL     OW10279   3.220   0.859   4.753
 3131SOL    HW110280   3.136   0.849   4.707
 3131SOL    HW210281   3.260   0.773   4.748
 3132SOL     OW10282   3.068   0.529   3.991
 3132SOL    HW110283   3.072   0.448   4.042
 3132SOL    HW210284   3.025   0.591   4.050
 3133SOL     OW10285   2.158   0.204   4.971
 3133SOL    HW110286   2.119   0.243   5.049
 3133SOL    HW210287   2.157   0.110   4.989
 3134SOL     OW10288   1.907   1.309   5.000
 3134SOL    HW110289   1.941   1.256   5.072
 3134SOL    HW210290   1.914   1.399   5.032
 3135SOL     OW10291   2.587   0.632   4.784
 3135SOL    HW110292   2.661   0.615   4.725
 3135SOL    HW210293   2.559   0.720   4.761
 3136SOL     OW10294   3.596   0.959   5.576
 3136SOL    HW110295   3.550   0.898   5.519
 3136SOL    HW210296   3.537   0.973   5.650
 3137SOL     OW10297   2.165   0.072   4.375
 3137SOL    HW110298   2.148   0.166   4.382
 3137SOL    HW210299   2.207   0.049   4.458
 3138SOL     OW10300   3.474   0.374   4.089
 3138SOL    HW110301   3.507   0.311   4.153
 3138SOL    HW210302   3.454   0.452   4.141
 3139SOL     OW10303   2.890   0.759   4.685
 3139SOL    HW110304   2.887   0.777   4.779
 3139SOL    HW210305   2.863   0.668   4.676
 3140SOL     OW10306   2.843   1.565   5.440
 3140SOL    HW110307   2.829   1.610   5.357
 3140SOL    HW210308   2.887   1.484   5.416
 3141SOL     OW10309   3.717   1.506   5.329
 3141SOL    HW110310   3.735   1.533   5.239
 3141SOL    HW210311   3.798   1.525   5.376
 3142SOL     OW10312   2.215   0.916   5.533
 3142SOL    HW110313   2.297   0.935   5.578
 3142SOL    HW210314   2.240   0.853   5.464
 3143SOL     OW10315   3.388   0.272   3.850
 3143SOL    HW110316   3.325   0.208   3.881
 3143SOL    HW210317   3.425   0.310   3.930
 3144SOL     OW10318   3.154   0.827   3.756
 3144SOL    HW110319   3.196   0.741   3.759
 3144SOL    HW210320   3.185   0.865   3.674
 3145SOL     OW10321   2.925   1.333   4.578
 3145SOL    HW110322   2.929   1.261   4.515
 3145SOL    HW210323   2.986   1.398   4.543
 3146SOL     OW10324   2.171   0.809   4.671
 3146SOL    HW110325   2.264   0.831   4.665
 3146SOL    HW210326   2.169   0.719   4.704
 3147SOL     OW10327   2.194   0.525   4.736
 3147SOL    HW110328   2.158   0.438   4.721
 3147SOL    HW210329   2.271   0.530   4.679
 3148SOL     OW10330   2.997   0.377   5.412
 3148SOL    HW110331   2.950   0.432   5.474
 3148SOL    HW210332   3.085   0.417   5.408
 3149SOL     OW10333   2.996   0.222   5.190
 3149SOL    HW110334   3.000   0.281   5.265
 3149SOL    HW210335   3.051   0.264   5.124
 3150SOL     OW10336   1.868   1.321   3.919
 3150SOL    HW110337   1.781   1.335   3.882
 3150SOL    HW210338   1.865   1.231   3.952
 3151SOL     OW10339   1.951   1.789   4.657
 3151SOL    HW110340   1.917   1.709   4.617
 3151SOL    HW210341   2.042   1.794   4.628
 3152SOL     OW10342   2.375   1.570   4.629
 3152SOL    HW110343   2.455   1.601   4.672
 3152SOL    HW210344   2.405   1.502   4.569
 3153SOL     OW10345   2.846   0.792   4.950
 3153SOL    HW110346   2.901   0.769   5.025
 3153SOL    HW210347   2.760   0.756   4.973
 3154SOL     OW10348   1.897   0.543   4.841
 3154SOL    HW110349   1.977   0.530   4.790
 3154SOL    HW210350   1.927   0.548   4.932
 3155SOL     OW10351   2.049   0.522   5.451
 3155SOL    HW110352   2.113   0.487   5.388
 3155SOL    HW210353   2.008   0.596   5.405
 3156SOL     OW10354   3.239   0.939   5.383
 3156SOL    HW110355   3.260   1.032   5.381
 3156SOL    HW210356   3.236   0.913   5.290
 3157SOL     OW10357   2.676   0.572   4.086
 3157SOL    HW110358   2.680   0.498   4.026
 3157SOL    HW210359   2.602   0.625   4.055
 3158SOL     OW10360   3.504   0.602   4.910
 3158SOL    HW110361   3.493   0.542   4.984
 3158SOL    HW210362   3.591   0.581   4.876
 3159SOL     OW10363   2.105   1.552   5.451
 3159SOL    HW110364   2.083   1.616   5.519
 3159SOL    HW210365   2.107   1.468   5.498
 3160SOL     OW10366   2.560   0.452   4.984
 3160SOL    HW110367   2.509   0.378   4.951
 3160SOL    HW210368   2.560   0.516   4.913
 3161SOL     OW10369   2.793   1.676   5.189
 3161SOL    HW110370   2.767   1.645   5.103
 3161SOL    HW210371   2.786   1.772   5.184
 3162SOL     OW10372   2.325   0.493   3.907
 3162SOL    HW110373   2.385   0.564   3.930
 3162SOL    HW210374   2.240   0.535   3.898
 3163SOL     OW10375   2.007   1.140   5.196
 3163SOL    HW110376   2.010   1.088   5.277
 3163SOL    HW210377   2.025   1.077   5.127
 3164SOL     OW10378   3.188   1.047   4.947
 3164SOL    HW110379   3.211   0.983   4.879
 3164SOL    HW210380   3.118   1.099   4.908
 3165SOL     OW10381   3.172   0.858   4.031
 3165SOL    HW110382   3.097   0.825   4.080
 3165SOL    HW210383   3.149   0.843   3.939
 3166SOL     OW10384   3.646   1.742   4.883
 3166SOL    HW110385   3.699   1.771   4.809
 3166SOL    HW210386   3.611   1.657   4.856
 3167SOL     OW10387   3.105   1.723   4.835
 3167SOL    HW110388   3.199   1.741   4.831
 3167SOL    HW210389   3.099   1.630   4.856
 3168SOL     OW10390   1.948   1.266   4.737
 3168SOL    HW110391   1.933   1.279   4.830
 3168SOL    HW210392   1.873   1.214   4.708
 3169SOL     OW10393   2.539   1.666   5.453
 3169SOL    HW110394   2.484   1.744   5.451
 3169SOL    HW210395   2.602   1.678   5.381
 3170SOL     OW10396   3.574   0.148   4.227
 3170SOL    HW110397   3.650   0.128   4.171
 3170SOL    HW210398   3.567   0.074   4.286
 3171SOL     OW10399   3.252   1.578   4.204
 3171SOL    HW110400   3.321   1.592   4.140
 3171SOL    HW210401   3.204   1.660   4.206
 3172SOL     OW10402   1.997   1.796   5.568
 3172SOL    HW110403   1.947   1.730   5.616
 3172SOL    HW210404   2.044   1.844   5.636
 3173SOL     OW10405   3.139   0.926   4.395
 3173SOL    HW110406   3.212   0.865   4.402
 3173SOL    HW210407   3.173   0.998   4.343
 3174SOL     OW10408   2.678   1.272   5.155
 3174SOL    HW110409   2.649   1.312   5.237
 3174SOL    HW210410   2.611   1.298   5.091
 3175SOL     OW10411   2.534   1.617   3.881
 3175SOL    HW110412   2.542   1.636   3.788
 3175SOL    HW210413   2.477   1.541   3.886
 3176SOL     OW10414   3.486   1.725   5.114
 3176SOL    HW110415   3.542   1.733   5.037
 3176SOL    HW210416   3.473   1.816   5.143
 3177SOL     OW10417   3.707   0.157   4.681
 3177SOL    HW110418   3.707   0.062   4.668
 3177SOL    HW210419   3.620   0.185   4.653
 3178SOL     OW10420   2.124   0.329   4.443
 3178SOL    HW110421   2.036   0.360   4.421
 3178SOL    HW210422   2.122   0.317   4.538
 3179SOL     OW10423   3.072   1.608   3.765
 3179SOL    HW110424   3.055   1.515   3.777
 3179SOL    HW210425   3.030   1.629   3.681
 3180SOL     OW10426   2.686   1.006   5.096
 3180SOL    HW110427   2.730   1.002   5.011
 3180SOL    HW210428   2.686   1.099   5.119
 3181SOL     OW10429   2.778   0.911   4.014
 3181SOL    HW110430   2.839   0.942   3.948
 3181SOL    HW210431   2.825   0.841   4.059
 3182SOL     OW10432   3.356   1.622   3.767
 3182SOL    HW110433   3.261   1.621   3.756
 3182SOL    HW210434   3.390   1.632   3.678
 3183SOL     OW10435   2.231   1.300   5.217
 3183SOL    HW110436   2.220   1.378   5.162
 3183SOL    HW210437   2.153   1.247   5.200
 3184SOL     OW10438   3.472   1.283   5.004
 3184SOL    HW110439   3.533   1.272   5.077
 3184SOL    HW210440   3.412   1.352   5.033
 3185SOL     OW10441   2.913   1.106   4.429
 3185SOL    HW110442   2.843   1.056   4.469
 3185SOL    HW210443   2.976   1.041   4.399
 3186SOL     OW10444   2.881   0.243   4.692
 3186SOL    HW110445   2.861   0.197   4.610
 3186SOL    HW210446   2.874   0.176   4.760
 3187SOL     OW10447   2.465   1.493   4.202
 3187SOL    HW110448   2.510   1.439   4.137
 3187SOL    HW210449   2.391   1.531   4.156
 3188SOL     OW10450   3.586   0.387   5.102
 3188SOL    HW110451   3.656   0.452   5.102
 3188SOL    HW210452   3.618   0.317   5.044
 3189SOL     OW10453   2.122   1.345   4.014
 3189SOL    HW110454   2.029   1.344   3.991
 3189SOL    HW210455   2.124   1.380   4.103
 3190SOL     OW10456   1.975   1.020   5.443
 3190SOL    HW110457   1.898   0.998   5.497
 3190SOL    HW210458   2.049   0.984   5.491
 3191SOL     OW10459   2.534   0.211   5.212
 3191SOL    HW110460   2.618   0.194   5.169
 3191SOL    HW210461   2.558   0.261   5.290
 3192SOL     OW10462   1.939   0.339   3.765
 3192SOL    HW110463   1.856   0.306   3.732
 3192SOL    HW210464   1.961   0.412   3.707
 3193SOL     OW10465   3.292   0.858   5.124
 3193SOL    HW110466   3.243   0.919   5.069
 3193SOL    HW210467   3.381   0.861   5.091
 3194SOL     OW10468   1.934   0.167   4.039
 3194SOL    HW110469   1.935   0.250   3.992
 3194SOL    HW210470   2.018   0.127   4.019
 3195SOL     OW10471   3.041   1.337   3.839
 3195SOL    HW110472   2.950   1.306   3.843
 3195SOL    HW210473   3.069   1.339   3.930
 3196SOL     OW10474   2.481   0.830   5.157
 3196SOL    HW110475   2.536   0.907   5.142
 3196SOL    HW210476   2.543   0.758   5.166
 3197SOL     OW10477   2.577   0.572   5.427
 3197SOL    HW110478   2.618   0.636   5.486
 3197SOL    HW210479   2.608   0.487   5.458
 3198SOL     OW10480   3.333   1.200   5.356
 3198SOL    HW110481   3.321   1.214   5.450
 3198SOL    HW210482   3.427   1.215   5.342
 3199SOL     OW10483   2.241   1.740   5.287
 3199SOL    HW110484   2.156   1.782   5.273
 3199SOL    HW210485   2.219   1.657   5.329
 3200SOL     OW10486   3.532   0.881   4.979
 3200SOL    HW110487   3.525   0.796   4.937
 3200SOL    HW210488   3.523   0.945   4.908
 3201SOL     OW10489   3.082   0.319   4.190
 3201SOL    HW110490   3.145   0.248   4.182
 3201SOL    HW210491   3.113   0.371   4.264
 3202SOL     OW10492   2.452   0.738   4.394
 3202SOL    HW110493   2.491   0.824   4.377
 3202SOL    HW210494   2.384   0.730   4.327
 3203SOL     OW10495   3.628   0.362   5.373
 3203SOL    HW110496   3.609   0.376   5.280
 3203SOL    HW210497   3.557   0.306   5.404
 3204SOL     OW10498   3.606   0.934   5.236
 3204SOL    HW110499   3.604   1.028   5.250
 3204SOL    HW210500   3.591   0.922   5.143
 3205SOL     OW10501   2.724   1.366   3.759
 3205SOL    HW110502   2.683   1.398   3.839
 3205SOL    HW210503   2.743   1.445   3.708
 3206SOL     OW10504   2.729   0.967   4.579
 3206SOL    HW110505   2.779   0.896   4.619
 3206SOL    HW210506   2.695   1.016   4.654
 3207SOL     OW10507   2.941   0.989   3.812
 3207SOL    HW110508   2.920   1.039   3.733
 3207SOL    HW210509   3.016   0.935   3.787
 3208SOL     OW10510   3.718   1.555   4.569
 3208SOL    HW110511   3.640   1.543   4.515
 3208SOL    HW210512   3.709   1.491   4.639
 3209SOL     OW10513   2.087   1.303   5.580
 3209SOL    HW110514   2.019   1.243   5.551
 3209SOL    HW210515   2.070   1.315   5.673
 3210SOL     OW10516   1.946   1.233   4.388
 3210SOL    HW110517   1.949   1.185   4.471
 3210SOL    HW210518   2.014   1.193   4.335
 3211SOL     OW10519   2.542   1.403   5.351
 3211SOL    HW110520   2.463   1.360   5.383
 3211SOL    HW210521   2.539   1.491   5.388
 3212SOL     OW10522   3.676   0.177   4.957
 3212SOL    HW110523   3.643   0.088   4.963
 3212SOL    HW210524   3.694   0.190   4.863
 3213SOL     OW10525   2.292   0.435   4.248
 3213SOL    HW110526   2.324   0.363   4.195
 3213SOL    HW210527   2.245   0.394   4.320
 3214SOL     OW10528   3.562   1.490   4.820
 3214SOL    HW110529   3.480   1.465   4.777
 3214SOL    HW210530   3.577   1.423   4.886
 3215SOL     OW10531   2.190   0.556   5.014
 3215SOL    HW110532   2.246   0.501   5.069
 3215SOL    HW210533   2.211   0.528   4.925
 3216SOL     OW10534   2.681   1.585   4.397
 3216SOL    HW110535   2.675   1.601   4.303
 3216SOL    HW210536   2.610   1.525   4.416
 3217SOL     OW10537   3.290   0.218   4.840
 3217SOL    HW110538   3.327   0.144   4.888
 3217SOL    HW210539   3.241   0.268   4.906
 3218SOL     OW10540   2.865   0.021   4.864
 3218SOL    HW110541   2.814   5.252   4.823
 3218SOL    HW210542   2.951   5.283   4.878
 3219SOL     OW10543   2.633   1.333   4.042
 3219SOL    HW110544   2.600   1.243   4.045
 3219SOL    HW210545   2.718   1.328   4.086
 3220SOL     OW10546   2.479   1.561   5.003
 3220SOL    HW110547   2.484   1.639   5.058
 3220SOL    HW210548   2.569   1.547   4.973
 3221SOL     OW10549   3.218   0.039   3.886
 3221SOL    HW110550   3.250   5.295   3.807
 3221SOL    HW210551   3.138   5.292   3.908
 3222SOL     OW10552   3.163   0.464   4.409
 3222SOL    HW110553   3.108   0.542   4.414
 3222SOL    HW210554   3.156   0.423   4.495
 3223SOL     OW10555   3.456   0.215   4.606
 3223SOL    HW110556   3.390   0.227   4.674
 3223SOL    HW210557   3.449   0.294   4.552
 3224SOL     OW10558   1.906   1.071   4.030
 3224SOL    HW110559   2.000   1.062   4.012
 3224SOL    HW210560   1.877   0.983   4.053
 3225SOL     OW10561   2.736   1.647   4.075
 3225SOL    HW110562   2.674   1.618   4.008
 3225SOL    HW210563   2.711   1.738   4.092
 3226SOL     OW10564   2.090   0.625   5.709
 3226SOL    HW110565   2.001   0.622   5.744
 3226SOL    HW210566   2.081   0.598   5.617
 3227SOL     OW10567   2.080   0.284   6.578
 3227SOL    HW110568   2.109   0.249   6.663
 3227SOL    HW210569   1.995   0.243   6.563
 3228SOL     OW10570   1.866   0.386   6.224
 3228SOL    HW110571   1.782   0.407   6.264
 3228SOL    HW210572   1.848   0.308   6.171
 3229SOL     OW10573   2.429   1.287   6.761
 3229SOL    HW110574   2.341   1.291   6.722
 3229SOL    HW210575   2.444   1.376   6.794
 3230SOL     OW10576   3.423   1.511   6.292
 3230SOL    HW110577   3.380   1.492   6.376
 3230SOL    HW210578   3.351   1.516   6.229
 3231SOL     OW10579   2.993   0.698   6.288
 3231SOL    HW110580   3.042   0.779   6.273
 3231SOL    HW210581   2.946   0.713   6.370
 3232SOL     OW10582   3.629   0.606   5.815
 3232SOL    HW110583   3.608   0.598   5.721
 3232SOL    HW210584   3.594   0.526   5.854
 3233SOL     OW10585   2.617   1.142   6.626
 3233SOL    HW110586   2.548   1.177   6.683
 3233SOL    HW210587   2.653   1.219   6.582
 3234SOL     OW10588   2.726   0.779   7.406
 3234SOL    HW110589   2.714   0.854   7.465
 3234SOL    HW210590   2.753   0.818   7.323
 3235SOL     OW10591   2.548   1.003   6.233
 3235SOL    HW110592   2.613   0.991   6.302
 3235SOL    HW210593   2.479   1.055   6.273
 3236SOL     OW10594   2.572   1.151   7.398
 3236SOL    HW110595   2.620   1.230   7.424
 3236SOL    HW210596   2.489   1.184   7.362
 3237SOL     OW10597   2.192   1.426   6.654
 3237SOL    HW110598   2.120   1.388   6.603
 3237SOL    HW210599   2.243   1.476   6.590
 3238SOL     OW10600   3.323   1.499   6.940
 3238SOL    HW110601   3.373   1.580   6.949
 3238SOL    HW210602   3.261   1.501   7.013
 3239SOL     OW10603   2.306   0.398   7.074
 3239SOL    HW110604   2.381   0.339   7.071
 3239SOL    HW210605   2.230   0.341   7.087
 3240SOL     OW10606   3.473   0.451   6.324
 3240SOL    HW110607   3.397   0.475   6.270
 3240SOL    HW210608   3.491   0.530   6.375
 3241SOL     OW10609   2.081   1.714   6.059
 3241SOL    HW110610   2.103   1.791   6.111
 3241SOL    HW210611   2.153   1.707   5.996
 3242SOL     OW10612   2.998   1.341   7.276
 3242SOL    HW110613   3.038   1.338   7.363
 3242SOL    HW210614   2.946   1.261   7.271
 3243SOL     OW10615   2.092   1.441   6.121
 3243SOL    HW110616   2.075   1.535   6.125
 3243SOL    HW210617   2.032   1.404   6.185
 3244SOL     OW10618   2.119   1.090   6.477
 3244SOL    HW110619   2.116   1.004   6.518
 3244SOL    HW210620   2.061   1.144   6.531
 3245SOL     OW10621   2.473   1.791   7.015
 3245SOL    HW110622   2.392   1.774   7.062
 3245SOL    HW210623   2.498   1.880   7.040
 3246SOL     OW10624   2.448   0.982   5.720
 3246SOL    HW110625   2.493   1.031   5.651
 3246SOL    HW210626   2.488   1.012   5.802
 3247SOL     OW10627   3.448   0.135   7.043
 3247SOL    HW110628   3.470   0.220   7.004
 3247SOL    HW210629   3.446   0.152   7.137
 3248SOL     OW10630   1.976   0.653   6.145
 3248SOL    HW110631   1.949   0.564   6.167
 3248SOL    HW210632   1.969   0.701   6.228
 3249SOL     OW10633   3.704   1.759   5.921
 3249SOL    HW110634   3.768   1.731   5.987
 3249SOL    HW210635   3.728   1.850   5.902
 3250SOL     OW10636   1.893   1.595   5.711
 3250SOL    HW110637   1.876   1.503   5.731
 3250SOL    HW210638   1.870   1.642   5.791
 3251SOL     OW10639   3.551   0.918   6.226
 3251SOL    HW110640   3.634   0.876   6.205
 3251SOL    HW210641   3.529   0.969   6.148
 3252SOL     OW10642   3.508   1.107   6.015
 3252SOL    HW110643   3.593   1.113   5.973
 3252SOL    HW210644   3.513   1.168   6.089
 3253SOL     OW10645   1.984   0.743   7.171
 3253SOL    HW110646   2.076   0.769   7.179
 3253SOL    HW210647   1.936   0.825   7.180
 3254SOL     OW10648   2.475   1.385   6.321
 3254SOL    HW110649   2.429   1.302   6.330
 3254SOL    HW210650   2.459   1.412   6.231
 3255SOL     OW10651   3.151   1.238   7.009
 3255SOL    HW110652   3.183   1.171   6.950
 3255SOL    HW210653   3.208   1.232   7.086
 3256SOL     OW10654   2.672   0.027   6.113
 3256SOL    HW110655   2.701   0.114   6.088
 3256SOL    HW210656   2.577   0.030   6.107
 3257SOL     OW10657   2.052   0.966   6.857
 3257SOL    HW110658   2.137   0.925   6.842
 3257SOL    HW210659   1.990   0.912   6.809
 3258SOL     OW10660   3.394   0.993   5.784
 3258SOL    HW110661   3.324   0.936   5.816
 3258SOL    HW210662   3.434   1.028   5.864
 3259SOL     OW10663   3.047   1.806   7.208
 3259SOL    HW110664   3.057   1.865   7.134
 3259SOL    HW210665   3.064   1.719   7.172
 3260SOL     OW10666   2.188   0.262   7.402
 3260SOL    HW110667   2.240   0.340   7.424
 3260SOL    HW210668   2.101   0.281   7.437
 3261SOL     OW10669   3.329   1.419   6.538
 3261SOL    HW110670   3.260   1.435   6.603
 3261SOL    HW210671   3.316   1.328   6.511
 3262SOL     OW10672   3.521   1.739   6.164
 3262SOL    HW110673   3.501   1.710   6.075
 3262SOL    HW210674   3.496   1.665   6.220
 3263SOL     OW10675   2.457   0.721   5.852
 3263SOL    HW110676   2.463   0.802   5.801
 3263SOL    HW210677   2.392   0.740   5.919
 3264SOL     OW10678   3.140   0.346   6.517
 3264SOL    HW110679   3.049   0.318   6.529
 3264SOL    HW210680   3.190   0.297   6.582
 3265SOL     OW10681   3.443   1.669   5.895
 3265SOL    HW110682   3.533   1.702   5.888
 3265SOL    HW210683   3.416   1.653   5.805
 3266SOL     OW10684   2.656   0.618   7.036
 3266SOL    HW110685   2.628   0.597   7.126
 3266SOL    HW210686   2.613   0.552   6.982
 3267SOL     OW10687   3.257   0.475   7.264
 3267SOL    HW110688   3.258   0.520   7.348
 3267SOL    HW210689   3.320   0.404   7.273
 3268SOL     OW10690   2.817   0.887   7.168
 3268SOL    HW110691   2.872   0.818   7.132
 3268SOL    HW210692   2.769   0.922   7.092
 3269SOL     OW10693   2.856   0.416   6.822
 3269SOL    HW110694   2.771   0.439   6.860
 3269SOL    HW210695   2.834   0.369   6.742
 3270SOL     OW10696   2.913   0.698   6.013
 3270SOL    HW110697   2.928   0.691   6.107
 3270SOL    HW210698   2.830   0.652   5.998
 3271SOL     OW10699   1.950   0.820   6.363
 3271SOL    HW110700   2.031   0.814   6.413
 3271SOL    HW210701   1.907   0.899   6.397
 3272SOL     OW10702   1.988   1.852   7.166
 3272SOL    HW110703   1.989   1.829   7.258
 3272SOL    HW210704   1.898   1.835   7.137
 3273SOL     OW10705   2.735   0.364   5.775
 3273SOL    HW110706   2.778   0.424   5.713
 3273SOL    HW210707   2.789   0.284   5.772
 3274SOL     OW10708   3.571   0.575   7.415
 3274SOL    HW110709   3.533   0.650   7.368
 3274SOL    HW210710   3.599   0.515   7.346
 3275SOL     OW10711   3.238   1.142   6.127
 3275SOL    HW110712   3.317   1.129   6.075
 3275SOL    HW210713   3.186   1.204   6.077
 3276SOL     OW10714   2.389   0.202   6.468
 3276SOL    HW110715   2.411   0.217   6.560
 3276SOL    HW210716   2.410   0.284   6.425
 3277SOL     OW10717   2.868   1.444   6.058
 3277SOL    HW110718   2.830   1.517   6.009
 3277SOL    HW210719   2.851   1.466   6.150
 3278SOL     OW10720   2.216   1.808   6.448
 3278SOL    HW110721   2.261   1.724   6.456
 3278SOL    HW210722   2.285   1.873   6.465
 3279SOL     OW10723   3.661   1.056   6.454
 3279SOL    HW110724   3.606   1.040   6.377
 3279SOL    HW210725   3.599   1.062   6.527
 3280SOL     OW10726   3.090   1.539   7.099
 3280SOL    HW110727   3.076   1.466   7.159
 3280SOL    HW210728   3.027   1.524   7.029
 3281SOL     OW10729   2.182   0.957   5.836
 3281SOL    HW110730   2.264   0.976   5.791
 3281SOL    HW210731   2.152   0.875   5.797
 3282SOL     OW10732   3.340   0.742   6.313
 3282SOL    HW110733   3.332   0.700   6.398
 3282SOL    HW210734   3.418   0.798   6.322
 3283SOL     OW10735   2.327   1.264   7.324
 3283SOL    HW110736   2.300   1.269   7.232
 3283SOL    HW210737   2.245   1.262   7.373
 3284SOL     OW10738   2.984   1.777   5.817
 3284SOL    HW110739   2.910   1.736   5.863
 3284SOL    HW210740   3.007   1.716   5.747
 3285SOL     OW10741   2.059   0.278   7.088
 3285SOL    HW110742   1.980   0.332   7.083
 3285SOL    HW210743   2.049   0.229   7.169
 3286SOL     OW10744   3.491   1.379   5.674
 3286SOL    HW110745   3.450   1.465   5.659
 3286SOL    HW210746   3.421   1.316   5.654
 3287SOL     OW10747   2.329   1.737   5.907
 3287SOL    HW110748   2.371   1.793   5.971
 3287SOL    HW210749   2.400   1.706   5.850
 3288SOL     OW10750   3.269   0.099   6.017
 3288SOL    HW110751   3.261   0.082   5.924
 3288SOL    HW210752   3.361   0.122   6.030
 3289SOL     OW10753   2.116   1.791   6.819
 3289SOL    HW110754   2.170   1.727   6.864
 3289SOL    HW210755   2.109   1.758   6.729
 3290SOL     OW10756   2.800   1.698   6.486
 3290SOL    HW110757   2.878   1.647   6.505
 3290SOL    HW210758   2.756   1.648   6.417
 3291SOL     OW10759   2.254   0.696   6.062
 3291SOL    HW110760   2.275   0.603   6.073
 3291SOL    HW210761   2.160   0.701   6.080
 3292SOL     OW10762   3.401   0.227   7.310
 3292SOL    HW110763   3.408   0.245   7.404
 3292SOL    HW210764   3.325   0.169   7.303
 3293SOL     OW10765   2.486   0.132   5.693
 3293SOL    HW110766   2.551   0.066   5.717
 3293SOL    HW210767   2.434   0.092   5.623
 3294SOL     OW10768   2.642   0.312   7.350
 3294SOL    HW110769   2.702   0.238   7.352
 3294SOL    HW210770   2.600   0.312   7.436
 3295SOL     OW10771   2.737   1.520   6.780
 3295SOL    HW110772   2.723   1.485   6.692
 3295SOL    HW210773   2.808   1.467   6.816
 3296SOL     OW10774   3.203   0.589   7.018
 3296SOL    HW110775   3.233   0.558   7.103
 3296SOL    HW210776   3.239   0.677   7.011
 3297SOL     OW10777   2.677   1.395   6.525
 3297SOL    HW110778   2.761   1.384   6.481
 3297SOL    HW210779   2.613   1.396   6.454
 3298SOL     OW10780   2.789   0.510   6.489
 3298SOL    HW110781   2.765   0.502   6.397
 3298SOL    HW210782   2.821   0.423   6.514
 3299SOL     OW10783   2.404   0.062   6.094
 3299SOL    HW110784   2.318   0.061   6.137
 3299SOL    HW210785   2.397   0.132   6.029
 3300SOL     OW10786   3.290   1.198   5.627
 3300SOL    HW110787   3.320   1.123   5.677
 3300SOL    HW210788   3.204   1.220   5.664
 3301SOL     OW10789   2.163   0.062   5.777
 3301SOL    HW110790   2.221   0.132   5.747
 3301SOL    HW210791   2.220   5.286   5.787
 3302SOL     OW10792   2.801   0.261   6.048
 3302SOL    HW110793   2.773   0.300   5.965
 3302SOL    HW210794   2.896   0.273   6.049
 3303SOL     OW10795   2.943   0.681   7.045
 3303SOL    HW110796   2.874   0.615   7.051
 3303SOL    HW210797   3.024   0.631   7.039
 3304SOL     OW10798   3.085   1.570   6.380
 3304SOL    HW110799   3.101   1.637   6.313
 3304SOL    HW210800   3.153   1.585   6.446
 3305SOL     OW10801   2.330   1.149   6.320
 3305SOL    HW110802   2.261   1.130   6.383
 3305SOL    HW210803   2.291   1.133   6.234
 3306SOL     OW10804   3.131   1.794   6.194
 3306SOL    HW110805   3.177   1.855   6.137
 3306SOL    HW210806   3.065   1.848   6.238
 3307SOL     OW10807   2.888   0.546   5.608
 3307SOL    HW110808   2.845   0.630   5.590
 3307SOL    HW210809   2.951   0.567   5.677
 3308SOL     OW10810   1.941   0.553   6.980
 3308SOL    HW110811   2.032   0.553   6.951
 3308SOL    HW210812   1.935   0.624   7.044
 3309SOL     OW10813   2.418   0.238   6.744
 3309SOL    HW110814   2.449   0.152   6.772
 3309SOL    HW210815   2.326   0.239   6.770
 3310SOL     OW10816   2.729   0.462   6.227
 3310SOL    HW110817   2.683   0.516   6.162
 3310SOL    HW210818   2.752   0.382   6.180
 3311SOL     OW10819   2.840   0.061   6.348
 3311SOL    HW110820   2.775   0.055   6.278
 3311SOL    HW210821   2.850   5.271   6.379
 3312SOL     OW10822   3.299   1.162   6.443
 3312SOL    HW110823   3.230   1.097   6.442
 3312SOL    HW210824   3.324   1.174   6.352
 3313SOL     OW10825   3.328   0.606   6.564
 3313SOL    HW110826   3.279   0.524   6.567
 3313SOL    HW210827   3.389   0.601   6.638
 3314SOL     OW10828   3.708   0.816   5.968
 3314SOL    HW110829   3.764   0.765   6.027
 3314SOL    HW210830   3.679   0.754   5.901
 3315SOL     OW10831   2.353   1.418   5.743
 3315SOL    HW110832   2.278   1.389   5.795
 3315SOL    HW210833   2.338   1.380   5.657
 3316SOL     OW10834   3.532   1.264   6.233
 3316SOL    HW110835   3.627   1.268   6.245
 3316SOL    HW210836   3.501   1.352   6.253
 3317SOL     OW10837   3.256   0.572   5.657
 3317SOL    HW110838   3.195   0.553   5.728
 3317SOL    HW210839   3.341   0.541   5.689
 3318SOL     OW10840   2.385   0.265   5.907
 3318SOL    HW110841   2.430   0.216   5.838
 3318SOL    HW210842   2.365   0.349   5.868
 3319SOL     OW10843   3.615   1.238   7.159
 3319SOL    HW110844   3.702   1.200   7.155
 3319SOL    HW210845   3.629   1.328   7.188
 3320SOL     OW10846   2.921   1.353   6.919
 3320SOL    HW110847   2.846   1.322   6.971
 3320SOL    HW210848   2.997   1.312   6.961
 3321SOL     OW10849   3.469   1.625   7.238
 3321SOL    HW110850   3.464   1.660   7.149
 3321SOL    HW210851   3.553   1.578   7.241
 3322SOL     OW10852   2.990   1.202   6.691
 3322SOL    HW110853   2.932   1.241   6.757
 3322SOL    HW210854   2.958   1.235   6.608
 3323SOL     OW10855   3.490   1.098   6.663
 3323SOL    HW110856   3.486   1.160   6.736
 3323SOL    HW210857   3.411   1.115   6.612
 3324SOL     OW10858   2.766   0.106   6.976
 3324SOL    HW110859   2.796   0.072   6.891
 3324SOL    HW210860   2.843   0.148   7.013
 3325SOL     OW10861   2.846   1.114   7.310
 3325SOL    HW110862   2.754   1.131   7.329
 3325SOL    HW210863   2.845   1.037   7.254
 3326SOL     OW10864   2.571   1.061   5.957
 3326SOL    HW110865   2.557   1.045   6.050
 3326SOL    HW210866   2.646   1.008   5.934
 3327SOL     OW10867   2.280   0.815   6.838
 3327SOL    HW110868   2.349   0.824   6.904
 3327SOL    HW210869   2.245   0.727   6.852
 3328SOL     OW10870   3.129   0.379   6.858
 3328SOL    HW110871   3.162   0.456   6.905
 3328SOL    HW210872   3.039   0.401   6.836
 3329SOL     OW10873   1.933   1.574   6.939
 3329SOL    HW110874   1.903   1.646   6.883
 3329SOL    HW210875   2.028   1.576   6.932
 3330SOL     OW10876   2.211   1.109   6.077
 3330SOL    HW110877   2.217   1.182   6.015
 3330SOL    HW210878   2.209   1.031   6.021
 3331SOL     OW10879   2.416   0.538   6.447
 3331SOL    HW110880   2.431   0.595   6.372
 3331SOL    HW210881   2.481   0.564   6.511
 3332SOL     OW10882   3.110   1.348   5.975
 3332SOL    HW110883   3.166   1.420   6.006
 3332SOL    HW210884   3.023   1.369   6.009
 3333SOL     OW10885   3.143   1.457   6.733
 3333SOL    HW110886   3.199   1.460   6.811
 3333SOL    HW210887   3.087   1.380   6.746
 3334SOL     OW10888   3.444   0.623   6.065
 3334SOL    HW110889   3.397   0.677   6.128
 3334SOL    HW210890   3.489   0.685   6.008
 3335SOL     OW10891   2.209   1.527   6.901
 3335SOL    HW110892   2.196   1.484   6.816
 3335SOL    HW210893   2.303   1.539   6.909
 3336SOL     OW10894   2.276   0.744   7.188
 3336SOL    HW110895   2.337   0.790   7.130
 3336SOL    HW210896   2.318   0.660   7.206
 3337SOL     OW10897   3.463   0.778   7.267
 3337SOL    HW110898   3.377   0.819   7.261
 3337SOL    HW210899   3.515   0.821   7.200
 3338SOL     OW10900   2.904   0.116   7.372
 3338SOL    HW110901   2.932   0.196   7.326
 3338SOL    HW210902   2.911   0.047   7.306
 3339SOL     OW10903   2.345   0.057   7.324
 3339SOL    HW110904   2.287   5.292   7.284
 3339SOL    HW210905   2.287   0.130   7.347
 3340SOL     OW10906   2.446   0.872   6.618
 3340SOL    HW110907   2.476   0.963   6.616
 3340SOL    HW210908   2.389   0.868   6.694
 3341SOL     OW10909   3.220   0.859   6.616
 3341SOL    HW110910   3.137   0.850   6.569
 3341SOL    HW210911   3.260   0.772   6.610
 3342SOL     OW10912   3.068   0.528   5.853
 3342SOL    HW110913   3.072   0.448   5.905
 3342SOL    HW210914   3.025   0.591   5.911
 3343SOL     OW10915   2.159   0.204   6.833
 3343SOL    HW110916   2.119   0.243   6.911
 3343SOL    HW210917   2.158   0.110   6.851
 3344SOL     OW10918   1.907   1.311   6.862
 3344SOL    HW110919   1.941   1.256   6.934
 3344SOL    HW210920   1.915   1.401   6.895
 3345SOL     OW10921   2.587   0.632   6.646
 3345SOL    HW110922   2.661   0.615   6.587
 3345SOL    HW210923   2.559   0.720   6.623
 3346SOL     OW10924   3.597   0.959   7.438
 3346SOL    HW110925   3.549   0.899   7.382
 3346SOL    HW210926   3.540   0.974   7.513
 3347SOL     OW10927   2.165   0.072   6.237
 3347SOL    HW110928   2.148   0.166   6.244
 3347SOL    HW210929   2.207   0.049   6.320
 3348SOL     OW10930   3.474   0.374   5.951
 3348SOL    HW110931   3.507   0.311   6.015
 3348SOL    HW210932   3.454   0.452   6.003
 3349SOL     OW10933   2.890   0.759   6.547
 3349SOL    HW110934   2.887   0.777   6.641
 3349SOL    HW210935   2.863   0.668   6.539
 3350SOL     OW10936   2.843   1.565   7.302
 3350SOL    HW110937   2.829   1.610   7.219
 3350SOL    HW210938   2.888   1.484   7.278
 3351SOL     OW10939   3.717   1.506   7.191
 3351SOL    HW110940   3.735   1.532   7.101
 3351SOL    HW210941   3.798   1.525   7.238
 3352SOL     OW10942   2.215   0.914   7.396
 3352SOL    HW110943   2.298   0.935   7.439
 3352SOL    HW210944   2.239   0.853   7.327
 3353SOL     OW10945   3.389   0.272   5.712
 3353SOL    HW110946   3.325   0.208   5.743
 3353SOL    HW210947   3.425   0.310   5.792
 3354SOL     OW10948   3.154   0.826   5.617
 3354SOL    HW110949   3.196   0.741   5.621
 3354SOL    HW210950   3.185   0.866   5.536
 3355SOL     OW10951   2.928   1.336   6.440
 3355SOL    HW110952   2.931   1.263   6.378
 3355SOL    HW210953   2.989   1.400   6.405
 3356SOL     OW10954   2.171   0.809   6.534
 3356SOL    HW110955   2.264   0.831   6.526
 3356SOL    HW210956   2.170   0.719   6.566
 3357SOL     OW10957   2.194   0.526   6.599
 3357SOL    HW110958   2.158   0.438   6.583
 3357SOL    HW210959   2.271   0.531   6.541
 3358SOL     OW10960   2.997   0.377   7.274
 3358SOL    HW110961   2.950   0.432   7.336
 3358SOL    HW210962   3.085   0.416   7.269
 3359SOL     OW10963   2.996   0.222   7.051
 3359SOL    HW110964   3.000   0.281   7.127
 3359SOL    HW210965   3.051   0.264   6.985
 3360SOL     OW10966   1.867   1.321   5.781
 3360SOL    HW110967   1.780   1.335   5.744
 3360SOL    HW210968   1.864   1.232   5.815
 3361SOL     OW10969   1.952   1.788   6.524
 3361SOL    HW110970   1.922   1.708   6.480
 3361SOL    HW210971   2.042   1.799   6.493
 3362SOL     OW10972   2.358   1.573   6.491
 3362SOL    HW110973   2.427   1.635   6.515
 3362SOL    HW210974   2.402   1.509   6.435
 3363SOL     OW10975   2.845   0.792   6.813
 3363SOL    HW110976   2.901   0.769   6.887
 3363SOL    HW210977   2.760   0.756   6.835
 3364SOL     OW10978   1.897   0.543   6.703
 3364SOL    HW110979   1.977   0.530   6.652
 3364SOL    HW210980   1.927   0.548   6.794
 3365SOL     OW10981   2.050   0.520   7.313
 3365SOL    HW110982   2.113   0.487   7.249
 3365SOL    HW210983   2.009   0.595   7.269
 3366SOL     OW10984   3.239   0.939   7.245
 3366SOL    HW110985   3.260   1.032   7.244
 3366SOL    HW210986   3.236   0.914   7.153
 3367SOL     OW10987   2.676   0.572   5.948
 3367SOL    HW110988   2.679   0.498   5.887
 3367SOL    HW210989   2.602   0.625   5.917
 3368SOL     OW10990   3.504   0.601   6.772
 3368SOL    HW110991   3.493   0.542   6.846
 3368SOL    HW210992   3.591   0.581   6.738
 3369SOL     OW10993   2.104   1.551   7.313
 3369SOL    HW110994   2.083   1.615   7.382
 3369SOL    HW210995   2.108   1.468   7.359
 3370SOL     OW10996   2.560   0.452   6.847
 3370SOL    HW110997   2.509   0.378   6.813
 3370SOL    HW210998   2.560   0.516   6.776
 3371SOL     OW10999   2.790   1.679   7.053
 3371SOL    HW111000   2.764   1.645   6.967
 3371SOL    HW211001   2.787   1.774   7.044
 3372SOL     OW11002   2.325   0.493   5.769
 3372SOL    HW111003   2.385   0.564   5.792
 3372SOL    HW211004   2.240   0.535   5.760
 3373SOL     OW11005   2.008   1.140   7.058
 3373SOL    HW111006   2.010   1.089   7.139
 3373SOL    HW211007   2.025   1.077   6.989
 3374SOL     OW11008   3.188   1.047   6.809
 3374SOL    HW111009   3.212   0.984   6.741
 3374SOL    HW211010   3.117   1.099   6.771
 3375SOL     OW11011   3.173   0.856   5.892
 3375SOL    HW111012   3.097   0.826   5.942
 3375SOL    HW211013   3.149   0.843   5.801
 3376SOL     OW11014   3.633   1.744   6.736
 3376SOL    HW111015   3.694   1.770   6.666
 3376SOL    HW211016   3.609   1.654   6.714
 3377SOL     OW11017   3.103   1.732   6.699
 3377SOL    HW111018   3.185   1.753   6.654
 3377SOL    HW211019   3.109   1.638   6.717
 3378SOL     OW11020   1.946   1.267   6.598
 3378SOL    HW111021   1.931   1.279   6.692
 3378SOL    HW211022   1.873   1.212   6.570
 3379SOL     OW11023   2.538   1.664   7.313
 3379SOL    HW111024   2.489   1.746   7.313
 3379SOL    HW211025   2.606   1.677   7.246
 3380SOL     OW11026   3.574   0.148   6.089
 3380SOL    HW111027   3.650   0.128   6.033
 3380SOL    HW211028   3.567   0.074   6.148
 3381SOL     OW11029   3.252   1.568   6.071
 3381SOL    HW111030   3.313   1.600   6.004
 3381SOL    HW211031   3.204   1.645   6.099
 3382SOL     OW11032   1.997   1.797   7.430
 3382SOL    HW111033   1.947   1.732   7.479
 3382SOL    HW211034   2.046   1.844   7.498
 3383SOL     OW11035   3.139   0.925   6.257
 3383SOL    HW111036   3.213   0.865   6.263
 3383SOL    HW211037   3.173   0.998   6.205
 3384SOL     OW11038   2.677   1.273   7.016
 3384SOL    HW111039   2.649   1.312   7.099
 3384SOL    HW211040   2.608   1.296   6.954
 3385SOL     OW11041   2.533   1.620   5.742
 3385SOL    HW111042   2.544   1.633   5.648
 3385SOL    HW211043   2.478   1.542   5.749
 3386SOL     OW11044   3.489   1.727   6.977
 3386SOL    HW111045   3.539   1.734   6.895
 3386SOL    HW211046   3.475   1.817   7.005
 3387SOL     OW11047   3.707   0.157   6.543
 3387SOL    HW111048   3.707   0.062   6.530
 3387SOL    HW211049   3.620   0.186   6.515
 3388SOL     OW11050   2.124   0.329   6.305
 3388SOL    HW111051   2.036   0.360   6.283
 3388SOL    HW211052   2.122   0.317   6.400
 3389SOL     OW11053   3.069   1.606   5.618
 3389SOL    HW111054   3.059   1.515   5.644
 3389SOL    HW211055   3.005   1.619   5.548
 3390SOL     OW11056   2.686   1.006   6.958
 3390SOL    HW111057   2.730   1.002   6.873
 3390SOL    HW211058   2.686   1.099   6.981
 3391SOL     OW11059   2.778   0.910   5.876
 3391SOL    HW111060   2.839   0.942   5.810
 3391SOL    HW211061   2.826   0.841   5.921
 3392SOL     OW11062   3.354   1.624   5.629
 3392SOL    HW111063   3.260   1.619   5.615
 3392SOL    HW211064   3.391   1.631   5.540
 3393SOL     OW11065   2.230   1.303   7.078
 3393SOL    HW111066   2.218   1.379   7.022
 3393SOL    HW211067   2.154   1.248   7.061
 3394SOL     OW11068   3.473   1.283   6.867
 3394SOL    HW111069   3.532   1.272   6.941
 3394SOL    HW211070   3.412   1.352   6.894
 3395SOL     OW11071   2.914   1.107   6.293
 3395SOL    HW111072   2.843   1.056   6.331
 3395SOL    HW211073   2.976   1.042   6.261
 3396SOL     OW11074   2.881   0.243   6.554
 3396SOL    HW111075   2.862   0.197   6.472
 3396SOL    HW211076   2.874   0.176   6.622
 3397SOL     OW11077   2.465   1.488   6.067
 3397SOL    HW111078   2.509   1.438   5.999
 3397SOL    HW211079   2.396   1.536   6.021
 3398SOL     OW11080   3.586   0.386   6.965
 3398SOL    HW111081   3.656   0.452   6.964
 3398SOL    HW211082   3.618   0.317   6.907
 3399SOL     OW11083   2.121   1.345   5.874
 3399SOL    HW111084   2.028   1.343   5.852
 3399SOL    HW211085   2.124   1.382   5.962
 3400SOL     OW11086   1.975   1.021   7.305
 3400SOL    HW111087   1.898   0.998   7.358
 3400SOL    HW211088   2.049   0.983   7.353
 3401SOL     OW11089   2.534   0.211   7.075
 3401SOL    HW111090   2.618   0.194   7.031
 3401SOL    HW211091   2.558   0.261   7.154
 3402SOL     OW11092   1.939   0.339   5.627
 3402SOL    HW111093   1.856   0.306   5.594
 3402SOL    HW211094   1.961   0.412   5.570
 3403SOL     OW11095   3.292   0.858   6.986
 3403SOL    HW111096   3.243   0.919   6.931
 3403SOL    HW211097   3.381   0.861   6.952
 3404SOL     OW11098   1.934   0.167   5.901
 3404SOL    HW111099   1.935   0.250   5.854
 3404SOL    HW211100   2.018   0.127   5.881
 3405SOL     OW11101   3.041   1.339   5.703
 3405SOL    HW111102   2.950   1.309   5.706
 3405SOL    HW211103   3.069   1.340   5.794
 3406SOL     OW11104   2.481   0.831   7.019
 3406SOL    HW111105   2.537   0.907   7.004
 3406SOL    HW211106   2.543   0.758   7.028
 3407SOL     OW11107   3.346   1.775   6.564
 3407SOL    HW111108   3.368   1.836   6.493
 3407SOL    HW211109   3.429   1.759   6.609
 3408SOL     OW11110   2.576   0.573   7.289
 3408SOL    HW111111   2.618   0.635   7.348
 3408SOL    HW211112   2.607   0.487   7.319
 3409SOL     OW11113   3.333   1.200   7.218
 3409SOL    HW111114   3.320   1.214   7.312
 3409SOL    HW211115   3.426   1.215   7.204
 3410SOL     OW11116   2.240   1.740   7.149
 3410SOL    HW111117   2.155   1.781   7.136
 3410SOL    HW211118   2.221   1.656   7.191
 3411SOL     OW11119   3.532   0.881   6.841
 3411SOL    HW111120   3.525   0.796   6.798
 3411SOL    HW211121   3.522   0.945   6.770
 3412SOL     OW11122   3.082   0.319   6.052
 3412SOL    HW111123   3.145   0.248   6.045
 3412SOL    HW211124   3.113   0.371   6.126
 3413SOL     OW11125   2.452   0.738   6.256
 3413SOL    HW111126   2.491   0.824   6.240
 3413SOL    HW211127   2.384   0.730   6.189
 3414SOL     OW11128   3.628   0.361   7.236
 3414SOL    HW111129   3.610   0.376   7.143
 3414SOL    HW211130   3.556   0.306   7.266
 3415SOL     OW11131   3.607   0.933   7.098
 3415SOL    HW111132   3.604   1.028   7.112
 3415SOL    HW211133   3.592   0.922   7.005
 3416SOL     OW11134   2.724   1.367   5.619
 3416SOL    HW111135   2.686   1.396   5.702
 3416SOL    HW211136   2.743   1.449   5.573
 3417SOL     OW11137   2.523   1.787   6.530
 3417SOL    HW111138   2.502   1.878   6.509
 3417SOL    HW211139   2.619   1.783   6.526
 3418SOL     OW11140   2.729   0.966   6.441
 3418SOL    HW111141   2.780   0.896   6.481
 3418SOL    HW211142   2.695   1.016   6.516
 3419SOL     OW11143   2.940   0.988   5.674
 3419SOL    HW111144   2.919   1.039   5.596
 3419SOL    HW211145   3.016   0.935   5.649
 3420SOL     OW11146   3.716   1.554   6.430
 3420SOL    HW111147   3.638   1.544   6.376
 3420SOL    HW211148   3.707   1.489   6.499
 3421SOL     OW11149   2.087   1.303   7.442
 3421SOL    HW111150   2.019   1.242   7.412
 3421SOL    HW211151   2.067   1.317   7.535
 3422SOL     OW11152   1.946   1.233   6.251
 3422SOL    HW111153   1.952   1.185   6.333
 3422SOL    HW211154   2.014   1.196   6.195
 3423SOL     OW11155   2.542   1.402   7.213
 3423SOL    HW111156   2.462   1.360   7.245
 3423SOL    HW211157   2.539   1.490   7.249
 3424SOL     OW11158   3.677   0.177   6.819
 3424SOL    HW111159   3.643   0.088   6.824
 3424SOL    HW211160   3.694   0.190   6.726
 3425SOL     OW11161   2.291   0.435   6.110
 3425SOL    HW111162   2.324   0.363   6.056
 3425SOL    HW211163   2.245   0.393   6.182
 3426SOL     OW11164   3.563   1.489   6.682
 3426SOL    HW111165   3.482   1.466   6.637
 3426SOL    HW211166   3.574   1.420   6.748
 3427SOL     OW11167   2.190   0.555   6.876
 3427SOL    HW111168   2.247   0.501   6.931
 3427SOL    HW211169   2.211   0.529   6.787
 3428SOL     OW11170   2.690   1.578   6.264
 3428SOL    HW111171   2.678   1.631   6.185
 3428SOL    HW211172   2.612   1.521   6.266
 3429SOL     OW11173   3.290   0.218   6.703
 3429SOL    HW111174   3.327   0.144   6.751
 3429SOL    HW211175   3.241   0.268   6.768
 3430SOL     OW11176   2.865   0.021   6.727
 3430SOL    HW111177   2.814   5.252   6.684
 3430SOL    HW211178   2.951   5.283   6.740
 3431SOL     OW11179   2.633   1.333   5.901
 3431SOL    HW111180   2.603   1.242   5.907
 3431SOL    HW211181   2.716   1.333   5.949
 3432SOL     OW11182   2.481   1.557   6.871
 3432SOL    HW111183   2.484   1.639   6.920
 3432SOL    HW211184   2.569   1.549   6.833
 3433SOL     OW11185   3.218   0.039   5.748
 3433SOL    HW111186   3.250   5.296   5.669
 3433SOL    HW211187   3.138   5.292   5.770
 3434SOL     OW11188   3.163   0.464   6.271
 3434SOL    HW111189   3.108   0.542   6.276
 3434SOL    HW211190   3.156   0.423   6.357
 3435SOL     OW11191   3.456   0.215   6.468
 3435SOL    HW111192   3.390   0.227   6.536
 3435SOL    HW211193   3.449   0.294   6.414
 3436SOL     OW11194   1.905   1.071   5.892
 3436SOL    HW111195   1.999   1.063   5.875
 3436SOL    HW211196   1.877   0.982   5.915
 3437SOL     OW11197   2.746   1.652   5.929
 3437SOL    HW111198   2.674   1.636   5.868
 3437SOL    HW211199   2.717   1.727   5.980
 3438SOL     OW11200   2.089   0.620   7.572
 3438SOL    HW111201   1.999   0.628   7.603
 3438SOL    HW211202   2.080   0.597   7.479
 3439SOL     OW11203   3.630   0.598   7.679
 3439SOL    HW111204   3.609   0.593   7.586
 3439SOL    HW211205   3.588   0.521   7.717
 3440SOL     OW11206   2.082   1.717   7.918
 3440SOL    HW111207   2.111   1.759   8.000
 3440SOL    HW211208   2.161   1.715   7.864
 3441SOL     OW11209   2.080   1.438   7.991
 3441SOL    HW111210   2.064   1.532   7.990
 3441SOL    HW211211   2.020   1.404   8.058
 3442SOL     OW11212   2.448   0.982   7.579
 3442SOL    HW111213   2.492   1.031   7.510
 3442SOL    HW211214   2.487   1.014   7.661
 3443SOL     OW11215   3.699   1.759   7.797
 3443SOL    HW111216   3.770   1.729   7.854
 3443SOL    HW211217   3.725   1.848   7.772
 3444SOL     OW11218   1.892   1.599   7.577
 3444SOL    HW111219   1.876   1.506   7.592
 3444SOL    HW211220   1.865   1.642   7.659
 3445SOL     OW11221   3.546   0.866   8.034
 3445SOL    HW111222   3.626   0.879   0.005
 3445SOL    HW211223   3.532   0.950   7.990
 3446SOL     OW11224   3.517   1.099   7.877
 3446SOL    HW111225   3.604   1.125   7.847
 3446SOL    HW211226   3.489   1.170   7.934
 3447SOL     OW11227   2.672   5.290   7.944
 3447SOL    HW111228   2.714   0.075   7.930
 3447SOL    HW211229   2.578   0.009   7.942
 3448SOL     OW11230   3.395   0.994   7.649
 3448SOL    HW111231   3.328   0.935   7.682
 3448SOL    HW211232   3.438   1.029   7.727
 3449SOL     OW11233   2.452   0.724   7.708
 3449SOL    HW111234   2.457   0.806   7.658
 3449SOL    HW211235   2.392   0.743   7.780
 3450SOL     OW11236   3.437   1.671   7.757
 3450SOL    HW111237   3.527   1.700   7.765
 3450SOL    HW211238   3.424   1.658   7.663
 3451SOL     OW11239   1.922   0.863   0.089
 3451SOL    HW111240   1.986   0.797   0.116
 3451SOL    HW211241   1.918   0.924   0.163
 3452SOL     OW11242   2.731   0.357   7.631
 3452SOL    HW111243   2.777   0.420   7.576
 3452SOL    HW211244   2.793   0.284   7.639
 3453SOL     OW11245   2.185   0.957   7.697
 3453SOL    HW111246   2.265   0.974   7.648
 3453SOL    HW211247   2.149   0.877   7.657
 3454SOL     OW11248   2.986   1.775   7.682
 3454SOL    HW111249   2.909   1.735   7.723
 3454SOL    HW211250   3.009   1.715   7.612
 3455SOL     OW11251   3.491   1.380   7.533
 3455SOL    HW111252   3.449   1.465   7.520
 3455SOL    HW211253   3.422   1.316   7.516
 3456SOL     OW11254   2.329   1.737   7.769
 3456SOL    HW111255   2.379   1.788   7.833
 3456SOL    HW211256   2.394   1.702   7.710
 3457SOL     OW11257   3.272   0.106   7.882
 3457SOL    HW111258   3.266   0.083   7.790
 3457SOL    HW211259   3.365   0.112   7.900
 3458SOL     OW11260   2.252   0.696   7.918
 3458SOL    HW111261   2.259   0.601   7.926
 3458SOL    HW211262   2.162   0.716   7.941
 3459SOL     OW11263   2.481   0.131   7.559
 3459SOL    HW111264   2.553   0.071   7.579
 3459SOL    HW211265   2.433   0.090   7.487
 3460SOL     OW11266   2.409   0.064   7.952
 3460SOL    HW111267   2.317   0.048   7.974
 3460SOL    HW211268   2.406   0.137   7.890
 3461SOL     OW11269   3.290   1.198   7.489
 3461SOL    HW111270   3.321   1.124   7.542
 3461SOL    HW211271   3.206   1.221   7.527
 3462SOL     OW11272   2.166   0.072   7.660
 3462SOL    HW111273   2.217   0.130   7.602
 3462SOL    HW211274   2.215   5.290   7.660
 3463SOL     OW11275   2.812   0.228   7.907
 3463SOL    HW111276   2.761   0.299   7.867
 3463SOL    HW211277   2.900   0.263   7.917
 3464SOL     OW11278   2.304   1.152   0.099
 3464SOL    HW111279   2.227   1.185   0.146
 3464SOL    HW211280   2.272   1.137   0.010
 3465SOL     OW11281   3.153   1.811   8.014
 3465SOL    HW111282   3.188   1.880   7.958
 3465SOL    HW211283   3.068   1.846   8.044
 3466SOL     OW11284   2.889   0.547   7.467
 3466SOL    HW111285   2.845   0.630   7.452
 3466SOL    HW211286   2.948   0.564   7.540
 3467SOL     OW11287   3.735   0.816   7.801
 3467SOL    HW111288   3.727   0.790   7.893
 3467SOL    HW211289   3.694   0.745   7.752
 3468SOL     OW11290   2.350   1.416   7.605
 3468SOL    HW111291   2.276   1.387   7.658
 3468SOL    HW211292   2.335   1.377   7.519
 3469SOL     OW11293   3.255   0.572   7.519
 3469SOL    HW111294   3.193   0.552   7.589
 3469SOL    HW211295   3.339   0.539   7.552
 3470SOL     OW11296   2.386   0.271   7.773
 3470SOL    HW111297   2.428   0.218   7.705
 3470SOL    HW211298   2.365   0.354   7.730
 3471SOL     OW11299   2.573   1.063   7.811
 3471SOL    HW111300   2.549   1.048   7.903
 3471SOL    HW211301   2.652   1.009   7.799
 3472SOL     OW11302   2.227   1.102   7.927
 3472SOL    HW111303   2.209   1.181   7.877
 3472SOL    HW211304   2.214   1.030   7.865
 3473SOL     OW11305   3.086   1.356   7.821
 3473SOL    HW111306   3.148   1.425   7.846
 3473SOL    HW211307   3.046   1.328   7.903
 3474SOL     OW11308   3.451   0.626   7.921
 3474SOL    HW111309   3.435   0.684   7.996
 3474SOL    HW211310   3.488   0.683   7.854
 3475SOL     OW11311   3.066   0.526   7.715
 3475SOL    HW111312   3.067   0.439   7.755
 3475SOL    HW211313   3.043   0.585   7.787
 3476SOL     OW11314   3.479   0.376   7.814
 3476SOL    HW111315   3.499   0.308   7.879
 3476SOL    HW211316   3.454   0.452   7.866
 3477SOL     OW11317   3.391   0.273   7.575
 3477SOL    HW111318   3.328   0.207   7.605
 3477SOL    HW211319   3.426   0.310   7.656
 3478SOL     OW11320   3.156   0.828   7.481
 3478SOL    HW111321   3.197   0.741   7.483
 3478SOL    HW211322   3.186   0.867   7.399
 3479SOL     OW11323   1.868   1.324   7.640
 3479SOL    HW111324   1.780   1.337   7.603
 3479SOL    HW211325   1.867   1.235   7.674
 3480SOL     OW11326   2.699   0.601   7.765
 3480SOL    HW111327   2.689   0.511   7.734
 3480SOL    HW211328   2.610   0.636   7.763
 3481SOL     OW11329   2.323   0.494   7.637
 3481SOL    HW111330   2.383   0.567   7.654
 3481SOL    HW211331   2.238   0.536   7.622
 3482SOL     OW11332   3.173   0.851   7.755
 3482SOL    HW111333   3.086   0.854   7.795
 3482SOL    HW211334   3.156   0.841   7.661
 3483SOL     OW11335   3.571   0.130   7.945
 3483SOL    HW111336   3.646   0.131   7.886
 3483SOL    HW211337   3.602   0.084   8.023
 3484SOL     OW11338   3.226   1.577   7.897
 3484SOL    HW111339   3.301   1.597   7.840
 3484SOL    HW211340   3.195   1.662   7.927
 3485SOL     OW11341   2.529   1.619   7.605
 3485SOL    HW111342   2.541   1.631   7.510
 3485SOL    HW211343   2.477   1.539   7.611
 3486SOL     OW11344   3.071   1.607   7.478
 3486SOL    HW111345   3.060   1.516   7.505
 3486SOL    HW211346   3.005   1.620   7.410
 3487SOL     OW11347   2.789   0.909   7.756
 3487SOL    HW111348   2.842   0.934   7.681
 3487SOL    HW211349   2.784   0.814   7.752
 3488SOL     OW11350   3.356   1.626   7.489
 3488SOL    HW111351   3.261   1.619   7.477
 3488SOL    HW211352   3.391   1.631   7.400
 3489SOL     OW11353   2.469   1.508   7.936
 3489SOL    HW111354   2.514   1.446   7.878
 3489SOL    HW211355   2.395   1.539   7.884
 3490SOL     OW11356   2.120   1.346   7.741
 3490SOL    HW111357   2.028   1.344   7.715
 3490SOL    HW211358   2.119   1.382   7.830
 3491SOL     OW11359   1.937   0.338   7.489
 3491SOL    HW111360   1.854   0.307   7.452
 3491SOL    HW211361   1.961   0.413   7.435
 3492SOL     OW11362   1.925   0.182   7.745
 3492SOL    HW111363   1.923   0.258   7.687
 3492SOL    HW211364   2.006   0.136   7.722
 3493SOL     OW11365   3.039   1.339   7.556
 3493SOL    HW111366   2.947   1.312   7.557
 3493SOL    HW211367   3.063   1.345   7.648
 3494SOL     OW11368   3.084   0.319   7.917
 3494SOL    HW111369   3.150   0.250   7.909
 3494SOL    HW211370   3.108   0.367   7.996
 3495SOL     OW11371   2.486   0.735   8.057
 3495SOL    HW111372   2.492   0.818   0.024
 3495SOL    HW211373   2.399   0.736   8.017
 3496SOL     OW11374   2.724   1.367   7.482
 3496SOL    HW111375   2.686   1.396   7.565
 3496SOL    HW211376   2.743   1.449   7.435
 3497SOL     OW11377   2.934   0.978   7.537
 3497SOL    HW111378   2.916   1.035   7.463
 3497SOL    HW211379   3.013   0.930   7.512
 3498SOL     OW11380   2.250   0.420   7.984
 3498SOL    HW111381   2.303   0.369   7.923
 3498SOL    HW211382   2.299   0.418   8.067
 3499SOL     OW11383   2.628   1.335   7.761
 3499SOL    HW111384   2.597   1.245   7.762
 3499SOL    HW211385   2.710   1.333   7.810
 3500SOL     OW11386   3.228   0.037   7.611
 3500SOL    HW111387   3.239   5.290   7.528
 3500SOL    HW211388   3.143   0.007   7.645
 3501SOL     OW11389   1.913   1.079   7.750
 3501SOL    HW111390   2.007   1.068   7.736
 3501SOL    HW211391   1.881   0.990   7.765
 3502SOL     OW11392   2.755   1.652   7.781
 3502SOL    HW111393   2.678   1.628   7.728
 3502SOL    HW211394   2.721   1.714   7.845
 3503SOL     OW11395   2.089   2.499   0.119
 3503SOL    HW111396   2.016   2.447   0.153
 3503SOL    HW211397   2.114   2.454   0.038
 3504SOL     OW11398   2.087   2.123   0.989
 3504SOL    HW111399   2.114   2.094   1.076
 3504SOL    HW211400   1.995   2.097   0.983
 3505SOL     OW11401   1.865   2.239   0.643
 3505SOL    HW111402   1.782   2.266   0.683
 3505SOL    HW211403   1.843   2.162   0.590
 3506SOL     OW11404   2.418   3.157   1.194
 3506SOL    HW111405   2.334   3.163   1.149
 3506SOL    HW211406   2.437   3.247   1.222
 3507SOL     OW11407   3.422   3.373   0.707
 3507SOL    HW111408   3.380   3.354   0.791
 3507SOL    HW211409   3.349   3.378   0.644
 3508SOL     OW11410   3.630   2.463   0.233
 3508SOL    HW111411   3.594   2.464   0.144
 3508SOL    HW211412   3.591   2.386   0.274
 3509SOL     OW11413   2.578   3.034   1.016
 3509SOL    HW111414   2.518   3.062   1.085
 3509SOL    HW211415   2.622   3.115   0.989
 3510SOL     OW11416   2.550   3.030   1.835
 3510SOL    HW111417   2.619   3.095   1.824
 3510SOL    HW211418   2.475   3.065   1.787
 3511SOL     OW11419   2.191   3.290   1.068
 3511SOL    HW111420   2.120   3.250   1.017
 3511SOL    HW211421   2.242   3.339   1.003
 3512SOL     OW11422   3.324   3.359   1.357
 3512SOL    HW111423   3.373   3.442   1.364
 3512SOL    HW211424   3.260   3.363   1.428
 3513SOL     OW11425   2.294   2.234   1.484
 3513SOL    HW111426   2.368   2.174   1.489
 3513SOL    HW211427   2.217   2.179   1.500
 3514SOL     OW11428   3.476   2.310   0.740
 3514SOL    HW111429   3.400   2.334   0.687
 3514SOL    HW211430   3.490   2.386   0.797
 3515SOL     OW11431   2.082   3.577   0.472
 3515SOL    HW111432   2.103   3.653   0.526
 3515SOL    HW211433   2.156   3.568   0.412
 3516SOL     OW11434   2.995   3.200   1.690
 3516SOL    HW111435   3.027   3.187   1.780
 3516SOL    HW211436   2.951   3.117   1.668
 3517SOL     OW11437   2.088   3.306   0.536
 3517SOL    HW111438   2.072   3.400   0.539
 3517SOL    HW211439   2.028   3.270   0.602
 3518SOL     OW11440   2.114   2.953   0.886
 3518SOL    HW111441   2.115   2.869   0.933
 3518SOL    HW211442   2.061   3.010   0.942
 3519SOL     OW11443   2.473   3.654   1.430
 3519SOL    HW111444   2.391   3.636   1.476
 3519SOL    HW211445   2.496   3.743   1.455
 3520SOL     OW11446   2.443   2.821   0.139
 3520SOL    HW111447   2.419   2.908   0.108
 3520SOL    HW211448   2.513   2.837   0.203
 3521SOL     OW11449   3.458   1.985   1.468
 3521SOL    HW111450   3.464   2.066   1.417
 3521SOL    HW211451   3.444   2.015   1.558
 3522SOL     OW11452   1.944   2.504   0.572
 3522SOL    HW111453   1.920   2.414   0.595
 3522SOL    HW211454   1.942   2.552   0.654
 3523SOL     OW11455   3.707   3.620   0.332
 3523SOL    HW111456   3.772   3.590   0.396
 3523SOL    HW211457   3.732   3.711   0.314
 3524SOL     OW11458   1.892   3.458   0.111
 3524SOL    HW111459   1.878   3.370   0.144
 3524SOL    HW211460   1.875   3.515   0.186
 3525SOL     OW11461   3.546   2.778   0.641
 3525SOL    HW111462   3.632   2.738   0.624
 3525SOL    HW211463   3.528   2.831   0.564
 3526SOL     OW11464   3.510   2.968   0.434
 3526SOL    HW111465   3.590   2.981   0.384
 3526SOL    HW211466   3.516   3.030   0.507
 3527SOL     OW11467   1.958   2.601   1.590
 3527SOL    HW111468   2.052   2.623   1.593
 3527SOL    HW211469   1.914   2.685   1.595
 3528SOL     OW11470   2.479   3.248   0.734
 3528SOL    HW111471   2.436   3.163   0.747
 3528SOL    HW211472   2.457   3.272   0.644
 3529SOL     OW11473   3.148   3.095   1.428
 3529SOL    HW111474   3.181   3.032   1.365
 3529SOL    HW211475   3.210   3.091   1.501
 3530SOL     OW11476   2.677   1.862   0.511
 3530SOL    HW111477   2.717   1.946   0.487
 3530SOL    HW211478   2.584   1.882   0.520
 3531SOL     OW11479   2.034   2.839   1.267
 3531SOL    HW111480   2.119   2.794   1.259
 3531SOL    HW211481   1.973   2.782   1.221
 3532SOL     OW11482   3.371   2.873   0.212
 3532SOL    HW111483   3.323   2.796   0.242
 3532SOL    HW211484   3.427   2.896   0.286
 3533SOL     OW11485   3.048   3.668   1.622
 3533SOL    HW111486   3.058   3.727   1.547
 3533SOL    HW211487   3.063   3.580   1.586
 3534SOL     OW11488   2.194   2.111   1.814
 3534SOL    HW111489   2.227   2.200   1.810
 3534SOL    HW211490   2.103   2.120   1.843
 3535SOL     OW11491   3.329   3.281   0.952
 3535SOL    HW111492   3.262   3.299   1.017
 3535SOL    HW211493   3.315   3.189   0.927
 3536SOL     OW11494   3.521   3.602   0.581
 3536SOL    HW111495   3.501   3.574   0.492
 3536SOL    HW211496   3.496   3.527   0.636
 3537SOL     OW11497   3.144   2.210   0.930
 3537SOL    HW111498   3.053   2.181   0.941
 3537SOL    HW211499   3.193   2.159   0.995
 3538SOL     OW11500   3.449   3.532   0.319
 3538SOL    HW111501   3.539   3.562   0.313
 3538SOL    HW211502   3.422   3.516   0.229
 3539SOL     OW11503   3.254   2.336   1.677
 3539SOL    HW111504   3.258   2.379   1.762
 3539SOL    HW211505   3.318   2.265   1.683
 3540SOL     OW11506   2.857   2.266   1.240
 3540SOL    HW111507   2.785   2.310   1.285
 3540SOL    HW211508   2.825   2.253   1.150
 3541SOL     OW11509   1.947   2.681   0.780
 3541SOL    HW111510   2.030   2.680   0.827
 3541SOL    HW211511   1.903   2.760   0.810
 3542SOL     OW11512   1.989   3.710   1.578
 3542SOL    HW111513   1.989   3.689   1.671
 3542SOL    HW211514   1.897   3.701   1.551
 3543SOL     OW11515   2.742   2.211   0.208
 3543SOL    HW111516   2.790   2.263   0.143
 3543SOL    HW211517   2.748   2.121   0.175
 3544SOL     OW11518   3.571   2.437   1.828
 3544SOL    HW111519   3.533   2.511   1.780
 3544SOL    HW211520   3.598   2.376   1.759
 3545SOL     OW11521   3.242   3.003   0.528
 3545SOL    HW111522   3.324   2.998   0.479
 3545SOL    HW211523   3.192   3.072   0.484
 3546SOL     OW11524   2.407   2.033   0.886
 3546SOL    HW111525   2.410   2.057   0.979
 3546SOL    HW211526   2.426   2.114   0.840
 3547SOL     OW11527   2.859   3.301   0.472
 3547SOL    HW111528   2.827   3.377   0.424
 3547SOL    HW211529   2.850   3.325   0.564
 3548SOL     OW11530   2.217   3.670   0.861
 3548SOL    HW111531   2.260   3.585   0.869
 3548SOL    HW211532   2.285   3.734   0.880
 3549SOL     OW11533   3.660   2.918   0.868
 3549SOL    HW111534   3.604   2.902   0.792
 3549SOL    HW211535   3.600   2.924   0.942
 3550SOL     OW11536   3.089   3.400   1.512
 3550SOL    HW111537   3.076   3.328   1.574
 3550SOL    HW211538   3.028   3.383   1.441
 3551SOL     OW11539   2.186   2.809   0.244
 3551SOL    HW111540   2.272   2.815   0.202
 3551SOL    HW211541   2.169   2.715   0.250
 3552SOL     OW11542   3.342   2.597   0.728
 3552SOL    HW111543   3.335   2.557   0.814
 3552SOL    HW211544   3.417   2.656   0.735
 3553SOL     OW11545   2.321   3.135   1.735
 3553SOL    HW111546   2.294   3.138   1.644
 3553SOL    HW211547   2.240   3.129   1.785
 3554SOL     OW11548   2.970   3.643   0.224
 3554SOL    HW111549   2.914   3.603   0.290
 3554SOL    HW211550   2.990   3.572   0.163
 3555SOL     OW11551   2.047   2.136   1.504
 3555SOL    HW111552   1.966   2.186   1.501
 3555SOL    HW211553   2.029   2.063   1.563
 3556SOL     OW11554   3.496   3.236   0.084
 3556SOL    HW111555   3.455   3.322   0.082
 3556SOL    HW211556   3.424   3.175   0.063
 3557SOL     OW11557   2.327   3.600   0.324
 3557SOL    HW111558   2.368   3.660   0.387
 3557SOL    HW211559   2.397   3.575   0.264
 3558SOL     OW11560   3.269   1.973   0.443
 3558SOL    HW111561   3.260   1.951   0.350
 3558SOL    HW211562   3.363   1.979   0.458
 3559SOL     OW11563   2.117   3.653   1.232
 3559SOL    HW111564   2.169   3.588   1.278
 3559SOL    HW211565   2.108   3.618   1.143
 3560SOL     OW11566   2.799   3.563   0.898
 3560SOL    HW111567   2.872   3.508   0.927
 3560SOL    HW211568   2.755   3.512   0.831
 3561SOL     OW11569   2.184   2.593   0.497
 3561SOL    HW111570   2.233   2.510   0.495
 3561SOL    HW211571   2.095   2.567   0.520
 3562SOL     OW11572   3.398   2.087   1.725
 3562SOL    HW111573   3.407   2.108   1.818
 3562SOL    HW211574   3.328   2.022   1.722
 3563SOL     OW11575   2.493   1.981   0.133
 3563SOL    HW111576   2.587   1.964   0.140
 3563SOL    HW211577   2.471   1.953   0.044
 3564SOL     OW11578   2.626   2.129   1.750
 3564SOL    HW111579   2.703   2.073   1.751
 3564SOL    HW211580   2.585   2.117   1.836
 3565SOL     OW11581   2.739   3.388   1.195
 3565SOL    HW111582   2.723   3.352   1.108
 3565SOL    HW211583   2.806   3.331   1.233
 3566SOL     OW11584   3.215   2.450   1.425
 3566SOL    HW111585   3.234   2.421   1.514
 3566SOL    HW211586   3.240   2.542   1.424
 3567SOL     OW11587   2.674   3.277   0.939
 3567SOL    HW111588   2.760   3.263   0.901
 3567SOL    HW211589   2.613   3.269   0.865
 3568SOL     OW11590   2.799   2.339   0.911
 3568SOL    HW111591   2.788   2.341   0.816
 3568SOL    HW211592   2.833   2.251   0.929
 3569SOL     OW11593   2.412   1.926   0.506
 3569SOL    HW111594   2.332   1.923   0.558
 3569SOL    HW211595   2.402   2.002   0.450
 3570SOL     OW11596   3.296   3.062   0.034
 3570SOL    HW111597   3.320   2.989   0.091
 3570SOL    HW211598   3.208   3.086   0.060
 3571SOL     OW11599   2.173   1.916   0.167
 3571SOL    HW111600   2.235   1.985   0.188
 3571SOL    HW211601   2.208   1.838   0.210
 3572SOL     OW11602   2.801   2.103   0.452
 3572SOL    HW111603   2.776   2.145   0.370
 3572SOL    HW211604   2.895   2.117   0.459
 3573SOL     OW11605   3.094   3.435   0.793
 3573SOL    HW111606   3.106   3.504   0.728
 3573SOL    HW211607   3.159   3.453   0.861
 3574SOL     OW11608   2.329   3.018   0.732
 3574SOL    HW111609   2.260   2.995   0.794
 3574SOL    HW211610   2.294   2.994   0.647
 3575SOL     OW11611   3.130   3.656   0.607
 3575SOL    HW111612   3.180   3.719   0.554
 3575SOL    HW211613   3.064   3.708   0.651
 3576SOL     OW11614   2.919   2.376   0.022
 3576SOL    HW111615   2.857   2.445   8.078
 3576SOL    HW211616   2.966   2.412   0.097
 3577SOL     OW11617   1.932   2.417   1.393
 3577SOL    HW111618   2.024   2.417   1.368
 3577SOL    HW211619   1.925   2.486   1.459
 3578SOL     OW11620   2.415   2.077   1.151
 3578SOL    HW111621   2.469   2.024   1.209
 3578SOL    HW211622   2.329   2.080   1.194
 3579SOL     OW11623   2.767   2.289   0.650
 3579SOL    HW111624   2.707   2.354   0.616
 3579SOL    HW211625   2.769   2.221   0.582
 3580SOL     OW11626   2.878   1.910   0.748
 3580SOL    HW111627   2.817   1.904   0.675
 3580SOL    HW211628   2.855   1.836   0.805
 3581SOL     OW11629   3.300   3.023   0.858
 3581SOL    HW111630   3.224   2.966   0.853
 3581SOL    HW211631   3.326   3.037   0.767
 3582SOL     OW11632   3.328   2.466   0.977
 3582SOL    HW111633   3.276   2.385   0.983
 3582SOL    HW211634   3.388   2.461   1.052
 3583SOL     OW11635   3.709   2.677   0.388
 3583SOL    HW111636   3.762   2.624   0.448
 3583SOL    HW211637   3.679   2.615   0.322
 3584SOL     OW11638   2.345   3.303   0.180
 3584SOL    HW111639   2.271   3.265   0.228
 3584SOL    HW211640   2.351   3.250   0.101
 3585SOL     OW11641   3.532   3.127   0.648
 3585SOL    HW111642   3.627   3.130   0.661
 3585SOL    HW211643   3.502   3.215   0.669
 3586SOL     OW11644   3.262   2.438   0.086
 3586SOL    HW111645   3.198   2.416   0.154
 3586SOL    HW211646   3.318   2.361   0.080
 3587SOL     OW11647   2.376   2.122   0.320
 3587SOL    HW111648   2.423   2.069   0.257
 3587SOL    HW211649   2.405   2.212   0.303
 3588SOL     OW11650   3.615   3.101   1.573
 3588SOL    HW111651   3.702   3.062   1.570
 3588SOL    HW211652   3.630   3.191   1.602
 3589SOL     OW11653   2.923   3.227   1.344
 3589SOL    HW111654   2.844   3.191   1.385
 3589SOL    HW211655   2.995   3.176   1.380
 3590SOL     OW11656   3.470   3.487   1.654
 3590SOL    HW111657   3.464   3.521   1.565
 3590SOL    HW211658   3.553   3.440   1.656
 3591SOL     OW11659   3.015   3.098   1.105
 3591SOL    HW111660   2.945   3.091   1.170
 3591SOL    HW211661   2.969   3.100   1.021
 3592SOL     OW11662   3.490   2.960   1.077
 3592SOL    HW111663   3.486   3.022   1.150
 3592SOL    HW211664   3.412   2.978   1.025
 3593SOL     OW11665   2.780   1.958   1.397
 3593SOL    HW111666   2.801   1.942   1.305
 3593SOL    HW211667   2.858   2.000   1.433
 3594SOL     OW11668   2.254   2.681   1.269
 3594SOL    HW111669   2.350   2.685   1.274
 3594SOL    HW211670   2.234   2.589   1.284
 3595SOL     OW11671   3.129   2.239   1.275
 3595SOL    HW111672   3.160   2.317   1.320
 3595SOL    HW211673   3.038   2.258   1.253
 3596SOL     OW11674   1.932   3.436   1.353
 3596SOL    HW111675   1.903   3.509   1.298
 3596SOL    HW211676   2.028   3.439   1.347
 3597SOL     OW11677   2.218   2.971   0.485
 3597SOL    HW111678   2.204   3.041   0.421
 3597SOL    HW211679   2.213   2.891   0.433
 3598SOL     OW11680   3.106   3.209   0.395
 3598SOL    HW111681   3.162   3.281   0.421
 3598SOL    HW211682   3.019   3.234   0.427
 3599SOL     OW11683   3.146   3.329   1.146
 3599SOL    HW111684   3.196   3.322   1.227
 3599SOL    HW211685   3.091   3.251   1.145
 3600SOL     OW11686   3.442   2.485   0.480
 3600SOL    HW111687   3.399   2.537   0.547
 3600SOL    HW211688   3.481   2.549   0.421
 3601SOL     OW11689   2.208   3.390   1.315
 3601SOL    HW111690   2.196   3.348   1.230
 3601SOL    HW211691   2.303   3.403   1.322
 3602SOL     OW11692   2.222   2.626   1.589
 3602SOL    HW111693   2.277   2.692   1.548
 3602SOL    HW211694   2.284   2.563   1.627
 3603SOL     OW11695   3.462   2.641   1.683
 3603SOL    HW111696   3.376   2.682   1.675
 3603SOL    HW211697   3.514   2.683   1.614
 3604SOL     OW11698   2.861   1.986   1.758
 3604SOL    HW111699   2.916   2.057   1.727
 3604SOL    HW211700   2.907   1.906   1.731
 3605SOL     OW11701   2.359   1.902   1.748
 3605SOL    HW111702   2.316   1.847   1.682
 3605SOL    HW211703   2.299   1.975   1.761
 3606SOL     OW11704   3.223   2.720   1.035
 3606SOL    HW111705   3.153   2.716   0.970
 3606SOL    HW211706   3.263   2.633   1.032
 3607SOL     OW11707   3.060   2.390   0.272
 3607SOL    HW111708   3.065   2.306   0.318
 3607SOL    HW211709   3.064   2.456   0.341
 3608SOL     OW11710   2.157   2.062   1.249
 3608SOL    HW111711   2.115   2.092   1.330
 3608SOL    HW211712   2.142   1.967   1.248
 3609SOL     OW11713   1.907   3.174   1.276
 3609SOL    HW111714   1.940   3.119   1.348
 3609SOL    HW211715   1.914   3.263   1.309
 3610SOL     OW11716   3.597   2.821   1.852
 3610SOL    HW111717   3.550   2.760   1.795
 3610SOL    HW211718   3.538   2.836   1.926
 3611SOL     OW11719   2.165   1.929   0.624
 3611SOL    HW111720   2.144   2.019   0.650
 3611SOL    HW211721   2.173   1.881   0.706
 3612SOL     OW11722   3.483   2.236   0.370
 3612SOL    HW111723   3.507   2.171   0.436
 3612SOL    HW211724   3.457   2.313   0.420
 3613SOL     OW11725   2.844   3.428   1.715
 3613SOL    HW111726   2.828   3.473   1.632
 3613SOL    HW211727   2.887   3.346   1.690
 3614SOL     OW11728   3.717   3.368   1.605
 3614SOL    HW111729   3.735   3.394   1.515
 3614SOL    HW211730   3.798   3.387   1.652
 3615SOL     OW11731   2.208   2.799   1.813
 3615SOL    HW111732   2.287   2.807   1.867
 3615SOL    HW211733   2.223   2.721   1.760
 3616SOL     OW11734   3.379   2.163   0.127
 3616SOL    HW111735   3.331   2.082   0.142
 3616SOL    HW211736   3.420   2.183   0.211
 3617SOL     OW11737   3.154   2.683   0.032
 3617SOL    HW111738   3.196   2.597   0.037
 3617SOL    HW211739   3.208   2.732   8.051
 3618SOL     OW11740   2.923   3.230   0.855
 3618SOL    HW111741   2.951   3.151   0.810
 3618SOL    HW211742   2.988   3.296   0.831
 3619SOL     OW11743   2.158   2.687   0.962
 3619SOL    HW111744   2.246   2.697   0.924
 3619SOL    HW211745   2.155   2.597   0.993
 3620SOL     OW11746   2.159   2.373   1.016
 3620SOL    HW111747   2.134   2.281   1.003
 3620SOL    HW211748   2.223   2.390   0.947
 3621SOL     OW11749   3.001   2.232   1.684
 3621SOL    HW111750   2.949   2.302   1.724
 3621SOL    HW211751   3.089   2.268   1.677
 3622SOL     OW11752   3.024   2.063   1.469
 3622SOL    HW111753   3.014   2.126   1.541
 3622SOL    HW211754   3.059   2.114   1.397
 3623SOL     OW11755   1.874   3.187   0.191
 3623SOL    HW111756   1.787   3.200   0.153
 3623SOL    HW211757   1.872   3.097   0.222
 3624SOL     OW11758   1.952   3.649   0.937
 3624SOL    HW111759   1.922   3.570   0.894
 3624SOL    HW211760   2.042   3.661   0.907
 3625SOL     OW11761   2.359   3.435   0.904
 3625SOL    HW111762   2.428   3.497   0.930
 3625SOL    HW211763   2.404   3.370   0.850
 3626SOL     OW11764   1.896   2.405   1.117
 3626SOL    HW111765   1.979   2.396   1.069
 3626SOL    HW211766   1.921   2.411   1.209
 3627SOL     OW11767   2.057   2.379   1.723
 3627SOL    HW111768   2.100   2.340   1.648
 3627SOL    HW211769   2.007   2.453   1.688
 3628SOL     OW11770   3.234   2.800   1.657
 3628SOL    HW111771   3.257   2.893   1.659
 3628SOL    HW211772   3.238   2.776   1.565
 3629SOL     OW11773   3.504   2.465   1.185
 3629SOL    HW111774   3.490   2.407   1.260
 3629SOL    HW211775   3.591   2.443   1.153
 3630SOL     OW11776   2.106   3.414   1.728
 3630SOL    HW111777   2.082   3.478   1.795
 3630SOL    HW211778   2.106   3.330   1.774
 3631SOL     OW11779   2.787   3.543   1.469
 3631SOL    HW111780   2.767   3.505   1.384
 3631SOL    HW211781   2.783   3.637   1.455
 3632SOL     OW11782   2.006   3.006   1.474
 3632SOL    HW111783   2.008   2.952   1.554
 3632SOL    HW211784   2.018   2.943   1.403
 3633SOL     OW11785   3.185   2.910   1.224
 3633SOL    HW111786   3.209   2.847   1.156
 3633SOL    HW211787   3.125   2.970   1.182
 3634SOL     OW11788   3.189   2.690   0.307
 3634SOL    HW111789   3.107   2.710   0.352
 3634SOL    HW211790   3.165   2.689   0.214
 3635SOL     OW11791   3.633   3.606   1.149
 3635SOL    HW111792   3.694   3.632   1.080
 3635SOL    HW211793   3.609   3.516   1.128
 3636SOL     OW11794   3.103   3.597   1.113
 3636SOL    HW111795   3.185   3.617   1.068
 3636SOL    HW211796   3.108   3.504   1.132
 3637SOL     OW11797   1.945   3.130   1.012
 3637SOL    HW111798   1.932   3.142   1.106
 3637SOL    HW211799   1.873   3.073   0.984
 3638SOL     OW11800   2.539   3.527   1.728
 3638SOL    HW111801   2.486   3.607   1.723
 3638SOL    HW211802   2.606   3.539   1.659
 3639SOL     OW11803   2.768   1.952   0.133
 3639SOL    HW111804   2.785   1.937   0.040
 3639SOL    HW211805   2.832   1.898   0.179
 3640SOL     OW11806   3.581   2.007   0.510
 3640SOL    HW111807   3.653   1.991   0.449
 3640SOL    HW211808   3.565   1.922   0.552
 3641SOL     OW11809   3.250   3.430   0.483
 3641SOL    HW111810   3.315   3.463   0.421
 3641SOL    HW211811   3.204   3.508   0.514
 3642SOL     OW11812   1.998   3.659   1.843
 3642SOL    HW111813   1.947   3.593   1.891
 3642SOL    HW211814   2.046   3.706   1.911
 3643SOL     OW11815   3.159   2.791   0.665
 3643SOL    HW111816   3.222   2.720   0.672
 3643SOL    HW211817   3.202   2.856   0.610
 3644SOL     OW11818   2.679   3.150   1.427
 3644SOL    HW111819   2.643   3.187   1.508
 3644SOL    HW211820   2.603   3.143   1.368
 3645SOL     OW11821   2.540   3.482   0.154
 3645SOL    HW111822   2.545   3.490   0.059
 3645SOL    HW211823   2.476   3.413   0.170
 3646SOL     OW11824   3.489   3.589   1.391
 3646SOL    HW111825   3.538   3.596   1.310
 3646SOL    HW211826   3.475   3.679   1.419
 3647SOL     OW11827   3.703   2.035   0.966
 3647SOL    HW111828   3.731   1.948   0.940
 3647SOL    HW211829   3.616   2.045   0.927
 3648SOL     OW11830   2.122   2.182   0.723
 3648SOL    HW111831   2.035   2.212   0.699
 3648SOL    HW211832   2.115   2.161   0.816
 3649SOL     OW11833   3.018   3.443   0.051
 3649SOL    HW111834   3.036   3.350   0.068
 3649SOL    HW211835   3.029   3.452   8.036
 3650SOL     OW11836   3.372   3.486   0.060
 3650SOL    HW111837   3.277   3.487   0.049
 3650SOL    HW211838   3.408   3.488   8.051
 3651SOL     OW11839   2.230   3.165   1.489
 3651SOL    HW111840   2.217   3.241   1.432
 3651SOL    HW211841   2.152   3.111   1.474
 3652SOL     OW11842   3.473   3.144   1.280
 3652SOL    HW111843   3.533   3.134   1.354
 3652SOL    HW211844   3.413   3.214   1.308
 3653SOL     OW11845   2.983   3.001   0.733
 3653SOL    HW111846   2.899   2.987   0.689
 3653SOL    HW211847   3.042   2.938   0.693
 3654SOL     OW11848   2.892   2.091   0.962
 3654SOL    HW111849   2.886   2.039   0.882
 3654SOL    HW211850   2.881   2.028   1.033
 3655SOL     OW11851   2.463   3.351   0.477
 3655SOL    HW111852   2.501   3.311   0.399
 3655SOL    HW211853   2.390   3.403   0.444
 3656SOL     OW11854   3.584   2.254   1.381
 3656SOL    HW111855   3.656   2.317   1.379
 3656SOL    HW211856   3.614   2.182   1.324
 3657SOL     OW11857   2.127   3.183   0.304
 3657SOL    HW111858   2.043   3.195   0.259
 3657SOL    HW211859   2.118   3.230   0.386
 3658SOL     OW11860   1.969   2.885   1.717
 3658SOL    HW111861   1.895   2.861   1.772
 3658SOL    HW211862   2.046   2.852   1.765
 3659SOL     OW11863   2.533   2.056   1.497
 3659SOL    HW111864   2.616   2.041   1.453
 3659SOL    HW211865   2.557   2.087   1.584
 3660SOL     OW11866   1.921   2.216   0.045
 3660SOL    HW111867   1.845   2.169   0.010
 3660SOL    HW211868   1.970   2.243   8.047
 3661SOL     OW11869   3.291   2.725   1.402
 3661SOL    HW111870   3.244   2.785   1.344
 3661SOL    HW211871   3.380   2.723   1.368
 3662SOL     OW11872   1.934   2.017   0.305
 3662SOL    HW111873   1.915   2.099   0.260
 3662SOL    HW211874   2.016   1.987   0.267
 3663SOL     OW11875   3.048   3.178   0.121
 3663SOL    HW111876   2.953   3.171   0.115
 3663SOL    HW211877   3.066   3.185   0.214
 3664SOL     OW11878   3.346   3.637   0.976
 3664SOL    HW111879   3.371   3.699   0.907
 3664SOL    HW211880   3.428   3.620   1.023
 3665SOL     OW11881   3.334   3.060   1.632
 3665SOL    HW111882   3.322   3.075   1.726
 3665SOL    HW211883   3.427   3.076   1.617
 3666SOL     OW11884   2.241   3.601   1.564
 3666SOL    HW111885   2.156   3.643   1.550
 3666SOL    HW211886   2.221   3.518   1.606
 3667SOL     OW11887   3.531   2.743   1.256
 3667SOL    HW111888   3.525   2.658   1.213
 3667SOL    HW211889   3.522   2.806   1.184
 3668SOL     OW11890   3.080   2.179   0.457
 3668SOL    HW111891   3.144   2.109   0.449
 3668SOL    HW211892   3.107   2.227   0.536
 3669SOL     OW11893   3.625   2.223   1.650
 3669SOL    HW111894   3.608   2.238   1.557
 3669SOL    HW211895   3.553   2.167   1.679
 3670SOL     OW11896   3.606   2.795   1.512
 3670SOL    HW111897   3.604   2.890   1.525
 3670SOL    HW211898   3.591   2.784   1.419
 3671SOL     OW11899   2.756   3.238   0.035
 3671SOL    HW111900   2.695   3.232   0.108
 3671SOL    HW211901   2.740   3.325   8.077
 3672SOL     OW11902   2.522   3.654   0.945
 3672SOL    HW111903   2.503   3.745   0.921
 3672SOL    HW211904   2.617   3.647   0.938
 3673SOL     OW11905   3.717   3.416   0.844
 3673SOL    HW111906   3.638   3.406   0.791
 3673SOL    HW211907   3.707   3.351   0.914
 3674SOL     OW11908   2.083   3.166   1.856
 3674SOL    HW111909   2.017   3.103   1.827
 3674SOL    HW211910   2.067   3.177   1.949
 3675SOL     OW11911   1.946   3.095   0.666
 3675SOL    HW111912   1.951   3.046   0.748
 3675SOL    HW211913   2.019   3.062   0.614
 3676SOL     OW11914   2.544   3.262   1.634
 3676SOL    HW111915   2.460   3.224   1.658
 3676SOL    HW211916   2.538   3.353   1.666
 3677SOL     OW11917   3.675   2.046   1.237
 3677SOL    HW111918   3.685   1.952   1.252
 3677SOL    HW211919   3.684   2.057   1.143
 3678SOL     OW11920   2.271   2.280   0.521
 3678SOL    HW111921   2.290   2.206   0.464
 3678SOL    HW211922   2.221   2.243   0.593
 3679SOL     OW11923   3.563   3.351   1.095
 3679SOL    HW111924   3.481   3.328   1.051
 3679SOL    HW211925   3.574   3.283   1.162
 3680SOL     OW11926   2.180   2.409   1.294
 3680SOL    HW111927   2.226   2.344   1.346
 3680SOL    HW211928   2.186   2.376   1.204
 3681SOL     OW11929   2.689   3.441   0.675
 3681SOL    HW111930   2.674   3.494   0.596
 3681SOL    HW211931   2.613   3.384   0.681
 3682SOL     OW11932   3.295   2.088   1.119
 3682SOL    HW111933   3.319   2.008   1.167
 3682SOL    HW211934   3.242   2.138   1.181
 3683SOL     OW11935   2.869   1.877   1.143
 3683SOL    HW111936   2.817   1.809   1.102
 3683SOL    HW211937   2.958   1.842   1.146
 3684SOL     OW11938   2.643   3.192   0.299
 3684SOL    HW111939   2.595   3.118   0.336
 3684SOL    HW211940   2.714   3.208   0.361
 3685SOL     OW11941   2.481   3.421   1.284
 3685SOL    HW111942   2.485   3.503   1.334
 3685SOL    HW211943   2.569   3.411   1.248
 3686SOL     OW11944   3.218   1.916   0.184
 3686SOL    HW111945   3.240   1.869   0.104
 3686SOL    HW211946   3.132   1.882   0.210
 3687SOL     OW11947   3.162   2.317   0.682
 3687SOL    HW111948   3.111   2.396   0.699
 3687SOL    HW211949   3.161   2.270   0.766
 3688SOL     OW11950   3.448   2.064   0.878
 3688SOL    HW111951   3.388   2.084   0.949
 3688SOL    HW211952   3.448   2.142   0.823
 3689SOL     OW11953   1.905   2.930   0.303
 3689SOL    HW111954   2.001   2.927   0.300
 3689SOL    HW211955   1.879   2.847   0.342
 3690SOL     OW11956   2.744   3.514   0.348
 3690SOL    HW111957   2.678   3.500   0.281
 3690SOL    HW211958   2.714   3.591   0.397
 3691SOL     OW11959   2.086   2.507   1.977
 3691SOL    HW111960   2.004   2.485   2.022
 3691SOL    HW211961   2.080   2.463   1.892
 3692SOL     OW11962   1.867   2.239   2.500
 3692SOL    HW111963   1.787   2.268   2.543
 3692SOL    HW211964   1.842   2.162   2.450
 3693SOL     OW11965   2.374   3.107   3.042
 3693SOL    HW111966   2.304   3.161   3.006
 3693SOL    HW211967   2.426   3.167   3.095
 3694SOL     OW11968   3.423   3.374   2.566
 3694SOL    HW111969   3.381   3.356   2.650
 3694SOL    HW211970   3.351   3.379   2.503
 3695SOL     OW11971   3.064   2.537   2.622
 3695SOL    HW111972   3.073   2.626   2.590
 3695SOL    HW211973   2.973   2.531   2.651
 3696SOL     OW11974   3.631   2.467   2.090
 3696SOL    HW111975   3.609   2.459   1.997
 3696SOL    HW211976   3.593   2.389   2.130
 3697SOL     OW11977   2.576   3.017   2.894
 3697SOL    HW111978   2.507   3.056   2.948
 3697SOL    HW211979   2.616   3.091   2.849
 3698SOL     OW11980   2.197   3.294   2.935
 3698SOL    HW111981   2.123   3.258   2.886
 3698SOL    HW211982   2.247   3.342   2.870
 3699SOL     OW11983   3.308   3.441   3.225
 3699SOL    HW111984   3.383   3.500   3.236
 3699SOL    HW211985   3.320   3.375   3.293
 3700SOL     OW11986   3.475   2.310   2.603
 3700SOL    HW111987   3.398   2.331   2.549
 3700SOL    HW211988   3.494   2.391   2.650
 3701SOL     OW11989   2.081   3.577   2.334
 3701SOL    HW111990   2.103   3.653   2.388
 3701SOL    HW211991   2.154   3.568   2.273
 3702SOL     OW11992   2.090   3.303   2.396
 3702SOL    HW111993   2.074   3.397   2.402
 3702SOL    HW211994   2.033   3.264   2.462
 3703SOL     OW11995   2.107   2.955   2.741
 3703SOL    HW111996   2.122   2.872   2.787
 3703SOL    HW211997   2.061   3.009   2.805
 3704SOL     OW11998   2.496   3.659   3.308
 3704SOL    HW111999   2.408   3.640   3.342
 3704SOL    HW212000   2.508   3.753   3.325
 3705SOL     OW12001   2.420   2.854   1.985
 3705SOL    HW112002   2.462   2.918   1.928
 3705SOL    HW212003   2.488   2.827   2.046
 3706SOL     OW12004   1.951   2.514   2.420
 3706SOL    HW112005   1.944   2.422   2.445
 3706SOL    HW212006   1.963   2.561   2.502
 3707SOL     OW12007   3.704   3.621   2.197
 3707SOL    HW112008   3.769   3.593   2.262
 3707SOL    HW212009   3.728   3.712   2.178
 3708SOL     OW12010   1.894   3.457   1.986
 3708SOL    HW112011   1.876   3.365   2.005
 3708SOL    HW212012   1.870   3.504   2.066
 3709SOL     OW12013   3.555   2.787   2.503
 3709SOL    HW112014   3.636   2.740   2.482
 3709SOL    HW212015   3.533   2.834   2.422
 3710SOL     OW12016   3.507   2.970   2.291
 3710SOL    HW112017   3.593   2.976   2.248
 3710SOL    HW212018   3.513   3.030   2.365
 3711SOL     OW12019   2.464   3.251   2.580
 3711SOL    HW112020   2.419   3.167   2.591
 3711SOL    HW212021   2.444   3.276   2.489
 3712SOL     OW12022   2.678   1.862   2.372
 3712SOL    HW112023   2.718   1.946   2.351
 3712SOL    HW212024   2.584   1.881   2.381
 3713SOL     OW12025   3.398   2.859   2.059
 3713SOL    HW112026   3.331   2.796   2.086
 3713SOL    HW212027   3.436   2.891   2.140
 3714SOL     OW12028   3.043   3.691   3.478
 3714SOL    HW112029   3.050   3.747   3.401
 3714SOL    HW212030   3.007   3.609   3.446
 3715SOL     OW12031   3.334   3.282   2.812
 3715SOL    HW112032   3.263   3.299   2.874
 3715SOL    HW212033   3.319   3.194   2.780
 3716SOL     OW12034   3.520   3.602   2.440
 3716SOL    HW112035   3.501   3.572   2.351
 3716SOL    HW212036   3.496   3.528   2.495
 3717SOL     OW12037   3.156   2.213   2.795
 3717SOL    HW112038   3.063   2.188   2.797
 3717SOL    HW212039   3.196   2.157   2.861
 3718SOL     OW12040   3.443   3.532   2.171
 3718SOL    HW112041   3.533   3.563   2.164
 3718SOL    HW212042   3.416   3.515   2.081
 3719SOL     OW12043   2.864   2.278   3.121
 3719SOL    HW112044   2.775   2.267   3.153
 3719SOL    HW212045   2.860   2.257   3.028
 3720SOL     OW12046   1.945   2.683   2.639
 3720SOL    HW112047   2.028   2.676   2.686
 3720SOL    HW212048   1.906   2.764   2.672
 3721SOL     OW12049   1.982   3.687   3.438
 3721SOL    HW112050   1.981   3.679   3.533
 3721SOL    HW212051   1.892   3.707   3.414
 3722SOL     OW12052   2.742   2.184   2.064
 3722SOL    HW112053   2.776   2.270   2.037
 3722SOL    HW212054   2.788   2.122   2.007
 3723SOL     OW12055   3.639   2.444   3.704
 3723SOL    HW112056   3.594   2.520   3.668
 3723SOL    HW212057   3.623   2.374   3.640
 3724SOL     OW12058   3.237   3.004   2.398
 3724SOL    HW112059   3.319   2.994   2.349
 3724SOL    HW212060   3.188   3.069   2.348
 3725SOL     OW12061   2.410   2.031   2.757
 3725SOL    HW112062   2.404   2.064   2.847
 3725SOL    HW212063   2.429   2.108   2.704
 3726SOL     OW12064   2.866   3.303   2.336
 3726SOL    HW112065   2.829   3.378   2.288
 3726SOL    HW212066   2.852   3.324   2.428
 3727SOL     OW12067   2.217   3.670   2.724
 3727SOL    HW112068   2.261   3.585   2.731
 3727SOL    HW212069   2.286   3.734   2.742
 3728SOL     OW12070   3.664   2.918   2.727
 3728SOL    HW112071   3.610   2.897   2.651
 3728SOL    HW212072   3.602   2.933   2.798
 3729SOL     OW12073   2.177   2.815   2.116
 3729SOL    HW112074   2.255   2.837   2.066
 3729SOL    HW212075   2.147   2.732   2.079
 3730SOL     OW12076   3.363   2.590   2.581
 3730SOL    HW112077   3.324   2.564   2.665
 3730SOL    HW212078   3.425   2.658   2.604
 3731SOL     OW12079   2.984   3.639   2.093
 3731SOL    HW112080   2.911   3.598   2.139
 3731SOL    HW212081   3.006   3.578   2.023
 3732SOL     OW12082   3.491   3.242   1.950
 3732SOL    HW112083   3.450   3.327   1.935
 3732SOL    HW212084   3.422   3.178   1.930
 3733SOL     OW12085   2.329   3.599   2.183
 3733SOL    HW112086   2.370   3.656   2.247
 3733SOL    HW212087   2.401   3.570   2.127
 3734SOL     OW12088   3.263   1.968   2.295
 3734SOL    HW112089   3.253   1.944   2.203
 3734SOL    HW212090   3.357   1.977   2.307
 3735SOL     OW12091   2.109   3.654   3.091
 3735SOL    HW112092   2.179   3.602   3.131
 3735SOL    HW212093   2.097   3.616   3.004
 3736SOL     OW12094   2.796   3.558   2.762
 3736SOL    HW112095   2.868   3.501   2.790
 3736SOL    HW212096   2.752   3.510   2.692
 3737SOL     OW12097   2.490   1.989   1.968
 3737SOL    HW112098   2.564   1.930   1.982
 3737SOL    HW212099   2.446   1.954   1.890
 3738SOL     OW12100   2.675   3.227   2.744
 3738SOL    HW112101   2.762   3.226   2.705
 3738SOL    HW212102   2.615   3.233   2.670
 3739SOL     OW12103   2.840   2.350   2.762
 3739SOL    HW112104   2.779   2.352   2.689
 3739SOL    HW212105   2.857   2.256   2.776
 3740SOL     OW12106   2.413   1.923   2.369
 3740SOL    HW112107   2.329   1.923   2.416
 3740SOL    HW212108   2.407   1.998   2.310
 3741SOL     OW12109   3.290   3.061   1.902
 3741SOL    HW112110   3.321   2.986   1.952
 3741SOL    HW212111   3.205   3.082   1.940
 3742SOL     OW12112   2.154   1.910   2.047
 3742SOL    HW112113   2.212   1.972   2.003
 3742SOL    HW212114   2.212   1.846   2.088
 3743SOL     OW12115   2.799   2.106   2.321
 3743SOL    HW112116   2.772   2.138   2.235
 3743SOL    HW212117   2.894   2.119   2.322
 3744SOL     OW12118   2.995   2.476   3.306
 3744SOL    HW112119   2.901   2.461   3.304
 3744SOL    HW212120   3.033   2.397   3.267
 3745SOL     OW12121   3.104   3.432   2.654
 3745SOL    HW112122   3.105   3.499   2.585
 3745SOL    HW212123   3.165   3.464   2.720
 3746SOL     OW12124   2.328   3.017   2.592
 3746SOL    HW112125   2.261   2.992   2.656
 3746SOL    HW212126   2.293   2.988   2.508
 3747SOL     OW12127   3.131   3.656   2.470
 3747SOL    HW112128   3.177   3.717   2.412
 3747SOL    HW212129   3.064   3.709   2.513
 3748SOL     OW12130   2.727   2.297   2.502
 3748SOL    HW112131   2.718   2.372   2.443
 3748SOL    HW212132   2.755   2.225   2.446
 3749SOL     OW12133   2.878   1.906   2.603
 3749SOL    HW112134   2.816   1.895   2.531
 3749SOL    HW212135   2.856   1.836   2.665
 3750SOL     OW12136   3.282   3.030   2.716
 3750SOL    HW112137   3.240   2.944   2.723
 3750SOL    HW212138   3.312   3.035   2.625
 3751SOL     OW12139   3.331   2.463   2.852
 3751SOL    HW112140   3.278   2.384   2.842
 3751SOL    HW212141   3.401   2.438   2.912
 3752SOL     OW12142   3.707   2.678   2.245
 3752SOL    HW112143   3.763   2.627   2.303
 3752SOL    HW212144   3.679   2.616   2.177
 3753SOL     OW12145   2.354   3.277   2.021
 3753SOL    HW112146   2.278   3.250   2.072
 3753SOL    HW212147   2.339   3.240   1.934
 3754SOL     OW12148   3.531   3.126   2.508
 3754SOL    HW112149   3.626   3.129   2.522
 3754SOL    HW212150   3.501   3.215   2.528
 3755SOL     OW12151   3.254   2.427   1.932
 3755SOL    HW112152   3.191   2.409   2.001
 3755SOL    HW212153   3.338   2.398   1.967
 3756SOL     OW12154   2.393   2.119   2.187
 3756SOL    HW112155   2.429   2.075   2.109
 3756SOL    HW212156   2.398   2.212   2.166
 3757SOL     OW12157   3.619   3.092   3.463
 3757SOL    HW112158   3.698   3.056   3.423
 3757SOL    HW212159   3.638   3.185   3.474
 3758SOL     OW12160   3.472   3.485   3.514
 3758SOL    HW112161   3.477   3.532   3.430
 3758SOL    HW212162   3.552   3.434   3.517
 3759SOL     OW12163   3.498   2.989   2.932
 3759SOL    HW112164   3.488   2.995   3.027
 3759SOL    HW212165   3.410   2.969   2.900
 3760SOL     OW12166   2.260   2.734   3.146
 3760SOL    HW112167   2.337   2.713   3.198
 3760SOL    HW212168   2.221   2.649   3.124
 3761SOL     OW12169   1.912   3.419   3.196
 3761SOL    HW112170   1.884   3.500   3.154
 3761SOL    HW212171   2.005   3.432   3.215
 3762SOL     OW12172   2.219   2.968   2.345
 3762SOL    HW112173   2.210   3.044   2.288
 3762SOL    HW212174   2.206   2.892   2.288
 3763SOL     OW12175   3.108   3.211   2.251
 3763SOL    HW112176   3.164   3.283   2.280
 3763SOL    HW212177   3.021   3.233   2.285
 3764SOL     OW12178   3.441   2.484   2.335
 3764SOL    HW112179   3.406   2.530   2.411
 3764SOL    HW212180   3.488   2.551   2.285
 3765SOL     OW12181   2.375   2.813   2.888
 3765SOL    HW112182   2.443   2.881   2.886
 3765SOL    HW212183   2.349   2.807   2.980
 3766SOL     OW12184   3.231   2.721   2.838
 3766SOL    HW112185   3.141   2.705   2.809
 3766SOL    HW212186   3.264   2.635   2.863
 3767SOL     OW12187   3.073   2.382   2.136
 3767SOL    HW112188   3.076   2.302   2.188
 3767SOL    HW212189   3.064   2.453   2.200
 3768SOL     OW12190   3.599   2.801   3.693
 3768SOL    HW112191   3.554   2.853   3.627
 3768SOL    HW212192   3.556   2.825   3.776
 3769SOL     OW12193   2.167   1.930   2.486
 3769SOL    HW112194   2.137   2.016   2.514
 3769SOL    HW212195   2.172   1.879   2.567
 3770SOL     OW12196   3.476   2.234   2.229
 3770SOL    HW112197   3.505   2.173   2.296
 3770SOL    HW212198   3.455   2.314   2.277
 3771SOL     OW12199   3.718   3.368   3.467
 3771SOL    HW112200   3.736   3.393   3.376
 3771SOL    HW212201   3.799   3.387   3.514
 3772SOL     OW12202   3.391   2.134   1.989
 3772SOL    HW112203   3.327   2.069   2.016
 3772SOL    HW212204   3.425   2.170   2.071
 3773SOL     OW12205   3.183   2.690   1.905
 3773SOL    HW112206   3.214   2.600   1.896
 3773SOL    HW212207   3.197   2.729   1.819
 3774SOL     OW12208   2.930   3.213   2.662
 3774SOL    HW112209   2.973   3.127   2.661
 3774SOL    HW212210   3.002   3.276   2.661
 3775SOL     OW12211   2.163   2.671   2.802
 3775SOL    HW112212   2.244   2.718   2.824
 3775SOL    HW212213   2.170   2.587   2.848
 3776SOL     OW12214   2.158   2.382   2.850
 3776SOL    HW112215   2.141   2.288   2.851
 3776SOL    HW212216   2.213   2.395   2.773
 3777SOL     OW12217   1.867   3.183   2.057
 3777SOL    HW112218   1.780   3.197   2.019
 3777SOL    HW212219   1.864   3.094   2.091
 3778SOL     OW12220   1.953   3.650   2.800
 3778SOL    HW112221   1.922   3.570   2.757
 3778SOL    HW212222   2.042   3.661   2.769
 3779SOL     OW12223   2.363   3.435   2.766
 3779SOL    HW112224   2.433   3.496   2.788
 3779SOL    HW212225   2.404   3.370   2.710
 3780SOL     OW12226   1.874   2.378   2.966
 3780SOL    HW112227   1.943   2.373   2.900
 3780SOL    HW212228   1.917   2.416   3.042
 3781SOL     OW12229   2.829   3.591   3.313
 3781SOL    HW112230   2.757   3.550   3.266
 3781SOL    HW212231   2.804   3.682   3.321
 3782SOL     OW12232   3.181   2.716   2.171
 3782SOL    HW112233   3.094   2.722   2.209
 3782SOL    HW212234   3.167   2.705   2.077
 3783SOL     OW12235   3.630   3.611   3.010
 3783SOL    HW112236   3.692   3.634   2.941
 3783SOL    HW212237   3.607   3.520   2.993
 3784SOL     OW12238   3.101   3.591   2.972
 3784SOL    HW112239   3.184   3.611   2.930
 3784SOL    HW212240   3.122   3.526   3.039
 3785SOL     OW12241   1.944   3.127   2.884
 3785SOL    HW112242   1.925   3.125   2.978
 3785SOL    HW212243   1.875   3.073   2.845
 3786SOL     OW12244   2.550   3.546   3.615
 3786SOL    HW112245   2.498   3.622   3.586
 3786SOL    HW212246   2.606   3.525   3.541
 3787SOL     OW12247   3.581   2.008   2.372
 3787SOL    HW112248   3.654   1.994   2.311
 3787SOL    HW212249   3.566   1.922   2.412
 3788SOL     OW12250   3.252   3.430   2.345
 3788SOL    HW112251   3.313   3.462   2.279
 3788SOL    HW212252   3.204   3.507   2.374
 3789SOL     OW12253   1.990   3.665   3.704
 3789SOL    HW112254   1.950   3.590   3.748
 3789SOL    HW212255   2.045   3.705   3.770
 3790SOL     OW12256   3.163   2.783   2.536
 3790SOL    HW112257   3.239   2.726   2.530
 3790SOL    HW212258   3.186   2.860   2.484
 3791SOL     OW12259   2.532   3.482   2.016
 3791SOL    HW112260   2.543   3.494   1.922
 3791SOL    HW212261   2.478   3.404   2.024
 3792SOL     OW12262   3.520   3.604   3.265
 3792SOL    HW112263   3.555   3.609   3.176
 3792SOL    HW212264   3.495   3.694   3.285
 3793SOL     OW12265   3.704   2.036   2.823
 3793SOL    HW112266   3.732   1.948   2.796
 3793SOL    HW212267   3.617   2.046   2.784
 3794SOL     OW12268   2.109   2.174   2.612
 3794SOL    HW112269   2.042   2.217   2.558
 3794SOL    HW212270   2.061   2.137   2.686
 3795SOL     OW12271   3.068   3.467   1.893
 3795SOL    HW112272   3.060   3.375   1.917
 3795SOL    HW212273   3.004   3.480   1.824
 3796SOL     OW12274   3.354   3.487   1.904
 3796SOL    HW112275   3.259   3.481   1.891
 3796SOL    HW212276   3.391   3.493   1.816
 3797SOL     OW12277   2.905   2.094   2.805
 3797SOL    HW112278   2.897   2.050   2.720
 3797SOL    HW212279   2.906   2.024   2.869
 3798SOL     OW12280   2.460   3.358   2.331
 3798SOL    HW112281   2.506   3.311   2.262
 3798SOL    HW212282   2.390   3.406   2.286
 3799SOL     OW12283   3.649   2.231   3.271
 3799SOL    HW112284   3.683   2.314   3.237
 3799SOL    HW212285   3.649   2.172   3.195
 3800SOL     OW12286   2.121   3.207   2.150
 3800SOL    HW112287   2.028   3.204   2.127
 3800SOL    HW212288   2.123   3.244   2.238
 3801SOL     OW12289   1.941   2.195   1.896
 3801SOL    HW112290   1.852   2.177   1.867
 3801SOL    HW212291   1.969   2.271   1.844
 3802SOL     OW12292   1.931   2.017   2.173
 3802SOL    HW112293   1.916   2.100   2.127
 3802SOL    HW212294   2.015   1.985   2.141
 3803SOL     OW12295   3.038   3.196   1.978
 3803SOL    HW112296   2.943   3.186   1.980
 3803SOL    HW212297   3.065   3.199   2.069
 3804SOL     OW12298   3.346   3.634   2.841
 3804SOL    HW112299   3.368   3.695   2.770
 3804SOL    HW212300   3.429   3.620   2.887
 3805SOL     OW12301   2.245   3.626   3.426
 3805SOL    HW112302   2.151   3.645   3.424
 3805SOL    HW212303   2.250   3.531   3.433
 3806SOL     OW12304   3.077   2.176   2.321
 3806SOL    HW112305   3.140   2.105   2.310
 3806SOL    HW212306   3.106   2.223   2.398
 3807SOL     OW12307   3.611   2.223   3.536
 3807SOL    HW112308   3.618   2.231   3.441
 3807SOL    HW212309   3.528   2.179   3.550
 3808SOL     OW12310   2.749   3.230   1.902
 3808SOL    HW112311   2.692   3.255   1.975
 3808SOL    HW212312   2.752   3.308   1.846
 3809SOL     OW12313   2.523   3.655   2.811
 3809SOL    HW112314   2.503   3.745   2.785
 3809SOL    HW212315   2.617   3.647   2.797
 3810SOL     OW12316   3.716   3.417   2.707
 3810SOL    HW112317   3.639   3.405   2.652
 3810SOL    HW212318   3.712   3.346   2.770
 3811SOL     OW12319   1.946   3.095   2.528
 3811SOL    HW112320   1.952   3.046   2.610
 3811SOL    HW212321   2.015   3.058   2.472
 3812SOL     OW12322   3.669   2.030   3.092
 3812SOL    HW112323   3.696   1.938   3.098
 3812SOL    HW212324   3.680   2.052   3.000
 3813SOL     OW12325   2.232   2.252   2.374
 3813SOL    HW112326   2.280   2.182   2.330
 3813SOL    HW212327   2.212   2.217   2.461
 3814SOL     OW12328   3.564   3.354   2.969
 3814SOL    HW112329   3.489   3.318   2.922
 3814SOL    HW212330   3.594   3.281   3.024
 3815SOL     OW12331   2.684   3.450   2.532
 3815SOL    HW112332   2.673   3.498   2.450
 3815SOL    HW212333   2.606   3.394   2.538
 3816SOL     OW12334   3.288   2.082   2.987
 3816SOL    HW112335   3.335   2.005   3.018
 3816SOL    HW212336   3.244   2.116   3.065
 3817SOL     OW12337   2.905   1.865   2.939
 3817SOL    HW112338   2.843   1.794   2.920
 3817SOL    HW212339   2.987   1.820   2.959
 3818SOL     OW12340   2.636   3.206   2.173
 3818SOL    HW112341   2.604   3.115   2.169
 3818SOL    HW212342   2.718   3.201   2.222
 3819SOL     OW12343   3.214   1.916   2.027
 3819SOL    HW112344   3.243   1.853   1.961
 3819SOL    HW212345   3.127   1.885   2.053
 3820SOL     OW12346   3.168   2.306   2.541
 3820SOL    HW112347   3.133   2.393   2.557
 3820SOL    HW212348   3.168   2.263   2.627
 3821SOL     OW12349   3.447   2.066   2.739
 3821SOL    HW112350   3.381   2.087   2.804
 3821SOL    HW212351   3.451   2.143   2.682
 3822SOL     OW12352   1.906   2.933   2.168
 3822SOL    HW112353   1.999   2.923   2.149
 3822SOL    HW212354   1.876   2.845   2.190
 3823SOL     OW12355   2.747   3.514   2.205
 3823SOL    HW112356   2.675   3.496   2.144
 3823SOL    HW212357   2.718   3.590   2.255
 3824SOL     OW12358   3.433   3.384   4.434
 3824SOL    HW112359   3.387   3.373   4.517
 3824SOL    HW212360   3.365   3.400   4.370
 3825SOL     OW12361   3.625   2.467   3.967
 3825SOL    HW112362   3.627   2.455   3.872
 3825SOL    HW212363   3.586   2.386   4.000
 3826SOL     OW12364   2.541   3.033   5.555
 3826SOL    HW112365   2.612   3.097   5.544
 3826SOL    HW212366   2.470   3.067   5.501
 3827SOL     OW12367   3.323   3.364   5.074
 3827SOL    HW112368   3.375   3.444   5.081
 3827SOL    HW212369   3.266   3.366   5.151
 3828SOL     OW12370   2.301   2.217   5.271
 3828SOL    HW112371   2.369   2.160   5.236
 3828SOL    HW212372   2.220   2.183   5.233
 3829SOL     OW12373   2.086   3.569   4.199
 3829SOL    HW112374   2.106   3.648   4.249
 3829SOL    HW212375   2.155   3.565   4.132
 3830SOL     OW12376   2.991   3.196   5.410
 3830SOL    HW112377   3.033   3.190   5.496
 3830SOL    HW212378   2.942   3.115   5.402
 3831SOL     OW12379   2.054   3.298   4.244
 3831SOL    HW112380   2.063   3.393   4.236
 3831SOL    HW212381   2.012   3.285   4.329
 3832SOL     OW12382   2.479   3.658   5.165
 3832SOL    HW112383   2.394   3.640   5.206
 3832SOL    HW212384   2.497   3.750   5.186
 3833SOL     OW12385   3.458   1.983   5.194
 3833SOL    HW112386   3.467   2.061   5.139
 3833SOL    HW212387   3.445   2.017   5.282
 3834SOL     OW12388   3.709   3.622   4.056
 3834SOL    HW112389   3.771   3.593   4.124
 3834SOL    HW212390   3.732   3.713   4.040
 3835SOL     OW12391   1.881   3.460   3.844
 3835SOL    HW112392   1.878   3.368   3.870
 3835SOL    HW212393   1.865   3.508   3.926
 3836SOL     OW12394   3.644   2.838   4.336
 3836SOL    HW112395   3.685   2.775   4.277
 3836SOL    HW212396   3.569   2.871   4.288
 3837SOL     OW12397   3.513   2.988   4.144
 3837SOL    HW112398   3.603   2.994   4.112
 3837SOL    HW212399   3.511   3.046   4.220
 3838SOL     OW12400   1.960   2.599   5.316
 3838SOL    HW112401   2.050   2.629   5.329
 3838SOL    HW212402   1.909   2.679   5.305
 3839SOL     OW12403   3.043   3.669   5.347
 3839SOL    HW112404   3.061   3.728   5.274
 3839SOL    HW212405   3.067   3.582   5.314
 3840SOL     OW12406   2.197   2.107   5.551
 3840SOL    HW112407   2.228   2.187   5.509
 3840SOL    HW212408   2.107   2.127   5.577
 3841SOL     OW12409   3.358   3.275   4.687
 3841SOL    HW112410   3.290   3.301   4.750
 3841SOL    HW212411   3.343   3.182   4.672
 3842SOL     OW12412   3.529   3.606   4.301
 3842SOL    HW112413   3.500   3.576   4.215
 3842SOL    HW212414   3.504   3.536   4.360
 3843SOL     OW12415   3.449   3.549   4.030
 3843SOL    HW112416   3.542   3.574   4.030
 3843SOL    HW212417   3.431   3.524   3.939
 3844SOL     OW12418   3.248   2.331   5.403
 3844SOL    HW112419   3.252   2.375   5.487
 3844SOL    HW212420   3.315   2.263   5.408
 3845SOL     OW12421   1.989   3.706   5.301
 3845SOL    HW112422   1.988   3.687   5.395
 3845SOL    HW212423   1.896   3.704   5.276
 3846SOL     OW12424   3.570   2.436   5.553
 3846SOL    HW112425   3.534   2.512   5.507
 3846SOL    HW212426   3.597   2.377   5.483
 3847SOL     OW12427   2.221   3.666   4.591
 3847SOL    HW112428   2.276   3.589   4.589
 3847SOL    HW212429   2.281   3.739   4.609
 3848SOL     OW12430   3.689   2.935   4.587
 3848SOL    HW112431   3.649   2.908   4.504
 3848SOL    HW212432   3.615   2.945   4.647
 3849SOL     OW12433   3.096   3.401   5.244
 3849SOL    HW112434   3.078   3.328   5.303
 3849SOL    HW212435   3.032   3.391   5.173
 3850SOL     OW12436   2.315   3.134   5.436
 3850SOL    HW112437   2.272   3.126   5.351
 3850SOL    HW212438   2.245   3.124   5.500
 3851SOL     OW12439   2.998   3.627   3.938
 3851SOL    HW112440   2.931   3.607   4.003
 3851SOL    HW212441   2.967   3.587   3.857
 3852SOL     OW12442   2.044   2.149   5.242
 3852SOL    HW112443   1.953   2.168   5.221
 3852SOL    HW212444   2.041   2.063   5.284
 3853SOL     OW12445   3.485   3.228   3.813
 3853SOL    HW112446   3.455   3.318   3.801
 3853SOL    HW212447   3.412   3.174   3.784
 3854SOL     OW12448   2.323   3.605   4.041
 3854SOL    HW112449   2.371   3.657   4.106
 3854SOL    HW212450   2.392   3.562   3.990
 3855SOL     OW12451   3.271   1.977   4.154
 3855SOL    HW112452   3.251   1.954   4.064
 3855SOL    HW212453   3.367   1.974   4.159
 3856SOL     OW12454   2.119   3.656   4.955
 3856SOL    HW112455   2.165   3.586   5.001
 3856SOL    HW212456   2.109   3.623   4.866
 3857SOL     OW12457   2.812   3.588   4.639
 3857SOL    HW112458   2.893   3.539   4.651
 3857SOL    HW212459   2.751   3.526   4.600
 3858SOL     OW12460   3.397   2.088   5.449
 3858SOL    HW112461   3.406   2.109   5.542
 3858SOL    HW212462   3.330   2.019   5.446
 3859SOL     OW12463   2.631   2.128   5.480
 3859SOL    HW112464   2.707   2.069   5.486
 3859SOL    HW212465   2.586   2.118   5.563
 3860SOL     OW12466   2.725   3.435   4.926
 3860SOL    HW112467   2.702   3.408   4.837
 3860SOL    HW212468   2.750   3.354   4.970
 3861SOL     OW12469   3.309   2.518   5.202
 3861SOL    HW112470   3.291   2.444   5.261
 3861SOL    HW212471   3.235   2.518   5.141
 3862SOL     OW12472   2.309   2.934   4.438
 3862SOL    HW112473   2.265   2.969   4.516
 3862SOL    HW212474   2.291   2.997   4.369
 3863SOL     OW12475   3.119   3.676   4.316
 3863SOL    HW112476   3.169   3.741   4.266
 3863SOL    HW212477   3.065   3.726   4.376
 3864SOL     OW12478   2.798   2.315   4.341
 3864SOL    HW112479   2.720   2.369   4.326
 3864SOL    HW212480   2.766   2.225   4.335
 3865SOL     OW12481   3.715   2.678   4.109
 3865SOL    HW112482   3.771   2.625   4.165
 3865SOL    HW212483   3.680   2.617   4.045
 3866SOL     OW12484   2.364   3.280   3.894
 3866SOL    HW112485   2.279   3.265   3.935
 3866SOL    HW212486   2.367   3.218   3.821
 3867SOL     OW12487   3.556   3.143   4.365
 3867SOL    HW112488   3.651   3.146   4.379
 3867SOL    HW212489   3.527   3.231   4.390
 3868SOL     OW12490   3.613   3.105   5.294
 3868SOL    HW112491   3.699   3.062   5.294
 3868SOL    HW212492   3.631   3.194   5.325
 3869SOL     OW12493   3.469   3.488   5.377
 3869SOL    HW112494   3.464   3.521   5.287
 3869SOL    HW212495   3.552   3.441   5.380
 3870SOL     OW12496   3.519   2.994   4.791
 3870SOL    HW112497   3.538   3.052   4.865
 3870SOL    HW212498   3.429   2.966   4.804
 3871SOL     OW12499   2.775   1.953   5.132
 3871SOL    HW112500   2.795   1.925   5.043
 3871SOL    HW212501   2.858   1.987   5.165
 3872SOL     OW12502   1.931   3.437   5.078
 3872SOL    HW112503   1.898   3.510   5.025
 3872SOL    HW212504   2.026   3.441   5.067
 3873SOL     OW12505   3.455   2.482   4.192
 3873SOL    HW112506   3.425   2.545   4.257
 3873SOL    HW212507   3.491   2.535   4.122
 3874SOL     OW12508   2.201   3.394   5.024
 3874SOL    HW112509   2.195   3.305   4.990
 3874SOL    HW212510   2.295   3.410   5.032
 3875SOL     OW12511   2.222   2.637   5.356
 3875SOL    HW112512   2.274   2.642   5.276
 3875SOL    HW212513   2.231   2.546   5.384
 3876SOL     OW12514   3.466   2.649   5.419
 3876SOL    HW112515   3.375   2.672   5.400
 3876SOL    HW212516   3.515   2.680   5.343
 3877SOL     OW12517   2.861   1.980   5.486
 3877SOL    HW112518   2.914   2.053   5.453
 3877SOL    HW212519   2.910   1.902   5.459
 3878SOL     OW12520   2.359   1.899   5.475
 3878SOL    HW112521   2.316   1.848   5.406
 3878SOL    HW212522   2.301   1.974   5.489
 3879SOL     OW12523   1.927   3.174   4.997
 3879SOL    HW112524   1.943   3.120   5.074
 3879SOL    HW212525   1.916   3.263   5.032
 3880SOL     OW12526   3.600   2.825   5.580
 3880SOL    HW112527   3.555   2.764   5.521
 3880SOL    HW212528   3.539   2.839   5.652
 3881SOL     OW12529   2.141   1.878   4.343
 3881SOL    HW112530   2.172   1.968   4.347
 3881SOL    HW212531   2.163   1.841   4.428
 3882SOL     OW12532   3.481   2.233   4.086
 3882SOL    HW112533   3.504   2.170   4.155
 3882SOL    HW212534   3.456   2.312   4.133
 3883SOL     OW12535   2.844   3.429   5.438
 3883SOL    HW112536   2.831   3.473   5.354
 3883SOL    HW212537   2.884   3.345   5.415
 3884SOL     OW12538   3.716   3.370   5.330
 3884SOL    HW112539   3.735   3.395   5.240
 3884SOL    HW212540   3.798   3.387   5.377
 3885SOL     OW12541   2.209   2.826   5.538
 3885SOL    HW112542   2.284   2.817   5.598
 3885SOL    HW212543   2.215   2.749   5.481
 3886SOL     OW12544   3.403   2.127   3.837
 3886SOL    HW112545   3.332   2.068   3.863
 3886SOL    HW212546   3.426   2.173   3.918
 3887SOL     OW12547   2.996   2.225   5.408
 3887SOL    HW112548   2.939   2.290   5.448
 3887SOL    HW212549   3.083   2.265   5.409
 3888SOL     OW12550   3.022   2.041   5.202
 3888SOL    HW112551   3.014   2.108   5.270
 3888SOL    HW212552   3.049   2.090   5.124
 3889SOL     OW12553   1.863   3.188   3.917
 3889SOL    HW112554   1.778   3.203   3.876
 3889SOL    HW212555   1.857   3.099   3.953
 3890SOL     OW12556   1.949   3.642   4.654
 3890SOL    HW112557   1.920   3.576   4.590
 3890SOL    HW212558   2.041   3.657   4.633
 3891SOL     OW12559   2.063   2.378   5.444
 3891SOL    HW112560   2.092   2.323   5.370
 3891SOL    HW212561   2.011   2.447   5.403
 3892SOL     OW12562   3.228   2.803   5.376
 3892SOL    HW112563   3.259   2.893   5.388
 3892SOL    HW212564   3.231   2.790   5.281
 3893SOL     OW12565   3.519   2.484   4.935
 3893SOL    HW112566   3.483   2.421   4.997
 3893SOL    HW212567   3.591   2.437   4.892
 3894SOL     OW12568   2.108   3.412   5.453
 3894SOL    HW112569   2.083   3.479   5.516
 3894SOL    HW212570   2.104   3.330   5.502
 3895SOL     OW12571   2.797   3.541   5.183
 3895SOL    HW112572   2.754   3.521   5.100
 3895SOL    HW212573   2.793   3.637   5.189
 3896SOL     OW12574   3.183   2.660   4.034
 3896SOL    HW112575   3.092   2.645   4.061
 3896SOL    HW212576   3.180   2.658   3.938
 3897SOL     OW12577   3.633   3.612   4.872
 3897SOL    HW112578   3.697   3.634   4.804
 3897SOL    HW212579   3.611   3.520   4.855
 3898SOL     OW12580   2.537   3.527   5.454
 3898SOL    HW112581   2.484   3.606   5.451
 3898SOL    HW212582   2.602   3.539   5.384
 3899SOL     OW12583   3.588   2.011   4.244
 3899SOL    HW112584   3.656   1.999   4.177
 3899SOL    HW212585   3.569   1.922   4.274
 3900SOL     OW12586   3.272   3.469   4.223
 3900SOL    HW112587   3.316   3.498   4.143
 3900SOL    HW212588   3.209   3.539   4.242
 3901SOL     OW12589   2.000   3.657   5.567
 3901SOL    HW112590   1.948   3.592   5.615
 3901SOL    HW212591   2.047   3.706   5.634
 3902SOL     OW12592   2.533   3.488   3.885
 3902SOL    HW112593   2.547   3.501   3.791
 3902SOL    HW212594   2.481   3.408   3.890
 3903SOL     OW12595   3.487   3.589   5.114
 3903SOL    HW112596   3.538   3.596   5.033
 3903SOL    HW212597   3.474   3.680   5.141
 3904SOL     OW12598   3.695   2.035   4.689
 3904SOL    HW112599   3.730   1.949   4.664
 3904SOL    HW212600   3.615   2.043   4.637
 3905SOL     OW12601   3.386   3.491   3.772
 3905SOL    HW112602   3.293   3.475   3.761
 3905SOL    HW212603   3.421   3.496   3.682
 3906SOL     OW12604   3.484   3.157   5.010
 3906SOL    HW112605   3.535   3.145   5.090
 3906SOL    HW212606   3.418   3.223   5.033
 3907SOL     OW12607   3.585   2.246   5.109
 3907SOL    HW112608   3.649   2.316   5.103
 3907SOL    HW212609   3.618   2.178   5.050
 3908SOL     OW12610   2.121   3.229   3.994
 3908SOL    HW112611   2.033   3.220   3.958
 3908SOL    HW212612   2.107   3.250   4.086
 3909SOL     OW12613   1.962   2.919   5.456
 3909SOL    HW112614   1.890   2.873   5.501
 3909SOL    HW212615   2.041   2.875   5.488
 3910SOL     OW12616   2.539   2.050   5.237
 3910SOL    HW112617   2.622   2.028   5.194
 3910SOL    HW212618   2.565   2.086   5.322
 3911SOL     OW12619   1.919   1.990   3.994
 3911SOL    HW112620   1.884   2.073   3.962
 3911SOL    HW212621   2.012   2.008   4.008
 3912SOL     OW12622   3.062   3.210   3.882
 3912SOL    HW112623   2.969   3.189   3.871
 3912SOL    HW212624   3.070   3.232   3.975
 3913SOL     OW12625   3.384   3.651   4.692
 3913SOL    HW112626   3.407   3.716   4.626
 3913SOL    HW212627   3.464   3.641   4.744
 3914SOL     OW12628   3.333   3.058   5.355
 3914SOL    HW112629   3.322   3.077   5.448
 3914SOL    HW212630   3.424   3.077   5.337
 3915SOL     OW12631   2.242   3.601   5.288
 3915SOL    HW112632   2.156   3.642   5.273
 3915SOL    HW212633   2.221   3.518   5.330
 3916SOL     OW12634   3.590   2.742   4.969
 3916SOL    HW112635   3.557   2.653   4.957
 3916SOL    HW212636   3.554   2.791   4.895
 3917SOL     OW12637   3.070   2.158   4.215
 3917SOL    HW112638   3.141   2.095   4.198
 3917SOL    HW212639   3.111   2.225   4.269
 3918SOL     OW12640   3.626   2.222   5.377
 3918SOL    HW112641   3.611   2.237   5.284
 3918SOL    HW212642   3.553   2.167   5.405
 3919SOL     OW12643   3.603   2.793   5.234
 3919SOL    HW112644   3.606   2.889   5.239
 3919SOL    HW212645   3.601   2.774   5.140
 3920SOL     OW12646   2.524   3.663   4.670
 3920SOL    HW112647   2.492   3.749   4.645
 3920SOL    HW212648   2.619   3.671   4.668
 3921SOL     OW12649   3.716   3.419   4.568
 3921SOL    HW112650   3.636   3.406   4.516
 3921SOL    HW212651   3.716   3.346   4.631
 3922SOL     OW12652   2.085   3.163   5.578
 3922SOL    HW112653   2.028   3.092   5.551
 3922SOL    HW212654   2.068   3.174   5.672
 3923SOL     OW12655   2.542   3.263   5.348
 3923SOL    HW112656   2.459   3.222   5.374
 3923SOL    HW212657   2.537   3.352   5.384
 3924SOL     OW12658   3.679   2.043   4.961
 3924SOL    HW112659   3.685   1.948   4.973
 3924SOL    HW212660   3.686   2.056   4.867
 3925SOL     OW12661   3.574   3.356   4.830
 3925SOL    HW112662   3.501   3.331   4.774
 3925SOL    HW212663   3.582   3.285   4.894
 3926SOL     OW12664   2.862   1.843   4.898
 3926SOL    HW112665   2.813   1.799   4.828
 3926SOL    HW212666   2.953   1.817   4.883
 3927SOL     OW12667   2.464   3.438   5.014
 3927SOL    HW112668   2.474   3.517   5.067
 3927SOL    HW212669   2.551   3.424   4.976
 3928SOL     OW12670   3.212   1.917   3.891
 3928SOL    HW112671   3.236   1.862   3.816
 3928SOL    HW212672   3.125   1.886   3.916
 3929SOL     OW12673   1.883   2.927   4.026
 3929SOL    HW112674   1.970   2.934   3.987
 3929SOL    HW212675   1.861   2.834   4.019
 3930SOL     OW12676   2.758   3.545   4.041
 3930SOL    HW112677   2.680   3.519   3.992
 3930SOL    HW212678   2.725   3.595   4.116
 3931SOL     OW12679   2.081   2.507   5.698
 3931SOL    HW112680   1.999   2.481   5.739
 3931SOL    HW212681   2.082   2.462   5.614
 3932SOL     OW12682   2.085   2.135   6.580
 3932SOL    HW112683   2.114   2.101   6.664
 3932SOL    HW212684   1.995   2.104   6.572
 3933SOL     OW12685   1.865   2.240   6.230
 3933SOL    HW112686   1.781   2.265   6.268
 3933SOL    HW212687   1.845   2.164   6.176
 3934SOL     OW12688   2.414   3.159   6.780
 3934SOL    HW112689   2.331   3.167   6.733
 3934SOL    HW212690   2.434   3.248   6.808
 3935SOL     OW12691   3.422   3.374   6.293
 3935SOL    HW112692   3.380   3.355   6.376
 3935SOL    HW212693   3.350   3.379   6.230
 3936SOL     OW12694   3.061   2.533   6.337
 3936SOL    HW112695   3.072   2.624   6.310
 3936SOL    HW212696   2.970   2.527   6.365
 3937SOL     OW12697   3.631   2.467   5.814
 3937SOL    HW112698   3.609   2.460   5.721
 3937SOL    HW212699   3.593   2.389   5.854
 3938SOL     OW12700   2.592   3.036   6.624
 3938SOL    HW112701   2.522   3.067   6.682
 3938SOL    HW212702   2.627   3.115   6.584
 3939SOL     OW12703   2.549   3.035   7.404
 3939SOL    HW112704   2.605   3.111   7.419
 3939SOL    HW212705   2.470   3.071   7.364
 3940SOL     OW12706   2.190   3.291   6.653
 3940SOL    HW112707   2.120   3.250   6.603
 3940SOL    HW212708   2.241   3.339   6.589
 3941SOL     OW12709   3.325   3.360   6.940
 3941SOL    HW112710   3.374   3.442   6.949
 3941SOL    HW212711   3.259   3.364   7.009
 3942SOL     OW12712   2.302   2.230   7.042
 3942SOL    HW112713   2.377   2.174   7.062
 3942SOL    HW212714   2.226   2.182   7.076
 3943SOL     OW12715   3.476   2.309   6.326
 3943SOL    HW112716   3.397   2.327   6.274
 3943SOL    HW212717   3.488   2.388   6.379
 3944SOL     OW12718   2.081   3.577   6.058
 3944SOL    HW112719   2.103   3.653   6.112
 3944SOL    HW212720   2.154   3.569   5.997
 3945SOL     OW12721   3.037   3.241   7.284
 3945SOL    HW112722   3.068   3.236   7.374
 3945SOL    HW212723   2.989   3.160   7.270
 3946SOL     OW12724   2.091   3.303   6.120
 3946SOL    HW112725   2.074   3.397   6.125
 3946SOL    HW212726   2.032   3.265   6.185
 3947SOL     OW12727   2.113   2.952   6.472
 3947SOL    HW112728   2.117   2.868   6.518
 3947SOL    HW212729   2.061   3.008   6.529
 3948SOL     OW12730   2.473   3.655   7.014
 3948SOL    HW112731   2.392   3.636   7.062
 3948SOL    HW212732   2.496   3.744   7.041
 3949SOL     OW12733   2.423   2.854   5.711
 3949SOL    HW112734   2.464   2.919   5.654
 3949SOL    HW212735   2.494   2.823   5.767
 3950SOL     OW12736   3.458   1.985   7.054
 3950SOL    HW112737   3.464   2.066   7.003
 3950SOL    HW212738   3.444   2.015   7.144
 3951SOL     OW12739   1.950   2.509   6.156
 3951SOL    HW112740   1.927   2.419   6.180
 3951SOL    HW212741   1.950   2.557   6.239
 3952SOL     OW12742   3.704   3.621   5.922
 3952SOL    HW112743   3.769   3.593   5.986
 3952SOL    HW212744   3.728   3.711   5.902
 3953SOL     OW12745   1.893   3.457   5.709
 3953SOL    HW112746   1.876   3.365   5.730
 3953SOL    HW212747   1.870   3.504   5.789
 3954SOL     OW12748   3.556   2.787   6.228
 3954SOL    HW112749   3.636   2.740   6.206
 3954SOL    HW212750   3.532   2.833   6.148
 3955SOL     OW12751   3.507   2.970   6.016
 3955SOL    HW112752   3.593   2.975   5.973
 3955SOL    HW212753   3.514   3.031   6.089
 3956SOL     OW12754   1.984   2.611   7.177
 3956SOL    HW112755   2.055   2.647   7.228
 3956SOL    HW212756   1.922   2.683   7.167
 3957SOL     OW12757   2.479   3.247   6.321
 3957SOL    HW112758   2.435   3.163   6.333
 3957SOL    HW212759   2.458   3.273   6.232
 3958SOL     OW12760   3.149   3.096   7.014
 3958SOL    HW112761   3.183   3.032   6.952
 3958SOL    HW212762   3.210   3.093   7.088
 3959SOL     OW12763   2.676   1.860   6.095
 3959SOL    HW112764   2.717   1.944   6.074
 3959SOL    HW212765   2.583   1.880   6.104
 3960SOL     OW12766   2.034   2.839   6.853
 3960SOL    HW112767   2.119   2.795   6.843
 3960SOL    HW212768   1.972   2.782   6.807
 3961SOL     OW12769   3.399   2.861   5.783
 3961SOL    HW112770   3.332   2.798   5.809
 3961SOL    HW212771   3.436   2.892   5.865
 3962SOL     OW12772   3.047   3.668   7.206
 3962SOL    HW112773   3.058   3.729   7.133
 3962SOL    HW212774   3.064   3.582   7.169
 3963SOL     OW12775   2.193   2.110   7.400
 3963SOL    HW112776   2.230   2.198   7.398
 3963SOL    HW212777   2.103   2.123   7.430
 3964SOL     OW12778   3.328   3.281   6.538
 3964SOL    HW112779   3.261   3.297   6.604
 3964SOL    HW212780   3.315   3.190   6.511
 3965SOL     OW12781   3.520   3.602   6.164
 3965SOL    HW112782   3.501   3.572   6.075
 3965SOL    HW212783   3.496   3.527   6.220
 3966SOL     OW12784   3.145   2.209   6.519
 3966SOL    HW112785   3.054   2.180   6.528
 3966SOL    HW212786   3.193   2.156   6.583
 3967SOL     OW12787   3.443   3.532   5.895
 3967SOL    HW112788   3.533   3.563   5.889
 3967SOL    HW212789   3.417   3.514   5.805
 3968SOL     OW12790   3.257   2.337   7.263
 3968SOL    HW112791   3.256   2.380   7.348
 3968SOL    HW212792   3.316   2.262   7.275
 3969SOL     OW12793   2.857   2.272   6.829
 3969SOL    HW112794   2.777   2.313   6.859
 3969SOL    HW212795   2.836   2.242   6.740
 3970SOL     OW12796   1.948   2.681   6.369
 3970SOL    HW112797   2.031   2.680   6.417
 3970SOL    HW212798   1.905   2.762   6.398
 3971SOL     OW12799   1.989   3.711   7.165
 3971SOL    HW112800   1.989   3.689   7.258
 3971SOL    HW212801   1.898   3.700   7.138
 3972SOL     OW12802   2.742   2.187   5.791
 3972SOL    HW112803   2.771   2.272   5.758
 3972SOL    HW212804   2.782   2.124   5.731
 3973SOL     OW12805   3.571   2.438   7.415
 3973SOL    HW112806   3.533   2.512   7.368
 3973SOL    HW212807   3.597   2.377   7.347
 3974SOL     OW12808   3.236   3.004   6.121
 3974SOL    HW112809   3.318   2.993   6.073
 3974SOL    HW212810   3.187   3.069   6.070
 3975SOL     OW12811   2.407   2.033   6.473
 3975SOL    HW112812   2.410   2.058   6.565
 3975SOL    HW212813   2.427   2.114   6.425
 3976SOL     OW12814   2.866   3.305   6.062
 3976SOL    HW112815   2.830   3.376   6.010
 3976SOL    HW212816   2.849   3.330   6.152
 3977SOL     OW12817   2.217   3.670   6.448
 3977SOL    HW112818   2.260   3.585   6.456
 3977SOL    HW212819   2.286   3.734   6.466
 3978SOL     OW12820   3.662   2.920   6.455
 3978SOL    HW112821   3.609   2.900   6.378
 3978SOL    HW212822   3.599   2.925   6.527
 3979SOL     OW12823   3.092   3.411   7.086
 3979SOL    HW112824   3.085   3.347   7.157
 3979SOL    HW212825   3.026   3.385   7.022
 3980SOL     OW12826   2.172   2.823   5.840
 3980SOL    HW112827   2.251   2.840   5.788
 3980SOL    HW212828   2.153   2.731   5.825
 3981SOL     OW12829   3.359   2.594   6.307
 3981SOL    HW112830   3.333   2.556   6.391
 3981SOL    HW212831   3.429   2.655   6.329
 3982SOL     OW12832   2.318   3.134   7.321
 3982SOL    HW112833   2.291   3.136   7.230
 3982SOL    HW212834   2.236   3.130   7.371
 3983SOL     OW12835   2.983   3.640   5.816
 3983SOL    HW112836   2.911   3.598   5.863
 3983SOL    HW212837   3.006   3.578   5.747
 3984SOL     OW12838   2.053   2.140   7.093
 3984SOL    HW112839   1.970   2.186   7.087
 3984SOL    HW212840   2.034   2.064   7.148
 3985SOL     OW12841   3.490   3.242   5.675
 3985SOL    HW112842   3.449   3.327   5.659
 3985SOL    HW212843   3.423   3.178   5.654
 3986SOL     OW12844   2.328   3.599   5.907
 3986SOL    HW112845   2.369   3.657   5.971
 3986SOL    HW212846   2.401   3.570   5.852
 3987SOL     OW12847   3.263   1.968   6.018
 3987SOL    HW112848   3.254   1.944   5.926
 3987SOL    HW212849   3.358   1.977   6.031
 3988SOL     OW12850   2.117   3.654   6.818
 3988SOL    HW112851   2.169   3.588   6.864
 3988SOL    HW212852   2.108   3.618   6.729
 3989SOL     OW12853   2.798   3.563   6.485
 3989SOL    HW112854   2.872   3.509   6.513
 3989SOL    HW212855   2.755   3.511   6.417
 3990SOL     OW12856   2.183   2.567   6.033
 3990SOL    HW112857   2.218   2.478   6.032
 3990SOL    HW212858   2.095   2.557   6.070
 3991SOL     OW12859   3.397   2.087   7.312
 3991SOL    HW112860   3.406   2.108   7.405
 3991SOL    HW212861   3.327   2.022   7.308
 3992SOL     OW12862   2.491   1.986   5.695
 3992SOL    HW112863   2.566   1.928   5.705
 3992SOL    HW212864   2.446   1.955   5.617
 3993SOL     OW12865   2.618   2.116   7.334
 3993SOL    HW112866   2.701   2.069   7.337
 3993SOL    HW212867   2.605   2.147   7.424
 3994SOL     OW12868   2.740   3.389   6.779
 3994SOL    HW112869   2.723   3.352   6.693
 3994SOL    HW212870   2.803   3.329   6.820
 3995SOL     OW12871   3.247   2.436   7.005
 3995SOL    HW112872   3.259   2.411   7.097
 3995SOL    HW212873   3.259   2.531   7.005
 3996SOL     OW12874   2.679   3.273   6.522
 3996SOL    HW112875   2.762   3.251   6.480
 3996SOL    HW212876   2.614   3.266   6.451
 3997SOL     OW12877   2.801   2.357   6.487
 3997SOL    HW112878   2.793   2.344   6.392
 3997SOL    HW212879   2.831   2.272   6.520
 3998SOL     OW12880   2.411   1.924   6.090
 3998SOL    HW112881   2.330   1.924   6.141
 3998SOL    HW212882   2.405   2.001   6.034
 3999SOL     OW12883   3.290   3.062   5.626
 3999SOL    HW112884   3.323   2.986   5.675
 3999SOL    HW212885   3.205   3.081   5.665
 4000SOL     OW12886   2.152   1.910   5.771
 4000SOL    HW112887   2.206   1.971   5.722
 4000SOL    HW212888   2.215   1.849   5.810
 4001SOL     OW12889   2.799   2.101   6.044
 4001SOL    HW112890   2.770   2.137   5.960
 4001SOL    HW212891   2.893   2.117   6.046
 4002SOL     OW12892   2.983   2.478   7.050
 4002SOL    HW112893   2.919   2.410   7.029
 4002SOL    HW212894   3.067   2.441   7.022
 4003SOL     OW12895   3.088   3.428   6.379
 4003SOL    HW112896   3.102   3.497   6.314
 4003SOL    HW212897   3.154   3.445   6.447
 4004SOL     OW12898   2.329   3.019   6.320
 4004SOL    HW112899   2.260   2.994   6.380
 4004SOL    HW212900   2.297   2.992   6.234
 4005SOL     OW12901   3.131   3.655   6.194
 4005SOL    HW112902   3.177   3.717   6.137
 4005SOL    HW212903   3.065   3.709   6.238
 4006SOL     OW12904   1.932   2.420   6.983
 4006SOL    HW112905   2.023   2.413   6.953
 4006SOL    HW212906   1.932   2.492   7.046
 4007SOL     OW12907   2.415   2.076   6.737
 4007SOL    HW112908   2.469   2.024   6.796
 4007SOL    HW212909   2.330   2.081   6.781
 4008SOL     OW12910   2.778   2.304   6.228
 4008SOL    HW112911   2.690   2.341   6.214
 4008SOL    HW212912   2.781   2.228   6.170
 4009SOL     OW12913   2.878   1.913   6.337
 4009SOL    HW112914   2.819   1.906   6.261
 4009SOL    HW212915   2.855   1.838   6.392
 4010SOL     OW12916   3.296   3.024   6.442
 4010SOL    HW112917   3.236   2.950   6.435
 4010SOL    HW212918   3.328   3.038   6.352
 4011SOL     OW12919   3.329   2.467   6.563
 4011SOL    HW112920   3.277   2.387   6.565
 4011SOL    HW212921   3.388   2.459   6.638
 4012SOL     OW12922   3.706   2.678   5.969
 4012SOL    HW112923   3.763   2.627   6.027
 4012SOL    HW212924   3.679   2.616   5.902
 4013SOL     OW12925   2.354   3.277   5.746
 4013SOL    HW112926   2.280   3.250   5.799
 4013SOL    HW212927   2.333   3.248   5.657
 4014SOL     OW12928   3.530   3.126   6.233
 4014SOL    HW112929   3.625   3.129   6.246
 4014SOL    HW212930   3.501   3.215   6.254
 4015SOL     OW12931   3.255   2.428   5.656
 4015SOL    HW112932   3.192   2.410   5.726
 4015SOL    HW212933   3.339   2.398   5.690
 4016SOL     OW12934   2.390   2.123   5.908
 4016SOL    HW112935   2.424   2.072   5.835
 4016SOL    HW212936   2.404   2.214   5.883
 4017SOL     OW12937   3.614   3.100   7.159
 4017SOL    HW112938   3.702   3.062   7.155
 4017SOL    HW212939   3.629   3.190   7.188
 4018SOL     OW12940   2.924   3.219   6.920
 4018SOL    HW112941   2.845   3.189   6.966
 4018SOL    HW212942   2.995   3.172   6.964
 4019SOL     OW12943   3.470   3.488   7.239
 4019SOL    HW112944   3.464   3.521   7.149
 4019SOL    HW212945   3.553   3.440   7.241
 4020SOL     OW12946   2.998   3.073   6.696
 4020SOL    HW112947   2.939   3.103   6.764
 4020SOL    HW212948   2.951   3.088   6.614
 4021SOL     OW12949   3.490   2.961   6.663
 4021SOL    HW112950   3.487   3.022   6.737
 4021SOL    HW212951   3.410   2.977   6.614
 4022SOL     OW12952   2.779   1.958   6.983
 4022SOL    HW112953   2.801   1.941   6.891
 4022SOL    HW212954   2.857   1.998   7.020
 4023SOL     OW12955   2.895   3.025   7.288
 4023SOL    HW112956   2.808   3.056   7.312
 4023SOL    HW212957   2.884   2.990   7.200
 4024SOL     OW12958   2.253   2.679   6.849
 4024SOL    HW112959   2.342   2.693   6.881
 4024SOL    HW212960   2.232   2.589   6.872
 4025SOL     OW12961   3.131   2.233   6.860
 4025SOL    HW112962   3.173   2.310   6.898
 4025SOL    HW212963   3.042   2.262   6.839
 4026SOL     OW12964   1.932   3.436   6.939
 4026SOL    HW112965   1.903   3.508   6.884
 4026SOL    HW212966   2.028   3.439   6.933
 4027SOL     OW12967   2.221   2.967   6.073
 4027SOL    HW112968   2.211   3.041   6.014
 4027SOL    HW212969   2.207   2.890   6.018
 4028SOL     OW12970   3.108   3.212   5.974
 4028SOL    HW112971   3.164   3.283   6.004
 4028SOL    HW212972   3.021   3.234   6.008
 4029SOL     OW12973   3.143   3.321   6.732
 4029SOL    HW112974   3.197   3.322   6.811
 4029SOL    HW212975   3.085   3.245   6.743
 4030SOL     OW12976   3.442   2.484   6.060
 4030SOL    HW112977   3.404   2.532   6.134
 4030SOL    HW212978   3.488   2.551   6.009
 4031SOL     OW12979   2.208   3.390   6.902
 4031SOL    HW112980   2.196   3.348   6.816
 4031SOL    HW212981   2.303   3.403   6.909
 4032SOL     OW12982   3.462   2.642   7.269
 4032SOL    HW112983   3.375   2.680   7.259
 4032SOL    HW212984   3.514   2.683   7.200
 4033SOL     OW12985   2.861   1.986   7.342
 4033SOL    HW112986   2.915   2.059   7.313
 4033SOL    HW212987   2.909   1.908   7.316
 4034SOL     OW12988   2.359   1.901   7.333
 4034SOL    HW112989   2.316   1.847   7.267
 4034SOL    HW212990   2.300   1.975   7.346
 4035SOL     OW12991   3.230   2.721   6.616
 4035SOL    HW112992   3.159   2.716   6.552
 4035SOL    HW212993   3.269   2.634   6.615
 4036SOL     OW12994   3.078   2.383   5.861
 4036SOL    HW112995   3.077   2.301   5.911
 4036SOL    HW212996   3.054   2.450   5.925
 4037SOL     OW12997   2.156   2.061   6.833
 4037SOL    HW112998   2.120   2.091   6.917
 4037SOL    HW212999   2.141   1.966   6.834
 4038SOL     OW13000   1.906   3.174   6.862
 4038SOL    HW113001   1.940   3.120   6.933
 4038SOL    HW213002   1.914   3.264   6.895
 4039SOL     OW13003   3.598   2.822   7.438
 4039SOL    HW113004   3.550   2.761   7.382
 4039SOL    HW213005   3.540   2.835   7.513
 4040SOL     OW13006   2.165   1.928   6.210
 4040SOL    HW113007   2.144   2.018   6.236
 4040SOL    HW213008   2.173   1.881   6.293
 4041SOL     OW13009   3.477   2.235   5.953
 4041SOL    HW113010   3.505   2.172   6.020
 4041SOL    HW213011   3.454   2.314   6.002
 4042SOL     OW13012   2.839   3.429   7.301
 4042SOL    HW113013   2.824   3.473   7.218
 4042SOL    HW213014   2.898   3.358   7.280
 4043SOL     OW13015   3.717   3.368   7.191
 4043SOL    HW113016   3.735   3.394   7.101
 4043SOL    HW213017   3.798   3.387   7.238
 4044SOL     OW13018   2.223   2.765   7.369
 4044SOL    HW113019   2.278   2.805   7.437
 4044SOL    HW213020   2.276   2.695   7.332
 4045SOL     OW13021   3.391   2.135   5.713
 4045SOL    HW113022   3.326   2.070   5.740
 4045SOL    HW213023   3.424   2.171   5.795
 4046SOL     OW13024   3.185   2.691   5.629
 4046SOL    HW113025   3.215   2.600   5.623
 4046SOL    HW213026   3.199   2.727   5.542
 4047SOL     OW13027   2.925   3.204   6.430
 4047SOL    HW113028   2.954   3.128   6.379
 4047SOL    HW213029   2.988   3.273   6.407
 4048SOL     OW13030   2.171   2.677   6.534
 4048SOL    HW113031   2.264   2.695   6.521
 4048SOL    HW213032   2.169   2.590   6.574
 4049SOL     OW13033   2.173   2.382   6.584
 4049SOL    HW113034   2.141   2.292   6.581
 4049SOL    HW213035   2.244   2.384   6.519
 4050SOL     OW13036   3.000   2.231   7.266
 4050SOL    HW113037   2.952   2.282   7.331
 4050SOL    HW213038   3.084   2.276   7.258
 4051SOL     OW13039   3.023   2.061   7.055
 4051SOL    HW113040   3.014   2.124   7.126
 4051SOL    HW213041   3.061   2.112   6.983
 4052SOL     OW13042   1.867   3.183   5.782
 4052SOL    HW113043   1.780   3.196   5.744
 4052SOL    HW213044   1.865   3.093   5.815
 4053SOL     OW13045   1.952   3.650   6.524
 4053SOL    HW113046   1.922   3.570   6.480
 4053SOL    HW213047   2.042   3.661   6.493
 4054SOL     OW13048   2.359   3.435   6.491
 4054SOL    HW113049   2.428   3.497   6.516
 4054SOL    HW213050   2.404   3.370   6.436
 4055SOL     OW13051   1.896   2.405   6.703
 4055SOL    HW113052   1.976   2.394   6.651
 4055SOL    HW213053   1.926   2.411   6.793
 4056SOL     OW13054   2.056   2.379   7.310
 4056SOL    HW113055   2.107   2.339   7.240
 4056SOL    HW213056   2.008   2.450   7.268
 4057SOL     OW13057   3.232   2.802   7.246
 4057SOL    HW113058   3.259   2.894   7.244
 4057SOL    HW213059   3.233   2.774   7.155
 4058SOL     OW13060   3.504   2.465   6.773
 4058SOL    HW113061   3.490   2.408   6.847
 4058SOL    HW213062   3.591   2.442   6.740
 4059SOL     OW13063   2.105   3.414   7.314
 4059SOL    HW113064   2.082   3.478   7.381
 4059SOL    HW213065   2.106   3.330   7.360
 4060SOL     OW13066   2.787   3.542   7.055
 4060SOL    HW113067   2.765   3.506   6.969
 4060SOL    HW213068   2.784   3.637   7.041
 4061SOL     OW13069   2.005   3.005   7.061
 4061SOL    HW113070   2.009   2.952   7.140
 4061SOL    HW213071   2.018   2.943   6.989
 4062SOL     OW13072   3.190   2.909   6.810
 4062SOL    HW113073   3.213   2.846   6.741
 4062SOL    HW213074   3.124   2.966   6.769
 4063SOL     OW13075   3.185   2.720   5.897
 4063SOL    HW113076   3.098   2.711   5.937
 4063SOL    HW213077   3.170   2.705   5.804
 4064SOL     OW13078   3.633   3.607   6.735
 4064SOL    HW113079   3.694   3.632   6.666
 4064SOL    HW213080   3.609   3.516   6.714
 4065SOL     OW13081   3.103   3.595   6.698
 4065SOL    HW113082   3.185   3.615   6.654
 4065SOL    HW213083   3.108   3.502   6.718
 4066SOL     OW13084   1.945   3.130   6.598
 4066SOL    HW113085   1.931   3.141   6.692
 4066SOL    HW213086   1.874   3.073   6.569
 4067SOL     OW13087   2.538   3.527   7.314
 4067SOL    HW113088   2.488   3.608   7.310
 4067SOL    HW213089   2.606   3.538   7.248
 4068SOL     OW13090   3.581   2.008   6.096
 4068SOL    HW113091   3.654   1.994   6.035
 4068SOL    HW213092   3.566   1.922   6.136
 4069SOL     OW13093   3.251   3.430   6.069
 4069SOL    HW113094   3.313   3.462   6.004
 4069SOL    HW213095   3.204   3.508   6.099
 4070SOL     OW13096   1.998   3.658   7.430
 4070SOL    HW113097   1.947   3.594   7.479
 4070SOL    HW213098   2.046   3.707   7.497
 4071SOL     OW13099   3.167   2.789   6.274
 4071SOL    HW113100   3.237   2.726   6.261
 4071SOL    HW213101   3.187   2.860   6.213
 4072SOL     OW13102   2.678   3.168   7.013
 4072SOL    HW113103   2.635   3.204   7.091
 4072SOL    HW213104   2.605   3.142   6.956
 4073SOL     OW13105   2.533   3.482   5.741
 4073SOL    HW113106   2.543   3.494   5.647
 4073SOL    HW213107   2.479   3.403   5.750
 4074SOL     OW13108   3.489   3.589   6.977
 4074SOL    HW113109   3.539   3.596   6.895
 4074SOL    HW213110   3.475   3.679   7.005
 4075SOL     OW13111   3.703   2.035   6.553
 4075SOL    HW113112   3.731   1.948   6.525
 4075SOL    HW213113   3.616   2.046   6.513
 4076SOL     OW13114   2.122   2.180   6.312
 4076SOL    HW113115   2.035   2.211   6.286
 4076SOL    HW213116   2.113   2.161   6.406
 4077SOL     OW13117   3.068   3.467   5.617
 4077SOL    HW113118   3.060   3.375   5.642
 4077SOL    HW213119   3.002   3.479   5.549
 4078SOL     OW13120   3.354   3.487   5.628
 4078SOL    HW113121   3.260   3.481   5.614
 4078SOL    HW213122   3.391   3.493   5.540
 4079SOL     OW13123   2.229   3.165   7.076
 4079SOL    HW113124   2.217   3.241   7.019
 4079SOL    HW213125   2.151   3.112   7.060
 4080SOL     OW13126   3.473   3.144   6.867
 4080SOL    HW113127   3.532   3.133   6.941
 4080SOL    HW213128   3.413   3.214   6.894
 4081SOL     OW13129   2.889   2.097   6.552
 4081SOL    HW113130   2.884   2.048   6.470
 4081SOL    HW213131   2.880   2.031   6.621
 4082SOL     OW13132   2.463   3.353   6.067
 4082SOL    HW113133   2.507   3.308   5.995
 4082SOL    HW213134   2.392   3.402   6.025
 4083SOL     OW13135   3.585   2.253   6.968
 4083SOL    HW113136   3.656   2.317   6.965
 4083SOL    HW213137   3.615   2.182   6.911
 4084SOL     OW13138   2.122   3.209   5.874
 4084SOL    HW113139   2.029   3.205   5.851
 4084SOL    HW213140   2.123   3.245   5.962
 4085SOL     OW13141   1.975   2.883   7.307
 4085SOL    HW113142   1.899   2.860   7.360
 4085SOL    HW213143   2.049   2.843   7.352
 4086SOL     OW13144   2.534   2.060   7.080
 4086SOL    HW113145   2.618   2.039   7.040
 4086SOL    HW213146   2.555   2.082   7.171
 4087SOL     OW13147   1.941   2.200   5.622
 4087SOL    HW113148   1.856   2.178   5.584
 4087SOL    HW213149   1.973   2.273   5.570
 4088SOL     OW13150   3.292   2.722   6.990
 4088SOL    HW113151   3.243   2.782   6.933
 4088SOL    HW213152   3.381   2.723   6.954
 4089SOL     OW13153   1.930   2.019   5.897
 4089SOL    HW113154   1.916   2.099   5.846
 4089SOL    HW213155   2.015   1.986   5.866
 4090SOL     OW13156   3.039   3.199   5.701
 4090SOL    HW113157   2.944   3.186   5.704
 4090SOL    HW213158   3.066   3.200   5.793
 4091SOL     OW13159   3.346   3.638   6.564
 4091SOL    HW113160   3.370   3.698   6.493
 4091SOL    HW213161   3.429   3.620   6.609
 4092SOL     OW13162   3.334   3.059   7.220
 4092SOL    HW113163   3.321   3.076   7.313
 4092SOL    HW213164   3.427   3.076   7.205
 4093SOL     OW13165   2.241   3.602   7.150
 4093SOL    HW113166   2.156   3.643   7.137
 4093SOL    HW213167   2.221   3.518   7.192
 4094SOL     OW13168   3.531   2.743   6.842
 4094SOL    HW113169   3.525   2.657   6.800
 4094SOL    HW213170   3.522   2.805   6.770
 4095SOL     OW13171   3.077   2.175   6.044
 4095SOL    HW113172   3.141   2.105   6.034
 4095SOL    HW213173   3.107   2.223   6.122
 4096SOL     OW13174   3.624   2.224   7.238
 4096SOL    HW113175   3.608   2.239   7.145
 4096SOL    HW213176   3.552   2.167   7.266
 4097SOL     OW13177   3.607   2.795   7.098
 4097SOL    HW113178   3.604   2.890   7.111
 4097SOL    HW213179   3.591   2.783   7.005
 4098SOL     OW13180   2.746   3.230   5.624
 4098SOL    HW113181   2.691   3.253   5.700
 4098SOL    HW213182   2.750   3.310   5.572
 4099SOL     OW13183   2.521   3.654   6.530
 4099SOL    HW113184   2.503   3.745   6.507
 4099SOL    HW213185   2.617   3.647   6.524
 4100SOL     OW13186   3.716   3.417   6.431
 4100SOL    HW113187   3.638   3.405   6.376
 4100SOL    HW213188   3.708   3.350   6.499
 4101SOL     OW13189   2.083   3.166   7.443
 4101SOL    HW113190   2.014   3.106   7.414
 4101SOL    HW213191   2.066   3.178   7.537
 4102SOL     OW13192   1.945   3.096   6.252
 4102SOL    HW113193   1.951   3.048   6.335
 4102SOL    HW213194   2.014   3.057   6.197
 4103SOL     OW13195   2.537   3.267   7.216
 4103SOL    HW113196   2.454   3.227   7.244
 4103SOL    HW213197   2.535   3.355   7.253
 4104SOL     OW13198   3.676   2.046   6.824
 4104SOL    HW113199   3.684   1.952   6.837
 4104SOL    HW213200   3.685   2.057   6.729
 4105SOL     OW13201   2.242   2.282   6.091
 4105SOL    HW113202   2.285   2.208   6.047
 4105SOL    HW213203   2.210   2.244   6.173
 4106SOL     OW13204   3.562   3.351   6.683
 4106SOL    HW113205   3.481   3.328   6.637
 4106SOL    HW213206   3.574   3.283   6.748
 4107SOL     OW13207   2.175   2.404   6.874
 4107SOL    HW113208   2.224   2.341   6.928
 4107SOL    HW213209   2.190   2.376   6.784
 4108SOL     OW13210   2.691   3.440   6.260
 4108SOL    HW113211   2.674   3.494   6.183
 4108SOL    HW213212   2.614   3.383   6.267
 4109SOL     OW13213   3.296   2.083   6.706
 4109SOL    HW113214   3.321   2.004   6.753
 4109SOL    HW213215   3.243   2.133   6.768
 4110SOL     OW13216   2.870   1.878   6.729
 4110SOL    HW113217   2.817   1.810   6.688
 4110SOL    HW213218   2.958   1.842   6.731
 4111SOL     OW13219   2.637   3.206   5.897
 4111SOL    HW113220   2.602   3.116   5.893
 4111SOL    HW213221   2.718   3.198   5.947
 4112SOL     OW13222   2.480   3.422   6.869
 4112SOL    HW113223   2.484   3.503   6.919
 4112SOL    HW213224   2.569   3.410   6.835
 4113SOL     OW13225   3.214   1.916   5.751
 4113SOL    HW113226   3.242   1.853   5.684
 4113SOL    HW213227   3.127   1.885   5.778
 4114SOL     OW13228   3.176   2.303   6.266
 4114SOL    HW113229   3.136   2.389   6.279
 4114SOL    HW213230   3.168   2.260   6.351
 4115SOL     OW13231   3.449   2.064   6.464
 4115SOL    HW113232   3.387   2.084   6.535
 4115SOL    HW213233   3.448   2.142   6.408
 4116SOL     OW13234   1.907   2.932   5.891
 4116SOL    HW113235   2.000   2.920   5.868
 4116SOL    HW213236   1.877   2.845   5.915
 4117SOL     OW13237   2.748   3.514   5.928
 4117SOL    HW113238   2.675   3.496   5.868
 4117SOL    HW213239   2.718   3.589   5.980
 4118SOL     OW13240   2.090   2.502   7.564
 4118SOL    HW113241   2.004   2.490   7.603
 4118SOL    HW213242   2.084   2.462   7.477
 4119SOL     OW13243   3.628   2.461   7.679
 4119SOL    HW113244   3.609   2.457   7.586
 4119SOL    HW213245   3.588   2.382   7.716
 4120SOL     OW13246   2.082   3.582   7.919
 4120SOL    HW113247   2.112   3.622   8.000
 4120SOL    HW213248   2.160   3.578   7.864
 4121SOL     OW13249   2.079   3.301   7.989
 4121SOL    HW113250   2.060   3.395   7.991
 4121SOL    HW213251   2.027   3.264   8.059
 4122SOL     OW13252   2.412   2.864   7.567
 4122SOL    HW113253   2.457   2.925   7.508
 4122SOL    HW213254   2.482   2.820   7.615
 4123SOL     OW13255   3.699   3.621   7.797
 4123SOL    HW113256   3.770   3.591   7.854
 4123SOL    HW213257   3.725   3.710   7.772
 4124SOL     OW13258   1.892   3.461   7.577
 4124SOL    HW113259   1.876   3.368   7.593
 4124SOL    HW213260   1.865   3.503   7.659
 4125SOL     OW13261   3.544   2.729   8.037
 4125SOL    HW113262   3.626   2.740   0.005
 4125SOL    HW213263   3.532   2.812   7.990
 4126SOL     OW13264   3.517   2.960   7.877
 4126SOL    HW113265   3.604   2.986   7.847
 4126SOL    HW213266   3.488   3.032   7.933
 4127SOL     OW13267   2.665   1.858   7.941
 4127SOL    HW113268   2.713   1.939   7.922
 4127SOL    HW213269   2.573   1.885   7.947
 4128SOL     OW13270   3.398   2.855   7.648
 4128SOL    HW113271   3.333   2.793   7.682
 4128SOL    HW213272   3.440   2.891   7.727
 4129SOL     OW13273   3.436   3.533   7.757
 4129SOL    HW113274   3.527   3.562   7.765
 4129SOL    HW213275   3.424   3.520   7.663
 4130SOL     OW13276   1.920   2.720   0.090
 4130SOL    HW113277   1.991   2.660   0.111
 4130SOL    HW213278   1.918   2.783   0.162
 4131SOL     OW13279   2.737   2.192   7.645
 4131SOL    HW113280   2.763   2.272   7.599
 4131SOL    HW213281   2.793   2.124   7.606
 4132SOL     OW13282   2.172   2.817   7.691
 4132SOL    HW113283   2.256   2.836   7.650
 4132SOL    HW213284   2.151   2.728   7.663
 4133SOL     OW13285   2.985   3.639   7.684
 4133SOL    HW113286   2.908   3.597   7.724
 4133SOL    HW213287   3.009   3.580   7.612
 4134SOL     OW13288   3.490   3.242   7.534
 4134SOL    HW113289   3.448   3.327   7.520
 4134SOL    HW213290   3.419   3.179   7.518
 4135SOL     OW13291   2.328   3.600   7.770
 4135SOL    HW113292   2.377   3.653   7.833
 4135SOL    HW213293   2.396   3.564   7.712
 4136SOL     OW13294   3.278   1.993   7.864
 4136SOL    HW113295   3.265   1.959   7.776
 4136SOL    HW213296   3.372   1.991   7.877
 4137SOL     OW13297   2.479   1.977   7.567
 4137SOL    HW113298   2.567   1.939   7.570
 4137SOL    HW213299   2.445   1.953   7.481
 4138SOL     OW13300   2.393   1.933   7.962
 4138SOL    HW113301   2.305   1.933   8.000
 4138SOL    HW213302   2.391   2.002   7.896
 4139SOL     OW13303   3.290   3.058   7.492
 4139SOL    HW113304   3.326   2.985   7.542
 4139SOL    HW213305   3.200   3.067   7.525
 4140SOL     OW13306   2.155   1.911   7.633
 4140SOL    HW113307   2.214   1.968   7.583
 4140SOL    HW213308   2.213   1.845   7.671
 4141SOL     OW13309   2.802   2.092   7.910
 4141SOL    HW113310   2.764   2.145   7.839
 4141SOL    HW213311   2.893   2.121   7.916
 4142SOL     OW13312   2.297   3.041   0.087
 4142SOL    HW113313   2.221   3.025   0.143
 4142SOL    HW213314   2.269   3.011   0.000
 4143SOL     OW13315   3.152   3.673   8.015
 4143SOL    HW113316   3.188   3.742   7.958
 4143SOL    HW213317   3.068   3.708   8.045
 4144SOL     OW13318   2.901   2.377   7.478
 4144SOL    HW113319   2.853   2.457   7.455
 4144SOL    HW213320   2.957   2.402   7.551
 4145SOL     OW13321   3.734   2.679   7.802
 4145SOL    HW113322   3.729   2.649   7.893
 4145SOL    HW213323   3.693   2.608   7.752
 4146SOL     OW13324   2.353   3.274   7.608
 4146SOL    HW113325   2.277   3.248   7.659
 4146SOL    HW213326   2.337   3.239   7.520
 4147SOL     OW13327   3.256   2.434   7.521
 4147SOL    HW113328   3.196   2.412   7.592
 4147SOL    HW213329   3.341   2.400   7.549
 4148SOL     OW13330   2.387   2.122   7.774
 4148SOL    HW113331   2.419   2.067   7.703
 4148SOL    HW213332   2.405   2.212   7.745
 4149SOL     OW13333   2.233   2.961   7.920
 4149SOL    HW113334   2.205   3.039   7.872
 4149SOL    HW213335   2.214   2.888   7.861
 4150SOL     OW13336   3.088   3.215   7.824
 4150SOL    HW113337   3.149   3.285   7.850
 4150SOL    HW213338   3.049   3.186   7.907
 4151SOL     OW13339   3.450   2.490   7.922
 4151SOL    HW113340   3.437   2.551   7.994
 4151SOL    HW213341   3.487   2.544   7.851
 4152SOL     OW13342   3.065   2.391   7.717
 4152SOL    HW113343   3.064   2.307   7.764
 4152SOL    HW213344   3.055   2.457   7.785
 4153SOL     OW13345   3.480   2.241   7.815
 4153SOL    HW113346   3.502   2.174   7.880
 4153SOL    HW213347   3.456   2.317   7.866
 4154SOL     OW13348   3.392   2.137   7.575
 4154SOL    HW113349   3.326   2.072   7.601
 4154SOL    HW213350   3.424   2.172   7.658
 4155SOL     OW13351   3.155   2.689   7.482
 4155SOL    HW113352   3.192   2.601   7.485
 4155SOL    HW213353   3.183   2.724   7.398
 4156SOL     OW13354   1.867   3.186   7.640
 4156SOL    HW113355   1.780   3.198   7.603
 4156SOL    HW213356   1.867   3.096   7.674
 4157SOL     OW13357   3.189   2.700   7.754
 4157SOL    HW113358   3.105   2.722   7.796
 4157SOL    HW213359   3.167   2.693   7.661
 4158SOL     OW13360   3.574   2.009   7.948
 4158SOL    HW113361   3.651   2.001   7.892
 4158SOL    HW213362   3.576   1.929   8.002
 4159SOL     OW13363   3.226   3.438   7.897
 4159SOL    HW113364   3.301   3.459   7.841
 4159SOL    HW213365   3.194   3.524   7.926
 4160SOL     OW13366   2.528   3.482   7.604
 4160SOL    HW113367   2.541   3.493   7.509
 4160SOL    HW213368   2.477   3.401   7.612
 4161SOL     OW13369   3.072   3.479   7.478
 4161SOL    HW113370   3.060   3.389   7.510
 4161SOL    HW213371   3.007   3.489   7.409
 4162SOL     OW13372   3.356   3.488   7.489
 4162SOL    HW113373   3.261   3.482   7.477
 4162SOL    HW213374   3.391   3.494   7.400
 4163SOL     OW13375   2.470   3.375   7.936
 4163SOL    HW113376   2.512   3.315   7.875
 4163SOL    HW213377   2.392   3.405   7.890
 4164SOL     OW13378   2.120   3.209   7.740
 4164SOL    HW113379   2.027   3.206   7.715
 4164SOL    HW213380   2.119   3.245   7.829
 4165SOL     OW13381   1.941   2.196   7.483
 4165SOL    HW113382   1.853   2.176   7.451
 4165SOL    HW213383   1.969   2.271   7.431
 4166SOL     OW13384   1.931   2.017   7.758
 4166SOL    HW113385   1.916   2.096   7.706
 4166SOL    HW213386   2.015   1.983   7.726
 4167SOL     OW13387   3.039   3.222   7.560
 4167SOL    HW113388   2.960   3.169   7.558
 4167SOL    HW213389   3.067   3.219   7.651
 4168SOL     OW13390   3.076   2.180   7.901
 4168SOL    HW113391   3.150   2.121   7.892
 4168SOL    HW213392   3.094   2.229   7.982
 4169SOL     OW13393   2.725   3.231   7.476
 4169SOL    HW113394   2.695   3.256   7.562
 4169SOL    HW213395   2.747   3.313   7.432
 4170SOL     OW13396   3.024   2.933   7.531
 4170SOL    HW113397   2.988   2.960   7.447
 4170SOL    HW213398   3.073   2.853   7.512
 4171SOL     OW13399   2.218   2.249   7.982
 4171SOL    HW113400   2.275   2.214   7.914
 4171SOL    HW213401   2.263   2.232   8.064
 4172SOL     OW13402   2.637   3.203   7.756
 4172SOL    HW113403   2.591   3.119   7.765
 4172SOL    HW213404   2.711   3.196   7.817
 4173SOL     OW13405   3.214   1.915   7.610
 4173SOL    HW113406   3.243   1.849   7.546
 4173SOL    HW213407   3.128   1.885   7.638
 4174SOL     OW13408   1.914   2.940   7.749
 4174SOL    HW113409   2.007   2.926   7.731
 4174SOL    HW213410   1.879   2.853   7.767
 4175SOL     OW13411   2.755   3.514   7.781
 4175SOL    HW113412   2.678   3.489   7.729
 4175SOL    HW213413   2.720   3.576   7.845
 4176SOL     OW13414   2.082   4.347   0.122
 4176SOL    HW113415   2.001   4.313   0.161
 4176SOL    HW213416   2.103   4.285   0.052
 4177SOL     OW13417   2.087   4.005   0.992
 4177SOL    HW113418   2.115   3.971   1.076
 4177SOL    HW213419   1.997   3.973   0.982
 4178SOL     OW13420   1.866   4.107   0.638
 4178SOL    HW113421   1.784   4.133   0.679
 4178SOL    HW213422   1.845   4.027   0.590
 4179SOL     OW13423   2.428   5.005   1.179
 4179SOL    HW113424   2.343   5.003   1.135
 4179SOL    HW213425   2.440   5.097   1.205
 4180SOL     OW13426   3.418   5.233   0.688
 4180SOL    HW113427   3.394   5.230   0.780
 4180SOL    HW213428   3.340   5.269   0.644
 4181SOL     OW13429   2.992   4.422   0.702
 4181SOL    HW113430   3.041   4.503   0.687
 4181SOL    HW213431   2.945   4.437   0.784
 4182SOL     OW13432   3.632   4.324   0.233
 4182SOL    HW113433   3.593   4.326   0.145
 4182SOL    HW213434   3.592   4.249   0.275
 4183SOL     OW13435   2.618   4.868   1.038
 4183SOL    HW113436   2.551   4.900   1.098
 4183SOL    HW213437   2.648   4.947   0.992
 4184SOL     OW13438   2.728   4.499   1.822
 4184SOL    HW113439   2.715   4.570   1.884
 4184SOL    HW213440   2.752   4.543   1.740
 4185SOL     OW13441   2.546   4.725   0.651
 4185SOL    HW113442   2.612   4.715   0.720
 4185SOL    HW213443   2.478   4.780   0.691
 4186SOL     OW13444   2.571   4.872   1.811
 4186SOL    HW113445   2.618   4.952   1.835
 4186SOL    HW213446   2.487   4.904   1.777
 4187SOL     OW13447   2.199   5.151   1.060
 4187SOL    HW113448   2.122   5.107   1.024
 4187SOL    HW213449   2.239   5.195   0.985
 4188SOL     OW13450   3.317   5.220   1.347
 4188SOL    HW113451   3.371   5.293   1.379
 4188SOL    HW213452   3.250   5.209   1.415
 4189SOL     OW13453   2.311   4.122   1.487
 4189SOL    HW113454   2.386   4.063   1.493
 4189SOL    HW213455   2.235   4.066   1.500
 4190SOL     OW13456   3.474   4.172   0.740
 4190SOL    HW113457   3.399   4.195   0.686
 4190SOL    HW213458   3.489   4.249   0.795
 4191SOL     OW13459   2.995   5.072   1.701
 4191SOL    HW113460   3.026   5.073   1.791
 4191SOL    HW213461   2.942   4.993   1.694
 4192SOL     OW13462   2.069   5.155   0.515
 4192SOL    HW113463   2.097   5.237   0.556
 4192SOL    HW213464   2.018   5.112   0.583
 4193SOL     OW13465   2.119   4.811   0.892
 4193SOL    HW113466   2.117   4.724   0.931
 4193SOL    HW213467   2.062   4.864   0.947
 4194SOL     OW13468   2.491   4.685   0.132
 4194SOL    HW113469   2.440   4.762   0.107
 4194SOL    HW213470   2.540   4.713   0.209
 4195SOL     OW13471   3.458   3.847   1.468
 4195SOL    HW113472   3.465   3.928   1.417
 4195SOL    HW213473   3.444   3.877   1.558
 4196SOL     OW13474   1.977   4.374   0.562
 4196SOL    HW113475   1.946   4.286   0.583
 4196SOL    HW213476   1.968   4.423   0.644
 4197SOL     OW13477   1.839   0.019   0.095
 4197SOL    HW113478   1.856   5.229   0.123
 4197SOL    HW213479   1.869   0.073   0.169
 4198SOL     OW13480   3.549   4.641   0.643
 4198SOL    HW113481   3.632   4.600   0.621
 4198SOL    HW213482   3.527   4.694   0.565
 4199SOL     OW13483   3.508   4.829   0.434
 4199SOL    HW113484   3.590   4.842   0.385
 4199SOL    HW213485   3.514   4.891   0.507
 4200SOL     OW13486   1.985   4.466   1.586
 4200SOL    HW113487   2.077   4.492   1.594
 4200SOL    HW213488   1.937   4.549   1.594
 4201SOL     OW13489   2.484   5.098   0.737
 4201SOL    HW113490   2.429   5.019   0.735
 4201SOL    HW213491   2.466   5.142   0.654
 4202SOL     OW13492   3.151   4.954   1.426
 4202SOL    HW113493   3.185   4.889   1.365
 4202SOL    HW213494   3.211   4.952   1.500
 4203SOL     OW13495   2.677   3.726   0.509
 4203SOL    HW113496   2.717   3.811   0.488
 4203SOL    HW213497   2.584   3.744   0.518
 4204SOL     OW13498   2.053   4.690   1.270
 4204SOL    HW113499   2.137   4.647   1.255
 4204SOL    HW213500   1.989   4.635   1.224
 4205SOL     OW13501   3.372   4.734   0.210
 4205SOL    HW113502   3.311   4.667   0.242
 4205SOL    HW213503   3.424   4.757   0.286
 4206SOL     OW13504   2.195   3.974   1.811
 4206SOL    HW113505   2.240   4.057   1.828
 4206SOL    HW213506   2.106   3.988   1.842
 4207SOL     OW13507   3.339   5.146   0.963
 4207SOL    HW113508   3.265   5.159   1.023
 4207SOL    HW213509   3.326   5.058   0.928
 4208SOL     OW13510   2.460   4.438   0.282
 4208SOL    HW113511   2.479   4.515   0.229
 4208SOL    HW213512   2.396   4.468   0.346
 4209SOL     OW13513   3.141   4.076   0.932
 4209SOL    HW113514   3.052   4.043   0.941
 4209SOL    HW213515   3.192   4.023   0.994
 4210SOL     OW13516   2.654   4.341   1.451
 4210SOL    HW113517   2.628   4.318   1.540
 4210SOL    HW213518   2.614   4.275   1.396
 4211SOL     OW13519   3.255   4.198   1.678
 4211SOL    HW113520   3.258   4.242   1.762
 4211SOL    HW213521   3.317   4.125   1.687
 4212SOL     OW13522   2.817   4.612   1.582
 4212SOL    HW113523   2.871   4.542   1.547
 4212SOL    HW213524   2.769   4.646   1.507
 4213SOL     OW13525   2.854   4.137   1.239
 4213SOL    HW113526   2.769   4.158   1.276
 4213SOL    HW213527   2.834   4.090   1.158
 4214SOL     OW13528   2.914   4.422   0.427
 4214SOL    HW113529   2.929   4.416   0.522
 4214SOL    HW213530   2.832   4.376   0.413
 4215SOL     OW13531   1.951   4.545   0.775
 4215SOL    HW113532   2.031   4.538   0.827
 4215SOL    HW213533   1.906   4.622   0.811
 4216SOL     OW13534   2.746   4.081   0.201
 4216SOL    HW113535   2.791   4.131   0.133
 4216SOL    HW213536   2.747   3.991   0.170
 4217SOL     OW13537   3.570   4.299   1.828
 4217SOL    HW113538   3.533   4.373   1.780
 4217SOL    HW213539   3.598   4.238   1.760
 4218SOL     OW13540   3.238   4.863   0.540
 4218SOL    HW113541   3.318   4.850   0.489
 4218SOL    HW213542   3.187   4.926   0.488
 4219SOL     OW13543   2.412   3.906   0.893
 4219SOL    HW113544   2.414   3.934   0.984
 4219SOL    HW213545   2.414   3.988   0.843
 4220SOL     OW13546   2.879   5.165   0.469
 4220SOL    HW113547   2.804   5.224   0.466
 4220SOL    HW213548   2.900   5.157   0.562
 4221SOL     OW13549   3.662   4.781   0.867
 4221SOL    HW113550   3.604   4.764   0.792
 4221SOL    HW213551   3.603   4.788   0.942
 4222SOL     OW13552   3.112   5.239   1.524
 4222SOL    HW113553   3.076   5.173   1.582
 4222SOL    HW213554   3.041   5.260   1.463
 4223SOL     OW13555   2.189   4.665   0.254
 4223SOL    HW113556   2.259   4.707   0.203
 4223SOL    HW213557   2.189   4.574   0.225
 4224SOL     OW13558   3.340   4.465   0.727
 4224SOL    HW113559   3.332   4.423   0.812
 4224SOL    HW213560   3.417   4.521   0.735
 4225SOL     OW13561   2.326   4.988   1.740
 4225SOL    HW113562   2.300   4.990   1.649
 4225SOL    HW213563   2.244   4.986   1.789
 4226SOL     OW13564   3.019   0.159   0.237
 4226SOL    HW113565   2.935   0.177   0.280
 4226SOL    HW213566   2.997   0.140   0.146
 4227SOL     OW13567   2.063   4.005   1.501
 4227SOL    HW113568   1.981   4.054   1.496
 4227SOL    HW213569   2.045   3.935   1.564
 4228SOL     OW13570   3.492   5.094   0.077
 4228SOL    HW113571   3.454   5.180   0.092
 4228SOL    HW213572   3.417   5.037   0.062
 4229SOL     OW13573   3.269   3.835   0.444
 4229SOL    HW113574   3.260   3.814   0.351
 4229SOL    HW213575   3.364   3.843   0.457
 4230SOL     OW13576   2.248   4.421   0.477
 4230SOL    HW113577   2.273   4.329   0.488
 4230SOL    HW213578   2.155   4.424   0.500
 4231SOL     OW13579   3.398   3.949   1.725
 4231SOL    HW113580   3.407   3.970   1.818
 4231SOL    HW213581   3.328   3.883   1.722
 4232SOL     OW13582   2.491   3.834   0.136
 4232SOL    HW113583   2.586   3.823   0.142
 4232SOL    HW213584   2.471   3.815   0.044
 4233SOL     OW13585   2.628   4.001   1.754
 4233SOL    HW113586   2.704   3.943   1.756
 4233SOL    HW213587   2.580   3.981   1.834
 4234SOL     OW13588   3.202   4.313   1.432
 4234SOL    HW113589   3.233   4.281   1.517
 4234SOL    HW213590   3.239   4.401   1.424
 4235SOL     OW13591   2.674   5.120   0.936
 4235SOL    HW113592   2.755   5.106   0.886
 4235SOL    HW213593   2.606   5.126   0.869
 4236SOL     OW13594   2.789   4.233   0.903
 4236SOL    HW113595   2.766   4.225   0.810
 4236SOL    HW213596   2.821   4.146   0.927
 4237SOL     OW13597   2.411   3.787   0.505
 4237SOL    HW113598   2.331   3.787   0.557
 4237SOL    HW213599   2.405   3.866   0.451
 4238SOL     OW13600   3.288   4.925   0.035
 4238SOL    HW113601   3.317   4.851   0.089
 4238SOL    HW213602   3.201   4.947   0.070
 4239SOL     OW13603   2.173   3.779   0.168
 4239SOL    HW113604   2.237   3.848   0.185
 4239SOL    HW213605   2.209   3.701   0.211
 4240SOL     OW13606   2.801   3.971   0.459
 4240SOL    HW113607   2.774   4.012   0.378
 4240SOL    HW213608   2.896   3.986   0.464
 4241SOL     OW13609   2.942   4.405   1.460
 4241SOL    HW113610   2.873   4.338   1.465
 4241SOL    HW213611   3.023   4.355   1.453
 4242SOL     OW13612   3.124   5.266   0.781
 4242SOL    HW113613   3.087   0.047   0.747
 4242SOL    HW213614   3.169   5.291   0.862
 4243SOL     OW13615   2.327   4.873   0.731
 4243SOL    HW113616   2.259   4.852   0.795
 4243SOL    HW213617   2.286   4.855   0.646
 4244SOL     OW13618   2.893   4.253   0.031
 4244SOL    HW113619   2.851   4.333   0.001
 4244SOL    HW213620   2.956   4.282   0.097
 4245SOL     OW13621   1.941   4.279   1.392
 4245SOL    HW113622   2.033   4.277   1.365
 4245SOL    HW213623   1.936   4.349   1.457
 4246SOL     OW13624   2.421   3.951   1.165
 4246SOL    HW113625   2.463   3.874   1.204
 4246SOL    HW213626   2.331   3.948   1.196
 4247SOL     OW13627   2.728   4.182   0.639
 4247SOL    HW113628   2.687   4.238   0.574
 4247SOL    HW213629   2.751   4.102   0.592
 4248SOL     OW13630   2.879   3.777   0.750
 4248SOL    HW113631   2.818   3.771   0.676
 4248SOL    HW213632   2.856   3.702   0.806
 4249SOL     OW13633   3.299   4.889   0.859
 4249SOL    HW113634   3.232   4.821   0.855
 4249SOL    HW213635   3.324   4.904   0.767
 4250SOL     OW13636   3.328   4.329   0.977
 4250SOL    HW113637   3.278   4.248   0.981
 4250SOL    HW213638   3.388   4.323   1.052
 4251SOL     OW13639   3.710   4.539   0.388
 4251SOL    HW113640   3.763   4.486   0.448
 4251SOL    HW213641   3.679   4.477   0.322
 4252SOL     OW13642   2.328   5.161   0.155
 4252SOL    HW113643   2.281   5.104   0.217
 4252SOL    HW213644   2.366   5.100   0.092
 4253SOL     OW13645   3.532   4.988   0.648
 4253SOL    HW113646   3.625   4.995   0.666
 4253SOL    HW213647   3.497   5.075   0.664
 4254SOL     OW13648   3.260   4.303   0.087
 4254SOL    HW113649   3.198   4.284   0.157
 4254SOL    HW213650   3.316   4.226   0.082
 4255SOL     OW13651   2.379   3.987   0.324
 4255SOL    HW113652   2.429   3.935   0.261
 4255SOL    HW213653   2.367   4.072   0.280
 4256SOL     OW13654   3.613   4.960   1.576
 4256SOL    HW113655   3.699   4.918   1.575
 4256SOL    HW213656   3.632   5.053   1.589
 4257SOL     OW13657   2.926   5.074   1.331
 4257SOL    HW113658   2.848   5.048   1.379
 4257SOL    HW213659   2.999   5.035   1.379
 4258SOL     OW13660   2.988   4.925   1.107
 4258SOL    HW113661   2.938   4.967   1.177
 4258SOL    HW213662   2.944   4.953   1.027
 4259SOL     OW13663   3.491   4.822   1.077
 4259SOL    HW113664   3.486   4.884   1.150
 4259SOL    HW213665   3.413   4.841   1.025
 4260SOL     OW13666   2.780   3.821   1.396
 4260SOL    HW113667   2.803   3.802   1.305
 4260SOL    HW213668   2.859   3.861   1.433
 4261SOL     OW13669   2.846   4.839   1.725
 4261SOL    HW113670   2.754   4.854   1.744
 4261SOL    HW213671   2.846   4.762   1.667
 4262SOL     OW13672   2.572   4.783   0.381
 4262SOL    HW113673   2.556   4.766   0.474
 4262SOL    HW213674   2.651   4.734   0.361
 4263SOL     OW13675   2.280   4.539   1.251
 4263SOL    HW113676   2.349   4.548   1.318
 4263SOL    HW213677   2.245   4.451   1.266
 4264SOL     OW13678   3.128   4.101   1.275
 4264SOL    HW113679   3.160   4.178   1.321
 4264SOL    HW213680   3.037   4.123   1.252
 4265SOL     OW13681   2.205   4.832   0.490
 4265SOL    HW113682   2.208   4.904   0.428
 4265SOL    HW213683   2.215   4.753   0.437
 4266SOL     OW13684   2.415   4.260   0.860
 4266SOL    HW113685   2.430   4.319   0.786
 4266SOL    HW213686   2.479   4.287   0.925
 4267SOL     OW13687   3.119   5.072   0.386
 4267SOL    HW113688   3.173   5.147   0.411
 4267SOL    HW213689   3.030   5.097   0.413
 4268SOL     OW13690   3.131   5.182   1.142
 4268SOL    HW113691   3.191   5.195   1.215
 4268SOL    HW213692   3.087   5.099   1.162
 4269SOL     OW13693   3.445   4.348   0.481
 4269SOL    HW113694   3.395   4.398   0.546
 4269SOL    HW213695   3.481   4.413   0.422
 4270SOL     OW13696   2.210   5.236   1.315
 4270SOL    HW113697   2.199   5.201   1.226
 4270SOL    HW213698   2.303   5.257   1.320
 4271SOL     OW13699   2.276   4.469   1.602
 4271SOL    HW113700   2.338   4.513   1.544
 4271SOL    HW213701   2.316   4.383   1.618
 4272SOL     OW13702   3.463   4.503   1.682
 4272SOL    HW113703   3.377   4.544   1.675
 4272SOL    HW213704   3.515   4.544   1.613
 4273SOL     OW13705   2.858   3.847   1.755
 4273SOL    HW113706   2.913   3.919   1.727
 4273SOL    HW213707   2.906   3.768   1.730
 4274SOL     OW13708   2.360   3.765   1.748
 4274SOL    HW113709   2.317   3.710   1.681
 4274SOL    HW213710   2.301   3.839   1.760
 4275SOL     OW13711   2.445   4.596   1.031
 4275SOL    HW113712   2.475   4.687   1.030
 4275SOL    HW213713   2.389   4.591   1.108
 4276SOL     OW13714   3.220   4.582   1.029
 4276SOL    HW113715   3.137   4.573   0.982
 4276SOL    HW213716   3.260   4.495   1.024
 4277SOL     OW13717   3.066   4.252   0.271
 4277SOL    HW113718   3.073   4.173   0.325
 4277SOL    HW213719   3.023   4.316   0.328
 4278SOL     OW13720   2.161   3.923   1.246
 4278SOL    HW113721   2.124   3.955   1.328
 4278SOL    HW213722   2.142   3.829   1.247
 4279SOL     OW13723   1.915   5.046   1.284
 4279SOL    HW113724   1.939   4.982   1.351
 4279SOL    HW213725   1.949   5.129   1.317
 4280SOL     OW13726   2.586   4.355   1.057
 4280SOL    HW113727   2.661   4.339   1.000
 4280SOL    HW213728   2.558   4.444   1.036
 4281SOL     OW13729   3.596   4.683   1.852
 4281SOL    HW113730   3.550   4.622   1.795
 4281SOL    HW213731   3.537   4.697   1.926
 4282SOL     OW13732   2.164   3.789   0.623
 4282SOL    HW113733   2.146   3.880   0.647
 4282SOL    HW213734   2.172   3.743   0.707
 4283SOL     OW13735   3.482   4.099   0.370
 4283SOL    HW113736   3.507   4.034   0.436
 4283SOL    HW213737   3.457   4.176   0.420
 4284SOL     OW13738   2.889   4.483   0.961
 4284SOL    HW113739   2.886   4.501   1.055
 4284SOL    HW213740   2.863   4.391   0.953
 4285SOL     OW13741   3.716   5.214   1.585
 4285SOL    HW113742   3.711   5.289   1.526
 4285SOL    HW213743   3.785   5.236   1.647
 4286SOL     OW13744   2.215   4.640   1.808
 4286SOL    HW113745   2.297   4.659   1.854
 4286SOL    HW213746   2.239   4.578   1.740
 4287SOL     OW13747   3.381   4.024   0.126
 4287SOL    HW113748   3.331   3.944   0.143
 4287SOL    HW213749   3.420   4.045   0.211
 4288SOL     OW13750   3.157   4.548   0.020
 4288SOL    HW113751   3.195   4.462   0.039
 4288SOL    HW213752   3.216   4.588   8.036
 4289SOL     OW13753   2.920   5.078   0.828
 4289SOL    HW113754   2.925   4.994   0.783
 4289SOL    HW213755   3.006   5.118   0.814
 4290SOL     OW13756   2.171   4.533   0.947
 4290SOL    HW113757   2.264   4.554   0.941
 4290SOL    HW213758   2.169   4.443   0.980
 4291SOL     OW13759   2.193   4.250   1.012
 4291SOL    HW113760   2.158   4.162   0.997
 4291SOL    HW213761   2.270   4.255   0.955
 4292SOL     OW13762   2.996   4.100   1.682
 4292SOL    HW113763   2.949   4.155   1.744
 4292SOL    HW213764   3.084   4.138   1.678
 4293SOL     OW13765   3.023   3.927   1.470
 4293SOL    HW113766   3.012   3.990   1.542
 4293SOL    HW213767   3.062   3.977   1.399
 4294SOL     OW13768   1.873   5.045   0.179
 4294SOL    HW113769   1.785   5.057   0.144
 4294SOL    HW213770   1.871   4.958   0.219
 4295SOL     OW13771   2.845   4.516   1.227
 4295SOL    HW113772   2.901   4.493   1.301
 4295SOL    HW213773   2.760   4.479   1.250
 4296SOL     OW13774   1.898   4.269   1.116
 4296SOL    HW113775   1.979   4.255   1.067
 4296SOL    HW213776   1.926   4.272   1.208
 4297SOL     OW13777   2.053   4.243   1.727
 4297SOL    HW113778   2.110   4.205   1.660
 4297SOL    HW213779   2.011   4.317   1.683
 4298SOL     OW13780   3.239   4.663   1.658
 4298SOL    HW113781   3.259   4.756   1.656
 4298SOL    HW213782   3.235   4.637   1.566
 4299SOL     OW13783   2.681   4.293   0.367
 4299SOL    HW113784   2.690   4.222   0.304
 4299SOL    HW213785   2.605   4.343   0.337
 4300SOL     OW13786   3.504   4.325   1.186
 4300SOL    HW113787   3.494   4.266   1.261
 4300SOL    HW213788   3.591   4.305   1.152
 4301SOL     OW13789   2.068   5.277   1.745
 4301SOL    HW113790   2.054   0.029   1.824
 4301SOL    HW213791   2.080   5.188   1.777
 4302SOL     OW13792   2.563   4.175   1.260
 4302SOL    HW113793   2.510   4.101   1.229
 4302SOL    HW213794   2.559   4.238   1.187
 4303SOL     OW13795   2.330   4.215   0.179
 4303SOL    HW113796   2.397   4.281   0.198
 4303SOL    HW213797   2.247   4.260   0.190
 4304SOL     OW13798   2.007   4.863   1.471
 4304SOL    HW113799   2.009   4.812   1.551
 4304SOL    HW213800   2.025   4.799   1.401
 4305SOL     OW13801   3.189   4.769   1.223
 4305SOL    HW113802   3.212   4.707   1.154
 4305SOL    HW213803   3.118   4.821   1.185
 4306SOL     OW13804   3.169   4.573   0.307
 4306SOL    HW113805   3.092   4.545   0.357
 4306SOL    HW213806   3.143   4.562   0.216
 4307SOL     OW13807   1.955   4.987   1.021
 4307SOL    HW113808   1.934   5.004   1.113
 4307SOL    HW213809   1.875   4.948   0.985
 4308SOL     OW13810   2.614   0.039   1.709
 4308SOL    HW113811   2.521   0.060   1.720
 4308SOL    HW213812   2.633   0.062   1.618
 4309SOL     OW13813   2.767   3.815   0.133
 4309SOL    HW113814   2.785   3.799   0.041
 4309SOL    HW213815   2.832   3.763   0.180
 4310SOL     OW13816   3.580   3.869   0.510
 4310SOL    HW113817   3.653   3.853   0.449
 4310SOL    HW213818   3.565   3.784   0.552
 4311SOL     OW13819   3.139   4.649   0.671
 4311SOL    HW113820   3.213   4.588   0.678
 4311SOL    HW213821   3.173   4.721   0.619
 4312SOL     OW13822   2.681   4.993   1.422
 4312SOL    HW113823   2.651   5.029   1.505
 4312SOL    HW213824   2.606   5.004   1.363
 4313SOL     OW13825   3.702   3.897   0.967
 4313SOL    HW113826   3.731   3.810   0.940
 4313SOL    HW213827   3.616   3.907   0.927
 4314SOL     OW13828   2.124   4.040   0.717
 4314SOL    HW113829   2.038   4.076   0.694
 4314SOL    HW213830   2.121   4.032   0.813
 4315SOL     OW13831   3.003   0.019   0.004
 4315SOL    HW113832   3.017   5.230   0.033
 4315SOL    HW213833   3.006   0.014   7.988
 4316SOL     OW13834   2.687   4.728   1.370
 4316SOL    HW113835   2.733   4.722   1.287
 4316SOL    HW213836   2.690   4.821   1.393
 4317SOL     OW13837   2.781   4.639   0.299
 4317SOL    HW113838   2.836   4.665   0.225
 4317SOL    HW213839   2.828   4.566   0.339
 4318SOL     OW13840   2.227   5.026   1.496
 4318SOL    HW113841   2.216   5.100   1.437
 4318SOL    HW213842   2.152   4.970   1.479
 4319SOL     OW13843   3.474   5.004   1.282
 4319SOL    HW113844   3.531   4.998   1.359
 4319SOL    HW213845   3.412   5.073   1.304
 4320SOL     OW13846   2.916   4.833   0.712
 4320SOL    HW113847   2.844   4.781   0.748
 4320SOL    HW213848   2.977   4.768   0.677
 4321SOL     OW13849   2.883   3.964   0.966
 4321SOL    HW113850   2.879   3.916   0.883
 4321SOL    HW213851   2.878   3.896   1.033
 4322SOL     OW13852   3.583   4.116   1.380
 4322SOL    HW113853   3.655   4.179   1.379
 4322SOL    HW213854   3.613   4.045   1.324
 4323SOL     OW13855   2.126   5.028   0.288
 4323SOL    HW113856   2.045   5.044   0.241
 4323SOL    HW213857   2.117   5.079   0.369
 4324SOL     OW13858   1.974   4.746   1.718
 4324SOL    HW113859   1.898   4.722   1.772
 4324SOL    HW213860   2.049   4.708   1.765
 4325SOL     OW13861   2.536   3.920   1.499
 4325SOL    HW113862   2.620   3.900   1.458
 4325SOL    HW213863   2.559   3.951   1.587
 4326SOL     OW13864   1.920   4.087   0.039
 4326SOL    HW113865   1.844   4.032   0.015
 4326SOL    HW213866   1.967   4.099   8.037
 4327SOL     OW13867   3.292   4.582   1.400
 4327SOL    HW113868   3.243   4.643   1.344
 4327SOL    HW213869   3.381   4.584   1.367
 4328SOL     OW13870   1.933   3.878   0.305
 4328SOL    HW113871   1.917   3.963   0.263
 4328SOL    HW213872   2.017   3.849   0.270
 4329SOL     OW13873   3.044   5.064   0.112
 4329SOL    HW113874   2.949   5.049   0.110
 4329SOL    HW213875   3.067   5.059   0.205
 4330SOL     OW13876   2.481   4.555   1.433
 4330SOL    HW113877   2.537   4.630   1.418
 4330SOL    HW213878   2.542   4.481   1.442
 4331SOL     OW13879   2.580   4.288   1.704
 4331SOL    HW113880   2.620   4.351   1.764
 4331SOL    HW213881   2.608   4.202   1.736
 4332SOL     OW13882   3.335   4.923   1.631
 4332SOL    HW113883   3.322   4.936   1.725
 4332SOL    HW213884   3.429   4.937   1.618
 4333SOL     OW13885   3.532   4.605   1.255
 4333SOL    HW113886   3.525   4.520   1.212
 4333SOL    HW213887   3.522   4.669   1.184
 4334SOL     OW13888   3.079   4.041   0.460
 4334SOL    HW113889   3.144   3.972   0.453
 4334SOL    HW213890   3.106   4.092   0.536
 4335SOL     OW13891   2.450   4.461   0.669
 4335SOL    HW113892   2.491   4.547   0.656
 4335SOL    HW213893   2.382   4.456   0.603
 4336SOL     OW13894   3.625   4.085   1.650
 4336SOL    HW113895   3.608   4.100   1.557
 4336SOL    HW213896   3.553   4.029   1.679
 4337SOL     OW13897   3.606   4.657   1.512
 4337SOL    HW113898   3.603   4.752   1.525
 4337SOL    HW213899   3.591   4.646   1.418
 4338SOL     OW13900   2.771   5.096   0.037
 4338SOL    HW113901   2.711   5.079   0.109
 4338SOL    HW213902   2.724   5.160   8.062
 4339SOL     OW13903   2.729   4.691   0.856
 4339SOL    HW113904   2.780   4.620   0.896
 4339SOL    HW213905   2.695   4.741   0.930
 4340SOL     OW13906   2.942   4.703   0.088
 4340SOL    HW113907   2.921   4.757   0.013
 4340SOL    HW213908   3.018   4.652   0.062
 4341SOL     OW13909   2.085   5.024   1.853
 4341SOL    HW113910   2.017   4.962   1.827
 4341SOL    HW213911   2.074   5.035   1.947
 4342SOL     OW13912   1.949   4.955   0.670
 4342SOL    HW113913   1.946   4.902   0.750
 4342SOL    HW213914   2.017   4.914   0.616
 4343SOL     OW13915   2.532   5.107   1.608
 4343SOL    HW113916   2.457   5.073   1.656
 4343SOL    HW213917   2.564   5.180   1.662
 4344SOL     OW13918   3.674   3.908   1.238
 4344SOL    HW113919   3.685   3.815   1.252
 4344SOL    HW213920   3.684   3.919   1.143
 4345SOL     OW13921   2.287   4.160   0.523
 4345SOL    HW113922   2.320   4.088   0.469
 4345SOL    HW213923   2.242   4.116   0.596
 4346SOL     OW13924   3.569   5.223   1.119
 4346SOL    HW113925   3.495   5.207   1.060
 4346SOL    HW213926   3.575   5.144   1.172
 4347SOL     OW13927   2.192   4.279   1.292
 4347SOL    HW113928   2.247   4.224   1.347
 4347SOL    HW213929   2.211   4.251   1.202
 4348SOL     OW13930   3.294   3.949   1.118
 4348SOL    HW113931   3.319   3.870   1.165
 4348SOL    HW213932   3.242   3.998   1.181
 4349SOL     OW13933   2.871   3.743   1.143
 4349SOL    HW113934   2.816   3.675   1.104
 4349SOL    HW213935   2.959   3.705   1.145
 4350SOL     OW13936   2.656   5.039   0.282
 4350SOL    HW113937   2.602   4.965   0.308
 4350SOL    HW213938   2.715   5.053   0.356
 4351SOL     OW13939   2.484   5.299   1.290
 4351SOL    HW113940   2.491   0.054   1.368
 4351SOL    HW213941   2.574   5.279   1.266
 4352SOL     OW13942   3.219   3.778   0.184
 4352SOL    HW113943   3.240   3.731   0.104
 4352SOL    HW213944   3.133   3.745   0.210
 4353SOL     OW13945   3.158   4.185   0.681
 4353SOL    HW113946   3.106   4.264   0.688
 4353SOL    HW213947   3.154   4.145   0.768
 4354SOL     OW13948   3.448   3.926   0.878
 4354SOL    HW113949   3.388   3.946   0.949
 4354SOL    HW213950   3.448   4.004   0.823
 4355SOL     OW13951   1.903   4.791   0.303
 4355SOL    HW113952   1.999   4.794   0.307
 4355SOL    HW213953   1.879   4.708   0.343
 4356SOL     OW13954   2.091   4.347   1.985
 4356SOL    HW113955   2.002   4.346   2.019
 4356SOL    HW213956   2.082   4.322   1.893
 4357SOL     OW13957   2.086   4.005   2.854
 4357SOL    HW113958   2.115   3.971   2.938
 4357SOL    HW213959   1.997   3.973   2.844
 4358SOL     OW13960   1.866   4.107   2.500
 4358SOL    HW113961   1.783   4.131   2.541
 4358SOL    HW213962   1.846   4.027   2.451
 4359SOL     OW13963   2.428   5.005   3.041
 4359SOL    HW113964   2.343   5.003   2.997
 4359SOL    HW213965   2.439   5.097   3.067
 4360SOL     OW13966   3.417   5.232   2.551
 4360SOL    HW113967   3.397   5.229   2.644
 4360SOL    HW213968   3.338   5.268   2.510
 4361SOL     OW13969   2.992   4.422   2.563
 4361SOL    HW113970   3.041   4.503   2.549
 4361SOL    HW213971   2.945   4.437   2.645
 4362SOL     OW13972   3.628   4.330   2.091
 4362SOL    HW113973   3.608   4.322   1.998
 4362SOL    HW213974   3.593   4.250   2.130
 4363SOL     OW13975   2.619   4.869   2.900
 4363SOL    HW113976   2.551   4.900   2.960
 4363SOL    HW213977   2.648   4.947   2.854
 4364SOL     OW13978   2.729   4.499   3.684
 4364SOL    HW113979   2.715   4.571   3.746
 4364SOL    HW213980   2.752   4.542   3.602
 4365SOL     OW13981   2.548   4.727   2.510
 4365SOL    HW113982   2.613   4.716   2.580
 4365SOL    HW213983   2.479   4.780   2.550
 4366SOL     OW13984   2.571   4.872   3.673
 4366SOL    HW113985   2.618   4.952   3.697
 4366SOL    HW213986   2.487   4.904   3.639
 4367SOL     OW13987   2.199   5.151   2.922
 4367SOL    HW113988   2.122   5.107   2.887
 4367SOL    HW213989   2.239   5.194   2.846
 4368SOL     OW13990   3.317   5.220   3.209
 4368SOL    HW113991   3.371   5.293   3.241
 4368SOL    HW213992   3.250   5.209   3.277
 4369SOL     OW13993   2.310   4.122   3.350
 4369SOL    HW113994   2.386   4.064   3.355
 4369SOL    HW213995   2.235   4.065   3.362
 4370SOL     OW13996   3.474   4.172   2.602
 4370SOL    HW113997   3.399   4.195   2.547
 4370SOL    HW213998   3.490   4.250   2.655
 4371SOL     OW13999   2.995   5.072   3.562
 4371SOL    HW114000   3.026   5.073   3.653
 4371SOL    HW214001   2.942   4.993   3.556
 4372SOL     OW14002   2.072   5.155   2.382
 4372SOL    HW114003   2.098   5.238   2.424
 4372SOL    HW214004   2.020   5.110   2.449
 4373SOL     OW14005   2.120   4.811   2.754
 4373SOL    HW114006   2.117   4.724   2.793
 4373SOL    HW214007   2.062   4.864   2.809
 4374SOL     OW14008   2.447   4.705   1.996
 4374SOL    HW114009   2.494   4.754   1.928
 4374SOL    HW214010   2.487   4.735   2.078
 4375SOL     OW14011   3.454   3.855   3.329
 4375SOL    HW114012   3.463   3.936   3.280
 4375SOL    HW214013   3.440   3.883   3.419
 4376SOL     OW14014   1.977   4.376   2.421
 4376SOL    HW114015   1.948   4.288   2.442
 4376SOL    HW214016   1.969   4.424   2.504
 4377SOL     OW14017   1.849   0.014   1.960
 4377SOL    HW114018   1.864   5.224   1.991
 4377SOL    HW214019   1.871   0.069   2.035
 4378SOL     OW14020   3.550   4.642   2.502
 4378SOL    HW114021   3.634   4.600   2.482
 4378SOL    HW214022   3.529   4.693   2.424
 4379SOL     OW14023   3.507   4.831   2.292
 4379SOL    HW114024   3.593   4.836   2.249
 4379SOL    HW214025   3.514   4.892   2.365
 4380SOL     OW14026   1.985   4.466   3.448
 4380SOL    HW114027   2.077   4.492   3.456
 4380SOL    HW214028   1.937   4.549   3.456
 4381SOL     OW14029   2.484   5.098   2.599
 4381SOL    HW114030   2.430   5.019   2.597
 4381SOL    HW214031   2.465   5.141   2.516
 4382SOL     OW14032   3.151   4.954   3.288
 4382SOL    HW114033   3.185   4.889   3.227
 4382SOL    HW214034   3.210   4.952   3.362
 4383SOL     OW14035   2.676   3.724   2.366
 4383SOL    HW114036   2.716   3.810   2.350
 4383SOL    HW214037   2.583   3.744   2.378
 4384SOL     OW14038   2.052   4.690   3.132
 4384SOL    HW114039   2.137   4.647   3.117
 4384SOL    HW214040   1.989   4.635   3.085
 4385SOL     OW14041   3.393   4.719   2.059
 4385SOL    HW114042   3.323   4.661   2.091
 4385SOL    HW214043   3.434   4.753   2.139
 4386SOL     OW14044   2.192   3.978   3.672
 4386SOL    HW114045   2.237   4.060   3.691
 4386SOL    HW214046   2.103   3.992   3.706
 4387SOL     OW14047   3.338   5.147   2.824
 4387SOL    HW114048   3.265   5.159   2.885
 4387SOL    HW214049   3.326   5.058   2.790
 4388SOL     OW14050   2.458   4.445   2.128
 4388SOL    HW114051   2.464   4.526   2.078
 4388SOL    HW214052   2.393   4.464   2.196
 4389SOL     OW14053   3.141   4.076   2.794
 4389SOL    HW114054   3.052   4.043   2.803
 4389SOL    HW214055   3.192   4.023   2.856
 4390SOL     OW14056   2.654   4.341   3.313
 4390SOL    HW114057   2.628   4.318   3.402
 4390SOL    HW214058   2.614   4.275   3.258
 4391SOL     OW14059   3.255   4.198   3.540
 4391SOL    HW114060   3.257   4.243   3.624
 4391SOL    HW214061   3.318   4.126   3.549
 4392SOL     OW14062   2.817   4.612   3.444
 4392SOL    HW114063   2.871   4.542   3.409
 4392SOL    HW214064   2.769   4.645   3.369
 4393SOL     OW14065   2.855   4.139   3.100
 4393SOL    HW114066   2.770   4.158   3.139
 4393SOL    HW214067   2.834   4.090   3.020
 4394SOL     OW14068   2.913   4.422   2.288
 4394SOL    HW114069   2.928   4.415   2.382
 4394SOL    HW214070   2.830   4.376   2.274
 4395SOL     OW14071   1.950   4.545   2.638
 4395SOL    HW114072   2.031   4.538   2.689
 4395SOL    HW214073   1.907   4.622   2.673
 4396SOL     OW14074   2.755   4.072   2.056
 4396SOL    HW114075   2.795   4.134   1.996
 4396SOL    HW214076   2.771   3.986   2.017
 4397SOL     OW14077   3.570   4.299   3.690
 4397SOL    HW114078   3.533   4.373   3.642
 4397SOL    HW214079   3.599   4.238   3.622
 4398SOL     OW14080   3.239   4.864   2.401
 4398SOL    HW114081   3.320   4.850   2.353
 4398SOL    HW214082   3.189   4.925   2.348
 4399SOL     OW14083   2.412   3.906   2.755
 4399SOL    HW114084   2.414   3.935   2.846
 4399SOL    HW214085   2.413   3.987   2.704
 4400SOL     OW14086   2.884   5.171   2.332
 4400SOL    HW114087   2.805   5.225   2.327
 4400SOL    HW214088   2.899   5.159   2.426
 4401SOL     OW14089   3.662   4.781   2.728
 4401SOL    HW114090   3.605   4.764   2.653
 4401SOL    HW214091   3.602   4.788   2.803
 4402SOL     OW14092   3.112   5.239   3.386
 4402SOL    HW114093   3.076   5.173   3.444
 4402SOL    HW214094   3.041   5.260   3.325
 4403SOL     OW14095   2.182   4.680   2.112
 4403SOL    HW114096   2.264   4.700   2.067
 4403SOL    HW214097   2.152   4.599   2.072
 4404SOL     OW14098   3.340   4.466   2.589
 4404SOL    HW114099   3.332   4.423   2.674
 4404SOL    HW214100   3.418   4.521   2.598
 4405SOL     OW14101   2.326   4.988   3.602
 4405SOL    HW114102   2.300   4.990   3.511
 4405SOL    HW214103   2.244   4.986   3.651
 4406SOL     OW14104   2.935   0.181   2.068
 4406SOL    HW114105   2.938   0.105   2.126
 4406SOL    HW214106   2.964   0.148   1.984
 4407SOL     OW14107   2.062   4.004   3.362
 4407SOL    HW114108   1.981   4.055   3.358
 4407SOL    HW214109   2.048   3.943   3.434
 4408SOL     OW14110   3.485   5.100   1.969
 4408SOL    HW114111   3.482   5.177   1.912
 4408SOL    HW214112   3.416   5.043   1.935
 4409SOL     OW14113   3.263   3.831   2.295
 4409SOL    HW114114   3.253   3.807   2.203
 4409SOL    HW214115   3.358   3.838   2.307
 4410SOL     OW14116   2.255   4.419   2.339
 4410SOL    HW114117   2.276   4.327   2.350
 4410SOL    HW214118   2.161   4.425   2.356
 4411SOL     OW14119   3.398   3.950   3.587
 4411SOL    HW114120   3.407   3.971   3.681
 4411SOL    HW214121   3.326   3.887   3.584
 4412SOL     OW14122   2.496   3.846   1.968
 4412SOL    HW114123   2.567   3.783   1.979
 4412SOL    HW214124   2.447   3.815   1.892
 4413SOL     OW14125   2.629   4.002   3.618
 4413SOL    HW114126   2.704   3.943   3.619
 4413SOL    HW214127   2.577   3.976   3.695
 4414SOL     OW14128   3.203   4.313   3.294
 4414SOL    HW114129   3.233   4.282   3.379
 4414SOL    HW214130   3.239   4.401   3.286
 4415SOL     OW14131   2.674   5.120   2.797
 4415SOL    HW114132   2.755   5.106   2.747
 4415SOL    HW214133   2.606   5.126   2.731
 4416SOL     OW14134   2.790   4.233   2.765
 4416SOL    HW114135   2.766   4.225   2.673
 4416SOL    HW214136   2.821   4.147   2.790
 4417SOL     OW14137   2.410   3.787   2.364
 4417SOL    HW114138   2.330   3.788   2.416
 4417SOL    HW214139   2.404   3.866   2.310
 4418SOL     OW14140   3.290   4.924   1.900
 4418SOL    HW114141   3.320   4.848   1.951
 4418SOL    HW214142   3.202   4.941   1.934
 4419SOL     OW14143   2.154   3.772   2.047
 4419SOL    HW114144   2.213   3.836   2.007
 4419SOL    HW214145   2.212   3.708   2.088
 4420SOL     OW14146   2.800   3.971   2.323
 4420SOL    HW114147   2.773   4.012   2.241
 4420SOL    HW214148   2.895   3.984   2.326
 4421SOL     OW14149   2.942   4.405   3.322
 4421SOL    HW114150   2.873   4.338   3.326
 4421SOL    HW214151   3.023   4.355   3.315
 4422SOL     OW14152   3.126   5.267   2.641
 4422SOL    HW114153   3.085   0.049   2.613
 4422SOL    HW214154   3.170   5.289   2.723
 4423SOL     OW14155   2.328   4.872   2.593
 4423SOL    HW114156   2.259   4.852   2.657
 4423SOL    HW214157   2.287   4.854   2.508
 4424SOL     OW14158   2.885   4.266   1.885
 4424SOL    HW114159   2.843   4.349   1.864
 4424SOL    HW214160   2.951   4.288   1.951
 4425SOL     OW14161   1.941   4.278   3.254
 4425SOL    HW114162   2.033   4.277   3.227
 4425SOL    HW214163   1.936   4.349   3.319
 4426SOL     OW14164   2.421   3.952   3.027
 4426SOL    HW114165   2.464   3.876   3.068
 4426SOL    HW214166   2.331   3.948   3.058
 4427SOL     OW14167   2.729   4.183   2.502
 4427SOL    HW114168   2.684   4.238   2.437
 4427SOL    HW214169   2.751   4.103   2.454
 4428SOL     OW14170   2.877   3.775   2.615
 4428SOL    HW114171   2.819   3.768   2.539
 4428SOL    HW214172   2.855   3.699   2.668
 4429SOL     OW14173   3.299   4.890   2.721
 4429SOL    HW114174   3.233   4.821   2.717
 4429SOL    HW214175   3.325   4.903   2.630
 4430SOL     OW14176   3.328   4.329   2.839
 4430SOL    HW114177   3.278   4.248   2.843
 4430SOL    HW214178   3.388   4.323   2.914
 4431SOL     OW14179   3.708   4.540   2.245
 4431SOL    HW114180   3.764   4.489   2.303
 4431SOL    HW214181   3.679   4.478   2.178
 4432SOL     OW14182   2.343   5.147   2.015
 4432SOL    HW114183   2.281   5.095   2.067
 4432SOL    HW214184   2.344   5.104   1.930
 4433SOL     OW14185   3.531   4.987   2.509
 4433SOL    HW114186   3.625   4.993   2.526
 4433SOL    HW214187   3.498   5.075   2.525
 4434SOL     OW14188   3.256   4.296   1.933
 4434SOL    HW114189   3.195   4.276   2.005
 4434SOL    HW214190   3.341   4.264   1.964
 4435SOL     OW14191   2.387   3.987   2.181
 4435SOL    HW114192   2.432   3.939   2.110
 4435SOL    HW214193   2.365   4.072   2.142
 4436SOL     OW14194   3.613   4.960   3.438
 4436SOL    HW114195   3.699   4.918   3.438
 4436SOL    HW214196   3.632   5.053   3.451
 4437SOL     OW14197   2.926   5.074   3.193
 4437SOL    HW114198   2.848   5.049   3.242
 4437SOL    HW214199   2.999   5.035   3.241
 4438SOL     OW14200   2.988   4.925   2.970
 4438SOL    HW114201   2.938   4.967   3.040
 4438SOL    HW214202   2.943   4.951   2.889
 4439SOL     OW14203   3.491   4.822   2.939
 4439SOL    HW114204   3.486   4.884   3.012
 4439SOL    HW214205   3.412   4.841   2.887
 4440SOL     OW14206   2.775   3.850   3.252
 4440SOL    HW114207   2.798   3.817   3.165
 4440SOL    HW214208   2.857   3.884   3.287
 4441SOL     OW14209   2.846   4.839   3.587
 4441SOL    HW114210   2.754   4.854   3.606
 4441SOL    HW214211   2.847   4.762   3.529
 4442SOL     OW14212   2.567   4.782   2.234
 4442SOL    HW114213   2.555   4.767   2.327
 4442SOL    HW214214   2.644   4.731   2.211
 4443SOL     OW14215   2.280   4.539   3.114
 4443SOL    HW114216   2.349   4.548   3.180
 4443SOL    HW214217   2.245   4.451   3.127
 4444SOL     OW14218   3.128   4.104   3.135
 4444SOL    HW114219   3.161   4.181   3.181
 4444SOL    HW214220   3.038   4.126   3.112
 4445SOL     OW14221   2.209   4.832   2.351
 4445SOL    HW114222   2.212   4.905   2.289
 4445SOL    HW214223   2.209   4.754   2.296
 4446SOL     OW14224   2.415   4.261   2.722
 4446SOL    HW114225   2.430   4.319   2.648
 4446SOL    HW214226   2.480   4.287   2.787
 4447SOL     OW14227   3.121   5.077   2.248
 4447SOL    HW114228   3.178   5.144   2.286
 4447SOL    HW214229   3.033   5.100   2.277
 4448SOL     OW14230   3.131   5.181   3.004
 4448SOL    HW114231   3.190   5.195   3.077
 4448SOL    HW214232   3.087   5.099   3.023
 4449SOL     OW14233   3.444   4.347   2.341
 4449SOL    HW114234   3.397   4.401   2.405
 4449SOL    HW214235   3.489   4.409   2.285
 4450SOL     OW14236   2.210   5.236   3.177
 4450SOL    HW114237   2.199   5.201   3.088
 4450SOL    HW214238   2.303   5.257   3.182
 4451SOL     OW14239   2.276   4.468   3.464
 4451SOL    HW114240   2.338   4.513   3.406
 4451SOL    HW214241   2.316   4.383   3.480
 4452SOL     OW14242   3.463   4.503   3.544
 4452SOL    HW114243   3.377   4.544   3.537
 4452SOL    HW214244   3.515   4.544   3.475
 4453SOL     OW14245   2.859   3.851   3.618
 4453SOL    HW114246   2.911   3.928   3.593
 4453SOL    HW214247   2.909   3.776   3.586
 4454SOL     OW14248   2.362   3.777   3.612
 4454SOL    HW114249   2.321   3.723   3.545
 4454SOL    HW214250   2.301   3.849   3.625
 4455SOL     OW14251   2.445   4.596   2.893
 4455SOL    HW114252   2.475   4.687   2.892
 4455SOL    HW214253   2.389   4.591   2.970
 4456SOL     OW14254   3.220   4.582   2.891
 4456SOL    HW114255   3.136   4.572   2.844
 4456SOL    HW214256   3.260   4.496   2.886
 4457SOL     OW14257   3.067   4.252   2.129
 4457SOL    HW114258   3.075   4.174   2.184
 4457SOL    HW214259   3.024   4.317   2.185
 4458SOL     OW14260   2.161   3.923   3.109
 4458SOL    HW114261   2.124   3.956   3.191
 4458SOL    HW214262   2.137   3.830   3.108
 4459SOL     OW14263   1.914   5.046   3.146
 4459SOL    HW114264   1.939   4.982   3.213
 4459SOL    HW214265   1.950   5.129   3.179
 4460SOL     OW14266   2.586   4.355   2.920
 4460SOL    HW114267   2.661   4.339   2.862
 4460SOL    HW214268   2.558   4.444   2.898
 4461SOL     OW14269   3.596   4.684   3.714
 4461SOL    HW114270   3.550   4.622   3.657
 4461SOL    HW214271   3.537   4.697   3.788
 4462SOL     OW14272   2.165   3.788   2.485
 4462SOL    HW114273   2.146   3.879   2.509
 4462SOL    HW214274   2.172   3.743   2.569
 4463SOL     OW14275   3.478   4.098   2.229
 4463SOL    HW114276   3.506   4.034   2.295
 4463SOL    HW214277   3.455   4.176   2.279
 4464SOL     OW14278   2.890   4.483   2.823
 4464SOL    HW114279   2.886   4.501   2.917
 4464SOL    HW214280   2.863   4.391   2.815
 4465SOL     OW14281   3.716   5.214   3.447
 4465SOL    HW114282   3.712   5.289   3.387
 4465SOL    HW214283   3.785   5.237   3.509
 4466SOL     OW14284   2.215   4.640   3.670
 4466SOL    HW114285   2.297   4.659   3.716
 4466SOL    HW214286   2.240   4.578   3.602
 4467SOL     OW14287   3.391   3.997   1.989
 4467SOL    HW114288   3.326   3.932   2.016
 4467SOL    HW214289   3.424   4.033   2.072
 4468SOL     OW14290   3.154   4.550   1.893
 4468SOL    HW114291   3.197   4.465   1.897
 4468SOL    HW214292   3.185   4.589   1.811
 4469SOL     OW14293   2.920   5.079   2.688
 4469SOL    HW114294   2.925   4.993   2.645
 4469SOL    HW214295   3.006   5.118   2.675
 4470SOL     OW14296   2.171   4.533   2.809
 4470SOL    HW114297   2.264   4.554   2.803
 4470SOL    HW214298   2.169   4.443   2.842
 4471SOL     OW14299   2.193   4.250   2.874
 4471SOL    HW114300   2.158   4.162   2.859
 4471SOL    HW214301   2.270   4.256   2.817
 4472SOL     OW14302   2.996   4.100   3.544
 4472SOL    HW114303   2.949   4.155   3.606
 4472SOL    HW214304   3.084   4.138   3.540
 4473SOL     OW14305   3.022   3.933   3.327
 4473SOL    HW114306   3.014   3.993   3.401
 4473SOL    HW214307   3.064   3.985   3.258
 4474SOL     OW14308   1.868   5.041   2.053
 4474SOL    HW114309   1.778   5.058   2.026
 4474SOL    HW214310   1.866   4.953   2.090
 4475SOL     OW14311   2.845   4.516   3.089
 4475SOL    HW114312   2.901   4.494   3.163
 4475SOL    HW214313   2.760   4.478   3.111
 4476SOL     OW14314   1.898   4.269   2.979
 4476SOL    HW114315   1.978   4.254   2.929
 4476SOL    HW214316   1.926   4.272   3.070
 4477SOL     OW14317   2.053   4.243   3.589
 4477SOL    HW114318   2.111   4.206   3.523
 4477SOL    HW214319   2.010   4.317   3.545
 4478SOL     OW14320   3.239   4.663   3.520
 4478SOL    HW114321   3.259   4.756   3.518
 4478SOL    HW214322   3.236   4.637   3.428
 4479SOL     OW14323   2.678   4.293   2.222
 4479SOL    HW114324   2.682   4.219   2.162
 4479SOL    HW214325   2.604   4.345   2.191
 4480SOL     OW14326   3.504   4.325   3.048
 4480SOL    HW114327   3.494   4.266   3.123
 4480SOL    HW214328   3.591   4.305   3.014
 4481SOL     OW14329   2.068   5.277   3.607
 4481SOL    HW114330   2.054   0.029   3.686
 4481SOL    HW214331   2.080   5.188   3.639
 4482SOL     OW14332   2.562   4.175   3.122
 4482SOL    HW114333   2.510   4.101   3.091
 4482SOL    HW214334   2.559   4.238   3.050
 4483SOL     OW14335   2.327   4.216   2.049
 4483SOL    HW114336   2.385   4.289   2.071
 4483SOL    HW214337   2.241   4.257   2.036
 4484SOL     OW14338   2.007   4.863   3.333
 4484SOL    HW114339   2.009   4.812   3.413
 4484SOL    HW214340   2.025   4.799   3.263
 4485SOL     OW14341   3.189   4.769   3.085
 4485SOL    HW114342   3.212   4.707   3.016
 4485SOL    HW214343   3.118   4.821   3.047
 4486SOL     OW14344   3.172   4.581   2.168
 4486SOL    HW114345   3.097   4.550   2.218
 4486SOL    HW214346   3.148   4.567   2.077
 4487SOL     OW14347   1.955   4.987   2.883
 4487SOL    HW114348   1.934   5.004   2.975
 4487SOL    HW214349   1.876   4.948   2.847
 4488SOL     OW14350   2.614   0.039   3.571
 4488SOL    HW114351   2.521   0.060   3.582
 4488SOL    HW214352   2.633   0.062   3.480
 4489SOL     OW14353   3.581   3.870   2.372
 4489SOL    HW114354   3.654   3.856   2.311
 4489SOL    HW214355   3.566   3.785   2.412
 4490SOL     OW14356   3.139   4.649   2.533
 4490SOL    HW114357   3.212   4.588   2.541
 4490SOL    HW214358   3.173   4.721   2.480
 4491SOL     OW14359   2.681   4.994   3.283
 4491SOL    HW114360   2.651   5.029   3.367
 4491SOL    HW214361   2.606   5.004   3.225
 4492SOL     OW14362   3.702   3.897   2.829
 4492SOL    HW114363   3.731   3.810   2.802
 4492SOL    HW214364   3.616   3.907   2.789
 4493SOL     OW14365   2.124   4.040   2.579
 4493SOL    HW114366   2.039   4.075   2.555
 4493SOL    HW214367   2.121   4.032   2.674
 4494SOL     OW14368   2.686   4.728   3.233
 4494SOL    HW114369   2.733   4.721   3.149
 4494SOL    HW214370   2.690   4.821   3.255
 4495SOL     OW14371   2.778   4.635   2.153
 4495SOL    HW114372   2.839   4.668   2.086
 4495SOL    HW214373   2.826   4.565   2.197
 4496SOL     OW14374   2.227   5.026   3.358
 4496SOL    HW114375   2.216   5.100   3.299
 4496SOL    HW214376   2.152   4.970   3.341
 4497SOL     OW14377   3.474   5.004   3.144
 4497SOL    HW114378   3.531   4.998   3.221
 4497SOL    HW214379   3.412   5.073   3.166
 4498SOL     OW14380   2.916   4.833   2.573
 4498SOL    HW114381   2.844   4.782   2.609
 4498SOL    HW214382   2.977   4.768   2.540
 4499SOL     OW14383   2.883   3.965   2.827
 4499SOL    HW114384   2.879   3.916   2.745
 4499SOL    HW214385   2.878   3.898   2.895
 4500SOL     OW14386   3.583   4.116   3.242
 4500SOL    HW114387   3.655   4.179   3.241
 4500SOL    HW214388   3.613   4.045   3.186
 4501SOL     OW14389   2.120   5.053   2.144
 4501SOL    HW114390   2.028   5.054   2.118
 4501SOL    HW214391   2.121   5.095   2.230
 4502SOL     OW14392   1.974   4.746   3.580
 4502SOL    HW114393   1.898   4.722   3.634
 4502SOL    HW214394   2.049   4.708   3.627
 4503SOL     OW14395   2.534   3.929   3.362
 4503SOL    HW114396   2.618   3.913   3.318
 4503SOL    HW214397   2.558   3.956   3.451
 4504SOL     OW14398   1.940   4.058   1.897
 4504SOL    HW114399   1.853   4.038   1.863
 4504SOL    HW214400   1.970   4.133   1.845
 4505SOL     OW14401   3.292   4.582   3.262
 4505SOL    HW114402   3.243   4.643   3.206
 4505SOL    HW214403   3.381   4.584   3.228
 4506SOL     OW14404   1.930   3.880   2.172
 4506SOL    HW114405   1.916   3.960   2.121
 4506SOL    HW214406   2.015   3.848   2.143
 4507SOL     OW14407   3.044   5.064   1.982
 4507SOL    HW114408   2.953   5.035   1.983
 4507SOL    HW214409   3.072   5.056   2.074
 4508SOL     OW14410   2.481   4.555   3.295
 4508SOL    HW114411   2.537   4.630   3.280
 4508SOL    HW214412   2.541   4.481   3.304
 4509SOL     OW14413   2.580   4.287   3.566
 4509SOL    HW114414   2.620   4.350   3.627
 4509SOL    HW214415   2.607   4.201   3.599
 4510SOL     OW14416   3.335   4.923   3.493
 4510SOL    HW114417   3.322   4.936   3.587
 4510SOL    HW214418   3.429   4.937   3.480
 4511SOL     OW14419   3.532   4.605   3.117
 4511SOL    HW114420   3.525   4.520   3.074
 4511SOL    HW214421   3.522   4.669   3.046
 4512SOL     OW14422   3.079   4.043   2.320
 4512SOL    HW114423   3.142   3.972   2.311
 4512SOL    HW214424   3.108   4.092   2.397
 4513SOL     OW14425   2.452   4.462   2.532
 4513SOL    HW114426   2.491   4.548   2.516
 4513SOL    HW214427   2.384   4.454   2.465
 4514SOL     OW14428   3.625   4.086   3.512
 4514SOL    HW114429   3.608   4.101   3.419
 4514SOL    HW214430   3.554   4.029   3.541
 4515SOL     OW14431   3.606   4.657   3.374
 4515SOL    HW114432   3.603   4.752   3.387
 4515SOL    HW214433   3.591   4.645   3.280
 4516SOL     OW14434   2.711   5.095   1.881
 4516SOL    HW114435   2.692   5.095   1.975
 4516SOL    HW214436   2.728   5.186   1.859
 4517SOL     OW14437   2.730   4.691   2.717
 4517SOL    HW114438   2.779   4.620   2.757
 4517SOL    HW214439   2.695   4.741   2.792
 4518SOL     OW14440   2.942   4.713   1.952
 4518SOL    HW114441   2.919   4.763   1.873
 4518SOL    HW214442   3.016   4.659   1.925
 4519SOL     OW14443   2.085   5.024   3.715
 4519SOL    HW114444   2.017   4.962   3.689
 4519SOL    HW214445   2.073   5.035   3.809
 4520SOL     OW14446   1.948   4.956   2.532
 4520SOL    HW114447   1.947   4.903   2.612
 4520SOL    HW214448   2.011   4.912   2.475
 4521SOL     OW14449   2.532   5.107   3.470
 4521SOL    HW114450   2.457   5.073   3.518
 4521SOL    HW214451   2.564   5.180   3.524
 4522SOL     OW14452   3.674   3.908   3.100
 4522SOL    HW114453   3.687   3.815   3.114
 4522SOL    HW214454   3.683   3.920   3.005
 4523SOL     OW14455   2.291   4.158   2.388
 4523SOL    HW114456   2.321   4.087   2.330
 4523SOL    HW214457   2.243   4.114   2.458
 4524SOL     OW14458   3.569   5.224   2.981
 4524SOL    HW114459   3.495   5.207   2.922
 4524SOL    HW214460   3.576   5.144   3.034
 4525SOL     OW14461   2.192   4.279   3.154
 4525SOL    HW114462   2.247   4.224   3.209
 4525SOL    HW214463   2.211   4.251   3.064
 4526SOL     OW14464   3.293   3.948   2.980
 4526SOL    HW114465   3.322   3.871   3.029
 4526SOL    HW214466   3.242   3.999   3.043
 4527SOL     OW14467   2.869   3.746   3.003
 4527SOL    HW114468   2.815   3.680   2.959
 4527SOL    HW214469   2.956   3.707   3.007
 4528SOL     OW14470   2.665   5.047   2.146
 4528SOL    HW114471   2.604   4.976   2.164
 4528SOL    HW214472   2.720   5.053   2.224
 4529SOL     OW14473   2.484   5.299   3.153
 4529SOL    HW114474   2.491   0.054   3.230
 4529SOL    HW214475   2.574   5.279   3.129
 4530SOL     OW14476   3.214   3.778   2.027
 4530SOL    HW114477   3.242   3.715   1.961
 4530SOL    HW214478   3.127   3.748   2.054
 4531SOL     OW14479   3.158   4.185   2.543
 4531SOL    HW114480   3.105   4.264   2.550
 4531SOL    HW214481   3.155   4.145   2.630
 4532SOL     OW14482   3.448   3.926   2.740
 4532SOL    HW114483   3.387   3.947   2.811
 4532SOL    HW214484   3.448   4.004   2.685
 4533SOL     OW14485   1.904   4.795   2.169
 4533SOL    HW114486   1.998   4.788   2.152
 4533SOL    HW214487   1.877   4.705   2.191
 4534SOL     OW14488   2.091   4.347   3.847
 4534SOL    HW114489   2.002   4.346   3.881
 4534SOL    HW214490   2.082   4.322   3.755
 4535SOL     OW14491   2.087   4.003   4.716
 4535SOL    HW114492   2.115   3.972   4.801
 4535SOL    HW214493   1.997   3.972   4.706
 4536SOL     OW14494   1.866   4.106   4.363
 4536SOL    HW114495   1.783   4.132   4.403
 4536SOL    HW214496   1.845   4.028   4.312
 4537SOL     OW14497   2.428   5.005   4.903
 4537SOL    HW114498   2.343   5.003   4.859
 4537SOL    HW214499   2.439   5.096   4.929
 4538SOL     OW14500   3.417   5.232   4.413
 4538SOL    HW114501   3.397   5.229   4.506
 4538SOL    HW214502   3.338   5.268   4.372
 4539SOL     OW14503   2.992   4.422   4.425
 4539SOL    HW114504   3.041   4.503   4.411
 4539SOL    HW214505   2.945   4.437   4.508
 4540SOL     OW14506   3.628   4.330   3.953
 4540SOL    HW114507   3.608   4.321   3.860
 4540SOL    HW214508   3.593   4.249   3.992
 4541SOL     OW14509   2.619   4.868   4.762
 4541SOL    HW114510   2.551   4.900   4.822
 4541SOL    HW214511   2.648   4.947   4.716
 4542SOL     OW14512   2.728   4.499   5.546
 4542SOL    HW114513   2.715   4.570   5.608
 4542SOL    HW214514   2.752   4.543   5.464
 4543SOL     OW14515   2.548   4.727   4.372
 4543SOL    HW114516   2.613   4.716   4.442
 4543SOL    HW214517   2.479   4.780   4.411
 4544SOL     OW14518   2.571   4.872   5.535
 4544SOL    HW114519   2.618   4.952   5.559
 4544SOL    HW214520   2.487   4.904   5.501
 4545SOL     OW14521   2.199   5.151   4.784
 4545SOL    HW114522   2.122   5.107   4.748
 4545SOL    HW214523   2.239   5.195   4.709
 4546SOL     OW14524   3.317   5.220   5.071
 4546SOL    HW114525   3.371   5.293   5.102
 4546SOL    HW214526   3.250   5.209   5.139
 4547SOL     OW14527   2.311   4.122   5.211
 4547SOL    HW114528   2.386   4.063   5.217
 4547SOL    HW214529   2.235   4.066   5.224
 4548SOL     OW14530   3.474   4.172   4.464
 4548SOL    HW114531   3.399   4.195   4.409
 4548SOL    HW214532   3.491   4.251   4.516
 4549SOL     OW14533   2.995   5.072   5.424
 4549SOL    HW114534   3.026   5.073   5.515
 4549SOL    HW214535   2.942   4.993   5.418
 4550SOL     OW14536   2.072   5.155   4.244
 4550SOL    HW114537   2.098   5.238   4.286
 4550SOL    HW214538   2.020   5.110   4.311
 4551SOL     OW14539   2.120   4.811   4.616
 4551SOL    HW114540   2.117   4.724   4.655
 4551SOL    HW214541   2.062   4.864   4.671
 4552SOL     OW14542   2.447   4.705   3.858
 4552SOL    HW114543   2.494   4.754   3.790
 4552SOL    HW214544   2.487   4.735   3.940
 4553SOL     OW14545   3.454   3.848   5.191
 4553SOL    HW114546   3.469   3.928   5.141
 4553SOL    HW214547   3.444   3.878   5.282
 4554SOL     OW14548   1.977   4.377   4.284
 4554SOL    HW114549   1.948   4.288   4.305
 4554SOL    HW214550   1.969   4.425   4.366
 4555SOL     OW14551   1.848   0.014   3.822
 4555SOL    HW114552   1.864   5.224   3.853
 4555SOL    HW214553   1.870   0.069   3.897
 4556SOL     OW14554   3.550   4.642   4.364
 4556SOL    HW114555   3.634   4.600   4.344
 4556SOL    HW214556   3.530   4.692   4.286
 4557SOL     OW14557   3.507   4.831   4.154
 4557SOL    HW114558   3.593   4.836   4.111
 4557SOL    HW214559   3.514   4.892   4.227
 4558SOL     OW14560   1.985   4.466   5.310
 4558SOL    HW114561   2.077   4.492   5.318
 4558SOL    HW214562   1.936   4.549   5.318
 4559SOL     OW14563   2.484   5.097   4.460
 4559SOL    HW114564   2.430   5.019   4.459
 4559SOL    HW214565   2.465   5.141   4.378
 4560SOL     OW14566   3.151   4.954   5.150
 4560SOL    HW114567   3.186   4.889   5.089
 4560SOL    HW214568   3.210   4.952   5.224
 4561SOL     OW14569   2.679   3.726   4.243
 4561SOL    HW114570   2.717   3.810   4.217
 4561SOL    HW214571   2.585   3.743   4.248
 4562SOL     OW14572   2.052   4.690   4.994
 4562SOL    HW114573   2.137   4.647   4.979
 4562SOL    HW214574   1.989   4.636   4.947
 4563SOL     OW14575   3.393   4.719   3.921
 4563SOL    HW114576   3.323   4.661   3.953
 4563SOL    HW214577   3.434   4.753   4.001
 4564SOL     OW14578   2.195   3.974   5.534
 4564SOL    HW114579   2.240   4.057   5.552
 4564SOL    HW214580   2.106   3.988   5.566
 4565SOL     OW14581   3.338   5.147   4.686
 4565SOL    HW114582   3.265   5.159   4.747
 4565SOL    HW214583   3.326   5.058   4.652
 4566SOL     OW14584   2.458   4.445   3.990
 4566SOL    HW114585   2.464   4.526   3.939
 4566SOL    HW214586   2.393   4.464   4.057
 4567SOL     OW14587   3.141   4.078   4.656
 4567SOL    HW114588   3.052   4.046   4.664
 4567SOL    HW214589   3.192   4.024   4.717
 4568SOL     OW14590   2.654   4.341   5.175
 4568SOL    HW114591   2.628   4.318   5.264
 4568SOL    HW214592   2.614   4.274   5.120
 4569SOL     OW14593   3.255   4.197   5.402
 4569SOL    HW114594   3.257   4.242   5.486
 4569SOL    HW214595   3.317   4.125   5.411
 4570SOL     OW14596   2.817   4.612   5.306
 4570SOL    HW114597   2.872   4.542   5.271
 4570SOL    HW214598   2.769   4.646   5.230
 4571SOL     OW14599   2.854   4.135   4.963
 4571SOL    HW114600   2.769   4.158   5.001
 4571SOL    HW214601   2.833   4.095   4.879
 4572SOL     OW14602   2.913   4.422   4.150
 4572SOL    HW114603   2.928   4.415   4.244
 4572SOL    HW214604   2.830   4.376   4.136
 4573SOL     OW14605   1.950   4.544   4.500
 4573SOL    HW114606   2.031   4.538   4.551
 4573SOL    HW214607   1.906   4.622   4.535
 4574SOL     OW14608   2.755   4.074   3.921
 4574SOL    HW114609   2.796   4.134   3.858
 4574SOL    HW214610   2.760   3.988   3.878
 4575SOL     OW14611   3.570   4.299   5.552
 4575SOL    HW114612   3.533   4.373   5.504
 4575SOL    HW214613   3.599   4.238   5.484
 4576SOL     OW14614   3.239   4.864   4.263
 4576SOL    HW114615   3.320   4.850   4.215
 4576SOL    HW214616   3.189   4.925   4.210
 4577SOL     OW14617   2.406   3.906   4.617
 4577SOL    HW114618   2.411   3.936   4.708
 4577SOL    HW214619   2.411   3.986   4.565
 4578SOL     OW14620   2.884   5.171   4.194
 4578SOL    HW114621   2.805   5.225   4.188
 4578SOL    HW214622   2.899   5.160   4.288
 4579SOL     OW14623   3.662   4.781   4.591
 4579SOL    HW114624   3.605   4.764   4.515
 4579SOL    HW214625   3.602   4.788   4.665
 4580SOL     OW14626   3.112   5.239   5.248
 4580SOL    HW114627   3.076   5.173   5.306
 4580SOL    HW214628   3.041   5.261   5.188
 4581SOL     OW14629   2.182   4.680   3.974
 4581SOL    HW114630   2.265   4.700   3.929
 4581SOL    HW214631   2.152   4.599   3.934
 4582SOL     OW14632   3.339   4.467   4.452
 4582SOL    HW114633   3.332   4.423   4.537
 4582SOL    HW214634   3.418   4.521   4.460
 4583SOL     OW14635   2.326   4.987   5.464
 4583SOL    HW114636   2.299   4.990   5.372
 4583SOL    HW214637   2.244   4.986   5.513
 4584SOL     OW14638   2.934   0.181   3.930
 4584SOL    HW114639   2.939   0.105   3.989
 4584SOL    HW214640   2.964   0.148   3.846
 4585SOL     OW14641   2.062   4.006   5.225
 4585SOL    HW114642   1.981   4.056   5.219
 4585SOL    HW214643   2.045   3.938   5.291
 4586SOL     OW14644   3.485   5.100   3.831
 4586SOL    HW114645   3.482   5.177   3.774
 4586SOL    HW214646   3.416   5.043   3.797
 4587SOL     OW14647   3.268   3.843   4.154
 4587SOL    HW114648   3.257   3.813   4.064
 4587SOL    HW214649   3.362   3.839   4.170
 4588SOL     OW14650   2.255   4.419   4.201
 4588SOL    HW114651   2.276   4.327   4.211
 4588SOL    HW214652   2.161   4.425   4.218
 4589SOL     OW14653   3.398   3.949   5.450
 4589SOL    HW114654   3.408   3.971   5.542
 4589SOL    HW214655   3.330   3.883   5.447
 4590SOL     OW14656   2.503   3.848   3.830
 4590SOL    HW114657   2.564   3.776   3.847
 4590SOL    HW214658   2.451   3.819   3.755
 4591SOL     OW14659   2.628   4.001   5.478
 4591SOL    HW114660   2.703   3.942   5.480
 4591SOL    HW214661   2.580   3.982   5.559
 4592SOL     OW14662   3.202   4.313   5.156
 4592SOL    HW114663   3.234   4.282   5.241
 4592SOL    HW214664   3.239   4.401   5.148
 4593SOL     OW14665   2.674   5.120   4.659
 4593SOL    HW114666   2.755   5.106   4.609
 4593SOL    HW214667   2.606   5.126   4.593
 4594SOL     OW14668   2.789   4.234   4.627
 4594SOL    HW114669   2.765   4.226   4.534
 4594SOL    HW214670   2.822   4.147   4.650
 4595SOL     OW14671   2.411   3.787   4.229
 4595SOL    HW114672   2.329   3.788   4.278
 4595SOL    HW214673   2.407   3.864   4.172
 4596SOL     OW14674   3.290   4.924   3.762
 4596SOL    HW114675   3.320   4.848   3.813
 4596SOL    HW214676   3.202   4.941   3.796
 4597SOL     OW14677   2.152   3.773   3.907
 4597SOL    HW114678   2.210   3.836   3.865
 4597SOL    HW214679   2.210   3.710   3.948
 4598SOL     OW14680   2.800   3.971   4.184
 4598SOL    HW114681   2.774   4.011   4.101
 4598SOL    HW214682   2.895   3.984   4.188
 4599SOL     OW14683   2.942   4.405   5.184
 4599SOL    HW114684   2.873   4.338   5.189
 4599SOL    HW214685   3.023   4.355   5.177
 4600SOL     OW14686   3.126   5.267   4.503
 4600SOL    HW114687   3.085   0.049   4.475
 4600SOL    HW214688   3.170   5.289   4.585
 4601SOL     OW14689   2.328   4.872   4.455
 4601SOL    HW114690   2.259   4.852   4.519
 4601SOL    HW214691   2.287   4.854   4.370
 4602SOL     OW14692   2.886   4.266   3.746
 4602SOL    HW114693   2.843   4.350   3.726
 4602SOL    HW214694   2.951   4.288   3.813
 4603SOL     OW14695   1.941   4.279   5.116
 4603SOL    HW114696   2.033   4.277   5.089
 4603SOL    HW214697   1.936   4.349   5.181
 4604SOL     OW14698   2.421   3.951   4.889
 4604SOL    HW114699   2.462   3.873   4.928
 4604SOL    HW214700   2.331   3.949   4.920
 4605SOL     OW14701   2.729   4.182   4.364
 4605SOL    HW114702   2.685   4.237   4.299
 4605SOL    HW214703   2.751   4.102   4.316
 4606SOL     OW14704   2.876   3.792   4.472
 4606SOL    HW114705   2.824   3.779   4.392
 4606SOL    HW214706   2.856   3.716   4.526
 4607SOL     OW14707   3.299   4.890   4.583
 4607SOL    HW114708   3.233   4.821   4.579
 4607SOL    HW214709   3.325   4.903   4.492
 4608SOL     OW14710   3.328   4.330   4.701
 4608SOL    HW114711   3.278   4.248   4.704
 4608SOL    HW214712   3.388   4.323   4.776
 4609SOL     OW14713   3.708   4.540   4.107
 4609SOL    HW114714   3.764   4.489   4.165
 4609SOL    HW214715   3.679   4.478   4.040
 4610SOL     OW14716   2.343   5.147   3.877
 4610SOL    HW114717   2.281   5.095   3.929
 4610SOL    HW214718   2.344   5.104   3.792
 4611SOL     OW14719   3.531   4.987   4.371
 4611SOL    HW114720   3.625   4.993   4.388
 4611SOL    HW214721   3.498   5.075   4.387
 4612SOL     OW14722   3.256   4.296   3.795
 4612SOL    HW114723   3.195   4.276   3.867
 4612SOL    HW214724   3.341   4.264   3.826
 4613SOL     OW14725   2.388   3.986   4.043
 4613SOL    HW114726   2.434   3.938   3.973
 4613SOL    HW214727   2.366   4.070   4.004
 4614SOL     OW14728   3.613   4.960   5.300
 4614SOL    HW114729   3.699   4.918   5.299
 4614SOL    HW214730   3.632   5.053   5.313
 4615SOL     OW14731   2.926   5.074   5.054
 4615SOL    HW114732   2.848   5.048   5.103
 4615SOL    HW214733   2.999   5.035   5.103
 4616SOL     OW14734   2.988   4.925   4.831
 4616SOL    HW114735   2.938   4.967   4.902
 4616SOL    HW214736   2.943   4.952   4.751
 4617SOL     OW14737   3.491   4.822   4.801
 4617SOL    HW114738   3.486   4.884   4.874
 4617SOL    HW214739   3.412   4.841   4.749
 4618SOL     OW14740   2.779   3.822   5.127
 4618SOL    HW114741   2.796   3.807   5.034
 4618SOL    HW214742   2.859   3.863   5.160
 4619SOL     OW14743   2.846   4.839   5.449
 4619SOL    HW114744   2.754   4.855   5.468
 4619SOL    HW214745   2.846   4.762   5.391
 4620SOL     OW14746   2.567   4.782   4.096
 4620SOL    HW114747   2.555   4.767   4.189
 4620SOL    HW214748   2.644   4.732   4.073
 4621SOL     OW14749   2.280   4.539   4.976
 4621SOL    HW114750   2.349   4.548   5.042
 4621SOL    HW214751   2.245   4.451   4.990
 4622SOL     OW14752   3.127   4.100   5.001
 4622SOL    HW114753   3.161   4.178   5.045
 4622SOL    HW214754   3.038   4.123   4.976
 4623SOL     OW14755   2.209   4.832   4.213
 4623SOL    HW114756   2.212   4.905   4.151
 4623SOL    HW214757   2.209   4.754   4.158
 4624SOL     OW14758   2.414   4.261   4.584
 4624SOL    HW114759   2.430   4.318   4.510
 4624SOL    HW214760   2.480   4.288   4.649
 4625SOL     OW14761   3.121   5.077   4.110
 4625SOL    HW114762   3.178   5.144   4.148
 4625SOL    HW214763   3.033   5.100   4.139
 4626SOL     OW14764   3.131   5.181   4.866
 4626SOL    HW114765   3.191   5.196   4.939
 4626SOL    HW214766   3.087   5.099   4.886
 4627SOL     OW14767   3.444   4.347   4.204
 4627SOL    HW114768   3.397   4.402   4.266
 4627SOL    HW214769   3.489   4.409   4.147
 4628SOL     OW14770   2.210   5.236   5.039
 4628SOL    HW114771   2.199   5.201   4.950
 4628SOL    HW214772   2.303   5.257   5.045
 4629SOL     OW14773   2.276   4.469   5.326
 4629SOL    HW114774   2.338   4.513   5.268
 4629SOL    HW214775   2.316   4.383   5.342
 4630SOL     OW14776   3.463   4.502   5.406
 4630SOL    HW114777   3.377   4.544   5.399
 4630SOL    HW214778   3.515   4.544   5.337
 4631SOL     OW14779   2.857   3.847   5.479
 4631SOL    HW114780   2.913   3.921   5.453
 4631SOL    HW214781   2.907   3.769   5.454
 4632SOL     OW14782   2.360   3.764   5.471
 4632SOL    HW114783   2.316   3.711   5.405
 4632SOL    HW214784   2.301   3.839   5.484
 4633SOL     OW14785   2.446   4.596   4.756
 4633SOL    HW114786   2.475   4.687   4.753
 4633SOL    HW214787   2.389   4.591   4.832
 4634SOL     OW14788   3.220   4.582   4.753
 4634SOL    HW114789   3.137   4.573   4.706
 4634SOL    HW214790   3.260   4.496   4.748
 4635SOL     OW14791   3.067   4.253   3.991
 4635SOL    HW114792   3.075   4.174   4.045
 4635SOL    HW214793   3.024   4.317   4.047
 4636SOL     OW14794   2.161   3.924   4.971
 4636SOL    HW114795   2.124   3.957   5.053
 4636SOL    HW214796   2.142   3.830   4.972
 4637SOL     OW14797   1.914   5.046   5.008
 4637SOL    HW114798   1.939   4.982   5.075
 4637SOL    HW214799   1.949   5.129   5.041
 4638SOL     OW14800   2.586   4.355   4.782
 4638SOL    HW114801   2.661   4.339   4.724
 4638SOL    HW214802   2.558   4.444   4.761
 4639SOL     OW14803   3.596   4.683   5.576
 4639SOL    HW114804   3.550   4.622   5.519
 4639SOL    HW214805   3.537   4.697   5.650
 4640SOL     OW14806   2.164   3.785   4.350
 4640SOL    HW114807   2.145   3.877   4.370
 4640SOL    HW214808   2.173   3.743   4.435
 4641SOL     OW14809   3.480   4.099   4.090
 4641SOL    HW114810   3.505   4.034   4.156
 4641SOL    HW214811   3.456   4.177   4.141
 4642SOL     OW14812   2.889   4.483   4.685
 4642SOL    HW114813   2.886   4.501   4.779
 4642SOL    HW214814   2.863   4.392   4.676
 4643SOL     OW14815   3.716   5.214   5.309
 4643SOL    HW114816   3.711   5.289   5.250
 4643SOL    HW214817   3.785   5.236   5.371
 4644SOL     OW14818   2.215   4.640   5.533
 4644SOL    HW114819   2.297   4.659   5.578
 4644SOL    HW214820   2.240   4.578   5.464
 4645SOL     OW14821   3.392   3.998   3.851
 4645SOL    HW114822   3.326   3.934   3.879
 4645SOL    HW214823   3.426   4.034   3.933
 4646SOL     OW14824   3.154   4.550   3.755
 4646SOL    HW114825   3.197   4.465   3.759
 4646SOL    HW214826   3.185   4.589   3.674
 4647SOL     OW14827   2.920   5.079   4.550
 4647SOL    HW114828   2.925   4.993   4.507
 4647SOL    HW214829   3.006   5.118   4.537
 4648SOL     OW14830   2.171   4.533   4.671
 4648SOL    HW114831   2.264   4.554   4.664
 4648SOL    HW214832   2.169   4.443   4.705
 4649SOL     OW14833   2.193   4.249   4.736
 4649SOL    HW114834   2.158   4.161   4.721
 4649SOL    HW214835   2.270   4.255   4.679
 4650SOL     OW14836   2.996   4.098   5.406
 4650SOL    HW114837   2.949   4.154   5.468
 4650SOL    HW214838   3.084   4.136   5.402
 4651SOL     OW14839   3.024   3.927   5.193
 4651SOL    HW114840   3.012   3.987   5.266
 4651SOL    HW214841   3.063   3.979   5.123
 4652SOL     OW14842   1.868   5.041   3.914
 4652SOL    HW114843   1.778   5.058   3.888
 4652SOL    HW214844   1.866   4.953   3.952
 4653SOL     OW14845   2.845   4.515   4.950
 4653SOL    HW114846   2.901   4.493   5.025
 4653SOL    HW214847   2.759   4.480   4.974
 4654SOL     OW14848   1.898   4.267   4.841
 4654SOL    HW114849   1.979   4.256   4.791
 4654SOL    HW214850   1.926   4.272   4.932
 4655SOL     OW14851   2.053   4.243   5.451
 4655SOL    HW114852   2.110   4.206   5.384
 4655SOL    HW214853   2.010   4.317   5.408
 4656SOL     OW14854   3.239   4.663   5.382
 4656SOL    HW114855   3.259   4.756   5.380
 4656SOL    HW214856   3.236   4.637   5.290
 4657SOL     OW14857   2.678   4.294   4.085
 4657SOL    HW114858   2.683   4.219   4.025
 4657SOL    HW214859   2.604   4.345   4.053
 4658SOL     OW14860   3.504   4.325   4.910
 4658SOL    HW114861   3.494   4.266   4.985
 4658SOL    HW214862   3.591   4.305   4.875
 4659SOL     OW14863   2.068   5.277   5.469
 4659SOL    HW114864   2.054   0.029   5.548
 4659SOL    HW214865   2.080   5.188   5.502
 4660SOL     OW14866   2.563   4.174   4.983
 4660SOL    HW114867   2.510   4.101   4.953
 4660SOL    HW214868   2.559   4.238   4.912
 4661SOL     OW14869   2.326   4.216   3.912
 4661SOL    HW114870   2.385   4.289   3.933
 4661SOL    HW214871   2.240   4.257   3.899
 4662SOL     OW14872   2.007   4.863   5.195
 4662SOL    HW114873   2.009   4.812   5.276
 4662SOL    HW214874   2.025   4.799   5.125
 4663SOL     OW14875   3.189   4.769   4.947
 4663SOL    HW114876   3.212   4.707   4.878
 4663SOL    HW214877   3.118   4.821   4.909
 4664SOL     OW14878   3.172   4.582   4.030
 4664SOL    HW114879   3.097   4.550   4.080
 4664SOL    HW214880   3.149   4.567   3.939
 4665SOL     OW14881   1.955   4.987   4.745
 4665SOL    HW114882   1.934   5.004   4.837
 4665SOL    HW214883   1.876   4.948   4.709
 4666SOL     OW14884   2.614   0.038   5.433
 4666SOL    HW114885   2.521   0.060   5.445
 4666SOL    HW214886   2.633   0.063   5.343
 4667SOL     OW14887   3.582   3.871   4.233
 4667SOL    HW114888   3.654   3.857   4.172
 4667SOL    HW214889   3.567   3.785   4.273
 4668SOL     OW14890   3.139   4.649   4.395
 4668SOL    HW114891   3.212   4.588   4.403
 4668SOL    HW214892   3.173   4.721   4.342
 4669SOL     OW14893   2.681   4.993   5.146
 4669SOL    HW114894   2.651   5.029   5.229
 4669SOL    HW214895   2.606   5.004   5.087
 4670SOL     OW14896   3.703   3.897   4.692
 4670SOL    HW114897   3.732   3.811   4.664
 4670SOL    HW214898   3.618   3.908   4.650
 4671SOL     OW14899   2.124   4.038   4.441
 4671SOL    HW114900   2.039   4.075   4.416
 4671SOL    HW214901   2.121   4.032   4.536
 4672SOL     OW14902   2.687   4.728   5.094
 4672SOL    HW114903   2.733   4.722   5.010
 4672SOL    HW214904   2.690   4.821   5.117
 4673SOL     OW14905   2.778   4.636   4.015
 4673SOL    HW114906   2.839   4.668   3.948
 4673SOL    HW214907   2.826   4.565   4.059
 4674SOL     OW14908   2.227   5.025   5.220
 4674SOL    HW114909   2.216   5.100   5.161
 4674SOL    HW214910   2.152   4.970   5.203
 4675SOL     OW14911   3.474   5.004   5.006
 4675SOL    HW114912   3.532   4.998   5.082
 4675SOL    HW214913   3.412   5.073   5.028
 4676SOL     OW14914   2.916   4.833   4.435
 4676SOL    HW114915   2.843   4.782   4.471
 4676SOL    HW214916   2.977   4.768   4.402
 4677SOL     OW14917   2.882   3.969   4.688
 4677SOL    HW114918   2.878   3.923   4.605
 4677SOL    HW214919   2.869   3.902   4.755
 4678SOL     OW14920   3.584   4.115   5.104
 4678SOL    HW114921   3.655   4.179   5.103
 4678SOL    HW214922   3.614   4.044   5.048
 4679SOL     OW14923   2.120   5.053   4.006
 4679SOL    HW114924   2.028   5.054   3.980
 4679SOL    HW214925   2.121   5.095   4.092
 4680SOL     OW14926   1.974   4.745   5.442
 4680SOL    HW114927   1.898   4.722   5.496
 4680SOL    HW214928   2.049   4.708   5.490
 4681SOL     OW14929   2.535   3.923   5.224
 4681SOL    HW114930   2.619   3.903   5.184
 4681SOL    HW214931   2.558   3.954   5.312
 4682SOL     OW14932   1.939   4.060   3.760
 4682SOL    HW114933   1.853   4.038   3.725
 4682SOL    HW214934   1.968   4.134   3.708
 4683SOL     OW14935   3.292   4.581   5.124
 4683SOL    HW114936   3.243   4.642   5.068
 4683SOL    HW214937   3.381   4.584   5.091
 4684SOL     OW14938   1.931   3.880   4.035
 4684SOL    HW114939   1.915   3.960   3.984
 4684SOL    HW214940   2.015   3.847   4.002
 4685SOL     OW14941   3.044   5.064   3.844
 4685SOL    HW114942   2.953   5.035   3.845
 4685SOL    HW214943   3.072   5.056   3.936
 4686SOL     OW14944   2.481   4.554   5.157
 4686SOL    HW114945   2.537   4.630   5.142
 4686SOL    HW214946   2.542   4.481   5.166
 4687SOL     OW14947   2.580   4.288   5.428
 4687SOL    HW114948   2.619   4.352   5.488
 4687SOL    HW214949   2.608   4.203   5.461
 4688SOL     OW14950   3.335   4.923   5.355
 4688SOL    HW114951   3.322   4.936   5.449
 4688SOL    HW214952   3.429   4.937   5.342
 4689SOL     OW14953   3.532   4.605   4.979
 4689SOL    HW114954   3.525   4.520   4.936
 4689SOL    HW214955   3.522   4.669   4.908
 4690SOL     OW14956   3.078   4.044   4.182
 4690SOL    HW114957   3.144   3.975   4.171
 4690SOL    HW214958   3.107   4.093   4.259
 4691SOL     OW14959   2.451   4.462   4.394
 4691SOL    HW114960   2.491   4.548   4.379
 4691SOL    HW214961   2.384   4.454   4.327
 4692SOL     OW14962   3.625   4.086   5.375
 4692SOL    HW114963   3.608   4.101   5.282
 4692SOL    HW214964   3.553   4.029   5.403
 4693SOL     OW14965   3.606   4.657   5.236
 4693SOL    HW114966   3.603   4.752   5.249
 4693SOL    HW214967   3.591   4.646   5.142
 4694SOL     OW14968   2.711   5.095   3.743
 4694SOL    HW114969   2.692   5.095   3.837
 4694SOL    HW214970   2.728   5.186   3.722
 4695SOL     OW14971   2.729   4.691   4.579
 4695SOL    HW114972   2.779   4.620   4.619
 4695SOL    HW214973   2.695   4.741   4.654
 4696SOL     OW14974   2.942   4.713   3.814
 4696SOL    HW114975   2.919   4.763   3.735
 4696SOL    HW214976   3.016   4.659   3.787
 4697SOL     OW14977   2.085   5.024   5.577
 4697SOL    HW114978   2.017   4.962   5.552
 4697SOL    HW214979   2.074   5.035   5.671
 4698SOL     OW14980   1.948   4.956   4.394
 4698SOL    HW114981   1.947   4.903   4.474
 4698SOL    HW214982   2.011   4.913   4.337
 4699SOL     OW14983   2.532   5.107   5.332
 4699SOL    HW114984   2.457   5.073   5.380
 4699SOL    HW214985   2.564   5.180   5.385
 4700SOL     OW14986   3.672   3.907   4.962
 4700SOL    HW114987   3.686   3.813   4.976
 4700SOL    HW214988   3.683   3.919   4.867
 4701SOL     OW14989   2.291   4.157   4.249
 4701SOL    HW114990   2.322   4.087   4.192
 4701SOL    HW214991   2.244   4.112   4.319
 4702SOL     OW14992   3.569   5.224   4.843
 4702SOL    HW114993   3.495   5.207   4.784
 4702SOL    HW214994   3.576   5.144   4.896
 4703SOL     OW14995   2.192   4.279   5.015
 4703SOL    HW114996   2.247   4.224   5.071
 4703SOL    HW214997   2.211   4.251   4.926
 4704SOL     OW14998   3.290   3.947   4.840
 4704SOL    HW114999   3.330   3.874   4.888
 4704SOL    HW215000   3.242   3.996   4.907
 4705SOL     OW15001   2.861   3.754   4.870
 4705SOL    HW115002   2.815   3.683   4.823
 4705SOL    HW215003   2.951   3.724   4.876
 4706SOL     OW15004   2.665   5.047   4.008
 4706SOL    HW115005   2.604   4.976   4.027
 4706SOL    HW215006   2.720   5.053   4.086
 4707SOL     OW15007   2.484   5.299   5.015
 4707SOL    HW115008   2.491   0.054   5.093
 4707SOL    HW215009   2.574   5.279   4.991
 4708SOL     OW15010   3.217   3.782   3.890
 4708SOL    HW115011   3.250   3.724   3.821
 4708SOL    HW215012   3.134   3.742   3.916
 4709SOL     OW15013   3.158   4.185   4.405
 4709SOL    HW115014   3.105   4.265   4.412
 4709SOL    HW215015   3.155   4.146   4.492
 4710SOL     OW15016   3.451   3.927   4.601
 4710SOL    HW115017   3.385   3.945   4.668
 4710SOL    HW215018   3.450   4.005   4.545
 4711SOL     OW15019   1.904   4.795   4.031
 4711SOL    HW115020   1.998   4.788   4.014
 4711SOL    HW215021   1.877   4.705   4.053
 4712SOL     OW15022   2.091   4.347   5.709
 4712SOL    HW115023   2.002   4.346   5.743
 4712SOL    HW215024   2.082   4.322   5.617
 4713SOL     OW15025   2.087   4.005   6.578
 4713SOL    HW115026   2.115   3.971   6.662
 4713SOL    HW215027   1.997   3.973   6.568
 4714SOL     OW15028   1.866   4.107   6.224
 4714SOL    HW115029   1.783   4.132   6.265
 4714SOL    HW215030   1.845   4.027   6.175
 4715SOL     OW15031   2.428   5.005   6.765
 4715SOL    HW115032   2.343   5.003   6.721
 4715SOL    HW215033   2.439   5.097   6.791
 4716SOL     OW15034   3.417   5.232   6.275
 4716SOL    HW115035   3.397   5.229   6.368
 4716SOL    HW215036   3.338   5.268   6.234
 4717SOL     OW15037   2.992   4.422   6.287
 4717SOL    HW115038   3.041   4.503   6.273
 4717SOL    HW215039   2.945   4.437   6.369
 4718SOL     OW15040   3.628   4.330   5.815
 4718SOL    HW115041   3.608   4.322   5.722
 4718SOL    HW215042   3.593   4.250   5.854
 4719SOL     OW15043   2.618   4.868   6.624
 4719SOL    HW115044   2.551   4.900   6.684
 4719SOL    HW215045   2.648   4.947   6.578
 4720SOL     OW15046   2.728   4.501   7.406
 4720SOL    HW115047   2.712   4.575   7.464
 4720SOL    HW215048   2.753   4.540   7.323
 4721SOL     OW15049   2.548   4.727   6.234
 4721SOL    HW115050   2.613   4.716   6.304
 4721SOL    HW215051   2.479   4.780   6.274
 4722SOL     OW15052   2.570   4.873   7.397
 4722SOL    HW115053   2.619   4.952   7.420
 4722SOL    HW215054   2.487   4.905   7.362
 4723SOL     OW15055   2.199   5.151   6.646
 4723SOL    HW115056   2.122   5.107   6.611
 4723SOL    HW215057   2.239   5.195   6.571
 4724SOL     OW15058   3.317   5.221   6.933
 4724SOL    HW115059   3.371   5.293   6.965
 4724SOL    HW215060   3.250   5.209   7.001
 4725SOL     OW15061   2.311   4.123   7.074
 4725SOL    HW115062   2.386   4.063   7.079
 4725SOL    HW215063   2.235   4.066   7.086
 4726SOL     OW15064   3.474   4.172   6.326
 4726SOL    HW115065   3.399   4.195   6.272
 4726SOL    HW215066   3.490   4.250   6.380
 4727SOL     OW15067   2.995   5.072   7.285
 4727SOL    HW115068   3.027   5.071   7.375
 4727SOL    HW215069   2.941   4.993   7.279
 4728SOL     OW15070   2.072   5.155   6.106
 4728SOL    HW115071   2.098   5.238   6.148
 4728SOL    HW215072   2.020   5.110   6.173
 4729SOL     OW15073   2.120   4.811   6.478
 4729SOL    HW115074   2.117   4.724   6.517
 4729SOL    HW215075   2.062   4.864   6.533
 4730SOL     OW15076   2.447   4.705   5.720
 4730SOL    HW115077   2.494   4.754   5.652
 4730SOL    HW215078   2.487   4.735   5.802
 4731SOL     OW15079   3.458   3.847   7.054
 4731SOL    HW115080   3.465   3.928   7.003
 4731SOL    HW215081   3.444   3.877   7.144
 4732SOL     OW15082   1.977   4.376   6.145
 4732SOL    HW115083   1.948   4.288   6.166
 4732SOL    HW215084   1.969   4.424   6.228
 4733SOL     OW15085   1.848   0.014   5.684
 4733SOL    HW115086   1.864   5.224   5.715
 4733SOL    HW215087   1.870   0.069   5.759
 4734SOL     OW15088   3.550   4.642   6.226
 4734SOL    HW115089   3.634   4.600   6.206
 4734SOL    HW215090   3.529   4.692   6.148
 4735SOL     OW15091   3.507   4.831   6.016
 4735SOL    HW115092   3.593   4.836   5.973
 4735SOL    HW215093   3.514   4.892   6.089
 4736SOL     OW15094   1.985   4.466   7.172
 4736SOL    HW115095   2.077   4.492   7.180
 4736SOL    HW215096   1.936   4.548   7.180
 4737SOL     OW15097   2.484   5.098   6.323
 4737SOL    HW115098   2.430   5.019   6.321
 4737SOL    HW215099   2.465   5.141   6.240
 4738SOL     OW15100   3.151   4.954   7.012
 4738SOL    HW115101   3.186   4.889   6.951
 4738SOL    HW215102   3.210   4.952   7.086
 4739SOL     OW15103   2.676   3.723   6.092
 4739SOL    HW115104   2.717   3.808   6.074
 4739SOL    HW215105   2.583   3.743   6.102
 4740SOL     OW15106   2.052   4.690   6.856
 4740SOL    HW115107   2.137   4.647   6.841
 4740SOL    HW215108   1.989   4.635   6.809
 4741SOL     OW15109   3.393   4.719   5.783
 4741SOL    HW115110   3.323   4.661   5.815
 4741SOL    HW215111   3.434   4.753   5.863
 4742SOL     OW15112   2.194   3.973   7.398
 4742SOL    HW115113   2.239   4.056   7.412
 4742SOL    HW215114   2.105   3.989   7.429
 4743SOL     OW15115   3.338   5.147   6.548
 4743SOL    HW115116   3.265   5.159   6.609
 4743SOL    HW215117   3.326   5.058   6.514
 4744SOL     OW15118   2.458   4.445   5.852
 4744SOL    HW115119   2.464   4.526   5.802
 4744SOL    HW215120   2.393   4.464   5.920
 4745SOL     OW15121   3.141   4.076   6.518
 4745SOL    HW115122   3.052   4.043   6.527
 4745SOL    HW215123   3.192   4.023   6.580
 4746SOL     OW15124   2.653   4.342   7.037
 4746SOL    HW115125   2.627   4.318   7.126
 4746SOL    HW215126   2.613   4.275   6.982
 4747SOL     OW15127   3.256   4.198   7.263
 4747SOL    HW115128   3.258   4.242   7.348
 4747SOL    HW215129   3.317   4.125   7.273
 4748SOL     OW15130   2.817   4.612   7.168
 4748SOL    HW115131   2.872   4.542   7.133
 4748SOL    HW215132   2.769   4.645   7.092
 4749SOL     OW15133   2.854   4.137   6.825
 4749SOL    HW115134   2.769   4.158   6.862
 4749SOL    HW215135   2.834   4.090   6.744
 4750SOL     OW15136   2.913   4.422   6.012
 4750SOL    HW115137   2.928   4.416   6.106
 4750SOL    HW215138   2.830   4.376   5.998
 4751SOL     OW15139   1.950   4.545   6.362
 4751SOL    HW115140   2.031   4.538   6.413
 4751SOL    HW215141   1.907   4.622   6.397
 4752SOL     OW15142   2.754   4.072   5.780
 4752SOL    HW115143   2.795   4.135   5.720
 4752SOL    HW215144   2.773   3.986   5.742
 4753SOL     OW15145   3.571   4.300   7.415
 4753SOL    HW115146   3.533   4.374   7.368
 4753SOL    HW215147   3.598   4.238   7.347
 4754SOL     OW15148   3.239   4.864   6.125
 4754SOL    HW115149   3.320   4.850   6.077
 4754SOL    HW215150   3.189   4.925   6.072
 4755SOL     OW15151   2.412   3.906   6.479
 4755SOL    HW115152   2.414   3.935   6.570
 4755SOL    HW215153   2.413   3.988   6.429
 4756SOL     OW15154   2.884   5.171   6.056
 4756SOL    HW115155   2.805   5.225   6.051
 4756SOL    HW215156   2.899   5.160   6.150
 4757SOL     OW15157   3.662   4.781   6.452
 4757SOL    HW115158   3.605   4.764   6.377
 4757SOL    HW215159   3.602   4.788   6.527
 4758SOL     OW15160   3.113   5.239   7.110
 4758SOL    HW115161   3.076   5.173   7.168
 4758SOL    HW215162   3.041   5.261   7.050
 4759SOL     OW15163   2.182   4.680   5.836
 4759SOL    HW115164   2.265   4.700   5.791
 4759SOL    HW215165   2.152   4.599   5.796
 4760SOL     OW15166   3.340   4.466   6.313
 4760SOL    HW115167   3.332   4.423   6.398
 4760SOL    HW215168   3.417   4.521   6.322
 4761SOL     OW15169   2.325   4.987   7.328
 4761SOL    HW115170   2.299   4.990   7.236
 4761SOL    HW215171   2.243   4.986   7.377
 4762SOL     OW15172   2.934   0.181   5.792
 4762SOL    HW115173   2.939   0.105   5.851
 4762SOL    HW215174   2.964   0.147   5.708
 4763SOL     OW15175   2.063   4.005   7.087
 4763SOL    HW115176   1.980   4.054   7.082
 4763SOL    HW215177   2.045   3.934   7.148
 4764SOL     OW15178   3.485   5.100   5.693
 4764SOL    HW115179   3.482   5.177   5.637
 4764SOL    HW215180   3.416   5.043   5.659
 4765SOL     OW15181   3.263   3.831   6.019
 4765SOL    HW115182   3.253   3.807   5.927
 4765SOL    HW215183   3.358   3.839   6.032
 4766SOL     OW15184   2.255   4.419   6.062
 4766SOL    HW115185   2.275   4.327   6.074
 4766SOL    HW215186   2.161   4.425   6.080
 4767SOL     OW15187   3.397   3.949   7.311
 4767SOL    HW115188   3.406   3.970   7.404
 4767SOL    HW215189   3.329   3.882   7.309
 4768SOL     OW15190   2.495   3.847   5.692
 4768SOL    HW115191   2.567   3.783   5.704
 4768SOL    HW215192   2.447   3.815   5.616
 4769SOL     OW15193   2.627   4.000   7.339
 4769SOL    HW115194   2.704   3.943   7.341
 4769SOL    HW215195   2.585   3.986   7.424
 4770SOL     OW15196   3.202   4.313   7.018
 4770SOL    HW115197   3.233   4.281   7.103
 4770SOL    HW215198   3.239   4.401   7.010
 4771SOL     OW15199   2.674   5.120   6.521
 4771SOL    HW115200   2.755   5.106   6.472
 4771SOL    HW215201   2.606   5.126   6.455
 4772SOL     OW15202   2.790   4.233   6.489
 4772SOL    HW115203   2.766   4.225   6.397
 4772SOL    HW215204   2.821   4.146   6.514
 4773SOL     OW15205   2.411   3.787   6.088
 4773SOL    HW115206   2.331   3.788   6.140
 4773SOL    HW215207   2.405   3.866   6.034
 4774SOL     OW15208   3.289   4.924   5.624
 4774SOL    HW115209   3.320   4.848   5.675
 4774SOL    HW215210   3.202   4.941   5.658
 4775SOL     OW15211   2.154   3.771   5.770
 4775SOL    HW115212   2.213   3.837   5.733
 4775SOL    HW215213   2.212   3.708   5.813
 4776SOL     OW15214   2.800   3.970   6.047
 4776SOL    HW115215   2.773   4.012   5.965
 4776SOL    HW215216   2.895   3.984   6.051
 4777SOL     OW15217   2.942   4.405   7.046
 4777SOL    HW115218   2.873   4.338   7.051
 4777SOL    HW215219   3.023   4.355   7.039
 4778SOL     OW15220   3.126   5.267   6.365
 4778SOL    HW115221   3.085   0.049   6.337
 4778SOL    HW215222   3.170   5.289   6.447
 4779SOL     OW15223   2.328   4.872   6.317
 4779SOL    HW115224   2.259   4.852   6.381
 4779SOL    HW215225   2.287   4.854   6.232
 4780SOL     OW15226   2.885   4.266   5.608
 4780SOL    HW115227   2.843   4.349   5.588
 4780SOL    HW215228   2.951   4.287   5.674
 4781SOL     OW15229   1.941   4.279   6.978
 4781SOL    HW115230   2.033   4.277   6.951
 4781SOL    HW215231   1.936   4.349   7.043
 4782SOL     OW15232   2.421   3.951   6.752
 4782SOL    HW115233   2.463   3.874   6.791
 4782SOL    HW215234   2.331   3.947   6.782
 4783SOL     OW15235   2.729   4.183   6.226
 4783SOL    HW115236   2.684   4.238   6.161
 4783SOL    HW215237   2.751   4.102   6.178
 4784SOL     OW15238   2.878   3.778   6.337
 4784SOL    HW115239   2.820   3.771   6.262
 4784SOL    HW215240   2.856   3.703   6.392
 4785SOL     OW15241   3.299   4.890   6.445
 4785SOL    HW115242   3.233   4.821   6.441
 4785SOL    HW215243   3.325   4.903   6.354
 4786SOL     OW15244   3.328   4.329   6.563
 4786SOL    HW115245   3.278   4.248   6.567
 4786SOL    HW215246   3.388   4.323   6.638
 4787SOL     OW15247   3.708   4.540   5.969
 4787SOL    HW115248   3.764   4.489   6.027
 4787SOL    HW215249   3.679   4.478   5.902
 4788SOL     OW15250   2.343   5.147   5.740
 4788SOL    HW115251   2.281   5.095   5.791
 4788SOL    HW215252   2.344   5.104   5.654
 4789SOL     OW15253   3.531   4.987   6.233
 4789SOL    HW115254   3.625   4.993   6.250
 4789SOL    HW215255   3.497   5.075   6.249
 4790SOL     OW15256   3.256   4.296   5.657
 4790SOL    HW115257   3.195   4.276   5.729
 4790SOL    HW215258   3.341   4.264   5.688
 4791SOL     OW15259   2.387   3.987   5.905
 4791SOL    HW115260   2.431   3.939   5.835
 4791SOL    HW215261   2.365   4.072   5.866
 4792SOL     OW15262   3.613   4.959   7.161
 4792SOL    HW115263   3.699   4.918   7.161
 4792SOL    HW215264   3.631   5.052   7.175
 4793SOL     OW15265   2.927   5.074   6.916
 4793SOL    HW115266   2.848   5.049   6.965
 4793SOL    HW215267   2.999   5.035   6.965
 4794SOL     OW15268   2.988   4.925   6.693
 4794SOL    HW115269   2.938   4.967   6.764
 4794SOL    HW215270   2.943   4.952   6.613
 4795SOL     OW15271   3.491   4.822   6.663
 4795SOL    HW115272   3.486   4.884   6.736
 4795SOL    HW215273   3.413   4.841   6.611
 4796SOL     OW15274   2.780   3.822   6.982
 4796SOL    HW115275   2.803   3.803   6.891
 4796SOL    HW215276   2.859   3.861   7.019
 4797SOL     OW15277   2.846   4.838   7.313
 4797SOL    HW115278   2.754   4.855   7.329
 4797SOL    HW215279   2.847   4.762   7.255
 4798SOL     OW15280   2.566   4.782   5.958
 4798SOL    HW115281   2.555   4.767   6.051
 4798SOL    HW215282   2.644   4.731   5.935
 4799SOL     OW15283   2.280   4.539   6.837
 4799SOL    HW115284   2.349   4.548   6.904
 4799SOL    HW215285   2.246   4.451   6.851
 4800SOL     OW15286   3.127   4.101   6.861
 4800SOL    HW115287   3.160   4.179   6.907
 4800SOL    HW215288   3.037   4.123   6.838
 4801SOL     OW15289   2.209   4.832   6.075
 4801SOL    HW115290   2.212   4.905   6.013
 4801SOL    HW215291   2.209   4.754   6.020
 4802SOL     OW15292   2.415   4.261   6.446
 4802SOL    HW115293   2.430   4.319   6.372
 4802SOL    HW215294   2.480   4.287   6.511
 4803SOL     OW15295   3.121   5.077   5.972
 4803SOL    HW115296   3.178   5.144   6.010
 4803SOL    HW215297   3.033   5.100   6.001
 4804SOL     OW15298   3.131   5.181   6.728
 4804SOL    HW115299   3.191   5.196   6.801
 4804SOL    HW215300   3.087   5.099   6.748
 4805SOL     OW15301   3.444   4.347   6.065
 4805SOL    HW115302   3.397   4.401   6.129
 4805SOL    HW215303   3.489   4.409   6.009
 4806SOL     OW15304   2.210   5.236   6.901
 4806SOL    HW115305   2.199   5.201   6.812
 4806SOL    HW215306   2.303   5.257   6.907
 4807SOL     OW15307   2.276   4.469   7.188
 4807SOL    HW115308   2.338   4.513   7.130
 4807SOL    HW215309   2.315   4.383   7.203
 4808SOL     OW15310   3.463   4.503   7.268
 4808SOL    HW115311   3.377   4.544   7.261
 4808SOL    HW215312   3.515   4.544   7.200
 4809SOL     OW15313   2.858   3.847   7.340
 4809SOL    HW115314   2.914   3.919   7.312
 4809SOL    HW215315   2.906   3.768   7.315
 4810SOL     OW15316   2.360   3.765   7.333
 4810SOL    HW115317   2.317   3.710   7.267
 4810SOL    HW215318   2.301   3.839   7.345
 4811SOL     OW15319   2.445   4.596   6.617
 4811SOL    HW115320   2.475   4.687   6.615
 4811SOL    HW215321   2.389   4.591   6.694
 4812SOL     OW15322   3.220   4.582   6.615
 4812SOL    HW115323   3.137   4.572   6.568
 4812SOL    HW215324   3.260   4.496   6.610
 4813SOL     OW15325   3.067   4.252   5.853
 4813SOL    HW115326   3.075   4.174   5.908
 4813SOL    HW215327   3.024   4.317   5.909
 4814SOL     OW15328   2.161   3.923   6.832
 4814SOL    HW115329   2.124   3.955   6.914
 4814SOL    HW215330   2.142   3.829   6.833
 4815SOL     OW15331   1.914   5.046   6.870
 4815SOL    HW115332   1.939   4.982   6.937
 4815SOL    HW215333   1.950   5.129   6.903
 4816SOL     OW15334   2.586   4.355   6.644
 4816SOL    HW115335   2.661   4.339   6.586
 4816SOL    HW215336   2.558   4.444   6.622
 4817SOL     OW15337   3.597   4.684   7.438
 4817SOL    HW115338   3.549   4.623   7.382
 4817SOL    HW215339   3.539   4.698   7.513
 4818SOL     OW15340   2.165   3.788   6.209
 4818SOL    HW115341   2.146   3.879   6.233
 4818SOL    HW215342   2.172   3.743   6.293
 4819SOL     OW15343   3.477   4.098   5.953
 4819SOL    HW115344   3.506   4.034   6.019
 4819SOL    HW215345   3.455   4.176   6.003
 4820SOL     OW15346   2.890   4.483   6.547
 4820SOL    HW115347   2.887   4.501   6.641
 4820SOL    HW215348   2.863   4.391   6.539
 4821SOL     OW15349   3.716   5.213   7.170
 4821SOL    HW115350   3.711   5.289   7.111
 4821SOL    HW215351   3.786   5.236   7.231
 4822SOL     OW15352   2.216   4.639   7.395
 4822SOL    HW115353   2.298   4.658   7.439
 4822SOL    HW215354   2.239   4.577   7.326
 4823SOL     OW15355   3.391   3.997   5.713
 4823SOL    HW115356   3.326   3.932   5.740
 4823SOL    HW215357   3.424   4.033   5.796
 4824SOL     OW15358   3.154   4.550   5.617
 4824SOL    HW115359   3.197   4.465   5.621
 4824SOL    HW215360   3.185   4.589   5.535
 4825SOL     OW15361   2.920   5.079   6.412
 4825SOL    HW115362   2.925   4.993   6.369
 4825SOL    HW215363   3.006   5.118   6.399
 4826SOL     OW15364   2.171   4.533   6.533
 4826SOL    HW115365   2.264   4.554   6.527
 4826SOL    HW215366   2.169   4.443   6.566
 4827SOL     OW15367   2.193   4.250   6.598
 4827SOL    HW115368   2.158   4.162   6.583
 4827SOL    HW215369   2.270   4.255   6.541
 4828SOL     OW15370   2.996   4.100   7.267
 4828SOL    HW115371   2.949   4.155   7.329
 4828SOL    HW215372   3.084   4.138   7.263
 4829SOL     OW15373   3.023   3.927   7.056
 4829SOL    HW115374   3.012   3.990   7.127
 4829SOL    HW215375   3.062   3.978   6.985
 4830SOL     OW15376   1.868   5.041   5.776
 4830SOL    HW115377   1.778   5.058   5.750
 4830SOL    HW215378   1.866   4.953   5.814
 4831SOL     OW15379   2.845   4.516   6.813
 4831SOL    HW115380   2.901   4.493   6.887
 4831SOL    HW215381   2.760   4.478   6.835
 4832SOL     OW15382   1.898   4.269   6.702
 4832SOL    HW115383   1.978   4.254   6.653
 4832SOL    HW215384   1.926   4.272   6.794
 4833SOL     OW15385   2.054   4.243   7.313
 4833SOL    HW115386   2.109   4.203   7.246
 4833SOL    HW215387   2.011   4.316   7.270
 4834SOL     OW15388   3.238   4.663   7.245
 4834SOL    HW115389   3.259   4.756   7.242
 4834SOL    HW215390   3.235   4.637   7.153
 4835SOL     OW15391   2.678   4.293   5.946
 4835SOL    HW115392   2.681   4.219   5.885
 4835SOL    HW215393   2.604   4.346   5.915
 4836SOL     OW15394   3.504   4.325   6.772
 4836SOL    HW115395   3.494   4.266   6.847
 4836SOL    HW215396   3.591   4.305   6.738
 4837SOL     OW15397   2.069   5.276   7.329
 4837SOL    HW115398   2.039   0.026   7.405
 4837SOL    HW215399   2.082   5.187   7.363
 4838SOL     OW15400   2.562   4.175   6.846
 4838SOL    HW115401   2.510   4.101   6.816
 4838SOL    HW215402   2.559   4.237   6.774
 4839SOL     OW15403   2.327   4.216   5.773
 4839SOL    HW115404   2.385   4.289   5.795
 4839SOL    HW215405   2.241   4.257   5.760
 4840SOL     OW15406   2.007   4.863   7.057
 4840SOL    HW115407   2.009   4.811   7.137
 4840SOL    HW215408   2.025   4.799   6.987
 4841SOL     OW15409   3.189   4.769   6.809
 4841SOL    HW115410   3.212   4.707   6.740
 4841SOL    HW215411   3.118   4.821   6.771
 4842SOL     OW15412   3.172   4.581   5.892
 4842SOL    HW115413   3.097   4.550   5.942
 4842SOL    HW215414   3.148   4.567   5.801
 4843SOL     OW15415   1.955   4.987   6.607
 4843SOL    HW115416   1.934   5.004   6.699
 4843SOL    HW215417   1.876   4.948   6.571
 4844SOL     OW15418   2.614   0.037   7.296
 4844SOL    HW115419   2.521   0.060   7.307
 4844SOL    HW215420   2.635   0.063   7.207
 4845SOL     OW15421   3.581   3.870   6.095
 4845SOL    HW115422   3.654   3.856   6.035
 4845SOL    HW215423   3.565   3.785   6.136
 4846SOL     OW15424   3.139   4.649   6.257
 4846SOL    HW115425   3.212   4.588   6.265
 4846SOL    HW215426   3.173   4.721   6.204
 4847SOL     OW15427   2.681   4.993   7.007
 4847SOL    HW115428   2.651   5.029   7.091
 4847SOL    HW215429   2.606   5.004   6.949
 4848SOL     OW15430   3.702   3.897   6.553
 4848SOL    HW115431   3.732   3.810   6.526
 4848SOL    HW215432   3.616   3.907   6.513
 4849SOL     OW15433   2.124   4.040   6.303
 4849SOL    HW115434   2.038   4.076   6.279
 4849SOL    HW215435   2.121   4.032   6.398
 4850SOL     OW15436   2.686   4.728   6.957
 4850SOL    HW115437   2.733   4.721   6.873
 4850SOL    HW215438   2.690   4.821   6.979
 4851SOL     OW15439   2.778   4.635   5.876
 4851SOL    HW115440   2.839   4.667   5.810
 4851SOL    HW215441   2.826   4.565   5.921
 4852SOL     OW15442   2.227   5.026   7.083
 4852SOL    HW115443   2.216   5.100   7.023
 4852SOL    HW215444   2.152   4.969   7.065
 4853SOL     OW15445   3.474   5.004   6.868
 4853SOL    HW115446   3.531   4.998   6.945
 4853SOL    HW215447   3.412   5.073   6.890
 4854SOL     OW15448   2.916   4.833   6.297
 4854SOL    HW115449   2.844   4.782   6.333
 4854SOL    HW215450   2.977   4.768   6.264
 4855SOL     OW15451   2.883   3.964   6.552
 4855SOL    HW115452   2.879   3.916   6.469
 4855SOL    HW215453   2.878   3.896   6.619
 4856SOL     OW15454   3.584   4.116   6.967
 4856SOL    HW115455   3.656   4.179   6.965
 4856SOL    HW215456   3.613   4.045   6.910
 4857SOL     OW15457   2.120   5.053   5.868
 4857SOL    HW115458   2.028   5.054   5.842
 4857SOL    HW215459   2.121   5.095   5.954
 4858SOL     OW15460   1.975   4.746   7.305
 4858SOL    HW115461   1.898   4.723   7.357
 4858SOL    HW215462   2.049   4.708   7.352
 4859SOL     OW15463   2.536   3.921   7.085
 4859SOL    HW115464   2.620   3.900   7.044
 4859SOL    HW215465   2.559   3.950   7.173
 4860SOL     OW15466   1.941   4.057   5.621
 4860SOL    HW115467   1.853   4.039   5.588
 4860SOL    HW215468   1.970   4.132   5.569
 4861SOL     OW15469   3.292   4.582   6.987
 4861SOL    HW115470   3.244   4.643   6.931
 4861SOL    HW215471   3.381   4.584   6.953
 4862SOL     OW15472   1.930   3.880   5.896
 4862SOL    HW115473   1.916   3.960   5.846
 4862SOL    HW215474   2.015   3.848   5.867
 4863SOL     OW15475   3.044   5.064   5.706
 4863SOL    HW115476   2.953   5.035   5.707
 4863SOL    HW215477   3.072   5.056   5.798
 4864SOL     OW15478   2.481   4.555   7.019
 4864SOL    HW115479   2.538   4.630   7.004
 4864SOL    HW215480   2.541   4.481   7.028
 4865SOL     OW15481   2.580   4.287   7.291
 4865SOL    HW115482   2.619   4.350   7.352
 4865SOL    HW215483   2.608   4.202   7.322
 4866SOL     OW15484   3.335   4.923   7.218
 4866SOL    HW115485   3.322   4.936   7.312
 4866SOL    HW215486   3.429   4.937   7.205
 4867SOL     OW15487   3.532   4.605   6.841
 4867SOL    HW115488   3.525   4.520   6.798
 4867SOL    HW215489   3.522   4.669   6.770
 4868SOL     OW15490   3.079   4.043   6.044
 4868SOL    HW115491   3.142   3.972   6.035
 4868SOL    HW215492   3.108   4.092   6.121
 4869SOL     OW15493   2.452   4.462   6.255
 4869SOL    HW115494   2.491   4.548   6.240
 4869SOL    HW215495   2.384   4.454   6.188
 4870SOL     OW15496   3.624   4.086   7.237
 4870SOL    HW115497   3.608   4.101   7.144
 4870SOL    HW215498   3.552   4.029   7.265
 4871SOL     OW15499   3.607   4.657   7.098
 4871SOL    HW115500   3.603   4.752   7.111
 4871SOL    HW215501   3.591   4.645   7.004
 4872SOL     OW15502   2.712   5.094   5.605
 4872SOL    HW115503   2.692   5.095   5.699
 4872SOL    HW215504   2.727   5.186   5.583
 4873SOL     OW15505   2.730   4.691   6.441
 4873SOL    HW115506   2.779   4.620   6.481
 4873SOL    HW215507   2.695   4.741   6.516
 4874SOL     OW15508   2.942   4.713   5.675
 4874SOL    HW115509   2.919   4.763   5.597
 4874SOL    HW215510   3.016   4.659   5.649
 4875SOL     OW15511   2.084   5.024   7.442
 4875SOL    HW115512   2.018   4.961   7.412
 4875SOL    HW215513   2.064   5.037   7.534
 4876SOL     OW15514   1.948   4.956   6.256
 4876SOL    HW115515   1.947   4.903   6.336
 4876SOL    HW215516   2.012   4.912   6.199
 4877SOL     OW15517   2.532   5.106   7.194
 4877SOL    HW115518   2.456   5.074   7.243
 4877SOL    HW215519   2.563   5.180   7.247
 4878SOL     OW15520   3.675   3.909   6.824
 4878SOL    HW115521   3.685   3.815   6.838
 4878SOL    HW215522   3.684   3.919   6.729
 4879SOL     OW15523   2.291   4.158   6.112
 4879SOL    HW115524   2.321   4.087   6.055
 4879SOL    HW215525   2.243   4.114   6.182
 4880SOL     OW15526   3.569   5.224   6.705
 4880SOL    HW115527   3.495   5.207   6.646
 4880SOL    HW215528   3.575   5.144   6.758
 4881SOL     OW15529   2.192   4.279   6.878
 4881SOL    HW115530   2.247   4.224   6.933
 4881SOL    HW215531   2.211   4.251   6.788
 4882SOL     OW15532   3.294   3.949   6.704
 4882SOL    HW115533   3.319   3.869   6.750
 4882SOL    HW215534   3.242   3.998   6.767
 4883SOL     OW15535   2.871   3.743   6.729
 4883SOL    HW115536   2.816   3.675   6.691
 4883SOL    HW215537   2.959   3.705   6.731
 4884SOL     OW15538   2.665   5.047   5.870
 4884SOL    HW115539   2.604   4.976   5.889
 4884SOL    HW215540   2.720   5.053   5.949
 4885SOL     OW15541   2.484   5.299   6.877
 4885SOL    HW115542   2.491   0.054   6.955
 4885SOL    HW215543   2.574   5.279   6.853
 4886SOL     OW15544   3.214   3.778   5.751
 4886SOL    HW115545   3.243   3.714   5.687
 4886SOL    HW215546   3.127   3.748   5.777
 4887SOL     OW15547   3.158   4.184   6.267
 4887SOL    HW115548   3.105   4.264   6.274
 4887SOL    HW215549   3.155   4.145   6.354
 4888SOL     OW15550   3.448   3.926   6.464
 4888SOL    HW115551   3.388   3.946   6.535
 4888SOL    HW215552   3.448   4.004   6.409
 4889SOL     OW15553   1.904   4.795   5.893
 4889SOL    HW115554   1.998   4.788   5.876
 4889SOL    HW215555   1.877   4.705   5.915
 4890SOL     OW15556   2.091   4.344   7.572
 4890SOL    HW115557   2.000   4.350   7.602
 4890SOL    HW215558   2.083   4.320   7.479
 4891SOL     OW15559   3.629   4.322   7.679
 4891SOL    HW115560   3.609   4.318   7.586
 4891SOL    HW215561   3.588   4.244   7.716
 4892SOL     OW15562   2.139   0.126   7.957
 4892SOL    HW115563   2.114   0.211   7.992
 4892SOL    HW215564   2.145   0.139   7.863
 4893SOL     OW15565   2.079   5.156   7.990
 4893SOL    HW115566   2.092   5.251   7.997
 4893SOL    HW215567   2.021   5.134   8.063
 4894SOL     OW15568   2.447   4.705   7.579
 4894SOL    HW115569   2.493   4.755   7.511
 4894SOL    HW215570   2.486   4.736   7.661
 4895SOL     OW15571   1.861   0.010   7.538
 4895SOL    HW115572   1.865   5.221   7.574
 4895SOL    HW215573   1.861   0.067   7.615
 4896SOL     OW15574   3.544   4.591   8.034
 4896SOL    HW115575   3.625   4.602   0.006
 4896SOL    HW215576   3.533   4.675   7.990
 4897SOL     OW15577   3.517   4.825   7.876
 4897SOL    HW115578   3.606   4.844   7.844
 4897SOL    HW215579   3.498   4.896   7.937
 4898SOL     OW15580   2.664   3.719   7.940
 4898SOL    HW115581   2.713   3.799   7.922
 4898SOL    HW215582   2.573   3.747   7.947
 4899SOL     OW15583   3.394   4.720   7.648
 4899SOL    HW115584   3.328   4.660   7.681
 4899SOL    HW215585   3.438   4.754   7.726
 4900SOL     OW15586   2.453   4.448   7.708
 4900SOL    HW115587   2.457   4.530   7.659
 4900SOL    HW215588   2.393   4.467   7.780
 4901SOL     OW15589   1.923   4.586   0.090
 4901SOL    HW115590   1.987   4.522   0.118
 4901SOL    HW215591   1.917   4.649   0.162
 4902SOL     OW15592   2.743   4.070   7.637
 4902SOL    HW115593   2.789   4.131   7.578
 4902SOL    HW215594   2.778   3.984   7.613
 4903SOL     OW15595   2.185   4.680   7.697
 4903SOL    HW115596   2.265   4.697   7.648
 4903SOL    HW215597   2.149   4.601   7.657
 4904SOL     OW15598   2.953   0.189   7.646
 4904SOL    HW115599   2.923   0.125   7.711
 4904SOL    HW215600   2.953   0.142   7.563
 4905SOL     OW15601   3.489   5.099   7.550
 4905SOL    HW115602   3.473   5.180   7.502
 4905SOL    HW215603   3.419   5.041   7.521
 4906SOL     OW15604   3.277   3.855   7.864
 4906SOL    HW115605   3.265   3.820   7.776
 4906SOL    HW215606   3.372   3.853   7.878
 4907SOL     OW15607   2.253   4.422   7.918
 4907SOL    HW115608   2.258   4.327   7.926
 4907SOL    HW215609   2.162   4.443   7.938
 4908SOL     OW15610   2.490   3.844   7.560
 4908SOL    HW115611   2.566   3.786   7.569
 4908SOL    HW215612   2.446   3.813   7.480
 4909SOL     OW15613   2.394   3.797   7.959
 4909SOL    HW115614   2.309   3.801   8.002
 4909SOL    HW215615   2.392   3.869   7.895
 4910SOL     OW15616   3.290   4.925   7.488
 4910SOL    HW115617   3.320   4.850   7.539
 4910SOL    HW215618   3.202   4.943   7.521
 4911SOL     OW15619   2.155   3.773   7.633
 4911SOL    HW115620   2.214   3.834   7.587
 4911SOL    HW215621   2.213   3.708   7.672
 4912SOL     OW15622   2.806   3.950   7.910
 4912SOL    HW115623   2.762   4.015   7.855
 4912SOL    HW215624   2.897   3.979   7.914
 4913SOL     OW15625   2.303   4.874   0.099
 4913SOL    HW115626   2.227   4.909   0.146
 4913SOL    HW215627   2.271   4.860   0.010
 4914SOL     OW15628   2.887   4.266   7.467
 4914SOL    HW115629   2.842   4.349   7.449
 4914SOL    HW215630   2.948   4.286   7.538
 4915SOL     OW15631   3.733   4.541   7.802
 4915SOL    HW115632   3.730   4.511   7.893
 4915SOL    HW215633   3.693   4.469   7.752
 4916SOL     OW15634   2.335   5.150   7.601
 4916SOL    HW115635   2.278   5.098   7.656
 4916SOL    HW215636   2.341   5.102   7.519
 4917SOL     OW15637   3.256   4.296   7.519
 4917SOL    HW115638   3.195   4.276   7.590
 4917SOL    HW215639   3.340   4.262   7.550
 4918SOL     OW15640   2.388   3.990   7.771
 4918SOL    HW115641   2.431   3.939   7.702
 4918SOL    HW215642   2.365   4.073   7.729
 4919SOL     OW15643   2.570   4.783   7.812
 4919SOL    HW115644   2.547   4.770   7.905
 4919SOL    HW215645   2.651   4.733   7.800
 4920SOL     OW15646   2.227   4.826   7.927
 4920SOL    HW115647   2.205   4.905   7.878
 4920SOL    HW215648   2.214   4.754   7.865
 4921SOL     OW15649   3.087   5.114   7.831
 4921SOL    HW115650   3.173   5.125   7.873
 4921SOL    HW215651   3.037   5.060   7.893
 4922SOL     OW15652   3.450   4.352   7.921
 4922SOL    HW115653   3.436   4.411   7.995
 4922SOL    HW215654   3.489   4.407   7.854
 4923SOL     OW15655   3.066   4.250   7.715
 4923SOL    HW115656   3.069   4.167   7.762
 4923SOL    HW215657   3.040   4.314   7.782
 4924SOL     OW15658   3.480   4.103   7.814
 4924SOL    HW115659   3.502   4.036   7.880
 4924SOL    HW215660   3.455   4.179   7.866
 4925SOL     OW15661   3.391   3.999   7.575
 4925SOL    HW115662   3.326   3.933   7.601
 4925SOL    HW215663   3.424   4.034   7.658
 4926SOL     OW15664   3.157   4.551   7.481
 4926SOL    HW115665   3.198   4.465   7.483
 4926SOL    HW215666   3.186   4.591   7.399
 4927SOL     OW15667   1.870   5.045   7.640
 4927SOL    HW115668   1.780   5.058   7.610
 4927SOL    HW215669   1.871   4.956   7.675
 4928SOL     OW15670   2.700   4.323   7.762
 4928SOL    HW115671   2.692   4.232   7.733
 4928SOL    HW215672   2.611   4.357   7.761
 4929SOL     OW15673   2.324   4.217   7.642
 4929SOL    HW115674   2.383   4.291   7.656
 4929SOL    HW215675   2.239   4.257   7.624
 4930SOL     OW15676   3.172   4.577   7.755
 4930SOL    HW115677   3.084   4.579   7.794
 4930SOL    HW215678   3.156   4.566   7.661
 4931SOL     OW15679   3.574   3.870   7.947
 4931SOL    HW115680   3.651   3.862   7.892
 4931SOL    HW215681   3.576   3.792   8.003
 4932SOL     OW15682   2.791   4.634   7.758
 4932SOL    HW115683   2.843   4.660   7.682
 4932SOL    HW215684   2.783   4.539   7.751
 4933SOL     OW15685   2.120   5.058   7.745
 4933SOL    HW115686   2.028   5.061   7.717
 4933SOL    HW215687   2.119   5.097   7.832
 4934SOL     OW15688   1.939   4.058   7.484
 4934SOL    HW115689   1.853   4.038   7.447
 4934SOL    HW215690   1.970   4.133   7.433
 4935SOL     OW15691   1.932   3.881   7.758
 4935SOL    HW115692   1.916   3.958   7.703
 4935SOL    HW215693   2.015   3.846   7.727
 4936SOL     OW15694   3.043   5.058   7.564
 4936SOL    HW115695   2.951   5.034   7.562
 4936SOL    HW215696   3.062   5.074   7.657
 4937SOL     OW15697   3.077   4.042   7.904
 4937SOL    HW115698   3.150   3.981   7.892
 4937SOL    HW215699   3.098   4.090   7.984
 4938SOL     OW15700   2.487   4.458   8.057
 4938SOL    HW115701   2.493   4.541   0.024
 4938SOL    HW215702   2.400   4.459   8.016
 4939SOL     OW15703   2.713   5.094   7.466
 4939SOL    HW115704   2.695   5.094   7.560
 4939SOL    HW215705   2.726   5.186   7.444
 4940SOL     OW15706   2.936   4.704   7.538
 4940SOL    HW115707   2.916   4.759   7.463
 4940SOL    HW215708   3.014   4.655   7.511
 4941SOL     OW15709   2.249   4.150   7.982
 4941SOL    HW115710   2.300   4.099   7.919
 4941SOL    HW215711   2.299   4.144   8.064
 4942SOL     OW15712   2.667   5.048   7.730
 4942SOL    HW115713   2.610   4.973   7.749
 4942SOL    HW215714   2.687   5.084   7.816
 4943SOL     OW15715   3.214   3.776   7.610
 4943SOL    HW115716   3.243   3.710   7.547
 4943SOL    HW215717   3.128   3.747   7.638
 4944SOL     OW15718   1.912   4.801   7.751
 4944SOL    HW115719   2.006   4.793   7.738
 4944SOL    HW215720   1.882   4.712   7.766
 4945SOL     OW15721   3.942   0.624   0.120
 4945SOL    HW115722   3.863   0.590   0.162
 4945SOL    HW215723   3.967   0.557   0.057
 4946SOL     OW15724   3.942   0.284   0.993
 4946SOL    HW115725   3.971   0.249   1.077
 4946SOL    HW215726   3.857   0.243   0.978
 4947SOL     OW15727   3.728   0.386   0.638
 4947SOL    HW115728   3.644   0.408   0.678
 4947SOL    HW215729   3.710   0.308   0.586
 4948SOL     OW15730   4.291   1.287   1.175
 4948SOL    HW115731   4.203   1.291   1.137
 4948SOL    HW215732   4.306   1.376   1.208
 4949SOL     OW15733   5.283   1.546   0.707
 4949SOL    HW115734   5.247   1.494   0.778
 4949SOL    HW215735   5.224   1.530   0.633
 4950SOL     OW15736   4.859   0.699   0.701
 4950SOL    HW115737   4.909   0.780   0.691
 4950SOL    HW215738   4.809   0.712   0.782
 4951SOL     OW15739   4.479   1.142   1.041
 4951SOL    HW115740   4.410   1.177   1.097
 4951SOL    HW215741   4.514   1.219   0.996
 4952SOL     OW15742   4.592   0.777   1.823
 4952SOL    HW115743   4.574   0.849   1.884
 4952SOL    HW215744   4.614   0.820   1.740
 4953SOL     OW15745   4.409   1.002   0.650
 4953SOL    HW115746   4.474   0.991   0.719
 4953SOL    HW215747   4.340   1.055   0.690
 4954SOL     OW15748   4.434   1.151   1.812
 4954SOL    HW115749   4.482   1.230   1.839
 4954SOL    HW215750   4.352   1.184   1.777
 4955SOL     OW15751   4.054   1.426   1.068
 4955SOL    HW115752   3.982   1.388   1.018
 4955SOL    HW215753   4.105   1.476   1.004
 4956SOL     OW15754   5.161   1.481   1.351
 4956SOL    HW115755   5.205   1.561   1.376
 4956SOL    HW215756   5.106   1.459   1.426
 4957SOL     OW15757   4.168   0.399   1.487
 4957SOL    HW115758   4.244   0.340   1.485
 4957SOL    HW215759   4.093   0.341   1.502
 4958SOL     OW15760   3.944   1.715   0.471
 4958SOL    HW115761   3.966   1.790   0.525
 4958SOL    HW215762   4.019   1.706   0.412
 4959SOL     OW15763   4.860   1.340   1.694
 4959SOL    HW115764   4.898   1.336   1.781
 4959SOL    HW215765   4.807   1.260   1.687
 4960SOL     OW15766   3.950   1.441   0.530
 4960SOL    HW115767   3.937   1.535   0.534
 4960SOL    HW215768   3.892   1.404   0.596
 4961SOL     OW15769   3.981   1.090   0.891
 4961SOL    HW115770   3.978   1.004   0.932
 4961SOL    HW215771   3.923   1.144   0.945
 4962SOL     OW15772   4.333   1.792   1.427
 4962SOL    HW115773   4.253   1.774   1.475
 4962SOL    HW215774   4.358   1.881   1.454
 4963SOL     OW15775   4.353   0.961   0.133
 4963SOL    HW115776   4.302   1.037   0.108
 4963SOL    HW215777   4.404   0.990   0.209
 4964SOL     OW15778   5.250   0.145   1.480
 4964SOL    HW115779   5.299   0.225   1.460
 4964SOL    HW215780   5.277   0.122   1.568
 4965SOL     OW15781   3.838   0.651   0.562
 4965SOL    HW115782   3.810   0.562   0.583
 4965SOL    HW215783   3.831   0.699   0.644
 4966SOL     OW15784   3.753   1.596   0.111
 4966SOL    HW115785   3.739   1.507   0.145
 4966SOL    HW215786   3.737   1.653   0.186
 4967SOL     OW15787   0.114   0.946   0.594
 4967SOL    HW115788   0.201   0.907   0.592
 4967SOL    HW215789   0.118   1.014   0.527
 4968SOL     OW15790   3.847   0.744   1.584
 4968SOL    HW115791   3.938   0.769   1.593
 4968SOL    HW215792   3.798   0.826   1.593
 4969SOL     OW15793   4.337   1.386   0.735
 4969SOL    HW115794   4.291   1.302   0.744
 4969SOL    HW215795   4.321   1.412   0.644
 4970SOL     OW15796   5.007   1.237   1.425
 4970SOL    HW115797   5.040   1.170   1.365
 4970SOL    HW215798   5.062   1.228   1.503
 4971SOL     OW15799   4.535   0.026   0.527
 4971SOL    HW115800   4.564   0.113   0.499
 4971SOL    HW215801   4.439   0.030   0.522
 4972SOL     OW15802   3.914   0.967   1.271
 4972SOL    HW115803   3.999   0.924   1.256
 4972SOL    HW215804   3.852   0.911   1.224
 4973SOL     OW15805   4.897   1.807   1.623
 4973SOL    HW115806   4.918   1.866   1.551
 4973SOL    HW215807   4.919   1.720   1.591
 4974SOL     OW15808   4.049   0.266   1.810
 4974SOL    HW115809   4.102   0.341   1.839
 4974SOL    HW215810   3.964   0.281   1.850
 4975SOL     OW15811   5.169   1.434   0.936
 4975SOL    HW115812   5.106   1.441   1.009
 4975SOL    HW215813   5.162   1.343   0.907
 4976SOL     OW15814   4.322   0.715   0.282
 4976SOL    HW115815   4.339   0.793   0.229
 4976SOL    HW215816   4.256   0.743   0.346
 4977SOL     OW15817   4.996   0.329   0.920
 4977SOL    HW115818   4.907   0.305   0.943
 4977SOL    HW215819   5.049   0.301   0.994
 4978SOL     OW15820   4.517   0.618   1.450
 4978SOL    HW115821   4.490   0.596   1.539
 4978SOL    HW215822   4.476   0.552   1.395
 4979SOL     OW15823   5.117   0.487   1.679
 4979SOL    HW115824   5.118   0.521   1.769
 4979SOL    HW215825   5.182   0.416   1.679
 4980SOL     OW15826   4.679   0.888   1.582
 4980SOL    HW115827   4.731   0.816   1.547
 4980SOL    HW215828   4.631   0.922   1.507
 4981SOL     OW15829   4.718   0.422   1.231
 4981SOL    HW115830   4.633   0.436   1.274
 4981SOL    HW215831   4.698   0.367   1.156
 4982SOL     OW15832   4.777   0.698   0.427
 4982SOL    HW115833   4.792   0.691   0.521
 4982SOL    HW215834   4.694   0.652   0.413
 4983SOL     OW15835   3.813   0.821   0.776
 4983SOL    HW115836   3.894   0.814   0.827
 4983SOL    HW215837   3.770   0.899   0.811
 4984SOL     OW15838   3.851   1.847   1.577
 4984SOL    HW115839   3.851   1.826   1.671
 4984SOL    HW215840   3.759   1.841   1.552
 4985SOL     OW15841   4.606   0.360   0.200
 4985SOL    HW115842   4.653   0.401   0.128
 4985SOL    HW215843   4.589   0.271   0.169
 4986SOL     OW15844   5.095   1.147   0.549
 4986SOL    HW115845   5.178   1.141   0.501
 4986SOL    HW215846   5.041   1.206   0.495
 4987SOL     OW15847   4.248   0.201   0.883
 4987SOL    HW115848   4.272   0.216   0.974
 4987SOL    HW215849   4.272   0.283   0.839
 4988SOL     OW15850   4.730   1.445   0.473
 4988SOL    HW115851   4.690   1.516   0.423
 4988SOL    HW215852   4.711   1.466   0.565
 4989SOL     OW15853   4.079   1.809   0.862
 4989SOL    HW115854   4.122   1.724   0.870
 4989SOL    HW215855   4.147   1.873   0.880
 4990SOL     OW15856   4.940   1.542   1.519
 4990SOL    HW115857   4.927   1.469   1.579
 4990SOL    HW215858   4.884   1.522   1.444
 4991SOL     OW15859   4.050   0.942   0.255
 4991SOL    HW115860   4.119   0.984   0.203
 4991SOL    HW215861   4.049   0.851   0.226
 4992SOL     OW15862   4.190   1.264   1.738
 4992SOL    HW115863   4.163   1.269   1.646
 4992SOL    HW215864   4.108   1.263   1.787
 4993SOL     OW15865   4.825   1.774   0.225
 4993SOL    HW115866   4.770   1.734   0.292
 4993SOL    HW215867   4.841   1.704   0.162
 4994SOL     OW15868   3.921   0.278   1.502
 4994SOL    HW115869   3.842   0.331   1.499
 4994SOL    HW215870   3.913   0.229   1.585
 4995SOL     OW15871   4.189   1.738   0.323
 4995SOL    HW115872   4.231   1.796   0.386
 4995SOL    HW215873   4.259   1.711   0.264
 4996SOL     OW15874   5.101   0.113   0.443
 4996SOL    HW115875   5.092   0.073   0.357
 4996SOL    HW215876   5.195   0.129   0.453
 4997SOL     OW15877   3.979   1.791   1.232
 4997SOL    HW115878   4.031   1.726   1.279
 4997SOL    HW215879   3.970   1.756   1.143
 4998SOL     OW15880   4.662   1.698   0.899
 4998SOL    HW115881   4.742   1.648   0.916
 4998SOL    HW215882   4.617   1.649   0.830
 4999SOL     OW15883   4.110   0.698   0.476
 4999SOL    HW115884   4.135   0.606   0.487
 4999SOL    HW215885   4.017   0.701   0.500
 5000SOL     OW15886   4.348   0.137   0.123
 5000SOL    HW115887   4.438   0.108   0.134
 5000SOL    HW215888   4.320   0.098   0.040
 5001SOL     OW15889   4.508   0.311   1.767
 5001SOL    HW115890   4.571   0.239   1.766
 5001SOL    HW215891   4.459   0.299   1.847
 5002SOL     OW15892   4.599   1.521   1.194
 5002SOL    HW115893   4.585   1.486   1.106
 5002SOL    HW215894   4.670   1.468   1.230
 5003SOL     OW15895   5.060   0.592   1.431
 5003SOL    HW115896   5.090   0.561   1.517
 5003SOL    HW215897   5.099   0.678   1.422
 5004SOL     OW15898   4.538   1.395   0.939
 5004SOL    HW115899   4.623   1.384   0.896
 5004SOL    HW215900   4.474   1.396   0.868
 5005SOL     OW15901   4.651   0.511   0.902
 5005SOL    HW115902   4.628   0.501   0.810
 5005SOL    HW215903   4.682   0.424   0.929
 5006SOL     OW15904   4.266   0.062   0.511
 5006SOL    HW115905   4.179   0.060   0.552
 5006SOL    HW215906   4.260   0.131   0.446
 5007SOL     OW15907   5.140   1.172   0.043
 5007SOL    HW115908   5.139   1.101   0.107
 5007SOL    HW215909   5.056   1.216   0.055
 5008SOL     OW15910   4.024   0.069   0.205
 5008SOL    HW115911   4.081   0.139   0.172
 5008SOL    HW215912   4.077   5.290   0.197
 5009SOL     OW15913   4.667   0.256   0.453
 5009SOL    HW115914   4.640   0.303   0.374
 5009SOL    HW215915   4.759   0.280   0.464
 5010SOL     OW15916   4.802   0.681   1.461
 5010SOL    HW115917   4.733   0.615   1.463
 5010SOL    HW215918   4.883   0.631   1.450
 5011SOL     OW15919   4.940   1.572   0.796
 5011SOL    HW115920   4.963   1.637   0.730
 5011SOL    HW215921   5.022   1.558   0.845
 5012SOL     OW15922   4.192   1.150   0.734
 5012SOL    HW115923   4.123   1.130   0.797
 5012SOL    HW215924   4.151   1.134   0.649
 5013SOL     OW15925   4.993   1.794   0.605
 5013SOL    HW115926   5.037   1.857   0.548
 5013SOL    HW215927   4.927   1.846   0.652
 5014SOL     OW15928   4.765   0.533   0.023
 5014SOL    HW115929   4.709   0.609   0.004
 5014SOL    HW215930   4.814   0.558   0.101
 5015SOL     OW15931   3.803   0.553   1.393
 5015SOL    HW115932   3.894   0.553   1.365
 5015SOL    HW215933   3.797   0.624   1.457
 5016SOL     OW15934   4.280   0.238   1.158
 5016SOL    HW115935   4.312   0.152   1.187
 5016SOL    HW215936   4.188   0.239   1.185
 5017SOL     OW15937   4.592   0.461   0.639
 5017SOL    HW115938   4.548   0.514   0.573
 5017SOL    HW215939   4.613   0.379   0.594
 5018SOL     OW15940   4.696   0.064   0.764
 5018SOL    HW115941   4.634   0.053   0.692
 5018SOL    HW215942   4.716   5.274   0.791
 5019SOL     OW15943   5.157   1.176   0.850
 5019SOL    HW115944   5.102   1.099   0.863
 5019SOL    HW215945   5.167   1.182   0.755
 5020SOL     OW15946   4.207   1.439   0.172
 5020SOL    HW115947   4.134   1.397   0.219
 5020SOL    HW215948   4.212   1.391   0.089
 5021SOL     OW15949   5.123   0.574   0.083
 5021SOL    HW115950   5.049   0.557   0.141
 5021SOL    HW215951   5.200   0.546   0.134
 5022SOL     OW15952   4.247   0.268   0.329
 5022SOL    HW115953   4.287   0.212   0.262
 5022SOL    HW215954   4.231   0.351   0.284
 5023SOL     OW15955   4.781   1.354   1.334
 5023SOL    HW115956   4.706   1.323   1.384
 5023SOL    HW215957   4.856   1.311   1.374
 5024SOL     OW15958   0.006   1.604   1.617
 5024SOL    HW115959   0.040   1.610   1.527
 5024SOL    HW215960   0.083   1.584   1.670
 5025SOL     OW15961   4.853   1.204   1.107
 5025SOL    HW115962   4.791   1.239   1.170
 5025SOL    HW215963   4.819   1.232   1.022
 5026SOL     OW15964   4.624   0.104   1.387
 5026SOL    HW115965   4.658   0.070   1.304
 5026SOL    HW215966   4.700   0.148   1.427
 5027SOL     OW15967   4.708   1.113   1.725
 5027SOL    HW115968   4.617   1.130   1.745
 5027SOL    HW215969   4.706   1.036   1.668
 5028SOL     OW15970   4.438   1.063   0.380
 5028SOL    HW115971   4.420   1.045   0.472
 5028SOL    HW215972   4.516   1.011   0.360
 5029SOL     OW15973   4.142   0.815   1.251
 5029SOL    HW115974   4.211   0.824   1.318
 5029SOL    HW215975   4.107   0.727   1.265
 5030SOL     OW15976   4.991   0.380   1.270
 5030SOL    HW115977   5.024   0.458   1.314
 5030SOL    HW215978   4.901   0.402   1.247
 5031SOL     OW15979   3.794   1.573   1.352
 5031SOL    HW115980   3.765   1.646   1.299
 5031SOL    HW215981   3.890   1.577   1.347
 5032SOL     OW15982   4.069   1.110   0.491
 5032SOL    HW115983   4.076   1.182   0.430
 5032SOL    HW215984   4.077   1.031   0.437
 5033SOL     OW15985   4.277   0.538   0.861
 5033SOL    HW115986   4.293   0.596   0.786
 5033SOL    HW215987   4.343   0.564   0.925
 5034SOL     OW15988   4.971   1.347   0.392
 5034SOL    HW115989   5.027   1.419   0.420
 5034SOL    HW215990   4.884   1.369   0.424
 5035SOL     OW15991   4.994   1.456   1.139
 5035SOL    HW115992   5.049   1.458   1.218
 5035SOL    HW215993   4.940   1.377   1.150
 5036SOL     OW15994   4.071   1.527   1.315
 5036SOL    HW115995   4.058   1.484   1.231
 5036SOL    HW215996   4.165   1.539   1.323
 5037SOL     OW15997   4.138   0.745   1.602
 5037SOL    HW115998   4.200   0.789   1.544
 5037SOL    HW215999   4.179   0.660   1.619
 5038SOL     OW16000   4.754   0.117   1.757
 5038SOL    HW116001   4.795   0.199   1.730
 5038SOL    HW216002   4.793   0.050   1.702
 5039SOL     OW16003   4.203   0.058   1.737
 5039SOL    HW116004   4.145   5.293   1.697
 5039SOL    HW216005   4.146   0.131   1.759
 5040SOL     OW16006   4.307   0.873   1.031
 5040SOL    HW116007   4.338   0.964   1.031
 5040SOL    HW216008   4.251   0.867   1.108
 5041SOL     OW16009   5.085   0.857   1.039
 5041SOL    HW116010   5.010   0.840   0.982
 5041SOL    HW216011   5.139   0.778   1.031
 5042SOL     OW16012   4.929   0.531   0.268
 5042SOL    HW116013   4.933   0.448   0.315
 5042SOL    HW216014   4.885   0.591   0.327
 5043SOL     OW16015   4.021   0.204   1.247
 5043SOL    HW116016   3.981   0.243   1.326
 5043SOL    HW216017   4.020   0.110   1.265
 5044SOL     OW16018   3.769   1.311   1.276
 5044SOL    HW116019   3.803   1.256   1.348
 5044SOL    HW216020   3.777   1.400   1.309
 5045SOL     OW16021   4.450   0.632   1.060
 5045SOL    HW116022   4.523   0.614   1.001
 5045SOL    HW216023   4.421   0.720   1.036
 5046SOL     OW16024   4.025   0.071   0.651
 5046SOL    HW116025   4.009   0.165   0.658
 5046SOL    HW216026   4.070   0.048   0.732
 5047SOL     OW16027   0.038   0.408   0.361
 5047SOL    HW116028   0.061   0.346   0.431
 5047SOL    HW216029   0.003   0.484   0.407
 5048SOL     OW16030   4.751   0.759   0.960
 5048SOL    HW116031   4.749   0.777   1.054
 5048SOL    HW216032   4.725   0.667   0.953
 5049SOL     OW16033   4.698   1.561   1.714
 5049SOL    HW116034   4.687   1.609   1.631
 5049SOL    HW216035   4.746   1.482   1.689
 5050SOL     OW16036   4.077   0.916   1.808
 5050SOL    HW116037   4.160   0.935   1.854
 5050SOL    HW216038   4.101   0.853   1.740
 5051SOL     OW16039   5.031   0.831   0.028
 5051SOL    HW116040   5.059   0.741   0.043
 5051SOL    HW216041   5.057   0.850   8.018
 5052SOL     OW16042   4.789   1.334   0.855
 5052SOL    HW116043   4.793   1.262   0.792
 5052SOL    HW216044   4.847   1.401   0.819
 5053SOL     OW16045   4.033   0.809   0.947
 5053SOL    HW116046   4.126   0.830   0.941
 5053SOL    HW216047   4.031   0.719   0.979
 5054SOL     OW16048   4.056   0.526   1.012
 5054SOL    HW116049   4.020   0.439   0.997
 5054SOL    HW216050   4.133   0.531   0.955
 5055SOL     OW16051   4.862   0.377   1.690
 5055SOL    HW116052   4.812   0.432   1.751
 5055SOL    HW216053   4.946   0.422   1.681
 5056SOL     OW16054   4.847   0.234   1.458
 5056SOL    HW116055   4.859   0.283   1.540
 5056SOL    HW216056   4.912   0.270   1.398
 5057SOL     OW16057   3.735   1.324   0.190
 5057SOL    HW116058   3.648   1.338   0.152
 5057SOL    HW216059   3.733   1.234   0.222
 5058SOL     OW16060   3.814   1.787   0.938
 5058SOL    HW116061   3.784   1.708   0.894
 5058SOL    HW216062   3.904   1.799   0.907
 5059SOL     OW16063   4.221   1.574   0.905
 5059SOL    HW116064   4.289   1.636   0.930
 5059SOL    HW216065   4.265   1.510   0.849
 5060SOL     OW16066   4.707   0.794   1.228
 5060SOL    HW116067   4.762   0.769   1.302
 5060SOL    HW216068   4.622   0.753   1.246
 5061SOL     OW16069   3.759   0.544   1.117
 5061SOL    HW116070   3.839   0.529   1.066
 5061SOL    HW216071   3.789   0.548   1.208
 5062SOL     OW16072   3.911   0.522   1.727
 5062SOL    HW116073   3.974   0.486   1.664
 5062SOL    HW216074   3.871   0.596   1.681
 5063SOL     OW16075   5.112   0.938   1.666
 5063SOL    HW116076   5.121   1.033   1.654
 5063SOL    HW216077   5.115   0.902   1.577
 5064SOL     OW16078   4.543   0.571   0.365
 5064SOL    HW116079   4.549   0.499   0.303
 5064SOL    HW216080   4.465   0.620   0.337
 5065SOL     OW16081   3.967   1.551   1.728
 5065SOL    HW116082   3.945   1.615   1.795
 5065SOL    HW216083   3.969   1.468   1.774
 5066SOL     OW16084   4.421   0.453   1.261
 5066SOL    HW116085   4.371   0.378   1.227
 5066SOL    HW216086   4.422   0.516   1.189
 5067SOL     OW16087   4.645   1.680   1.469
 5067SOL    HW116088   4.623   1.647   1.381
 5067SOL    HW216089   4.646   1.775   1.459
 5068SOL     OW16090   4.192   0.492   0.177
 5068SOL    HW116091   4.259   0.558   0.197
 5068SOL    HW216092   4.109   0.538   0.193
 5069SOL     OW16093   3.870   1.140   1.472
 5069SOL    HW116094   3.872   1.089   1.553
 5069SOL    HW216095   3.887   1.077   1.402
 5070SOL     OW16096   5.054   1.050   1.225
 5070SOL    HW116097   5.075   0.984   1.158
 5070SOL    HW216098   4.982   1.100   1.187
 5071SOL     OW16099   5.024   0.869   0.319
 5071SOL    HW116100   4.946   0.825   0.353
 5071SOL    HW216101   5.022   0.850   0.225
 5072SOL     OW16102   4.960   1.731   1.122
 5072SOL    HW116103   5.045   1.751   1.084
 5072SOL    HW216104   4.960   1.636   1.131
 5073SOL     OW16105   3.808   1.267   1.012
 5073SOL    HW116106   3.793   1.279   1.106
 5073SOL    HW216107   3.735   1.212   0.984
 5074SOL     OW16108   4.401   1.665   1.728
 5074SOL    HW116109   4.349   1.745   1.722
 5074SOL    HW216110   4.470   1.675   1.662
 5075SOL     OW16111   4.614   0.085   0.142
 5075SOL    HW116112   4.661   0.074   0.059
 5075SOL    HW216113   4.630   0.002   0.188
 5076SOL     OW16114   5.108   1.571   0.478
 5076SOL    HW116115   5.162   1.613   0.411
 5076SOL    HW216116   5.060   1.642   0.519
 5077SOL     OW16117   3.860   1.797   1.843
 5077SOL    HW116118   3.809   1.731   1.891
 5077SOL    HW216119   3.908   1.844   1.911
 5078SOL     OW16120   5.016   0.920   0.673
 5078SOL    HW116121   5.093   0.865   0.658
 5078SOL    HW216122   5.035   1.000   0.624
 5079SOL     OW16123   4.538   1.273   1.430
 5079SOL    HW116124   4.510   1.313   1.513
 5079SOL    HW216125   4.469   1.295   1.368
 5080SOL     OW16126   4.400   1.620   0.157
 5080SOL    HW116127   4.407   1.627   0.061
 5080SOL    HW216128   4.340   1.548   0.172
 5081SOL     OW16129   3.986   0.329   0.720
 5081SOL    HW116130   3.898   0.360   0.698
 5081SOL    HW216131   3.984   0.317   0.814
 5082SOL     OW16132   4.860   1.580   0.045
 5082SOL    HW116133   4.900   1.494   0.061
 5082SOL    HW216134   4.898   1.609   8.043
 5083SOL     OW16135   4.547   1.006   1.373
 5083SOL    HW116136   4.592   1.000   1.288
 5083SOL    HW216137   4.548   1.099   1.394
 5084SOL     OW16138   4.643   0.914   0.300
 5084SOL    HW116139   4.697   0.938   0.224
 5084SOL    HW216140   4.690   0.841   0.340
 5085SOL     OW16141   4.093   1.303   1.492
 5085SOL    HW116142   4.080   1.380   1.437
 5085SOL    HW216143   4.016   1.248   1.475
 5086SOL     OW16144   4.776   1.107   0.707
 5086SOL    HW116145   4.705   1.056   0.747
 5086SOL    HW216146   4.833   1.041   0.667
 5087SOL     OW16147   4.738   0.242   0.971
 5087SOL    HW116148   4.719   0.197   0.889
 5087SOL    HW216149   4.733   0.174   1.038
 5088SOL     OW16150   4.326   1.487   0.480
 5088SOL    HW116151   4.370   1.437   0.411
 5088SOL    HW216152   4.258   1.536   0.434
 5089SOL     OW16153   3.991   1.320   0.293
 5089SOL    HW116154   3.904   1.331   0.253
 5089SOL    HW216155   3.984   1.365   0.377
 5090SOL     OW16156   3.837   1.022   1.719
 5090SOL    HW116157   3.760   0.998   1.772
 5090SOL    HW216158   3.911   0.984   1.766
 5091SOL     OW16159   4.396   0.212   1.489
 5091SOL    HW116160   4.478   0.192   1.446
 5091SOL    HW216161   4.422   0.260   1.568
 5092SOL     OW16162   3.793   0.361   0.034
 5092SOL    HW116163   3.720   0.299   0.023
 5092SOL    HW216164   3.806   0.397   8.026
 5093SOL     OW16165   5.163   0.860   1.404
 5093SOL    HW116166   5.110   0.915   1.347
 5093SOL    HW216167   5.252   0.869   1.369
 5094SOL     OW16168   3.792   0.165   0.314
 5094SOL    HW116169   3.799   0.253   0.276
 5094SOL    HW216170   3.877   0.125   0.296
 5095SOL     OW16171   4.914   1.315   0.120
 5095SOL    HW116172   4.818   1.314   0.114
 5095SOL    HW216173   4.932   1.321   0.213
 5096SOL     OW16174   4.343   0.831   1.433
 5096SOL    HW116175   4.399   0.907   1.418
 5096SOL    HW216176   4.404   0.757   1.441
 5097SOL     OW16177   4.440   0.571   1.703
 5097SOL    HW116178   4.480   0.633   1.764
 5097SOL    HW216179   4.470   0.485   1.733
 5098SOL     OW16180   5.182   1.204   1.632
 5098SOL    HW116181   5.173   1.217   1.727
 5098SOL    HW216182   5.276   1.212   1.616
 5099SOL     OW16183   4.103   1.739   1.565
 5099SOL    HW116184   4.018   1.781   1.551
 5099SOL    HW216185   4.083   1.656   1.606
 5100SOL     OW16186   4.936   0.332   0.472
 5100SOL    HW116187   4.990   0.254   0.457
 5100SOL    HW216188   4.974   0.373   0.549
 5101SOL     OW16189   4.313   0.738   0.669
 5101SOL    HW116190   4.352   0.824   0.654
 5101SOL    HW216191   4.244   0.731   0.603
 5102SOL     OW16192   4.620   1.369   0.033
 5102SOL    HW116193   4.555   1.364   0.103
 5102SOL    HW216194   4.615   1.460   0.004
 5103SOL     OW16195   4.384   1.792   0.945
 5103SOL    HW116196   4.365   1.882   0.921
 5103SOL    HW216197   4.479   1.785   0.938
 5104SOL     OW16198   4.591   0.967   0.856
 5104SOL    HW116199   4.641   0.895   0.895
 5104SOL    HW216200   4.557   1.015   0.930
 5105SOL     OW16201   4.801   0.974   0.086
 5105SOL    HW116202   4.790   1.037   0.015
 5105SOL    HW216203   4.883   0.929   0.066
 5106SOL     OW16204   3.949   1.303   1.856
 5106SOL    HW116205   3.882   1.242   1.827
 5106SOL    HW216206   3.931   1.315   1.949
 5107SOL     OW16207   3.809   1.233   0.665
 5107SOL    HW116208   3.812   1.184   0.747
 5107SOL    HW216209   3.881   1.197   0.612
 5108SOL     OW16210   4.405   1.402   1.628
 5108SOL    HW116211   4.325   1.360   1.659
 5108SOL    HW216212   4.401   1.490   1.664
 5109SOL     OW16213   4.150   0.438   0.523
 5109SOL    HW116214   4.186   0.366   0.471
 5109SOL    HW216215   4.106   0.396   0.597
 5110SOL     OW16216   0.094   1.522   1.100
 5110SOL    HW116217   0.027   1.497   1.036
 5110SOL    HW216218   0.103   1.446   1.157
 5111SOL     OW16219   4.052   0.556   1.290
 5111SOL    HW116220   4.109   0.501   1.346
 5111SOL    HW216221   4.073   0.528   1.201
 5112SOL     OW16222   4.551   1.578   0.677
 5112SOL    HW116223   4.540   1.630   0.598
 5112SOL    HW216224   4.474   1.521   0.680
 5113SOL     OW16225   5.150   0.216   1.121
 5113SOL    HW116226   5.158   0.133   1.167
 5113SOL    HW216227   5.105   0.274   1.181
 5114SOL     OW16228   4.725   0.020   1.140
 5114SOL    HW116229   4.674   5.252   1.097
 5114SOL    HW216230   4.812   5.283   1.151
 5115SOL     OW16231   4.494   1.328   0.308
 5115SOL    HW116232   4.462   1.238   0.322
 5115SOL    HW216233   4.576   1.332   0.357
 5116SOL     OW16234   4.344   1.557   1.285
 5116SOL    HW116235   4.346   1.639   1.334
 5116SOL    HW216236   4.431   1.549   1.247
 5117SOL     OW16237   5.074   5.295   0.203
 5117SOL    HW116238   5.138   0.009   0.133
 5117SOL    HW216239   5.002   0.054   0.181
 5118SOL     OW16240   5.033   0.465   0.691
 5118SOL    HW116241   4.974   0.540   0.693
 5118SOL    HW216242   5.019   0.421   0.775
 5119SOL     OW16243   5.296   0.214   0.882
 5119SOL    HW116244   5.237   0.216   0.958
 5119SOL    HW216245   5.276   0.295   0.835
 5120SOL     OW16246   3.767   1.067   0.304
 5120SOL    HW116247   3.863   1.066   0.306
 5120SOL    HW216248   3.741   0.984   0.344
 5121SOL     OW16249   4.604   1.652   0.350
 5121SOL    HW116250   4.537   1.636   0.283
 5121SOL    HW216251   4.573   1.729   0.398
 5122SOL     OW16252   3.952   0.626   1.985
 5122SOL    HW116253   3.864   0.622   2.020
 5122SOL    HW216254   3.943   0.599   1.893
 5123SOL     OW16255   3.942   0.284   2.855
 5123SOL    HW116256   3.971   0.249   2.939
 5123SOL    HW216257   3.857   0.243   2.840
 5124SOL     OW16258   3.728   0.386   2.500
 5124SOL    HW116259   3.644   0.407   2.540
 5124SOL    HW216260   3.711   0.308   2.447
 5125SOL     OW16261   4.291   1.287   3.037
 5125SOL    HW116262   4.203   1.291   2.998
 5125SOL    HW216263   4.306   1.376   3.070
 5126SOL     OW16264   5.285   1.535   2.568
 5126SOL    HW116265   5.246   1.492   2.644
 5126SOL    HW216266   5.220   1.527   2.498
 5127SOL     OW16267   4.859   0.698   2.563
 5127SOL    HW116268   4.909   0.780   2.553
 5127SOL    HW216269   4.809   0.710   2.644
 5128SOL     OW16270   4.480   1.143   2.903
 5128SOL    HW116271   4.411   1.177   2.959
 5128SOL    HW216272   4.514   1.220   2.858
 5129SOL     OW16273   4.592   0.777   3.685
 5129SOL    HW116274   4.574   0.849   3.746
 5129SOL    HW216275   4.614   0.820   3.603
 5130SOL     OW16276   4.411   1.004   2.509
 5130SOL    HW116277   4.475   0.991   2.579
 5130SOL    HW216278   4.341   1.055   2.549
 5131SOL     OW16279   4.435   1.151   3.674
 5131SOL    HW116280   4.482   1.230   3.701
 5131SOL    HW216281   4.352   1.184   3.639
 5132SOL     OW16282   4.054   1.426   2.930
 5132SOL    HW116283   3.982   1.388   2.879
 5132SOL    HW216284   4.105   1.476   2.866
 5133SOL     OW16285   5.161   1.481   3.213
 5133SOL    HW116286   5.206   1.561   3.238
 5133SOL    HW216287   5.106   1.460   3.289
 5134SOL     OW16288   4.168   0.398   3.349
 5134SOL    HW116289   4.243   0.340   3.347
 5134SOL    HW216290   4.093   0.341   3.364
 5135SOL     OW16291   3.943   1.714   2.334
 5135SOL    HW116292   3.965   1.790   2.388
 5135SOL    HW216293   4.016   1.706   2.273
 5136SOL     OW16294   4.860   1.340   3.556
 5136SOL    HW116295   4.898   1.336   3.643
 5136SOL    HW216296   4.807   1.260   3.549
 5137SOL     OW16297   3.954   1.441   2.397
 5137SOL    HW116298   3.937   1.535   2.400
 5137SOL    HW216299   3.894   1.403   2.461
 5138SOL     OW16300   3.981   1.090   2.753
 5138SOL    HW116301   3.978   1.004   2.794
 5138SOL    HW216302   3.923   1.144   2.807
 5139SOL     OW16303   4.334   1.793   3.288
 5139SOL    HW116304   4.253   1.774   3.337
 5139SOL    HW216305   4.358   1.881   3.315
 5140SOL     OW16306   4.310   0.981   1.996
 5140SOL    HW116307   4.355   1.031   1.928
 5140SOL    HW216308   4.349   1.012   2.078
 5141SOL     OW16309   5.251   0.144   3.341
 5141SOL    HW116310   5.298   0.225   3.321
 5141SOL    HW216311   5.276   0.123   3.431
 5142SOL     OW16312   3.838   0.653   2.421
 5142SOL    HW116313   3.811   0.564   2.442
 5142SOL    HW216314   3.831   0.701   2.504
 5143SOL     OW16315   3.756   1.595   1.986
 5143SOL    HW116316   3.738   1.503   2.006
 5143SOL    HW216317   3.732   1.642   2.066
 5144SOL     OW16318   0.112   0.940   2.438
 5144SOL    HW116319   0.200   0.904   2.454
 5144SOL    HW216320   0.128   1.025   2.397
 5145SOL     OW16321   3.847   0.744   3.446
 5145SOL    HW116322   3.939   0.769   3.455
 5145SOL    HW216323   3.798   0.826   3.455
 5146SOL     OW16324   4.337   1.385   2.597
 5146SOL    HW116325   4.291   1.302   2.606
 5146SOL    HW216326   4.321   1.412   2.507
 5147SOL     OW16327   5.007   1.237   3.287
 5147SOL    HW116328   5.040   1.170   3.227
 5147SOL    HW216329   5.062   1.229   3.365
 5148SOL     OW16330   4.535   0.026   2.390
 5148SOL    HW116331   4.563   0.114   2.365
 5148SOL    HW216332   4.439   0.029   2.384
 5149SOL     OW16333   3.914   0.967   3.132
 5149SOL    HW116334   3.999   0.925   3.118
 5149SOL    HW216335   3.852   0.911   3.086
 5150SOL     OW16336   4.897   1.807   3.485
 5150SOL    HW116337   4.918   1.866   3.413
 5150SOL    HW216338   4.919   1.720   3.453
 5151SOL     OW16339   4.049   0.266   3.672
 5151SOL    HW116340   4.102   0.341   3.701
 5151SOL    HW216341   3.964   0.281   3.712
 5152SOL     OW16342   5.169   1.435   2.799
 5152SOL    HW116343   5.106   1.441   2.871
 5152SOL    HW216344   5.162   1.344   2.770
 5153SOL     OW16345   4.319   0.722   2.128
 5153SOL    HW116346   4.324   0.803   2.078
 5153SOL    HW216347   4.253   0.739   2.196
 5154SOL     OW16348   4.997   0.329   2.780
 5154SOL    HW116349   4.907   0.305   2.804
 5154SOL    HW216350   5.050   0.301   2.855
 5155SOL     OW16351   4.518   0.618   3.312
 5155SOL    HW116352   4.490   0.596   3.401
 5155SOL    HW216353   4.476   0.552   3.257
 5156SOL     OW16354   5.117   0.486   3.541
 5156SOL    HW116355   5.118   0.521   3.631
 5156SOL    HW216356   5.183   0.417   3.542
 5157SOL     OW16357   4.679   0.888   3.444
 5157SOL    HW116358   4.732   0.816   3.409
 5157SOL    HW216359   4.631   0.922   3.369
 5158SOL     OW16360   4.718   0.422   3.093
 5158SOL    HW116361   4.634   0.437   3.136
 5158SOL    HW216362   4.697   0.367   3.018
 5159SOL     OW16363   4.775   0.697   2.288
 5159SOL    HW116364   4.790   0.691   2.382
 5159SOL    HW216365   4.692   0.652   2.273
 5160SOL     OW16366   3.812   0.821   2.639
 5160SOL    HW116367   3.893   0.813   2.689
 5160SOL    HW216368   3.770   0.899   2.673
 5161SOL     OW16369   3.853   1.842   3.439
 5161SOL    HW116370   3.854   1.823   3.533
 5161SOL    HW216371   3.760   1.848   3.417
 5162SOL     OW16372   4.598   0.362   2.052
 5162SOL    HW116373   4.635   0.419   1.984
 5162SOL    HW216374   4.650   0.282   2.047
 5163SOL     OW16375   5.092   1.146   2.409
 5163SOL    HW116376   5.180   1.147   2.371
 5163SOL    HW216377   5.041   1.206   2.354
 5164SOL     OW16378   4.250   0.202   2.745
 5164SOL    HW116379   4.272   0.216   2.836
 5164SOL    HW216380   4.272   0.284   2.701
 5165SOL     OW16381   4.730   1.443   2.335
 5165SOL    HW116382   4.692   1.516   2.285
 5165SOL    HW216383   4.713   1.465   2.426
 5166SOL     OW16384   4.078   1.809   2.725
 5166SOL    HW116385   4.122   1.724   2.732
 5166SOL    HW216386   4.147   1.873   2.742
 5167SOL     OW16387   4.940   1.542   3.381
 5167SOL    HW116388   4.927   1.469   3.441
 5167SOL    HW216389   4.883   1.523   3.307
 5168SOL     OW16390   4.044   0.957   2.112
 5168SOL    HW116391   4.126   0.976   2.066
 5168SOL    HW216392   4.013   0.875   2.073
 5169SOL     OW16393   4.190   1.264   3.600
 5169SOL    HW116394   4.163   1.269   3.508
 5169SOL    HW216395   4.108   1.263   3.649
 5170SOL     OW16396   4.832   1.775   2.099
 5170SOL    HW116397   4.760   1.730   2.143
 5170SOL    HW216398   4.857   1.716   2.027
 5171SOL     OW16399   3.921   0.278   3.364
 5171SOL    HW116400   3.842   0.331   3.361
 5171SOL    HW216401   3.913   0.229   3.447
 5172SOL     OW16402   4.190   1.737   2.183
 5172SOL    HW116403   4.232   1.794   2.247
 5172SOL    HW216404   4.262   1.707   2.127
 5173SOL     OW16405   5.099   0.099   2.282
 5173SOL    HW116406   5.084   0.082   2.189
 5173SOL    HW216407   5.192   0.118   2.289
 5174SOL     OW16408   3.975   1.791   3.094
 5174SOL    HW116409   4.029   1.728   3.141
 5174SOL    HW216410   3.972   1.757   3.004
 5175SOL     OW16411   4.662   1.698   2.761
 5175SOL    HW116412   4.741   1.648   2.779
 5175SOL    HW216413   4.617   1.649   2.692
 5176SOL     OW16414   4.116   0.696   2.338
 5176SOL    HW116415   4.138   0.603   2.349
 5176SOL    HW216416   4.023   0.701   2.356
 5177SOL     OW16417   4.346   0.133   1.970
 5177SOL    HW116418   4.418   0.073   1.988
 5177SOL    HW216419   4.297   0.091   1.899
 5178SOL     OW16420   4.508   0.311   3.629
 5178SOL    HW116421   4.571   0.239   3.628
 5178SOL    HW216422   4.459   0.299   3.710
 5179SOL     OW16423   4.599   1.521   3.056
 5179SOL    HW116424   4.585   1.486   2.968
 5179SOL    HW216425   4.670   1.467   3.092
 5180SOL     OW16426   5.060   0.591   3.293
 5180SOL    HW116427   5.090   0.561   3.379
 5180SOL    HW216428   5.099   0.678   3.284
 5181SOL     OW16429   4.538   1.395   2.801
 5181SOL    HW116430   4.623   1.384   2.757
 5181SOL    HW216431   4.474   1.396   2.730
 5182SOL     OW16432   4.651   0.511   2.765
 5182SOL    HW116433   4.628   0.501   2.672
 5182SOL    HW216434   4.682   0.424   2.791
 5183SOL     OW16435   4.266   0.062   2.371
 5183SOL    HW116436   4.180   0.061   2.413
 5183SOL    HW216437   4.260   0.132   2.305
 5184SOL     OW16438   5.136   1.180   1.906
 5184SOL    HW116439   5.146   1.102   1.961
 5184SOL    HW216440   5.049   1.213   1.926
 5185SOL     OW16441   4.026   0.062   2.053
 5185SOL    HW116442   4.085   0.131   2.022
 5185SOL    HW216443   4.082   5.285   2.063
 5186SOL     OW16444   4.661   0.261   2.325
 5186SOL    HW116445   4.632   0.295   2.240
 5186SOL    HW216446   4.756   0.276   2.325
 5187SOL     OW16447   4.802   0.681   3.323
 5187SOL    HW116448   4.733   0.615   3.325
 5187SOL    HW216449   4.883   0.630   3.312
 5188SOL     OW16450   4.941   1.571   2.656
 5188SOL    HW116451   4.963   1.638   2.591
 5188SOL    HW216452   5.021   1.560   2.707
 5189SOL     OW16453   4.193   1.149   2.596
 5189SOL    HW116454   4.123   1.130   2.659
 5189SOL    HW216455   4.153   1.133   2.510
 5190SOL     OW16456   4.996   1.794   2.467
 5190SOL    HW116457   5.038   1.855   2.407
 5190SOL    HW216458   4.929   1.846   2.512
 5191SOL     OW16459   4.753   0.551   1.881
 5191SOL    HW116460   4.705   0.632   1.864
 5191SOL    HW216461   4.807   0.570   1.958
 5192SOL     OW16462   3.803   0.553   3.255
 5192SOL    HW116463   3.894   0.553   3.227
 5192SOL    HW216464   3.797   0.624   3.319
 5193SOL     OW16465   4.280   0.238   3.020
 5193SOL    HW116466   4.312   0.152   3.049
 5193SOL    HW216467   4.188   0.239   3.046
 5194SOL     OW16468   4.593   0.464   2.502
 5194SOL    HW116469   4.544   0.516   2.439
 5194SOL    HW216470   4.613   0.383   2.456
 5195SOL     OW16471   4.699   0.063   2.625
 5195SOL    HW116472   4.635   0.054   2.554
 5195SOL    HW216473   4.714   5.273   2.655
 5196SOL     OW16474   5.157   1.176   2.713
 5196SOL    HW116475   5.101   1.099   2.726
 5196SOL    HW216476   5.169   1.181   2.618
 5197SOL     OW16477   4.215   1.418   2.019
 5197SOL    HW116478   4.140   1.389   2.071
 5197SOL    HW216479   4.200   1.379   1.932
 5198SOL     OW16480   5.128   0.559   1.943
 5198SOL    HW116481   5.052   0.551   2.001
 5198SOL    HW216482   5.202   0.531   1.997
 5199SOL     OW16483   4.248   0.265   2.184
 5199SOL    HW116484   4.291   0.215   2.115
 5199SOL    HW216485   4.227   0.349   2.143
 5200SOL     OW16486   4.781   1.354   3.195
 5200SOL    HW116487   4.706   1.323   3.246
 5200SOL    HW216488   4.856   1.311   3.236
 5201SOL     OW16489   0.006   1.604   3.479
 5201SOL    HW116490   0.040   1.609   3.389
 5201SOL    HW216491   0.083   1.584   3.532
 5202SOL     OW16492   4.853   1.203   2.969
 5202SOL    HW116493   4.791   1.239   3.033
 5202SOL    HW216494   4.819   1.232   2.884
 5203SOL     OW16495   4.625   0.104   3.249
 5203SOL    HW116496   4.658   0.070   3.166
 5203SOL    HW216497   4.700   0.148   3.289
 5204SOL     OW16498   4.708   1.113   3.587
 5204SOL    HW116499   4.617   1.130   3.607
 5204SOL    HW216500   4.706   1.036   3.530
 5205SOL     OW16501   4.432   1.062   2.233
 5205SOL    HW116502   4.418   1.045   2.326
 5205SOL    HW216503   4.508   1.008   2.210
 5206SOL     OW16504   4.142   0.815   3.114
 5206SOL    HW116505   4.211   0.824   3.180
 5206SOL    HW216506   4.107   0.727   3.127
 5207SOL     OW16507   4.991   0.380   3.132
 5207SOL    HW116508   5.024   0.458   3.176
 5207SOL    HW216509   4.901   0.402   3.109
 5208SOL     OW16510   3.795   1.573   3.213
 5208SOL    HW116511   3.768   1.647   3.158
 5208SOL    HW216512   3.890   1.575   3.211
 5209SOL     OW16513   4.073   1.109   2.353
 5209SOL    HW116514   4.078   1.182   2.291
 5209SOL    HW216515   4.071   1.031   2.297
 5210SOL     OW16516   4.278   0.538   2.723
 5210SOL    HW116517   4.293   0.596   2.648
 5210SOL    HW216518   4.343   0.564   2.787
 5211SOL     OW16519   4.972   1.349   2.250
 5211SOL    HW116520   5.026   1.422   2.280
 5211SOL    HW216521   4.884   1.369   2.283
 5212SOL     OW16522   4.994   1.456   3.001
 5212SOL    HW116523   5.049   1.458   3.080
 5212SOL    HW216524   4.940   1.378   3.012
 5213SOL     OW16525   4.070   1.526   3.178
 5213SOL    HW116526   4.058   1.484   3.092
 5213SOL    HW216527   4.165   1.539   3.185
 5214SOL     OW16528   4.138   0.744   3.464
 5214SOL    HW116529   4.200   0.789   3.406
 5214SOL    HW216530   4.179   0.660   3.481
 5215SOL     OW16531   4.753   0.117   3.620
 5215SOL    HW116532   4.795   0.199   3.592
 5215SOL    HW216533   4.793   0.050   3.564
 5216SOL     OW16534   4.203   0.058   3.599
 5216SOL    HW116535   4.145   5.293   3.559
 5216SOL    HW216536   4.146   0.131   3.621
 5217SOL     OW16537   4.308   0.873   2.893
 5217SOL    HW116538   4.338   0.964   2.892
 5217SOL    HW216539   4.251   0.867   2.970
 5218SOL     OW16540   5.086   0.857   2.899
 5218SOL    HW116541   5.008   0.840   2.845
 5218SOL    HW216542   5.137   0.777   2.894
 5219SOL     OW16543   4.930   0.531   2.128
 5219SOL    HW116544   4.934   0.451   2.180
 5219SOL    HW216545   4.885   0.594   2.185
 5220SOL     OW16546   4.020   0.204   3.109
 5220SOL    HW116547   3.981   0.243   3.188
 5220SOL    HW216548   4.020   0.110   3.127
 5221SOL     OW16549   3.769   1.311   3.138
 5221SOL    HW116550   3.803   1.256   3.209
 5221SOL    HW216551   3.777   1.400   3.171
 5222SOL     OW16552   4.450   0.632   2.922
 5222SOL    HW116553   4.523   0.615   2.863
 5222SOL    HW216554   4.421   0.720   2.899
 5223SOL     OW16555   4.027   0.072   2.513
 5223SOL    HW116556   4.010   0.166   2.521
 5223SOL    HW216557   4.070   0.049   2.595
 5224SOL     OW16558   0.028   0.407   2.227
 5224SOL    HW116559   0.059   0.345   2.293
 5224SOL    HW216560   0.005   0.486   2.276
 5225SOL     OW16561   4.752   0.759   2.822
 5225SOL    HW116562   4.749   0.777   2.917
 5225SOL    HW216563   4.725   0.667   2.815
 5226SOL     OW16564   4.698   1.561   3.576
 5226SOL    HW116565   4.687   1.609   3.493
 5226SOL    HW216566   4.746   1.482   3.551
 5227SOL     OW16567   4.077   0.916   3.670
 5227SOL    HW116568   4.159   0.935   3.716
 5227SOL    HW216569   4.101   0.853   3.602
 5228SOL     OW16570   5.028   0.830   1.899
 5228SOL    HW116571   5.063   0.740   1.899
 5228SOL    HW216572   5.054   0.865   1.814
 5229SOL     OW16573   4.789   1.334   2.717
 5229SOL    HW116574   4.793   1.262   2.654
 5229SOL    HW216575   4.847   1.401   2.681
 5230SOL     OW16576   4.033   0.809   2.810
 5230SOL    HW116577   4.126   0.830   2.803
 5230SOL    HW216578   4.031   0.719   2.842
 5231SOL     OW16579   4.056   0.526   2.874
 5231SOL    HW116580   4.020   0.439   2.859
 5231SOL    HW216581   4.133   0.530   2.817
 5232SOL     OW16582   4.861   0.377   3.552
 5232SOL    HW116583   4.812   0.432   3.613
 5232SOL    HW216584   4.946   0.422   3.543
 5233SOL     OW16585   4.847   0.233   3.321
 5233SOL    HW116586   4.859   0.283   3.401
 5233SOL    HW216587   4.912   0.270   3.260
 5234SOL     OW16588   3.729   1.321   2.057
 5234SOL    HW116589   3.642   1.335   2.019
 5234SOL    HW216590   3.726   1.232   2.091
 5235SOL     OW16591   3.814   1.787   2.800
 5235SOL    HW116592   3.784   1.707   2.756
 5235SOL    HW216593   3.904   1.799   2.770
 5236SOL     OW16594   4.221   1.574   2.768
 5236SOL    HW116595   4.289   1.636   2.792
 5236SOL    HW216596   4.265   1.510   2.711
 5237SOL     OW16597   4.707   0.794   3.089
 5237SOL    HW116598   4.762   0.769   3.164
 5237SOL    HW216599   4.622   0.754   3.108
 5238SOL     OW16600   3.759   0.544   2.979
 5238SOL    HW116601   3.839   0.529   2.928
 5238SOL    HW216602   3.789   0.548   3.070
 5239SOL     OW16603   3.911   0.522   3.589
 5239SOL    HW116604   3.974   0.486   3.526
 5239SOL    HW216605   3.871   0.596   3.543
 5240SOL     OW16606   5.112   0.938   3.528
 5240SOL    HW116607   5.121   1.033   3.516
 5240SOL    HW216608   5.115   0.902   3.439
 5241SOL     OW16609   4.539   0.573   2.222
 5241SOL    HW116610   4.541   0.498   2.163
 5241SOL    HW216611   4.464   0.625   2.192
 5242SOL     OW16612   3.968   1.551   3.590
 5242SOL    HW116613   3.945   1.616   3.656
 5242SOL    HW216614   3.969   1.468   3.637
 5243SOL     OW16615   4.421   0.452   3.123
 5243SOL    HW116616   4.371   0.378   3.089
 5243SOL    HW216617   4.422   0.516   3.051
 5244SOL     OW16618   4.645   1.680   3.330
 5244SOL    HW116619   4.623   1.648   3.243
 5244SOL    HW216620   4.646   1.775   3.321
 5245SOL     OW16621   4.187   0.493   2.046
 5245SOL    HW116622   4.247   0.564   2.069
 5245SOL    HW216623   4.102   0.535   2.036
 5246SOL     OW16624   3.870   1.140   3.334
 5246SOL    HW116625   3.873   1.089   3.414
 5246SOL    HW216626   3.887   1.077   3.264
 5247SOL     OW16627   5.054   1.049   3.086
 5247SOL    HW116628   5.075   0.985   3.019
 5247SOL    HW216629   4.982   1.100   3.049
 5248SOL     OW16630   5.035   0.858   2.178
 5248SOL    HW116631   4.953   0.827   2.216
 5248SOL    HW216632   5.023   0.851   2.084
 5249SOL     OW16633   4.960   1.731   2.983
 5249SOL    HW116634   5.046   1.752   2.946
 5249SOL    HW216635   4.960   1.636   2.993
 5250SOL     OW16636   3.807   1.268   2.874
 5250SOL    HW116637   3.793   1.279   2.968
 5250SOL    HW216638   3.735   1.211   2.845
 5251SOL     OW16639   4.401   1.665   3.590
 5251SOL    HW116640   4.349   1.745   3.585
 5251SOL    HW216641   4.469   1.676   3.524
 5252SOL     OW16642   5.111   1.570   2.342
 5252SOL    HW116643   5.181   1.610   2.291
 5252SOL    HW216644   5.061   1.644   2.377
 5253SOL     OW16645   3.861   1.795   3.705
 5253SOL    HW116646   3.810   1.731   3.754
 5253SOL    HW216647   3.908   1.845   3.772
 5254SOL     OW16648   5.016   0.920   2.534
 5254SOL    HW116649   5.093   0.865   2.521
 5254SOL    HW216650   5.035   1.000   2.486
 5255SOL     OW16651   4.538   1.273   3.292
 5255SOL    HW116652   4.510   1.313   3.375
 5255SOL    HW216653   4.469   1.296   3.230
 5256SOL     OW16654   4.395   1.620   2.017
 5256SOL    HW116655   4.406   1.632   1.923
 5256SOL    HW216656   4.340   1.542   2.025
 5257SOL     OW16657   3.986   0.329   2.581
 5257SOL    HW116658   3.898   0.360   2.559
 5257SOL    HW216659   3.984   0.317   2.676
 5258SOL     OW16660   4.908   1.609   1.903
 5258SOL    HW116661   4.920   1.515   1.914
 5258SOL    HW216662   4.854   1.618   1.825
 5259SOL     OW16663   4.548   1.006   3.235
 5259SOL    HW116664   4.591   1.001   3.150
 5259SOL    HW216665   4.547   1.099   3.256
 5260SOL     OW16666   4.641   0.912   2.152
 5260SOL    HW116667   4.702   0.943   2.086
 5260SOL    HW216668   4.687   0.840   2.196
 5261SOL     OW16669   4.093   1.302   3.354
 5261SOL    HW116670   4.080   1.379   3.299
 5261SOL    HW216671   4.016   1.248   3.337
 5262SOL     OW16672   4.776   1.107   2.569
 5262SOL    HW116673   4.705   1.057   2.609
 5262SOL    HW216674   4.833   1.040   2.531
 5263SOL     OW16675   4.738   0.242   2.833
 5263SOL    HW116676   4.720   0.197   2.750
 5263SOL    HW216677   4.733   0.174   2.899
 5264SOL     OW16678   4.326   1.488   2.344
 5264SOL    HW116679   4.371   1.438   2.275
 5264SOL    HW216680   4.258   1.536   2.298
 5265SOL     OW16681   3.983   1.345   2.150
 5265SOL    HW116682   3.890   1.343   2.128
 5265SOL    HW216683   3.986   1.382   2.238
 5266SOL     OW16684   3.836   1.022   3.581
 5266SOL    HW116685   3.760   0.998   3.634
 5266SOL    HW216686   3.911   0.984   3.628
 5267SOL     OW16687   4.396   0.212   3.351
 5267SOL    HW116688   4.479   0.192   3.308
 5267SOL    HW216689   4.422   0.260   3.430
 5268SOL     OW16690   3.801   0.340   1.904
 5268SOL    HW116691   3.718   0.306   1.870
 5268SOL    HW216692   3.822   0.413   1.845
 5269SOL     OW16693   5.163   0.860   3.265
 5269SOL    HW116694   5.110   0.916   3.209
 5269SOL    HW216695   5.252   0.870   3.232
 5270SOL     OW16696   3.796   0.167   2.177
 5270SOL    HW116697   3.797   0.250   2.129
 5270SOL    HW216698   3.881   0.127   2.158
 5271SOL     OW16699   4.907   1.329   1.976
 5271SOL    HW116700   4.813   1.311   1.977
 5271SOL    HW216701   4.931   1.336   2.069
 5272SOL     OW16702   4.343   0.831   3.295
 5272SOL    HW116703   4.399   0.907   3.280
 5272SOL    HW216704   4.404   0.757   3.303
 5273SOL     OW16705   4.440   0.571   3.565
 5273SOL    HW116706   4.480   0.633   3.626
 5273SOL    HW216707   4.470   0.485   3.595
 5274SOL     OW16708   5.182   1.204   3.494
 5274SOL    HW116709   5.173   1.217   3.589
 5274SOL    HW216710   5.276   1.212   3.478
 5275SOL     OW16711   4.105   1.738   3.426
 5275SOL    HW116712   4.019   1.779   3.413
 5275SOL    HW216713   4.085   1.655   3.469
 5276SOL     OW16714   4.941   0.323   2.323
 5276SOL    HW116715   4.997   0.246   2.316
 5276SOL    HW216716   4.972   0.368   2.402
 5277SOL     OW16717   4.314   0.738   2.531
 5277SOL    HW116718   4.353   0.824   2.515
 5277SOL    HW216719   4.246   0.730   2.465
 5278SOL     OW16720   4.591   1.366   1.897
 5278SOL    HW116721   4.549   1.396   1.978
 5278SOL    HW216722   4.607   1.446   1.847
 5279SOL     OW16723   4.384   1.791   2.806
 5279SOL    HW116724   4.364   1.882   2.784
 5279SOL    HW216725   4.479   1.785   2.800
 5280SOL     OW16726   4.592   0.967   2.717
 5280SOL    HW116727   4.641   0.895   2.757
 5280SOL    HW216728   4.557   1.016   2.792
 5281SOL     OW16729   4.807   0.988   1.952
 5281SOL    HW116730   4.782   1.037   1.874
 5281SOL    HW216731   4.881   0.934   1.924
 5282SOL     OW16732   3.949   1.303   3.718
 5282SOL    HW116733   3.881   1.242   3.689
 5282SOL    HW216734   3.932   1.315   3.811
 5283SOL     OW16735   3.808   1.234   2.527
 5283SOL    HW116736   3.813   1.185   2.609
 5283SOL    HW216737   3.876   1.196   2.471
 5284SOL     OW16738   4.405   1.402   3.490
 5284SOL    HW116739   4.325   1.360   3.521
 5284SOL    HW216740   4.401   1.490   3.526
 5285SOL     OW16741   4.154   0.436   2.386
 5285SOL    HW116742   4.186   0.363   2.332
 5285SOL    HW216743   4.107   0.393   2.458
 5286SOL     OW16744   0.095   1.521   2.961
 5286SOL    HW116745   0.028   1.496   2.898
 5286SOL    HW216746   0.102   1.445   3.019
 5287SOL     OW16747   4.052   0.556   3.152
 5287SOL    HW116748   4.108   0.501   3.208
 5287SOL    HW216749   4.073   0.528   3.063
 5288SOL     OW16750   4.552   1.577   2.539
 5288SOL    HW116751   4.540   1.631   2.461
 5288SOL    HW216752   4.474   1.521   2.541
 5289SOL     OW16753   5.150   0.216   2.982
 5289SOL    HW116754   5.159   0.133   3.030
 5289SOL    HW216755   5.104   0.274   3.043
 5290SOL     OW16756   4.725   0.021   3.002
 5290SOL    HW116757   4.674   5.251   2.960
 5290SOL    HW216758   4.812   5.283   3.013
 5291SOL     OW16759   4.494   1.333   2.177
 5291SOL    HW116760   4.464   1.242   2.183
 5291SOL    HW216761   4.577   1.333   2.225
 5292SOL     OW16762   4.343   1.557   3.147
 5292SOL    HW116763   4.346   1.639   3.196
 5292SOL    HW216764   4.431   1.549   3.109
 5293SOL     OW16765   5.035   0.034   2.022
 5293SOL    HW116766   5.117   0.027   1.972
 5293SOL    HW216767   4.984   5.258   1.995
 5294SOL     OW16768   5.029   0.461   2.548
 5294SOL    HW116769   4.972   0.538   2.552
 5294SOL    HW216770   5.016   0.418   2.632
 5295SOL     OW16771   5.295   0.214   2.745
 5295SOL    HW116772   5.237   0.215   2.820
 5295SOL    HW216773   5.277   0.295   2.698
 5296SOL     OW16774   3.767   1.071   2.168
 5296SOL    HW116775   3.861   1.063   2.150
 5296SOL    HW216776   3.739   0.982   2.191
 5297SOL     OW16777   4.604   1.650   2.208
 5297SOL    HW116778   4.533   1.635   2.145
 5297SOL    HW216779   4.576   1.727   2.257
 5298SOL     OW16780   3.952   0.626   3.847
 5298SOL    HW116781   3.864   0.622   3.882
 5298SOL    HW216782   3.943   0.598   3.755
 5299SOL     OW16783   3.942   0.284   4.717
 5299SOL    HW116784   3.971   0.249   4.801
 5299SOL    HW216785   3.857   0.243   4.702
 5300SOL     OW16786   3.728   0.386   4.362
 5300SOL    HW116787   3.644   0.407   4.402
 5300SOL    HW216788   3.711   0.308   4.309
 5301SOL     OW16789   4.291   1.287   4.899
 5301SOL    HW116790   4.203   1.291   4.861
 5301SOL    HW216791   4.306   1.376   4.932
 5302SOL     OW16792   5.285   1.535   4.430
 5302SOL    HW116793   5.246   1.492   4.506
 5302SOL    HW216794   5.219   1.527   4.361
 5303SOL     OW16795   4.859   0.698   4.425
 5303SOL    HW116796   4.909   0.780   4.415
 5303SOL    HW216797   4.809   0.710   4.506
 5304SOL     OW16798   4.480   1.143   4.765
 5304SOL    HW116799   4.410   1.177   4.821
 5304SOL    HW216800   4.514   1.220   4.720
 5305SOL     OW16801   4.592   0.777   5.547
 5305SOL    HW116802   4.574   0.849   5.608
 5305SOL    HW216803   4.614   0.820   5.465
 5306SOL     OW16804   4.411   1.003   4.371
 5306SOL    HW116805   4.475   0.991   4.441
 5306SOL    HW216806   4.341   1.055   4.411
 5307SOL     OW16807   4.435   1.151   5.536
 5307SOL    HW116808   4.482   1.230   5.563
 5307SOL    HW216809   4.352   1.184   5.501
 5308SOL     OW16810   4.055   1.425   4.792
 5308SOL    HW116811   3.982   1.388   4.741
 5308SOL    HW216812   4.105   1.476   4.728
 5309SOL     OW16813   5.161   1.481   5.075
 5309SOL    HW116814   5.206   1.561   5.100
 5309SOL    HW216815   5.105   1.460   5.150
 5310SOL     OW16816   4.168   0.398   5.210
 5310SOL    HW116817   4.243   0.339   5.209
 5310SOL    HW216818   4.093   0.341   5.226
 5311SOL     OW16819   3.943   1.714   4.196
 5311SOL    HW116820   3.965   1.790   4.250
 5311SOL    HW216821   4.016   1.706   4.134
 5312SOL     OW16822   4.860   1.339   5.418
 5312SOL    HW116823   4.898   1.336   5.505
 5312SOL    HW216824   4.807   1.260   5.411
 5313SOL     OW16825   3.954   1.441   4.259
 5313SOL    HW116826   3.938   1.535   4.262
 5313SOL    HW216827   3.894   1.404   4.323
 5314SOL     OW16828   3.981   1.090   4.615
 5314SOL    HW116829   3.978   1.004   4.656
 5314SOL    HW216830   3.923   1.144   4.669
 5315SOL     OW16831   4.334   1.792   5.152
 5315SOL    HW116832   4.253   1.774   5.199
 5315SOL    HW216833   4.358   1.881   5.178
 5316SOL     OW16834   4.310   0.981   3.858
 5316SOL    HW116835   4.355   1.031   3.790
 5316SOL    HW216836   4.349   1.012   3.940
 5317SOL     OW16837   5.251   0.144   5.203
 5317SOL    HW116838   5.298   0.225   5.183
 5317SOL    HW216839   5.275   0.123   5.293
 5318SOL     OW16840   3.838   0.653   4.283
 5318SOL    HW116841   3.811   0.564   4.304
 5318SOL    HW216842   3.831   0.701   4.366
 5319SOL     OW16843   3.755   1.595   3.848
 5319SOL    HW116844   3.738   1.504   3.869
 5319SOL    HW216845   3.731   1.643   3.928
 5320SOL     OW16846   0.112   0.940   4.299
 5320SOL    HW116847   0.200   0.904   4.316
 5320SOL    HW216848   0.128   1.025   4.260
 5321SOL     OW16849   3.847   0.744   5.308
 5321SOL    HW116850   3.938   0.769   5.317
 5321SOL    HW216851   3.798   0.826   5.317
 5322SOL     OW16852   4.337   1.385   4.459
 5322SOL    HW116853   4.291   1.302   4.469
 5322SOL    HW216854   4.321   1.412   4.369
 5323SOL     OW16855   5.007   1.237   5.149
 5323SOL    HW116856   5.040   1.170   5.089
 5323SOL    HW216857   5.062   1.229   5.227
 5324SOL     OW16858   4.534   0.026   4.252
 5324SOL    HW116859   4.563   0.114   4.227
 5324SOL    HW216860   4.439   0.029   4.246
 5325SOL     OW16861   3.914   0.967   4.994
 5325SOL    HW116862   3.999   0.925   4.980
 5325SOL    HW216863   3.852   0.911   4.948
 5326SOL     OW16864   4.897   1.807   5.347
 5326SOL    HW116865   4.918   1.866   5.275
 5326SOL    HW216866   4.919   1.720   5.315
 5327SOL     OW16867   4.050   0.266   5.534
 5327SOL    HW116868   4.102   0.341   5.563
 5327SOL    HW216869   3.964   0.281   5.574
 5328SOL     OW16870   5.169   1.435   4.661
 5328SOL    HW116871   5.106   1.442   4.733
 5328SOL    HW216872   5.162   1.344   4.632
 5329SOL     OW16873   4.319   0.722   3.990
 5329SOL    HW116874   4.324   0.803   3.940
 5329SOL    HW216875   4.253   0.739   4.058
 5330SOL     OW16876   4.997   0.329   4.642
 5330SOL    HW116877   4.907   0.305   4.666
 5330SOL    HW216878   5.050   0.301   4.717
 5331SOL     OW16879   4.518   0.618   5.174
 5331SOL    HW116880   4.490   0.596   5.263
 5331SOL    HW216881   4.476   0.552   5.119
 5332SOL     OW16882   5.117   0.486   5.403
 5332SOL    HW116883   5.118   0.521   5.493
 5332SOL    HW216884   5.183   0.417   5.404
 5333SOL     OW16885   4.679   0.888   5.306
 5333SOL    HW116886   4.731   0.816   5.271
 5333SOL    HW216887   4.631   0.922   5.231
 5334SOL     OW16888   4.718   0.422   4.956
 5334SOL    HW116889   4.634   0.437   4.998
 5334SOL    HW216890   4.697   0.367   4.880
 5335SOL     OW16891   4.775   0.697   4.149
 5335SOL    HW116892   4.790   0.691   4.244
 5335SOL    HW216893   4.692   0.652   4.135
 5336SOL     OW16894   3.812   0.821   4.501
 5336SOL    HW116895   3.893   0.813   4.551
 5336SOL    HW216896   3.770   0.899   4.535
 5337SOL     OW16897   3.851   1.845   5.301
 5337SOL    HW116898   3.850   1.825   5.395
 5337SOL    HW216899   3.759   1.843   5.275
 5338SOL     OW16900   4.598   0.362   3.914
 5338SOL    HW116901   4.635   0.418   3.846
 5338SOL    HW216902   4.650   0.282   3.909
 5339SOL     OW16903   5.092   1.146   4.271
 5339SOL    HW116904   5.180   1.147   4.233
 5339SOL    HW216905   5.041   1.206   4.216
 5340SOL     OW16906   4.250   0.202   4.606
 5340SOL    HW116907   4.272   0.216   4.698
 5340SOL    HW216908   4.272   0.284   4.563
 5341SOL     OW16909   4.730   1.443   4.196
 5341SOL    HW116910   4.692   1.516   4.147
 5341SOL    HW216911   4.712   1.465   4.288
 5342SOL     OW16912   4.078   1.809   4.587
 5342SOL    HW116913   4.122   1.724   4.594
 5342SOL    HW216914   4.146   1.873   4.605
 5343SOL     OW16915   4.940   1.542   5.243
 5343SOL    HW116916   4.927   1.469   5.303
 5343SOL    HW216917   4.883   1.523   5.169
 5344SOL     OW16918   4.044   0.957   3.974
 5344SOL    HW116919   4.126   0.976   3.928
 5344SOL    HW216920   4.013   0.875   3.935
 5345SOL     OW16921   4.190   1.264   5.462
 5345SOL    HW116922   4.162   1.269   5.370
 5345SOL    HW216923   4.108   1.262   5.511
 5346SOL     OW16924   4.833   1.775   3.961
 5346SOL    HW116925   4.760   1.730   4.005
 5346SOL    HW216926   4.857   1.715   3.890
 5347SOL     OW16927   3.921   0.278   5.226
 5347SOL    HW116928   3.842   0.332   5.223
 5347SOL    HW216929   3.913   0.230   5.309
 5348SOL     OW16930   4.190   1.737   4.045
 5348SOL    HW116931   4.232   1.795   4.109
 5348SOL    HW216932   4.262   1.707   3.989
 5349SOL     OW16933   5.099   0.099   4.144
 5349SOL    HW116934   5.084   0.082   4.051
 5349SOL    HW216935   5.192   0.118   4.151
 5350SOL     OW16936   3.982   1.792   4.956
 5350SOL    HW116937   4.032   1.726   5.004
 5350SOL    HW216938   3.971   1.755   4.868
 5351SOL     OW16939   4.662   1.698   4.623
 5351SOL    HW116940   4.741   1.648   4.641
 5351SOL    HW216941   4.617   1.649   4.554
 5352SOL     OW16942   4.116   0.696   4.200
 5352SOL    HW116943   4.138   0.603   4.211
 5352SOL    HW216944   4.023   0.701   4.218
 5353SOL     OW16945   4.346   0.133   3.831
 5353SOL    HW116946   4.418   0.073   3.851
 5353SOL    HW216947   4.297   0.090   3.761
 5354SOL     OW16948   4.508   0.311   5.491
 5354SOL    HW116949   4.571   0.239   5.490
 5354SOL    HW216950   4.458   0.299   5.572
 5355SOL     OW16951   4.600   1.521   4.917
 5355SOL    HW116952   4.585   1.486   4.830
 5355SOL    HW216953   4.670   1.467   4.954
 5356SOL     OW16954   5.060   0.591   5.155
 5356SOL    HW116955   5.090   0.561   5.241
 5356SOL    HW216956   5.099   0.678   5.146
 5357SOL     OW16957   4.538   1.395   4.663
 5357SOL    HW116958   4.623   1.384   4.619
 5357SOL    HW216959   4.474   1.396   4.592
 5358SOL     OW16960   4.651   0.511   4.627
 5358SOL    HW116961   4.628   0.501   4.534
 5358SOL    HW216962   4.682   0.424   4.653
 5359SOL     OW16963   4.266   0.062   4.233
 5359SOL    HW116964   4.180   0.061   4.275
 5359SOL    HW216965   4.259   0.132   4.167
 5360SOL     OW16966   5.136   1.180   3.768
 5360SOL    HW116967   5.146   1.103   3.823
 5360SOL    HW216968   5.049   1.213   3.788
 5361SOL     OW16969   4.026   0.062   3.915
 5361SOL    HW116970   4.085   0.131   3.884
 5361SOL    HW216971   4.082   5.285   3.925
 5362SOL     OW16972   4.661   0.261   4.187
 5362SOL    HW116973   4.632   0.295   4.102
 5362SOL    HW216974   4.756   0.276   4.187
 5363SOL     OW16975   4.802   0.681   5.185
 5363SOL    HW116976   4.733   0.615   5.187
 5363SOL    HW216977   4.883   0.630   5.174
 5364SOL     OW16978   4.941   1.570   4.517
 5364SOL    HW116979   4.963   1.638   4.453
 5364SOL    HW216980   5.020   1.560   4.569
 5365SOL     OW16981   4.193   1.149   4.458
 5365SOL    HW116982   4.123   1.130   4.521
 5365SOL    HW216983   4.153   1.133   4.372
 5366SOL     OW16984   4.996   1.794   4.329
 5366SOL    HW116985   5.038   1.855   4.269
 5366SOL    HW216986   4.929   1.846   4.374
 5367SOL     OW16987   4.753   0.551   3.743
 5367SOL    HW116988   4.705   0.632   3.726
 5367SOL    HW216989   4.807   0.570   3.820
 5368SOL     OW16990   3.802   0.553   5.117
 5368SOL    HW116991   3.894   0.553   5.089
 5368SOL    HW216992   3.797   0.624   5.181
 5369SOL     OW16993   4.280   0.238   4.882
 5369SOL    HW116994   4.312   0.152   4.911
 5369SOL    HW216995   4.188   0.239   4.908
 5370SOL     OW16996   4.593   0.464   4.364
 5370SOL    HW116997   4.544   0.516   4.301
 5370SOL    HW216998   4.613   0.383   4.318
 5371SOL     OW16999   4.699   0.063   4.487
 5371SOL    HW117000   4.635   0.054   4.416
 5371SOL    HW217001   4.714   5.273   4.517
 5372SOL     OW17002   5.157   1.176   4.575
 5372SOL    HW117003   5.101   1.100   4.588
 5372SOL    HW217004   5.168   1.181   4.480
 5373SOL     OW17005   4.215   1.418   3.881
 5373SOL    HW117006   4.140   1.389   3.933
 5373SOL    HW217007   4.200   1.380   3.794
 5374SOL     OW17008   5.128   0.559   3.805
 5374SOL    HW117009   5.052   0.551   3.863
 5374SOL    HW217010   5.202   0.532   3.859
 5375SOL     OW17011   4.248   0.265   4.046
 5375SOL    HW117012   4.291   0.215   3.977
 5375SOL    HW217013   4.227   0.349   4.005
 5376SOL     OW17014   4.781   1.354   5.057
 5376SOL    HW117015   4.706   1.323   5.108
 5376SOL    HW217016   4.856   1.311   5.098
 5377SOL     OW17017   0.006   1.604   5.341
 5377SOL    HW117018   0.040   1.609   5.251
 5377SOL    HW217019   0.083   1.584   5.394
 5378SOL     OW17020   4.853   1.203   4.831
 5378SOL    HW117021   4.791   1.238   4.895
 5378SOL    HW217022   4.819   1.232   4.746
 5379SOL     OW17023   4.625   0.104   5.111
 5379SOL    HW117024   4.658   0.070   5.028
 5379SOL    HW217025   4.700   0.148   5.151
 5380SOL     OW17026   4.709   1.113   5.449
 5380SOL    HW117027   4.617   1.131   5.469
 5380SOL    HW217028   4.706   1.036   5.392
 5381SOL     OW17029   4.432   1.061   4.095
 5381SOL    HW117030   4.418   1.045   4.188
 5381SOL    HW217031   4.508   1.008   4.072
 5382SOL     OW17032   4.142   0.815   4.975
 5382SOL    HW117033   4.211   0.824   5.042
 5382SOL    HW217034   4.107   0.727   4.989
 5383SOL     OW17035   4.991   0.380   4.994
 5383SOL    HW117036   5.024   0.458   5.038
 5383SOL    HW217037   4.901   0.401   4.971
 5384SOL     OW17038   3.793   1.573   5.076
 5384SOL    HW117039   3.761   1.644   5.020
 5384SOL    HW217040   3.888   1.580   5.071
 5385SOL     OW17041   4.073   1.109   4.215
 5385SOL    HW117042   4.078   1.182   4.153
 5385SOL    HW217043   4.071   1.031   4.159
 5386SOL     OW17044   4.278   0.538   4.584
 5386SOL    HW117045   4.293   0.596   4.510
 5386SOL    HW217046   4.343   0.564   4.649
 5387SOL     OW17047   4.972   1.349   4.111
 5387SOL    HW117048   5.026   1.422   4.142
 5387SOL    HW217049   4.884   1.369   4.145
 5388SOL     OW17050   4.994   1.456   4.863
 5388SOL    HW117051   5.049   1.458   4.942
 5388SOL    HW217052   4.940   1.378   4.874
 5389SOL     OW17053   4.071   1.527   5.039
 5389SOL    HW117054   4.058   1.484   4.955
 5389SOL    HW217055   4.166   1.539   5.046
 5390SOL     OW17056   4.138   0.744   5.326
 5390SOL    HW117057   4.200   0.789   5.268
 5390SOL    HW217058   4.179   0.660   5.343
 5391SOL     OW17059   4.753   0.117   5.482
 5391SOL    HW117060   4.795   0.199   5.454
 5391SOL    HW217061   4.793   0.050   5.426
 5392SOL     OW17062   4.203   0.058   5.461
 5392SOL    HW117063   4.145   5.293   5.421
 5392SOL    HW217064   4.146   0.131   5.484
 5393SOL     OW17065   4.308   0.873   4.755
 5393SOL    HW117066   4.337   0.964   4.754
 5393SOL    HW217067   4.251   0.867   4.832
 5394SOL     OW17068   5.086   0.857   4.761
 5394SOL    HW117069   5.008   0.840   4.707
 5394SOL    HW217070   5.137   0.777   4.756
 5395SOL     OW17071   4.930   0.531   3.990
 5395SOL    HW117072   4.933   0.451   4.042
 5395SOL    HW217073   4.885   0.594   4.047
 5396SOL     OW17074   4.020   0.204   4.971
 5396SOL    HW117075   3.981   0.243   5.049
 5396SOL    HW217076   4.020   0.110   4.989
 5397SOL     OW17077   3.769   1.311   5.001
 5397SOL    HW117078   3.802   1.257   5.072
 5397SOL    HW217079   3.777   1.401   5.033
 5398SOL     OW17080   4.449   0.632   4.784
 5398SOL    HW117081   4.523   0.615   4.725
 5398SOL    HW217082   4.421   0.720   4.761
 5399SOL     OW17083   4.027   0.072   4.375
 5399SOL    HW117084   4.010   0.166   4.383
 5399SOL    HW217085   4.069   0.049   4.457
 5400SOL     OW17086   0.028   0.407   4.089
 5400SOL    HW117087   0.059   0.345   4.155
 5400SOL    HW217088   0.006   0.486   4.138
 5401SOL     OW17089   4.752   0.759   4.684
 5401SOL    HW117090   4.749   0.777   4.779
 5401SOL    HW217091   4.725   0.667   4.677
 5402SOL     OW17092   4.698   1.562   5.438
 5402SOL    HW117093   4.687   1.609   5.355
 5402SOL    HW217094   4.746   1.482   5.413
 5403SOL     OW17095   4.077   0.916   5.533
 5403SOL    HW117096   4.160   0.935   5.578
 5403SOL    HW217097   4.101   0.853   5.464
 5404SOL     OW17098   5.028   0.829   3.761
 5404SOL    HW117099   5.063   0.740   3.761
 5404SOL    HW217100   5.054   0.865   3.676
 5405SOL     OW17101   4.789   1.334   4.579
 5405SOL    HW117102   4.793   1.262   4.516
 5405SOL    HW217103   4.847   1.401   4.543
 5406SOL     OW17104   4.033   0.809   4.671
 5406SOL    HW117105   4.126   0.830   4.665
 5406SOL    HW217106   4.031   0.719   4.704
 5407SOL     OW17107   4.056   0.526   4.736
 5407SOL    HW117108   4.020   0.439   4.721
 5407SOL    HW217109   4.133   0.530   4.679
 5408SOL     OW17110   4.861   0.377   5.414
 5408SOL    HW117111   4.811   0.432   5.475
 5408SOL    HW217112   4.946   0.422   5.405
 5409SOL     OW17113   4.847   0.233   5.183
 5409SOL    HW117114   4.859   0.283   5.263
 5409SOL    HW217115   4.912   0.270   5.122
 5410SOL     OW17116   3.729   1.321   3.919
 5410SOL    HW117117   3.642   1.335   3.881
 5410SOL    HW217118   3.726   1.232   3.953
 5411SOL     OW17119   3.812   1.792   4.658
 5411SOL    HW117120   3.783   1.711   4.617
 5411SOL    HW217121   3.903   1.802   4.630
 5412SOL     OW17122   4.221   1.574   4.630
 5412SOL    HW117123   4.289   1.636   4.654
 5412SOL    HW217124   4.265   1.510   4.573
 5413SOL     OW17125   4.707   0.793   4.951
 5413SOL    HW117126   4.762   0.769   5.026
 5413SOL    HW217127   4.622   0.754   4.970
 5414SOL     OW17128   3.759   0.544   4.841
 5414SOL    HW117129   3.839   0.529   4.790
 5414SOL    HW217130   3.789   0.548   4.932
 5415SOL     OW17131   3.911   0.522   5.451
 5415SOL    HW117132   3.974   0.487   5.388
 5415SOL    HW217133   3.871   0.596   5.405
 5416SOL     OW17134   5.112   0.938   5.390
 5416SOL    HW117135   5.121   1.032   5.378
 5416SOL    HW217136   5.115   0.902   5.301
 5417SOL     OW17137   4.539   0.573   4.084
 5417SOL    HW117138   4.541   0.497   4.025
 5417SOL    HW217139   4.464   0.625   4.054
 5418SOL     OW17140   3.968   1.551   5.452
 5418SOL    HW117141   3.945   1.616   5.518
 5418SOL    HW217142   3.969   1.468   5.499
 5419SOL     OW17143   4.421   0.452   4.985
 5419SOL    HW117144   4.371   0.378   4.951
 5419SOL    HW217145   4.422   0.516   4.913
 5420SOL     OW17146   4.646   1.680   5.192
 5420SOL    HW117147   4.623   1.648   5.105
 5420SOL    HW217148   4.646   1.775   5.183
 5421SOL     OW17149   4.187   0.493   3.908
 5421SOL    HW117150   4.247   0.564   3.931
 5421SOL    HW217151   4.102   0.535   3.898
 5422SOL     OW17152   3.870   1.140   5.196
 5422SOL    HW117153   3.872   1.089   5.277
 5422SOL    HW217154   3.887   1.077   5.126
 5423SOL     OW17155   5.054   1.049   4.948
 5423SOL    HW117156   5.075   0.985   4.881
 5423SOL    HW217157   4.982   1.100   4.911
 5424SOL     OW17158   5.035   0.858   4.040
 5424SOL    HW117159   4.953   0.827   4.078
 5424SOL    HW217160   5.023   0.851   3.946
 5425SOL     OW17161   4.960   1.731   4.845
 5425SOL    HW117162   5.046   1.752   4.808
 5425SOL    HW217163   4.960   1.636   4.855
 5426SOL     OW17164   3.808   1.267   4.736
 5426SOL    HW117165   3.793   1.279   4.830
 5426SOL    HW217166   3.735   1.211   4.708
 5427SOL     OW17167   4.401   1.665   5.452
 5427SOL    HW117168   4.348   1.745   5.446
 5427SOL    HW217169   4.469   1.676   5.386
 5428SOL     OW17170   5.111   1.570   4.204
 5428SOL    HW117171   5.181   1.611   4.153
 5428SOL    HW217172   5.061   1.644   4.239
 5429SOL     OW17173   3.860   1.796   5.567
 5429SOL    HW117174   3.809   1.731   5.616
 5429SOL    HW217175   3.908   1.845   5.634
 5430SOL     OW17176   5.016   0.920   4.396
 5430SOL    HW117177   5.093   0.865   4.383
 5430SOL    HW217178   5.034   1.000   4.348
 5431SOL     OW17179   4.538   1.273   5.154
 5431SOL    HW117180   4.510   1.313   5.237
 5431SOL    HW217181   4.469   1.296   5.092
 5432SOL     OW17182   4.395   1.620   3.879
 5432SOL    HW117183   4.406   1.632   3.785
 5432SOL    HW217184   4.340   1.542   3.887
 5433SOL     OW17185   3.986   0.329   4.443
 5433SOL    HW117186   3.898   0.360   4.421
 5433SOL    HW217187   3.984   0.317   4.538
 5434SOL     OW17188   4.909   1.609   3.765
 5434SOL    HW117189   4.920   1.515   3.776
 5434SOL    HW217190   4.854   1.618   3.687
 5435SOL     OW17191   4.548   1.006   5.097
 5435SOL    HW117192   4.591   1.001   5.011
 5435SOL    HW217193   4.547   1.099   5.118
 5436SOL     OW17194   4.640   0.911   4.014
 5436SOL    HW117195   4.702   0.943   3.948
 5436SOL    HW217196   4.686   0.840   4.058
 5437SOL     OW17197   4.093   1.302   5.216
 5437SOL    HW117198   4.080   1.380   5.161
 5437SOL    HW217199   4.016   1.248   5.199
 5438SOL     OW17200   4.776   1.107   4.431
 5438SOL    HW117201   4.705   1.057   4.471
 5438SOL    HW217202   4.833   1.040   4.393
 5439SOL     OW17203   4.738   0.242   4.695
 5439SOL    HW117204   4.720   0.197   4.612
 5439SOL    HW217205   4.733   0.174   4.761
 5440SOL     OW17206   4.326   1.488   4.206
 5440SOL    HW117207   4.371   1.438   4.137
 5440SOL    HW217208   4.258   1.537   4.160
 5441SOL     OW17209   3.983   1.345   4.012
 5441SOL    HW117210   3.890   1.343   3.989
 5441SOL    HW217211   3.986   1.382   4.100
 5442SOL     OW17212   3.836   1.021   5.443
 5442SOL    HW117213   3.760   0.998   5.496
 5442SOL    HW217214   3.911   0.984   5.490
 5443SOL     OW17215   4.396   0.212   5.213
 5443SOL    HW117216   4.479   0.192   5.170
 5443SOL    HW217217   4.422   0.260   5.292
 5444SOL     OW17218   3.801   0.340   3.766
 5444SOL    HW117219   3.718   0.306   3.732
 5444SOL    HW217220   3.822   0.413   3.707
 5445SOL     OW17221   5.163   0.860   5.127
 5445SOL    HW117222   5.110   0.916   5.071
 5445SOL    HW217223   5.252   0.870   5.094
 5446SOL     OW17224   3.796   0.167   4.039
 5446SOL    HW117225   3.797   0.250   3.991
 5446SOL    HW217226   3.881   0.127   4.020
 5447SOL     OW17227   4.907   1.329   3.838
 5447SOL    HW117228   4.813   1.311   3.839
 5447SOL    HW217229   4.931   1.336   3.930
 5448SOL     OW17230   4.343   0.831   5.157
 5448SOL    HW117231   4.399   0.907   5.142
 5448SOL    HW217232   4.404   0.757   5.165
 5449SOL     OW17233   4.440   0.571   5.427
 5449SOL    HW117234   4.480   0.633   5.488
 5449SOL    HW217235   4.470   0.485   5.457
 5450SOL     OW17236   5.182   1.204   5.356
 5450SOL    HW117237   5.173   1.217   5.450
 5450SOL    HW217238   5.276   1.212   5.340
 5451SOL     OW17239   4.104   1.739   5.288
 5451SOL    HW117240   4.019   1.781   5.274
 5451SOL    HW217241   4.083   1.656   5.331
 5452SOL     OW17242   4.941   0.323   4.185
 5452SOL    HW117243   4.997   0.246   4.178
 5452SOL    HW217244   4.972   0.369   4.264
 5453SOL     OW17245   4.314   0.738   4.393
 5453SOL    HW117246   4.353   0.824   4.377
 5453SOL    HW217247   4.246   0.730   4.327
 5454SOL     OW17248   4.591   1.366   3.759
 5454SOL    HW117249   4.549   1.396   3.840
 5454SOL    HW217250   4.606   1.447   3.709
 5455SOL     OW17251   4.384   1.791   4.668
 5455SOL    HW117252   4.364   1.882   4.646
 5455SOL    HW217253   4.479   1.786   4.662
 5456SOL     OW17254   4.592   0.967   4.579
 5456SOL    HW117255   4.641   0.895   4.619
 5456SOL    HW217256   4.557   1.016   4.654
 5457SOL     OW17257   4.807   0.988   3.814
 5457SOL    HW117258   4.782   1.037   3.736
 5457SOL    HW217259   4.881   0.934   3.786
 5458SOL     OW17260   3.949   1.303   5.580
 5458SOL    HW117261   3.881   1.242   5.551
 5458SOL    HW217262   3.931   1.316   5.673
 5459SOL     OW17263   3.807   1.233   4.389
 5459SOL    HW117264   3.813   1.185   4.471
 5459SOL    HW217265   3.876   1.196   4.334
 5460SOL     OW17266   4.405   1.402   5.353
 5460SOL    HW117267   4.325   1.360   5.383
 5460SOL    HW217268   4.401   1.491   5.388
 5461SOL     OW17269   4.154   0.435   4.248
 5461SOL    HW117270   4.186   0.363   4.194
 5461SOL    HW217271   4.107   0.393   4.320
 5462SOL     OW17272   0.096   1.520   4.823
 5462SOL    HW117273   0.028   1.496   4.760
 5462SOL    HW217274   0.102   1.445   4.881
 5463SOL     OW17275   4.052   0.556   5.014
 5463SOL    HW117276   4.108   0.501   5.070
 5463SOL    HW217277   4.073   0.528   4.925
 5464SOL     OW17278   4.552   1.577   4.401
 5464SOL    HW117279   4.540   1.631   4.323
 5464SOL    HW217280   4.474   1.521   4.404
 5465SOL     OW17281   5.150   0.216   4.844
 5465SOL    HW117282   5.159   0.133   4.892
 5465SOL    HW217283   5.104   0.274   4.905
 5466SOL     OW17284   4.725   0.021   4.864
 5466SOL    HW117285   4.674   5.251   4.822
 5466SOL    HW217286   4.812   5.283   4.875
 5467SOL     OW17287   4.495   1.332   4.039
 5467SOL    HW117288   4.464   1.242   4.045
 5467SOL    HW217289   4.577   1.333   4.087
 5468SOL     OW17290   4.344   1.556   5.009
 5468SOL    HW117291   4.346   1.638   5.058
 5468SOL    HW217292   4.431   1.549   4.971
 5469SOL     OW17293   5.035   0.035   3.884
 5469SOL    HW117294   5.117   0.027   3.834
 5469SOL    HW217295   4.984   5.258   3.857
 5470SOL     OW17296   5.029   0.461   4.410
 5470SOL    HW117297   4.972   0.538   4.414
 5470SOL    HW217298   5.016   0.418   4.494
 5471SOL     OW17299   5.295   0.214   4.607
 5471SOL    HW117300   5.237   0.215   4.682
 5471SOL    HW217301   5.277   0.295   4.560
 5472SOL     OW17302   3.767   1.071   4.030
 5472SOL    HW117303   3.861   1.063   4.013
 5472SOL    HW217304   3.739   0.982   4.053
 5473SOL     OW17305   4.604   1.650   4.070
 5473SOL    HW117306   4.534   1.635   4.007
 5473SOL    HW217307   4.576   1.727   4.119
 5474SOL     OW17308   3.952   0.625   5.709
 5474SOL    HW117309   3.864   0.622   5.744
 5474SOL    HW217310   3.943   0.598   5.617
 5475SOL     OW17311   3.942   0.284   6.579
 5475SOL    HW117312   3.971   0.249   6.663
 5475SOL    HW217313   3.857   0.243   6.563
 5476SOL     OW17314   3.728   0.386   6.224
 5476SOL    HW117315   3.644   0.407   6.264
 5476SOL    HW217316   3.710   0.308   6.171
 5477SOL     OW17317   4.291   1.287   6.761
 5477SOL    HW117318   4.203   1.291   6.722
 5477SOL    HW217319   4.306   1.376   6.794
 5478SOL     OW17320   5.285   1.535   6.292
 5478SOL    HW117321   5.245   1.492   6.368
 5478SOL    HW217322   5.220   1.527   6.223
 5479SOL     OW17323   4.859   0.698   6.287
 5479SOL    HW117324   4.909   0.780   6.277
 5479SOL    HW217325   4.809   0.710   6.368
 5480SOL     OW17326   4.480   1.143   6.627
 5480SOL    HW117327   4.410   1.177   6.683
 5480SOL    HW217328   4.514   1.220   6.582
 5481SOL     OW17329   4.591   0.779   7.408
 5481SOL    HW117330   4.569   0.854   7.463
 5481SOL    HW217331   4.615   0.817   7.324
 5482SOL     OW17332   4.411   1.003   6.233
 5482SOL    HW117333   4.475   0.991   6.303
 5482SOL    HW217334   4.341   1.055   6.273
 5483SOL     OW17335   4.434   1.152   7.398
 5483SOL    HW117336   4.482   1.230   7.425
 5483SOL    HW217337   4.352   1.184   7.362
 5484SOL     OW17338   4.055   1.425   6.654
 5484SOL    HW117339   3.982   1.388   6.604
 5484SOL    HW217340   4.104   1.476   6.590
 5485SOL     OW17341   5.161   1.480   6.937
 5485SOL    HW117342   5.205   1.561   6.962
 5485SOL    HW217343   5.105   1.460   7.012
 5486SOL     OW17344   4.168   0.399   7.074
 5486SOL    HW117345   4.244   0.340   7.072
 5486SOL    HW217346   4.093   0.341   7.087
 5487SOL     OW17347   3.943   1.714   6.059
 5487SOL    HW117348   3.965   1.790   6.112
 5487SOL    HW217349   4.016   1.707   5.996
 5488SOL     OW17350   4.859   1.339   7.278
 5488SOL    HW117351   4.898   1.337   7.365
 5488SOL    HW217352   4.807   1.259   7.273
 5489SOL     OW17353   3.954   1.441   6.121
 5489SOL    HW117354   3.937   1.535   6.124
 5489SOL    HW217355   3.893   1.404   6.185
 5490SOL     OW17356   3.982   1.090   6.477
 5490SOL    HW117357   3.978   1.004   6.518
 5490SOL    HW217358   3.923   1.144   6.530
 5491SOL     OW17359   4.334   1.792   7.013
 5491SOL    HW117360   4.253   1.774   7.061
 5491SOL    HW217361   4.358   1.881   7.039
 5492SOL     OW17362   4.310   0.981   5.720
 5492SOL    HW117363   4.355   1.031   5.652
 5492SOL    HW217364   4.349   1.012   5.802
 5493SOL     OW17365   5.251   0.144   7.064
 5493SOL    HW117366   5.296   0.226   7.044
 5493SOL    HW217367   5.276   0.124   7.154
 5494SOL     OW17368   3.839   0.653   6.145
 5494SOL    HW117369   3.811   0.564   6.167
 5494SOL    HW217370   3.831   0.701   6.228
 5495SOL     OW17371   3.756   1.595   5.710
 5495SOL    HW117372   3.738   1.503   5.730
 5495SOL    HW217373   3.732   1.642   5.790
 5496SOL     OW17374   0.113   0.939   6.162
 5496SOL    HW117375   0.200   0.905   6.177
 5496SOL    HW217376   0.127   1.025   6.122
 5497SOL     OW17377   3.846   0.743   7.171
 5497SOL    HW117378   3.938   0.769   7.179
 5497SOL    HW217379   3.797   0.825   7.179
 5498SOL     OW17380   4.337   1.385   6.321
 5498SOL    HW117381   4.291   1.302   6.331
 5498SOL    HW217382   4.321   1.412   6.231
 5499SOL     OW17383   5.007   1.237   7.010
 5499SOL    HW117384   5.040   1.170   6.950
 5499SOL    HW217385   5.062   1.229   7.088
 5500SOL     OW17386   4.534   0.026   6.114
 5500SOL    HW117387   4.563   0.114   6.089
 5500SOL    HW217388   4.439   0.029   6.108
 5501SOL     OW17389   3.914   0.966   6.858
 5501SOL    HW117390   3.999   0.924   6.842
 5501SOL    HW217391   3.851   0.912   6.810
 5502SOL     OW17392   4.898   1.808   7.209
 5502SOL    HW117393   4.918   1.866   7.135
 5502SOL    HW217394   4.920   1.720   7.177
 5503SOL     OW17395   4.049   0.263   7.402
 5503SOL    HW117396   4.101   0.340   7.424
 5503SOL    HW217397   3.962   0.282   7.438
 5504SOL     OW17398   5.169   1.435   6.523
 5504SOL    HW117399   5.106   1.442   6.595
 5504SOL    HW217400   5.162   1.344   6.494
 5505SOL     OW17401   4.319   0.722   5.852
 5505SOL    HW117402   4.324   0.803   5.802
 5505SOL    HW217403   4.253   0.739   5.920
 5506SOL     OW17404   4.997   0.329   6.504
 5506SOL    HW117405   4.907   0.305   6.528
 5506SOL    HW217406   5.050   0.301   6.579
 5507SOL     OW17407   4.518   0.618   7.036
 5507SOL    HW117408   4.490   0.596   7.125
 5507SOL    HW217409   4.476   0.552   6.981
 5508SOL     OW17410   5.117   0.487   7.265
 5508SOL    HW117411   5.117   0.522   7.354
 5508SOL    HW217412   5.181   0.416   7.267
 5509SOL     OW17413   4.679   0.888   7.168
 5509SOL    HW117414   4.732   0.816   7.132
 5509SOL    HW217415   4.631   0.922   7.093
 5510SOL     OW17416   4.718   0.422   6.818
 5510SOL    HW117417   4.634   0.437   6.860
 5510SOL    HW217418   4.697   0.367   6.742
 5511SOL     OW17419   4.775   0.697   6.011
 5511SOL    HW117420   4.790   0.691   6.106
 5511SOL    HW217421   4.692   0.652   5.997
 5512SOL     OW17422   3.812   0.821   6.363
 5512SOL    HW117423   3.893   0.814   6.413
 5512SOL    HW217424   3.769   0.899   6.397
 5513SOL     OW17425   3.851   1.848   7.164
 5513SOL    HW117426   3.851   1.827   7.258
 5513SOL    HW217427   3.759   1.840   7.137
 5514SOL     OW17428   4.598   0.362   5.776
 5514SOL    HW117429   4.635   0.419   5.708
 5514SOL    HW217430   4.650   0.282   5.771
 5515SOL     OW17431   5.092   1.146   6.133
 5515SOL    HW117432   5.180   1.148   6.095
 5515SOL    HW217433   5.041   1.206   6.078
 5516SOL     OW17434   4.250   0.202   6.468
 5516SOL    HW117435   4.273   0.217   6.560
 5516SOL    HW217436   4.272   0.284   6.425
 5517SOL     OW17437   4.731   1.444   6.059
 5517SOL    HW117438   4.692   1.516   6.009
 5517SOL    HW217439   4.712   1.465   6.150
 5518SOL     OW17440   4.078   1.809   6.448
 5518SOL    HW117441   4.122   1.724   6.456
 5518SOL    HW217442   4.147   1.873   6.466
 5519SOL     OW17443   4.941   1.542   7.104
 5519SOL    HW117444   4.928   1.469   7.165
 5519SOL    HW217445   4.882   1.523   7.031
 5520SOL     OW17446   4.044   0.957   5.836
 5520SOL    HW117447   4.126   0.976   5.790
 5520SOL    HW217448   4.013   0.875   5.797
 5521SOL     OW17449   4.189   1.263   7.323
 5521SOL    HW117450   4.162   1.268   7.232
 5521SOL    HW217451   4.107   1.262   7.373
 5522SOL     OW17452   4.833   1.774   5.823
 5522SOL    HW117453   4.760   1.730   5.867
 5522SOL    HW217454   4.857   1.715   5.752
 5523SOL     OW17455   3.921   0.278   7.088
 5523SOL    HW117456   3.842   0.332   7.083
 5523SOL    HW217457   3.911   0.229   7.169
 5524SOL     OW17458   4.190   1.737   5.907
 5524SOL    HW117459   4.232   1.795   5.971
 5524SOL    HW217460   4.262   1.707   5.851
 5525SOL     OW17461   5.099   0.099   6.006
 5525SOL    HW117462   5.084   0.082   5.913
 5525SOL    HW217463   5.192   0.118   6.013
 5526SOL     OW17464   3.979   1.791   6.818
 5526SOL    HW117465   4.031   1.726   6.864
 5526SOL    HW217466   3.969   1.757   6.729
 5527SOL     OW17467   4.662   1.698   6.485
 5527SOL    HW117468   4.741   1.648   6.503
 5527SOL    HW217469   4.617   1.649   6.416
 5528SOL     OW17470   4.117   0.696   6.062
 5528SOL    HW117471   4.138   0.603   6.073
 5528SOL    HW217472   4.023   0.702   6.080
 5529SOL     OW17473   4.346   0.133   5.693
 5529SOL    HW117474   4.418   0.073   5.712
 5529SOL    HW217475   4.297   0.090   5.623
 5530SOL     OW17476   4.507   0.310   7.350
 5530SOL    HW117477   4.572   0.240   7.351
 5530SOL    HW217478   4.464   0.304   7.435
 5531SOL     OW17479   4.600   1.521   6.779
 5531SOL    HW117480   4.584   1.486   6.692
 5531SOL    HW217481   4.670   1.467   6.816
 5532SOL     OW17482   5.061   0.592   7.017
 5532SOL    HW117483   5.090   0.561   7.102
 5532SOL    HW217484   5.099   0.679   7.007
 5533SOL     OW17485   4.538   1.395   6.525
 5533SOL    HW117486   4.623   1.384   6.481
 5533SOL    HW217487   4.474   1.396   6.454
 5534SOL     OW17488   4.651   0.511   6.489
 5534SOL    HW117489   4.628   0.501   6.396
 5534SOL    HW217490   4.682   0.424   6.515
 5535SOL     OW17491   4.266   0.062   6.095
 5535SOL    HW117492   4.180   0.061   6.137
 5535SOL    HW217493   4.259   0.132   6.029
 5536SOL     OW17494   5.136   1.180   5.630
 5536SOL    HW117495   5.146   1.103   5.685
 5536SOL    HW217496   5.049   1.213   5.650
 5537SOL     OW17497   4.026   0.062   5.777
 5537SOL    HW117498   4.084   0.131   5.746
 5537SOL    HW217499   4.082   5.285   5.787
 5538SOL     OW17500   4.661   0.261   6.049
 5538SOL    HW117501   4.632   0.296   5.964
 5538SOL    HW217502   4.756   0.276   6.049
 5539SOL     OW17503   4.802   0.681   7.047
 5539SOL    HW117504   4.733   0.615   7.049
 5539SOL    HW217505   4.883   0.630   7.036
 5540SOL     OW17506   4.941   1.570   6.380
 5540SOL    HW117507   4.963   1.637   6.315
 5540SOL    HW217508   5.021   1.560   6.431
 5541SOL     OW17509   4.193   1.149   6.320
 5541SOL    HW117510   4.123   1.130   6.383
 5541SOL    HW217511   4.153   1.133   6.234
 5542SOL     OW17512   4.996   1.794   6.191
 5542SOL    HW117513   5.038   1.855   6.131
 5542SOL    HW217514   4.929   1.846   6.236
 5543SOL     OW17515   4.753   0.551   5.605
 5543SOL    HW117516   4.705   0.632   5.587
 5543SOL    HW217517   4.807   0.570   5.682
 5544SOL     OW17518   3.803   0.553   6.979
 5544SOL    HW117519   3.894   0.553   6.951
 5544SOL    HW217520   3.797   0.624   7.043
 5545SOL     OW17521   4.280   0.238   6.744
 5545SOL    HW117522   4.312   0.152   6.773
 5545SOL    HW217523   4.188   0.239   6.770
 5546SOL     OW17524   4.593   0.464   6.226
 5546SOL    HW117525   4.544   0.516   6.163
 5546SOL    HW217526   4.613   0.383   6.180
 5547SOL     OW17527   4.699   0.063   6.349
 5547SOL    HW117528   4.635   0.054   6.278
 5547SOL    HW217529   4.713   5.273   6.379
 5548SOL     OW17530   5.157   1.176   6.437
 5548SOL    HW117531   5.101   1.100   6.450
 5548SOL    HW217532   5.168   1.181   6.342
 5549SOL     OW17533   4.215   1.417   5.743
 5549SOL    HW117534   4.140   1.389   5.795
 5549SOL    HW217535   4.199   1.380   5.656
 5550SOL     OW17536   5.128   0.559   5.667
 5550SOL    HW117537   5.051   0.551   5.725
 5550SOL    HW217538   5.202   0.532   5.721
 5551SOL     OW17539   4.248   0.265   5.908
 5551SOL    HW117540   4.291   0.215   5.839
 5551SOL    HW217541   4.227   0.349   5.867
 5552SOL     OW17542   4.781   1.354   6.919
 5552SOL    HW117543   4.706   1.323   6.970
 5552SOL    HW217544   4.856   1.311   6.960
 5553SOL     OW17545   0.007   1.605   7.202
 5553SOL    HW117546   0.040   1.610   7.113
 5553SOL    HW217547   0.084   1.585   7.256
 5554SOL     OW17548   4.853   1.203   6.693
 5554SOL    HW117549   4.791   1.238   6.757
 5554SOL    HW217550   4.819   1.232   6.608
 5555SOL     OW17551   4.625   0.104   6.973
 5555SOL    HW117552   4.658   0.070   6.890
 5555SOL    HW217553   4.700   0.148   7.013
 5556SOL     OW17554   4.709   1.112   7.313
 5556SOL    HW117555   4.617   1.131   7.331
 5556SOL    HW217556   4.706   1.036   7.255
 5557SOL     OW17557   4.432   1.062   5.957
 5557SOL    HW117558   4.418   1.045   6.050
 5557SOL    HW217559   4.508   1.008   5.934
 5558SOL     OW17560   4.143   0.815   6.837
 5558SOL    HW117561   4.211   0.824   6.903
 5558SOL    HW217562   4.107   0.727   6.851
 5559SOL     OW17563   4.991   0.380   6.856
 5559SOL    HW117564   5.024   0.458   6.900
 5559SOL    HW217565   4.901   0.401   6.833
 5560SOL     OW17566   3.794   1.573   6.938
 5560SOL    HW117567   3.764   1.646   6.884
 5560SOL    HW217568   3.890   1.577   6.933
 5561SOL     OW17569   4.074   1.109   6.077
 5561SOL    HW117570   4.078   1.183   6.015
 5561SOL    HW217571   4.071   1.031   6.021
 5562SOL     OW17572   4.278   0.538   6.447
 5562SOL    HW117573   4.293   0.596   6.372
 5562SOL    HW217574   4.343   0.564   6.511
 5563SOL     OW17575   4.972   1.349   5.974
 5563SOL    HW117576   5.026   1.422   6.004
 5563SOL    HW217577   4.884   1.369   6.007
 5564SOL     OW17578   4.994   1.456   6.726
 5564SOL    HW117579   5.049   1.458   6.804
 5564SOL    HW217580   4.940   1.378   6.736
 5565SOL     OW17581   4.071   1.527   6.901
 5565SOL    HW117582   4.058   1.484   6.816
 5565SOL    HW217583   4.165   1.539   6.908
 5566SOL     OW17584   4.138   0.745   7.188
 5566SOL    HW117585   4.199   0.790   7.130
 5566SOL    HW217586   4.179   0.660   7.205
 5567SOL     OW17587   4.750   0.116   7.339
 5567SOL    HW117588   4.796   0.198   7.317
 5567SOL    HW217589   4.794   0.050   7.286
 5568SOL     OW17590   4.203   0.058   7.322
 5568SOL    HW117591   4.144   5.293   7.283
 5568SOL    HW217592   4.146   0.131   7.346
 5569SOL     OW17593   4.308   0.872   6.618
 5569SOL    HW117594   4.337   0.964   6.616
 5569SOL    HW217595   4.251   0.867   6.694
 5570SOL     OW17596   5.086   0.857   6.623
 5570SOL    HW117597   5.008   0.840   6.569
 5570SOL    HW217598   5.137   0.777   6.617
 5571SOL     OW17599   4.930   0.531   5.852
 5571SOL    HW117600   4.933   0.451   5.904
 5571SOL    HW217601   4.885   0.594   5.909
 5572SOL     OW17602   4.021   0.204   6.833
 5572SOL    HW117603   3.981   0.243   6.911
 5572SOL    HW217604   4.020   0.110   6.851
 5573SOL     OW17605   3.770   1.311   6.862
 5573SOL    HW117606   3.803   1.257   6.934
 5573SOL    HW217607   3.777   1.400   6.895
 5574SOL     OW17608   4.450   0.632   6.646
 5574SOL    HW117609   4.523   0.615   6.587
 5574SOL    HW217610   4.421   0.720   6.623
 5575SOL     OW17611   4.027   0.072   6.237
 5575SOL    HW117612   4.010   0.166   6.244
 5575SOL    HW217613   4.069   0.049   6.319
 5576SOL     OW17614   0.028   0.407   5.951
 5576SOL    HW117615   0.059   0.345   6.017
 5576SOL    HW217616   0.006   0.486   6.000
 5577SOL     OW17617   4.752   0.759   6.546
 5577SOL    HW117618   4.750   0.777   6.640
 5577SOL    HW217619   4.725   0.667   6.539
 5578SOL     OW17620   4.699   1.562   7.300
 5578SOL    HW117621   4.687   1.609   7.217
 5578SOL    HW217622   4.746   1.482   7.275
 5579SOL     OW17623   4.077   0.914   7.396
 5579SOL    HW117624   4.161   0.935   7.439
 5579SOL    HW217625   4.101   0.852   7.327
 5580SOL     OW17626   5.028   0.830   5.623
 5580SOL    HW117627   5.063   0.740   5.623
 5580SOL    HW217628   5.054   0.865   5.538
 5581SOL     OW17629   4.789   1.334   6.441
 5581SOL    HW117630   4.793   1.262   6.378
 5581SOL    HW217631   4.847   1.401   6.405
 5582SOL     OW17632   4.033   0.809   6.534
 5582SOL    HW117633   4.126   0.830   6.526
 5582SOL    HW217634   4.031   0.719   6.566
 5583SOL     OW17635   4.056   0.526   6.599
 5583SOL    HW117636   4.020   0.439   6.583
 5583SOL    HW217637   4.133   0.530   6.541
 5584SOL     OW17638   4.862   0.377   7.275
 5584SOL    HW117639   4.812   0.431   7.336
 5584SOL    HW217640   4.946   0.422   7.266
 5585SOL     OW17641   4.848   0.232   7.044
 5585SOL    HW117642   4.858   0.282   7.125
 5585SOL    HW217643   4.912   0.270   6.984
 5586SOL     OW17644   3.729   1.321   5.781
 5586SOL    HW117645   3.642   1.335   5.743
 5586SOL    HW217646   3.726   1.232   5.815
 5587SOL     OW17647   3.814   1.787   6.524
 5587SOL    HW117648   3.784   1.708   6.480
 5587SOL    HW217649   3.904   1.799   6.493
 5588SOL     OW17650   4.221   1.574   6.492
 5588SOL    HW117651   4.289   1.636   6.516
 5588SOL    HW217652   4.265   1.510   6.435
 5589SOL     OW17653   4.707   0.793   6.813
 5589SOL    HW117654   4.762   0.769   6.888
 5589SOL    HW217655   4.622   0.754   6.832
 5590SOL     OW17656   3.759   0.543   6.703
 5590SOL    HW117657   3.839   0.529   6.652
 5590SOL    HW217658   3.789   0.548   6.794
 5591SOL     OW17659   3.912   0.521   7.313
 5591SOL    HW117660   3.974   0.486   7.249
 5591SOL    HW217661   3.871   0.595   7.268
 5592SOL     OW17662   5.111   0.937   7.253
 5592SOL    HW117663   5.119   1.032   7.241
 5592SOL    HW217664   5.114   0.902   7.164
 5593SOL     OW17665   4.539   0.573   5.946
 5593SOL    HW117666   4.541   0.498   5.887
 5593SOL    HW217667   4.464   0.625   5.916
 5594SOL     OW17668   3.967   1.551   7.314
 5594SOL    HW117669   3.945   1.616   7.381
 5594SOL    HW217670   3.969   1.468   7.360
 5595SOL     OW17671   4.421   0.453   6.847
 5595SOL    HW117672   4.371   0.378   6.813
 5595SOL    HW217673   4.422   0.516   6.775
 5596SOL     OW17674   4.646   1.680   7.054
 5596SOL    HW117675   4.623   1.648   6.967
 5596SOL    HW217676   4.646   1.775   7.045
 5597SOL     OW17677   4.187   0.493   5.770
 5597SOL    HW117678   4.247   0.564   5.793
 5597SOL    HW217679   4.102   0.535   5.760
 5598SOL     OW17680   3.870   1.140   7.059
 5598SOL    HW117681   3.872   1.088   7.139
 5598SOL    HW217682   3.887   1.077   6.989
 5599SOL     OW17683   5.054   1.049   6.810
 5599SOL    HW117684   5.075   0.984   6.743
 5599SOL    HW217685   4.982   1.100   6.773
 5600SOL     OW17686   5.035   0.858   5.902
 5600SOL    HW117687   4.953   0.827   5.940
 5600SOL    HW217688   5.023   0.851   5.808
 5601SOL     OW17689   4.960   1.731   6.707
 5601SOL    HW117690   5.046   1.752   6.670
 5601SOL    HW217691   4.960   1.636   6.717
 5602SOL     OW17692   3.808   1.266   6.598
 5602SOL    HW117693   3.794   1.279   6.692
 5602SOL    HW217694   3.735   1.212   6.570
 5603SOL     OW17695   4.400   1.664   7.313
 5603SOL    HW117696   4.350   1.745   7.309
 5603SOL    HW217697   4.469   1.676   7.248
 5604SOL     OW17698   5.111   1.570   6.066
 5604SOL    HW117699   5.180   1.611   6.015
 5604SOL    HW217700   5.061   1.644   6.101
 5605SOL     OW17701   3.860   1.796   7.430
 5605SOL    HW117702   3.809   1.731   7.479
 5605SOL    HW217703   3.908   1.845   7.497
 5606SOL     OW17704   5.016   0.919   6.258
 5606SOL    HW117705   5.093   0.865   6.245
 5606SOL    HW217706   5.034   1.000   6.210
 5607SOL     OW17707   4.538   1.273   7.016
 5607SOL    HW117708   4.510   1.313   7.099
 5607SOL    HW217709   4.469   1.296   6.954
 5608SOL     OW17710   4.395   1.620   5.741
 5608SOL    HW117711   4.406   1.632   5.647
 5608SOL    HW217712   4.340   1.542   5.749
 5609SOL     OW17713   3.986   0.329   6.305
 5609SOL    HW117714   3.898   0.360   6.283
 5609SOL    HW217715   3.984   0.317   6.400
 5610SOL     OW17716   4.909   1.609   5.627
 5610SOL    HW117717   4.920   1.515   5.638
 5610SOL    HW217718   4.854   1.618   5.549
 5611SOL     OW17719   4.548   1.006   6.959
 5611SOL    HW117720   4.591   1.001   6.873
 5611SOL    HW217721   4.547   1.099   6.980
 5612SOL     OW17722   4.641   0.912   5.876
 5612SOL    HW117723   4.702   0.943   5.810
 5612SOL    HW217724   4.687   0.840   5.920
 5613SOL     OW17725   4.093   1.303   7.078
 5613SOL    HW117726   4.080   1.380   7.023
 5613SOL    HW217727   4.016   1.248   7.061
 5614SOL     OW17728   4.776   1.107   6.293
 5614SOL    HW117729   4.705   1.057   6.333
 5614SOL    HW217730   4.833   1.040   6.255
 5615SOL     OW17731   4.738   0.242   6.557
 5615SOL    HW117732   4.720   0.197   6.474
 5615SOL    HW217733   4.733   0.174   6.623
 5616SOL     OW17734   4.327   1.488   6.068
 5616SOL    HW117735   4.371   1.438   5.999
 5616SOL    HW217736   4.258   1.536   6.022
 5617SOL     OW17737   3.983   1.345   5.874
 5617SOL    HW117738   3.890   1.343   5.852
 5617SOL    HW217739   3.986   1.382   5.963
 5618SOL     OW17740   3.837   1.021   7.305
 5618SOL    HW117741   3.760   0.998   7.358
 5618SOL    HW217742   3.911   0.983   7.354
 5619SOL     OW17743   4.396   0.213   7.076
 5619SOL    HW117744   4.479   0.192   7.032
 5619SOL    HW217745   4.422   0.260   7.155
 5620SOL     OW17746   3.801   0.339   5.627
 5620SOL    HW117747   3.718   0.306   5.594
 5620SOL    HW217748   3.822   0.413   5.570
 5621SOL     OW17749   5.163   0.860   6.989
 5621SOL    HW117750   5.110   0.915   6.933
 5621SOL    HW217751   5.252   0.870   6.956
 5622SOL     OW17752   3.796   0.167   5.901
 5622SOL    HW117753   3.797   0.250   5.853
 5622SOL    HW217754   3.881   0.127   5.881
 5623SOL     OW17755   4.907   1.329   5.700
 5623SOL    HW117756   4.813   1.312   5.701
 5623SOL    HW217757   4.931   1.336   5.792
 5624SOL     OW17758   4.343   0.831   7.019
 5624SOL    HW117759   4.399   0.907   7.004
 5624SOL    HW217760   4.404   0.758   7.027
 5625SOL     OW17761   4.439   0.572   7.289
 5625SOL    HW117762   4.480   0.633   7.351
 5625SOL    HW217763   4.469   0.485   7.318
 5626SOL     OW17764   5.182   1.203   7.217
 5626SOL    HW117765   5.172   1.215   7.311
 5626SOL    HW217766   5.276   1.213   7.202
 5627SOL     OW17767   4.103   1.740   7.150
 5627SOL    HW117768   4.018   1.781   7.137
 5627SOL    HW217769   4.083   1.656   7.192
 5628SOL     OW17770   4.941   0.323   6.047
 5628SOL    HW117771   4.997   0.246   6.040
 5628SOL    HW217772   4.972   0.369   6.126
 5629SOL     OW17773   4.314   0.738   6.255
 5629SOL    HW117774   4.353   0.824   6.239
 5629SOL    HW217775   4.246   0.730   6.189
 5630SOL     OW17776   4.591   1.366   5.621
 5630SOL    HW117777   4.549   1.396   5.702
 5630SOL    HW217778   4.606   1.447   5.571
 5631SOL     OW17779   4.384   1.791   6.530
 5631SOL    HW117780   4.364   1.882   6.508
 5631SOL    HW217781   4.479   1.785   6.524
 5632SOL     OW17782   4.592   0.967   6.441
 5632SOL    HW117783   4.641   0.895   6.481
 5632SOL    HW217784   4.557   1.016   6.516
 5633SOL     OW17785   4.807   0.988   5.676
 5633SOL    HW117786   4.782   1.037   5.598
 5633SOL    HW217787   4.881   0.934   5.648
 5634SOL     OW17788   3.949   1.303   7.443
 5634SOL    HW117789   3.881   1.243   7.412
 5634SOL    HW217790   3.929   1.317   7.535
 5635SOL     OW17791   3.808   1.234   6.251
 5635SOL    HW117792   3.813   1.185   6.333
 5635SOL    HW217793   3.876   1.195   6.196
 5636SOL     OW17794   4.405   1.401   7.214
 5636SOL    HW117795   4.324   1.360   7.245
 5636SOL    HW217796   4.401   1.490   7.249
 5637SOL     OW17797   4.154   0.435   6.110
 5637SOL    HW117798   4.186   0.363   6.056
 5637SOL    HW217799   4.107   0.393   6.182
 5638SOL     OW17800   0.096   1.520   6.685
 5638SOL    HW117801   0.028   1.496   6.622
 5638SOL    HW217802   0.102   1.445   6.744
 5639SOL     OW17803   4.052   0.555   6.877
 5639SOL    HW117804   4.109   0.501   6.931
 5639SOL    HW217805   4.073   0.528   6.787
 5640SOL     OW17806   4.552   1.577   6.263
 5640SOL    HW117807   4.540   1.631   6.185
 5640SOL    HW217808   4.474   1.521   6.266
 5641SOL     OW17809   5.150   0.216   6.706
 5641SOL    HW117810   5.159   0.133   6.754
 5641SOL    HW217811   5.104   0.274   6.767
 5642SOL     OW17812   4.725   0.021   6.726
 5642SOL    HW117813   4.674   5.251   6.684
 5642SOL    HW217814   4.812   5.283   6.737
 5643SOL     OW17815   4.495   1.332   5.901
 5643SOL    HW117816   4.463   1.242   5.907
 5643SOL    HW217817   4.577   1.333   5.949
 5644SOL     OW17818   4.344   1.556   6.871
 5644SOL    HW117819   4.346   1.639   6.920
 5644SOL    HW217820   4.431   1.549   6.833
 5645SOL     OW17821   5.035   0.035   5.746
 5645SOL    HW117822   5.117   0.027   5.696
 5645SOL    HW217823   4.984   5.258   5.719
 5646SOL     OW17824   5.029   0.461   6.272
 5646SOL    HW117825   4.972   0.538   6.276
 5646SOL    HW217826   5.016   0.418   6.356
 5647SOL     OW17827   5.295   0.214   6.469
 5647SOL    HW117828   5.237   0.215   6.544
 5647SOL    HW217829   5.277   0.295   6.422
 5648SOL     OW17830   3.767   1.071   5.892
 5648SOL    HW117831   3.861   1.063   5.874
 5648SOL    HW217832   3.739   0.982   5.915
 5649SOL     OW17833   4.604   1.650   5.932
 5649SOL    HW117834   4.534   1.635   5.869
 5649SOL    HW217835   4.576   1.727   5.981
 5650SOL     OW17836   3.951   0.620   7.572
 5650SOL    HW117837   3.861   0.628   7.603
 5650SOL    HW217838   3.942   0.597   7.479
 5651SOL     OW17839   3.945   1.718   7.919
 5651SOL    HW117840   3.974   1.760   8.000
 5651SOL    HW217841   4.023   1.715   7.863
 5652SOL     OW17842   3.941   1.438   7.991
 5652SOL    HW117843   3.927   1.533   7.990
 5652SOL    HW217844   3.882   1.405   8.058
 5653SOL     OW17845   4.311   0.981   7.579
 5653SOL    HW117846   4.354   1.033   7.510
 5653SOL    HW217847   4.349   1.013   7.661
 5654SOL     OW17848   3.754   1.599   7.578
 5654SOL    HW117849   3.738   1.506   7.593
 5654SOL    HW217850   3.727   1.641   7.659
 5655SOL     OW17851   0.118   0.925   8.015
 5655SOL    HW117852   0.211   0.917   8.035
 5655SOL    HW217853   0.104   1.018   7.999
 5656SOL     OW17854   4.534   5.289   7.946
 5656SOL    HW117855   4.576   0.074   7.930
 5656SOL    HW217856   4.440   0.008   7.942
 5657SOL     OW17857   4.315   0.725   7.709
 5657SOL    HW117858   4.317   0.807   7.659
 5657SOL    HW217859   4.254   0.743   7.780
 5658SOL     OW17860   3.785   0.863   0.089
 5658SOL    HW117861   3.848   0.797   0.117
 5658SOL    HW217862   3.779   0.924   0.163
 5659SOL     OW17863   4.590   0.357   7.634
 5659SOL    HW117864   4.631   0.417   7.572
 5659SOL    HW217865   4.648   0.281   7.637
 5660SOL     OW17866   4.047   0.956   7.698
 5660SOL    HW117867   4.127   0.974   7.647
 5660SOL    HW217868   4.010   0.878   7.657
 5661SOL     OW17869   4.837   1.776   7.684
 5661SOL    HW117870   4.763   1.733   7.727
 5661SOL    HW217871   4.861   1.716   7.613
 5662SOL     OW17872   4.191   1.738   7.769
 5662SOL    HW117873   4.239   1.791   7.833
 5662SOL    HW217874   4.258   1.702   7.711
 5663SOL     OW17875   5.115   0.113   7.872
 5663SOL    HW117876   5.086   0.089   7.784
 5663SOL    HW217877   5.209   0.100   7.871
 5664SOL     OW17878   4.115   0.695   7.918
 5664SOL    HW117879   4.120   0.600   7.927
 5664SOL    HW217880   4.024   0.716   7.940
 5665SOL     OW17881   4.341   0.132   7.560
 5665SOL    HW117882   4.420   0.079   7.574
 5665SOL    HW217883   4.297   0.088   7.487
 5666SOL     OW17884   4.271   0.064   7.952
 5666SOL    HW117885   4.179   0.048   7.973
 5666SOL    HW217886   4.268   0.136   7.889
 5667SOL     OW17887   5.137   1.179   7.488
 5667SOL    HW117888   5.153   1.109   7.552
 5667SOL    HW217889   5.050   1.212   7.511
 5668SOL     OW17890   4.029   0.072   7.659
 5668SOL    HW117891   4.080   0.129   7.602
 5668SOL    HW217892   4.078   5.290   7.660
 5669SOL     OW17893   4.673   0.230   7.911
 5669SOL    HW117894   4.620   0.293   7.863
 5669SOL    HW217895   4.759   0.272   7.919
 5670SOL     OW17896   4.164   1.149   0.100
 5670SOL    HW117897   4.089   1.187   0.146
 5670SOL    HW217898   4.134   1.136   0.010
 5671SOL     OW17899   5.008   1.805   8.012
 5671SOL    HW117900   5.047   1.871   7.955
 5671SOL    HW217901   4.937   1.851   8.057
 5672SOL     OW17902   4.756   0.552   7.463
 5672SOL    HW117903   4.706   0.633   7.449
 5672SOL    HW217904   4.803   0.568   7.545
 5673SOL     OW17905   4.212   1.416   7.605
 5673SOL    HW117906   4.138   1.387   7.658
 5673SOL    HW217907   4.195   1.379   7.518
 5674SOL     OW17908   5.127   0.559   7.530
 5674SOL    HW117909   5.051   0.552   7.587
 5674SOL    HW217910   5.199   0.523   7.581
 5675SOL     OW17911   4.249   0.271   7.773
 5675SOL    HW117912   4.289   0.217   7.705
 5675SOL    HW217913   4.228   0.354   7.730
 5676SOL     OW17914   4.437   1.062   7.811
 5676SOL    HW117915   4.410   1.049   7.902
 5676SOL    HW217916   4.515   1.009   7.801
 5677SOL     OW17917   4.090   1.102   7.927
 5677SOL    HW117918   4.070   1.181   7.877
 5677SOL    HW217919   4.076   1.031   7.865
 5678SOL     OW17920   4.959   1.358   7.819
 5678SOL    HW117921   5.016   1.429   7.848
 5678SOL    HW217922   4.903   1.339   7.895
 5679SOL     OW17923   0.027   0.639   7.936
 5679SOL    HW117924   5.276   0.678   8.007
 5679SOL    HW217925   0.048   0.712   7.878
 5680SOL     OW17926   4.928   0.530   7.715
 5680SOL    HW117927   4.931   0.444   7.758
 5680SOL    HW217928   4.895   0.589   7.782
 5681SOL     OW17929   0.029   0.405   7.803
 5681SOL    HW117930   0.031   0.339   7.873
 5681SOL    HW217931   0.022   0.488   7.849
 5682SOL     OW17932   5.035   0.832   7.490
 5682SOL    HW117933   5.063   0.741   7.486
 5682SOL    HW217934   5.057   0.868   7.405
 5683SOL     OW17935   3.730   1.324   7.640
 5683SOL    HW117936   3.642   1.337   7.603
 5683SOL    HW217937   3.729   1.235   7.674
 5684SOL     OW17938   4.563   0.603   7.762
 5684SOL    HW117939   4.553   0.511   7.734
 5684SOL    HW217940   4.473   0.637   7.763
 5685SOL     OW17941   4.185   0.495   7.637
 5685SOL    HW117942   4.245   0.568   7.655
 5685SOL    HW217943   4.100   0.537   7.622
 5686SOL     OW17944   5.032   0.847   7.773
 5686SOL    HW117945   4.939   0.860   7.791
 5686SOL    HW217946   5.038   0.846   7.678
 5687SOL     OW17947   5.103   1.573   7.907
 5687SOL    HW117948   5.198   1.584   7.906
 5687SOL    HW217949   5.069   1.654   7.945
 5688SOL     OW17950   4.390   1.620   7.604
 5688SOL    HW117951   4.403   1.631   7.509
 5688SOL    HW217952   4.338   1.540   7.612
 5689SOL     OW17953   4.912   1.611   7.486
 5689SOL    HW117954   4.920   1.516   7.501
 5689SOL    HW217955   4.853   1.618   7.411
 5690SOL     OW17956   4.655   0.909   7.759
 5690SOL    HW117957   4.705   0.933   7.681
 5690SOL    HW217958   4.643   0.814   7.751
 5691SOL     OW17959   4.329   1.507   7.936
 5691SOL    HW117960   4.373   1.446   7.877
 5691SOL    HW217961   4.256   1.541   7.884
 5692SOL     OW17962   3.982   1.346   7.741
 5692SOL    HW117963   3.890   1.344   7.716
 5692SOL    HW217964   3.981   1.382   7.830
 5693SOL     OW17965   3.798   0.339   7.490
 5693SOL    HW117966   3.716   0.307   7.453
 5693SOL    HW217967   3.822   0.414   7.435
 5694SOL     OW17968   3.788   0.182   7.745
 5694SOL    HW117969   3.785   0.258   7.687
 5694SOL    HW217970   3.868   0.136   7.722
 5695SOL     OW17971   4.905   1.329   7.555
 5695SOL    HW117972   4.810   1.315   7.555
 5695SOL    HW217973   4.927   1.341   7.648
 5696SOL     OW17974   5.267   1.743   0.321
 5696SOL    HW117975   5.270   1.829   0.281
 5696SOL    HW217976   0.040   1.743   0.383
 5697SOL     OW17977   4.944   0.325   7.909
 5697SOL    HW117978   5.006   0.253   7.906
 5697SOL    HW217979   4.955   0.363   7.996
 5698SOL     OW17980   4.351   0.736   8.054
 5698SOL    HW117981   4.354   0.818   0.024
 5698SOL    HW217982   4.263   0.735   8.017
 5699SOL     OW17983   4.591   1.366   7.483
 5699SOL    HW117984   4.551   1.394   7.565
 5699SOL    HW217985   4.606   1.447   7.434
 5700SOL     OW17986   4.802   0.978   7.540
 5700SOL    HW117987   4.778   1.033   7.465
 5700SOL    HW217988   4.880   0.931   7.511
 5701SOL     OW17989   4.113   0.421   7.984
 5701SOL    HW117990   4.165   0.369   7.923
 5701SOL    HW217991   4.161   0.418   8.066
 5702SOL     OW17992   4.490   1.335   7.759
 5702SOL    HW117993   4.459   1.244   7.762
 5702SOL    HW217994   4.568   1.336   7.814
 5703SOL     OW17995   5.037   0.039   7.612
 5703SOL    HW117996   5.115   0.029   7.558
 5703SOL    HW217997   4.986   5.259   7.596
 5704SOL     OW17998   3.775   1.079   7.750
 5704SOL    HW117999   3.869   1.068   7.736
 5704SOL    HW218000   3.743   0.990   7.766
 5705SOL     OW18001   4.613   1.647   7.783
 5705SOL    HW118002   4.537   1.627   7.729
 5705SOL    HW218003   4.582   1.711   7.846
 5706SOL     OW18004   3.944   2.485   0.123
 5706SOL    HW118005   3.864   2.450   0.160
 5706SOL    HW218006   3.966   2.425   0.052
 5707SOL     OW18007   3.949   2.143   0.992
 5707SOL    HW118008   3.977   2.109   1.076
 5707SOL    HW218009   3.859   2.111   0.982
 5708SOL     OW18010   3.728   2.245   0.638
 5708SOL    HW118011   3.646   2.270   0.679
 5708SOL    HW218012   3.708   2.165   0.590
 5709SOL     OW18013   4.291   3.149   1.175
 5709SOL    HW118014   4.203   3.153   1.137
 5709SOL    HW218015   4.307   3.238   1.208
 5710SOL     OW18016   5.283   3.408   0.707
 5710SOL    HW118017   5.247   3.356   0.778
 5710SOL    HW218018   5.224   3.392   0.633
 5711SOL     OW18019   4.859   2.561   0.701
 5711SOL    HW118020   4.909   2.642   0.690
 5711SOL    HW218021   4.810   2.574   0.782
 5712SOL     OW18022   4.479   3.004   1.040
 5712SOL    HW118023   4.410   3.039   1.097
 5712SOL    HW218024   4.515   3.081   0.996
 5713SOL     OW18025   4.592   2.636   1.822
 5713SOL    HW118026   4.575   2.708   1.884
 5713SOL    HW218027   4.614   2.680   1.740
 5714SOL     OW18028   4.409   2.863   0.650
 5714SOL    HW118029   4.474   2.853   0.719
 5714SOL    HW218030   4.340   2.917   0.690
 5715SOL     OW18031   4.434   3.013   1.812
 5715SOL    HW118032   4.482   3.091   1.839
 5715SOL    HW218033   4.352   3.046   1.777
 5716SOL     OW18034   4.055   3.288   1.068
 5716SOL    HW118035   3.982   3.251   1.017
 5716SOL    HW218036   4.105   3.338   1.004
 5717SOL     OW18037   5.160   3.343   1.351
 5717SOL    HW118038   5.206   3.423   1.376
 5717SOL    HW218039   5.106   3.321   1.427
 5718SOL     OW18040   4.173   2.260   1.487
 5718SOL    HW118041   4.248   2.201   1.493
 5718SOL    HW218042   4.097   2.204   1.500
 5719SOL     OW18043   3.944   3.576   0.471
 5719SOL    HW118044   3.965   3.652   0.526
 5719SOL    HW218045   4.019   3.568   0.412
 5720SOL     OW18046   4.860   3.202   1.694
 5720SOL    HW118047   4.899   3.198   1.781
 5720SOL    HW218048   4.807   3.122   1.688
 5721SOL     OW18049   3.950   3.302   0.530
 5721SOL    HW118050   3.937   3.397   0.534
 5721SOL    HW218051   3.891   3.267   0.597
 5722SOL     OW18052   3.980   2.952   0.890
 5722SOL    HW118053   3.978   2.866   0.932
 5722SOL    HW218054   3.923   3.006   0.945
 5723SOL     OW18055   4.333   3.655   1.426
 5723SOL    HW118056   4.253   3.636   1.475
 5723SOL    HW218057   4.358   3.743   1.453
 5724SOL     OW18058   4.354   2.823   0.133
 5724SOL    HW118059   4.302   2.899   0.108
 5724SOL    HW218060   4.404   2.852   0.209
 5725SOL     OW18061   3.838   2.512   0.562
 5725SOL    HW118062   3.809   2.424   0.583
 5725SOL    HW218063   3.831   2.561   0.644
 5726SOL     OW18064   3.752   3.458   0.111
 5726SOL    HW118065   3.740   3.370   0.146
 5726SOL    HW218066   3.737   3.516   0.186
 5727SOL     OW18067   0.115   2.808   0.594
 5727SOL    HW118068   0.203   2.771   0.592
 5727SOL    HW218069   0.114   2.873   0.524
 5728SOL     OW18070   3.847   2.604   1.586
 5728SOL    HW118071   3.939   2.630   1.594
 5728SOL    HW218072   3.798   2.687   1.594
 5729SOL     OW18073   4.337   3.248   0.735
 5729SOL    HW118074   4.291   3.164   0.744
 5729SOL    HW218075   4.321   3.274   0.644
 5730SOL     OW18076   5.007   3.099   1.425
 5730SOL    HW118077   5.040   3.032   1.365
 5730SOL    HW218078   5.062   3.091   1.503
 5731SOL     OW18079   4.539   1.864   0.511
 5731SOL    HW118080   4.578   1.949   0.489
 5731SOL    HW218081   4.446   1.882   0.519
 5732SOL     OW18082   3.914   2.829   1.271
 5732SOL    HW118083   3.999   2.786   1.256
 5732SOL    HW218084   3.851   2.772   1.225
 5733SOL     OW18085   4.897   3.669   1.623
 5733SOL    HW118086   4.918   3.728   1.551
 5733SOL    HW218087   4.919   3.582   1.591
 5734SOL     OW18088   4.057   2.112   1.811
 5734SOL    HW118089   4.101   2.195   1.827
 5734SOL    HW218090   3.967   2.126   1.842
 5735SOL     OW18091   5.169   3.297   0.936
 5735SOL    HW118092   5.106   3.303   1.009
 5735SOL    HW218093   5.163   3.206   0.907
 5736SOL     OW18094   4.322   2.576   0.282
 5736SOL    HW118095   4.340   2.653   0.228
 5736SOL    HW218096   4.257   2.606   0.346
 5737SOL     OW18097   4.996   2.198   0.919
 5737SOL    HW118098   4.908   2.169   0.941
 5737SOL    HW218099   5.051   2.164   0.990
 5738SOL     OW18100   4.515   2.480   1.451
 5738SOL    HW118101   4.489   2.456   1.540
 5738SOL    HW218102   4.475   2.413   1.396
 5739SOL     OW18103   5.115   2.342   1.680
 5739SOL    HW118104   5.116   2.380   1.768
 5739SOL    HW218105   5.190   2.283   1.679
 5740SOL     OW18106   4.678   2.750   1.582
 5740SOL    HW118107   4.731   2.678   1.547
 5740SOL    HW218108   4.630   2.784   1.507
 5741SOL     OW18109   4.715   2.275   1.238
 5741SOL    HW118110   4.629   2.296   1.275
 5741SOL    HW218111   4.696   2.228   1.157
 5742SOL     OW18112   4.777   2.559   0.426
 5742SOL    HW118113   4.792   2.555   0.520
 5742SOL    HW218114   4.693   2.514   0.413
 5743SOL     OW18115   3.812   2.684   0.776
 5743SOL    HW118116   3.893   2.676   0.826
 5743SOL    HW218117   3.769   2.761   0.812
 5744SOL     OW18118   3.851   3.708   1.577
 5744SOL    HW118119   3.851   3.688   1.671
 5744SOL    HW218120   3.759   3.702   1.552
 5745SOL     OW18121   4.609   2.219   0.200
 5745SOL    HW118122   4.653   2.267   0.131
 5745SOL    HW218123   4.609   2.128   0.170
 5746SOL     OW18124   5.095   3.009   0.548
 5746SOL    HW118125   5.178   3.002   0.501
 5746SOL    HW218126   5.042   3.068   0.495
 5747SOL     OW18127   4.273   2.044   0.893
 5747SOL    HW118128   4.276   2.072   0.984
 5747SOL    HW218129   4.276   2.125   0.843
 5748SOL     OW18130   4.730   3.306   0.473
 5748SOL    HW118131   4.690   3.378   0.423
 5748SOL    HW218132   4.712   3.328   0.565
 5749SOL     OW18133   4.078   3.671   0.862
 5749SOL    HW118134   4.122   3.586   0.870
 5749SOL    HW218135   4.147   3.735   0.880
 5750SOL     OW18136   4.940   3.405   1.520
 5750SOL    HW118137   4.927   3.331   1.579
 5750SOL    HW218138   4.884   3.384   1.444
 5751SOL     OW18139   4.050   2.803   0.255
 5751SOL    HW118140   4.118   2.847   0.203
 5751SOL    HW218141   4.052   2.713   0.225
 5752SOL     OW18142   4.190   3.126   1.738
 5752SOL    HW118143   4.162   3.131   1.646
 5752SOL    HW218144   4.108   3.125   1.787
 5753SOL     OW18145   4.825   3.636   0.225
 5753SOL    HW118146   4.770   3.596   0.292
 5753SOL    HW218147   4.840   3.566   0.162
 5754SOL     OW18148   3.925   2.144   1.501
 5754SOL    HW118149   3.842   2.192   1.496
 5754SOL    HW218150   3.907   2.074   1.565
 5755SOL     OW18151   4.189   3.600   0.323
 5755SOL    HW118152   4.230   3.658   0.386
 5755SOL    HW218153   4.259   3.573   0.264
 5756SOL     OW18154   5.117   1.987   0.438
 5756SOL    HW118155   5.100   1.968   0.346
 5756SOL    HW218156   5.212   1.994   0.445
 5757SOL     OW18157   3.978   3.653   1.232
 5757SOL    HW118158   4.031   3.589   1.279
 5757SOL    HW218159   3.971   3.618   1.143
 5758SOL     OW18160   4.662   3.560   0.899
 5758SOL    HW118161   4.742   3.510   0.916
 5758SOL    HW218162   4.618   3.511   0.830
 5759SOL     OW18163   4.110   2.559   0.477
 5759SOL    HW118164   4.135   2.467   0.487
 5759SOL    HW218165   4.017   2.562   0.499
 5760SOL     OW18166   4.354   1.973   0.135
 5760SOL    HW118167   4.448   1.961   0.142
 5760SOL    HW218168   4.333   1.953   0.044
 5761SOL     OW18169   4.490   2.140   1.754
 5761SOL    HW118170   4.566   2.082   1.755
 5761SOL    HW218171   4.441   2.118   1.834
 5762SOL     OW18172   4.599   3.383   1.194
 5762SOL    HW118173   4.585   3.348   1.106
 5762SOL    HW218174   4.670   3.330   1.230
 5763SOL     OW18175   5.058   2.453   1.432
 5763SOL    HW118176   5.090   2.421   1.516
 5763SOL    HW218177   5.100   2.538   1.421
 5764SOL     OW18178   4.538   3.257   0.939
 5764SOL    HW118179   4.623   3.246   0.896
 5764SOL    HW218180   4.475   3.258   0.868
 5765SOL     OW18181   4.651   2.371   0.903
 5765SOL    HW118182   4.628   2.362   0.810
 5765SOL    HW218183   4.683   2.284   0.928
 5766SOL     OW18184   4.273   1.925   0.505
 5766SOL    HW118185   4.193   1.924   0.557
 5766SOL    HW218186   4.267   2.003   0.451
 5767SOL     OW18187   5.140   3.035   0.043
 5767SOL    HW118188   5.140   2.962   0.106
 5767SOL    HW218189   5.056   3.078   0.056
 5768SOL     OW18190   4.034   1.917   0.169
 5768SOL    HW118191   4.099   1.986   0.185
 5768SOL    HW218192   4.071   1.840   0.211
 5769SOL     OW18193   4.662   2.109   0.459
 5769SOL    HW118194   4.634   2.150   0.377
 5769SOL    HW218195   4.756   2.125   0.463
 5770SOL     OW18196   4.801   2.543   1.461
 5770SOL    HW118197   4.734   2.475   1.463
 5770SOL    HW218198   4.883   2.495   1.451
 5771SOL     OW18199   4.940   3.434   0.796
 5771SOL    HW118200   4.963   3.499   0.730
 5771SOL    HW218201   5.021   3.420   0.845
 5772SOL     OW18202   4.192   3.012   0.734
 5772SOL    HW118203   4.123   2.992   0.797
 5772SOL    HW218204   4.151   2.996   0.649
 5773SOL     OW18205   4.992   3.656   0.605
 5773SOL    HW118206   5.037   3.719   0.548
 5773SOL    HW218207   4.927   3.708   0.652
 5774SOL     OW18208   4.758   2.393   0.029
 5774SOL    HW118209   4.711   2.472   0.002
 5774SOL    HW218210   4.818   2.422   0.098
 5775SOL     OW18211   3.803   2.417   1.391
 5775SOL    HW118212   3.895   2.415   1.365
 5775SOL    HW218213   3.798   2.487   1.457
 5776SOL     OW18214   4.283   2.089   1.165
 5776SOL    HW118215   4.325   2.012   1.205
 5776SOL    HW218216   4.193   2.085   1.196
 5777SOL     OW18217   4.592   2.321   0.639
 5777SOL    HW118218   4.549   2.376   0.573
 5777SOL    HW218219   4.613   2.240   0.591
 5778SOL     OW18220   4.739   1.915   0.751
 5778SOL    HW118221   4.680   1.908   0.676
 5778SOL    HW218222   4.717   1.839   0.806
 5779SOL     OW18223   5.157   3.038   0.850
 5779SOL    HW118224   5.102   2.961   0.863
 5779SOL    HW218225   5.168   3.044   0.755
 5780SOL     OW18226   4.207   3.301   0.172
 5780SOL    HW118227   4.134   3.259   0.219
 5780SOL    HW218228   4.212   3.254   0.089
 5781SOL     OW18229   5.126   2.446   0.076
 5781SOL    HW118230   5.067   2.421   0.148
 5781SOL    HW218231   5.194   2.379   0.077
 5782SOL     OW18232   4.241   2.125   0.324
 5782SOL    HW118233   4.291   2.073   0.261
 5782SOL    HW218234   4.229   2.210   0.280
 5783SOL     OW18235   4.781   3.216   1.333
 5783SOL    HW118236   4.706   3.185   1.384
 5783SOL    HW218237   4.856   3.173   1.374
 5784SOL     OW18238   0.006   3.466   1.617
 5784SOL    HW118239   0.040   3.472   1.527
 5784SOL    HW218240   0.083   3.446   1.670
 5785SOL     OW18241   4.852   3.065   1.107
 5785SOL    HW118242   4.791   3.101   1.171
 5785SOL    HW218243   4.819   3.095   1.022
 5786SOL     OW18244   4.642   1.960   1.396
 5786SOL    HW118245   4.664   1.941   1.305
 5786SOL    HW218246   4.721   1.999   1.433
 5787SOL     OW18247   4.708   2.975   1.725
 5787SOL    HW118248   4.617   2.992   1.745
 5787SOL    HW218249   4.706   2.898   1.668
 5788SOL     OW18250   4.438   2.925   0.380
 5788SOL    HW118251   4.421   2.907   0.473
 5788SOL    HW218252   4.516   2.872   0.360
 5789SOL     OW18253   4.142   2.676   1.251
 5789SOL    HW118254   4.211   2.686   1.317
 5789SOL    HW218255   4.107   2.589   1.266
 5790SOL     OW18256   4.989   2.237   1.276
 5790SOL    HW118257   5.024   2.316   1.317
 5790SOL    HW218258   4.899   2.261   1.251
 5791SOL     OW18259   3.794   3.435   1.352
 5791SOL    HW118260   3.765   3.509   1.299
 5791SOL    HW218261   3.890   3.439   1.347
 5792SOL     OW18262   4.068   2.972   0.491
 5792SOL    HW118263   4.076   3.045   0.430
 5792SOL    HW218264   4.077   2.893   0.437
 5793SOL     OW18265   4.277   2.399   0.860
 5793SOL    HW118266   4.292   2.457   0.786
 5793SOL    HW218267   4.341   2.425   0.925
 5794SOL     OW18268   4.971   3.209   0.392
 5794SOL    HW118269   5.026   3.281   0.419
 5794SOL    HW218270   4.884   3.232   0.424
 5795SOL     OW18271   4.994   3.318   1.139
 5795SOL    HW118272   5.049   3.320   1.218
 5795SOL    HW218273   4.940   3.239   1.150
 5796SOL     OW18274   4.071   3.389   1.315
 5796SOL    HW118275   4.058   3.346   1.231
 5796SOL    HW218276   4.165   3.401   1.323
 5797SOL     OW18277   4.138   2.607   1.602
 5797SOL    HW118278   4.200   2.651   1.544
 5797SOL    HW218279   4.177   2.521   1.618
 5798SOL     OW18280   4.718   1.986   1.756
 5798SOL    HW118281   4.775   2.058   1.728
 5798SOL    HW218282   4.765   1.907   1.730
 5799SOL     OW18283   4.222   1.903   1.748
 5799SOL    HW118284   4.179   1.849   1.682
 5799SOL    HW218285   4.162   1.977   1.760
 5800SOL     OW18286   4.306   2.735   1.031
 5800SOL    HW118287   4.338   2.825   1.031
 5800SOL    HW218288   4.251   2.729   1.109
 5801SOL     OW18289   5.085   2.718   1.039
 5801SOL    HW118290   5.010   2.702   0.982
 5801SOL    HW218291   5.139   2.639   1.031
 5802SOL     OW18292   4.933   2.393   0.269
 5802SOL    HW118293   4.935   2.313   0.321
 5802SOL    HW218294   4.886   2.456   0.325
 5803SOL     OW18295   4.023   2.061   1.247
 5803SOL    HW118296   3.986   2.093   1.328
 5803SOL    HW218297   4.004   1.967   1.247
 5804SOL     OW18298   3.770   3.173   1.276
 5804SOL    HW118299   3.803   3.118   1.348
 5804SOL    HW218300   3.777   3.262   1.309
 5805SOL     OW18301   4.447   2.493   1.057
 5805SOL    HW118302   4.523   2.477   1.000
 5805SOL    HW218303   4.420   2.582   1.036
 5806SOL     OW18304   4.026   1.927   0.623
 5806SOL    HW118305   4.008   2.018   0.647
 5806SOL    HW218306   4.034   1.881   0.707
 5807SOL     OW18307   0.047   2.239   0.357
 5807SOL    HW118308   0.062   2.182   0.432
 5807SOL    HW218309   0.016   2.322   0.396
 5808SOL     OW18310   4.750   2.621   0.960
 5808SOL    HW118311   4.749   2.639   1.054
 5808SOL    HW218312   4.725   2.529   0.953
 5809SOL     OW18313   4.697   3.423   1.714
 5809SOL    HW118314   4.687   3.471   1.631
 5809SOL    HW218315   4.746   3.344   1.689
 5810SOL     OW18316   4.077   2.778   1.809
 5810SOL    HW118317   4.159   2.797   1.854
 5810SOL    HW218318   4.101   2.715   1.740
 5811SOL     OW18319   5.030   2.696   0.028
 5811SOL    HW118320   5.061   2.607   0.045
 5811SOL    HW218321   5.059   2.715   8.018
 5812SOL     OW18322   4.789   3.196   0.855
 5812SOL    HW118323   4.793   3.124   0.792
 5812SOL    HW218324   4.847   3.263   0.819
 5813SOL     OW18325   4.033   2.671   0.947
 5813SOL    HW118326   4.126   2.693   0.941
 5813SOL    HW218327   4.031   2.581   0.980
 5814SOL     OW18328   4.055   2.388   1.012
 5814SOL    HW118329   4.020   2.300   0.997
 5814SOL    HW218330   4.132   2.393   0.955
 5815SOL     OW18331   4.856   2.238   1.681
 5815SOL    HW118332   4.809   2.293   1.743
 5815SOL    HW218333   4.944   2.277   1.676
 5816SOL     OW18334   4.885   2.064   1.469
 5816SOL    HW118335   4.874   2.127   1.541
 5816SOL    HW218336   4.924   2.116   1.398
 5817SOL     OW18337   3.736   3.186   0.190
 5817SOL    HW118338   3.649   3.200   0.153
 5817SOL    HW218339   3.733   3.096   0.222
 5818SOL     OW18340   3.814   3.649   0.937
 5818SOL    HW118341   3.784   3.569   0.894
 5818SOL    HW218342   3.904   3.662   0.907
 5819SOL     OW18343   4.221   3.436   0.906
 5819SOL    HW118344   4.289   3.498   0.930
 5819SOL    HW218345   4.265   3.372   0.849
 5820SOL     OW18346   4.707   2.654   1.227
 5820SOL    HW118347   4.763   2.631   1.301
 5820SOL    HW218348   4.621   2.617   1.248
 5821SOL     OW18349   3.760   2.406   1.117
 5821SOL    HW118350   3.841   2.392   1.068
 5821SOL    HW218351   3.787   2.410   1.208
 5822SOL     OW18352   3.915   2.381   1.727
 5822SOL    HW118353   3.972   2.343   1.660
 5822SOL    HW218354   3.873   2.455   1.684
 5823SOL     OW18355   5.112   2.800   1.666
 5823SOL    HW118356   5.121   2.895   1.654
 5823SOL    HW218357   5.115   2.764   1.577
 5824SOL     OW18358   4.543   2.431   0.367
 5824SOL    HW118359   4.551   2.360   0.303
 5824SOL    HW218360   4.466   2.481   0.337
 5825SOL     OW18361   3.967   3.413   1.728
 5825SOL    HW118362   3.945   3.477   1.795
 5825SOL    HW218363   3.969   3.330   1.774
 5826SOL     OW18364   4.424   2.313   1.259
 5826SOL    HW118365   4.372   2.239   1.229
 5826SOL    HW218366   4.421   2.376   1.187
 5827SOL     OW18367   4.645   3.542   1.469
 5827SOL    HW118368   4.623   3.510   1.381
 5827SOL    HW218369   4.646   3.637   1.459
 5828SOL     OW18370   4.192   2.353   0.179
 5828SOL    HW118371   4.259   2.419   0.198
 5828SOL    HW218372   4.109   2.398   0.189
 5829SOL     OW18373   3.870   3.002   1.472
 5829SOL    HW118374   3.872   2.951   1.553
 5829SOL    HW218375   3.887   2.939   1.402
 5830SOL     OW18376   5.054   2.912   1.225
 5830SOL    HW118377   5.075   2.847   1.158
 5830SOL    HW218378   4.982   2.962   1.186
 5831SOL     OW18379   5.023   2.732   0.319
 5831SOL    HW118380   4.945   2.687   0.352
 5831SOL    HW218381   5.024   2.711   0.225
 5832SOL     OW18382   4.960   3.593   1.122
 5832SOL    HW118383   5.045   3.614   1.084
 5832SOL    HW218384   4.960   3.498   1.131
 5833SOL     OW18385   3.808   3.128   1.012
 5833SOL    HW118386   3.794   3.142   1.106
 5833SOL    HW218387   3.734   3.074   0.984
 5834SOL     OW18388   4.401   3.527   1.728
 5834SOL    HW118389   4.349   3.607   1.722
 5834SOL    HW218390   4.470   3.537   1.662
 5835SOL     OW18391   4.630   1.953   0.133
 5835SOL    HW118392   4.648   1.936   0.041
 5835SOL    HW218393   4.693   1.899   0.181
 5836SOL     OW18394   0.081   2.012   0.522
 5836SOL    HW118395   0.173   2.005   0.494
 5836SOL    HW218396   0.072   1.943   0.587
 5837SOL     OW18397   5.108   3.433   0.478
 5837SOL    HW118398   5.162   3.475   0.411
 5837SOL    HW218399   5.060   3.505   0.519
 5838SOL     OW18400   3.860   3.659   1.843
 5838SOL    HW118401   3.809   3.593   1.892
 5838SOL    HW218402   3.908   3.707   1.911
 5839SOL     OW18403   5.016   2.781   0.672
 5839SOL    HW118404   5.094   2.727   0.658
 5839SOL    HW218405   5.034   2.862   0.624
 5840SOL     OW18406   4.538   3.135   1.431
 5840SOL    HW118407   4.510   3.174   1.513
 5840SOL    HW218408   4.469   3.158   1.368
 5841SOL     OW18409   4.400   3.483   0.157
 5841SOL    HW118410   4.407   3.489   0.061
 5841SOL    HW218411   4.340   3.410   0.172
 5842SOL     OW18412   3.986   2.178   0.717
 5842SOL    HW118413   3.901   2.214   0.694
 5842SOL    HW218414   3.983   2.170   0.813
 5843SOL     OW18415   4.860   3.441   0.045
 5843SOL    HW118416   4.901   3.356   0.061
 5843SOL    HW218417   4.899   3.472   8.043
 5844SOL     OW18418   4.548   2.868   1.372
 5844SOL    HW118419   4.592   2.864   1.287
 5844SOL    HW218420   4.547   2.961   1.394
 5845SOL     OW18421   4.643   2.776   0.299
 5845SOL    HW118422   4.696   2.800   0.223
 5845SOL    HW218423   4.691   2.703   0.339
 5846SOL     OW18424   4.093   3.165   1.492
 5846SOL    HW118425   4.080   3.242   1.437
 5846SOL    HW218426   4.016   3.110   1.475
 5847SOL     OW18427   4.775   2.969   0.707
 5847SOL    HW118428   4.705   2.918   0.747
 5847SOL    HW218429   4.833   2.904   0.667
 5848SOL     OW18430   4.739   2.101   0.968
 5848SOL    HW118431   4.737   2.054   0.885
 5848SOL    HW218432   4.736   2.032   1.035
 5849SOL     OW18433   4.326   3.348   0.480
 5849SOL    HW118434   4.370   3.299   0.411
 5849SOL    HW218435   4.258   3.398   0.434
 5850SOL     OW18436   3.991   3.182   0.293
 5850SOL    HW118437   3.905   3.193   0.253
 5850SOL    HW218438   3.984   3.227   0.377
 5851SOL     OW18439   3.837   2.884   1.719
 5851SOL    HW118440   3.760   2.861   1.772
 5851SOL    HW218441   3.911   2.846   1.766
 5852SOL     OW18442   4.398   2.058   1.499
 5852SOL    HW118443   4.482   2.038   1.458
 5852SOL    HW218444   4.421   2.090   1.587
 5853SOL     OW18445   3.781   2.225   0.039
 5853SOL    HW118446   3.706   2.170   0.014
 5853SOL    HW218447   3.829   2.237   8.038
 5854SOL     OW18448   5.162   2.722   1.404
 5854SOL    HW118449   5.111   2.779   1.347
 5854SOL    HW218450   5.252   2.728   1.370
 5855SOL     OW18451   3.795   2.016   0.305
 5855SOL    HW118452   3.780   2.100   0.263
 5855SOL    HW218453   3.879   1.987   0.271
 5856SOL     OW18454   4.914   3.176   0.120
 5856SOL    HW118455   4.818   3.176   0.115
 5856SOL    HW218456   4.932   3.183   0.213
 5857SOL     OW18457   4.343   2.693   1.433
 5857SOL    HW118458   4.399   2.769   1.418
 5857SOL    HW218459   4.403   2.619   1.441
 5858SOL     OW18460   4.442   2.425   1.704
 5858SOL    HW118461   4.482   2.487   1.765
 5858SOL    HW218462   4.469   2.339   1.736
 5859SOL     OW18463   5.182   3.066   1.632
 5859SOL    HW118464   5.173   3.079   1.727
 5859SOL    HW218465   5.276   3.073   1.616
 5860SOL     OW18466   4.103   3.601   1.564
 5860SOL    HW118467   4.018   3.643   1.551
 5860SOL    HW218468   4.083   3.518   1.606
 5861SOL     OW18469   4.934   2.187   0.460
 5861SOL    HW118470   4.996   2.115   0.450
 5861SOL    HW218471   4.964   2.233   0.539
 5862SOL     OW18472   4.313   2.599   0.669
 5862SOL    HW118473   4.353   2.685   0.655
 5862SOL    HW218474   4.244   2.594   0.602
 5863SOL     OW18475   4.619   3.231   0.033
 5863SOL    HW118476   4.555   3.226   0.104
 5863SOL    HW218477   4.616   3.322   0.004
 5864SOL     OW18478   4.384   3.653   0.944
 5864SOL    HW118479   4.364   3.744   0.921
 5864SOL    HW218480   4.479   3.647   0.938
 5865SOL     OW18481   4.591   2.828   0.855
 5865SOL    HW118482   4.642   2.757   0.895
 5865SOL    HW218483   4.557   2.878   0.930
 5866SOL     OW18484   4.799   2.836   0.085
 5866SOL    HW118485   4.790   2.900   0.015
 5866SOL    HW218486   4.882   2.791   0.066
 5867SOL     OW18487   3.949   3.165   1.856
 5867SOL    HW118488   3.881   3.104   1.827
 5867SOL    HW218489   3.931   3.177   1.949
 5868SOL     OW18490   3.808   3.093   0.664
 5868SOL    HW118491   3.814   3.046   0.747
 5868SOL    HW218492   3.881   3.059   0.612
 5869SOL     OW18493   4.405   3.264   1.628
 5869SOL    HW118494   4.324   3.222   1.659
 5869SOL    HW218495   4.401   3.352   1.664
 5870SOL     OW18496   4.149   2.298   0.523
 5870SOL    HW118497   4.182   2.227   0.469
 5870SOL    HW218498   4.105   2.254   0.596
 5871SOL     OW18499   0.094   3.384   1.100
 5871SOL    HW118500   0.027   3.359   1.036
 5871SOL    HW218501   0.103   3.307   1.156
 5872SOL     OW18502   4.054   2.417   1.292
 5872SOL    HW118503   4.109   2.362   1.347
 5872SOL    HW218504   4.074   2.389   1.202
 5873SOL     OW18505   4.551   3.440   0.678
 5873SOL    HW118506   4.540   3.492   0.598
 5873SOL    HW218507   4.474   3.383   0.680
 5874SOL     OW18508   5.148   2.081   1.115
 5874SOL    HW118509   5.192   2.015   1.169
 5874SOL    HW218510   5.102   2.136   1.178
 5875SOL     OW18511   4.730   1.881   1.142
 5875SOL    HW118512   4.677   1.812   1.102
 5875SOL    HW218513   4.818   1.843   1.147
 5876SOL     OW18514   4.493   3.190   0.309
 5876SOL    HW118515   4.463   3.100   0.323
 5876SOL    HW218516   4.576   3.194   0.357
 5877SOL     OW18517   4.344   3.418   1.285
 5877SOL    HW118518   4.346   3.501   1.334
 5877SOL    HW218519   4.431   3.411   1.247
 5878SOL     OW18520   5.051   1.923   0.186
 5878SOL    HW118521   5.093   1.874   0.115
 5878SOL    HW218522   4.973   1.872   0.208
 5879SOL     OW18523   5.028   2.323   0.684
 5879SOL    HW118524   4.973   2.401   0.688
 5879SOL    HW218525   5.017   2.280   0.769
 5880SOL     OW18526   0.000   2.087   0.877
 5880SOL    HW118527   5.237   2.073   0.948
 5880SOL    HW218528   5.275   2.171   0.839
 5881SOL     OW18529   3.766   2.929   0.303
 5881SOL    HW118530   3.862   2.929   0.307
 5881SOL    HW218531   3.741   2.846   0.344
 5882SOL     OW18532   4.604   3.514   0.350
 5882SOL    HW118533   4.537   3.498   0.283
 5882SOL    HW218534   4.573   3.591   0.398
 5883SOL     OW18535   3.953   2.485   1.985
 5883SOL    HW118536   3.864   2.484   2.019
 5883SOL    HW218537   3.944   2.460   1.893
 5884SOL     OW18538   3.951   2.141   2.852
 5884SOL    HW118539   3.977   2.109   2.938
 5884SOL    HW218540   3.860   2.113   2.842
 5885SOL     OW18541   3.728   2.245   2.499
 5885SOL    HW118542   3.646   2.270   2.542
 5885SOL    HW218543   3.707   2.165   2.451
 5886SOL     OW18544   4.291   3.149   3.037
 5886SOL    HW118545   4.204   3.152   2.999
 5886SOL    HW218546   4.306   3.238   3.070
 5887SOL     OW18547   5.285   3.398   2.568
 5887SOL    HW118548   5.246   3.354   2.644
 5887SOL    HW218549   5.220   3.388   2.498
 5888SOL     OW18550   4.858   2.561   2.562
 5888SOL    HW118551   4.908   2.642   2.552
 5888SOL    HW218552   4.810   2.573   2.644
 5889SOL     OW18553   4.480   3.005   2.903
 5889SOL    HW118554   4.411   3.039   2.959
 5889SOL    HW218555   4.515   3.082   2.858
 5890SOL     OW18556   4.592   2.636   3.685
 5890SOL    HW118557   4.574   2.708   3.746
 5890SOL    HW218558   4.614   2.680   3.602
 5891SOL     OW18559   4.410   2.865   2.509
 5891SOL    HW118560   4.475   2.853   2.579
 5891SOL    HW218561   4.341   2.917   2.549
 5892SOL     OW18562   4.434   3.013   3.674
 5892SOL    HW118563   4.482   3.091   3.701
 5892SOL    HW218564   4.352   3.046   3.639
 5893SOL     OW18565   4.054   3.288   2.930
 5893SOL    HW118566   3.983   3.250   2.878
 5893SOL    HW218567   4.105   3.338   2.866
 5894SOL     OW18568   5.161   3.343   3.213
 5894SOL    HW118569   5.206   3.423   3.238
 5894SOL    HW218570   5.106   3.321   3.288
 5895SOL     OW18571   4.173   2.258   3.349
 5895SOL    HW118572   4.247   2.198   3.356
 5895SOL    HW218573   4.096   2.203   3.362
 5896SOL     OW18574   3.943   3.576   2.334
 5896SOL    HW118575   3.965   3.652   2.388
 5896SOL    HW218576   4.016   3.568   2.273
 5897SOL     OW18577   4.860   3.202   3.556
 5897SOL    HW118578   4.898   3.198   3.643
 5897SOL    HW218579   4.807   3.122   3.549
 5898SOL     OW18580   3.954   3.303   2.397
 5898SOL    HW118581   3.937   3.397   2.401
 5898SOL    HW218582   3.894   3.265   2.460
 5899SOL     OW18583   3.983   2.953   2.755
 5899SOL    HW118584   3.978   2.866   2.793
 5899SOL    HW218585   3.923   3.006   2.807
 5900SOL     OW18586   4.333   3.654   3.289
 5900SOL    HW118587   4.253   3.636   3.337
 5900SOL    HW218588   4.358   3.743   3.316
 5901SOL     OW18589   4.310   2.843   1.996
 5901SOL    HW118590   4.355   2.893   1.928
 5901SOL    HW218591   4.350   2.874   2.078
 5902SOL     OW18592   3.839   2.515   2.421
 5902SOL    HW118593   3.810   2.426   2.443
 5902SOL    HW218594   3.831   2.563   2.503
 5903SOL     OW18595   3.756   3.457   1.986
 5903SOL    HW118596   3.738   3.365   2.006
 5903SOL    HW218597   3.732   3.504   2.066
 5904SOL     OW18598   0.112   2.803   2.438
 5904SOL    HW118599   0.198   2.765   2.453
 5904SOL    HW218600   0.129   2.886   2.395
 5905SOL     OW18601   3.876   2.613   3.447
 5905SOL    HW118602   3.972   2.617   3.453
 5905SOL    HW218603   3.846   2.699   3.476
 5906SOL     OW18604   4.337   3.247   2.597
 5906SOL    HW118605   4.291   3.164   2.606
 5906SOL    HW218606   4.321   3.274   2.507
 5907SOL     OW18607   5.007   3.099   3.287
 5907SOL    HW118608   5.040   3.032   3.227
 5907SOL    HW218609   5.062   3.091   3.365
 5908SOL     OW18610   4.538   1.862   2.370
 5908SOL    HW118611   4.579   1.946   2.351
 5908SOL    HW218612   4.445   1.882   2.380
 5909SOL     OW18613   3.914   2.828   3.131
 5909SOL    HW118614   4.000   2.787   3.120
 5909SOL    HW218615   3.854   2.773   3.082
 5910SOL     OW18616   4.897   3.669   3.485
 5910SOL    HW118617   4.918   3.728   3.413
 5910SOL    HW218618   4.919   3.582   3.453
 5911SOL     OW18619   4.057   2.111   3.672
 5911SOL    HW118620   4.100   2.196   3.687
 5911SOL    HW218621   3.967   2.125   3.703
 5912SOL     OW18622   5.169   3.297   2.799
 5912SOL    HW118623   5.106   3.304   2.871
 5912SOL    HW218624   5.162   3.206   2.770
 5913SOL     OW18625   4.320   2.583   2.128
 5913SOL    HW118626   4.325   2.665   2.078
 5913SOL    HW218627   4.255   2.601   2.196
 5914SOL     OW18628   4.996   2.199   2.782
 5914SOL    HW118629   4.908   2.169   2.803
 5914SOL    HW218630   5.051   2.164   2.852
 5915SOL     OW18631   4.515   2.480   3.313
 5915SOL    HW118632   4.489   2.456   3.402
 5915SOL    HW218633   4.475   2.413   3.257
 5916SOL     OW18634   5.115   2.342   3.542
 5916SOL    HW118635   5.116   2.380   3.630
 5916SOL    HW218636   5.190   2.282   3.541
 5917SOL     OW18637   4.678   2.750   3.444
 5917SOL    HW118638   4.731   2.678   3.409
 5917SOL    HW218639   4.631   2.784   3.369
 5918SOL     OW18640   4.715   2.275   3.100
 5918SOL    HW118641   4.629   2.296   3.137
 5918SOL    HW218642   4.696   2.228   3.019
 5919SOL     OW18643   4.775   2.560   2.287
 5919SOL    HW118644   4.790   2.554   2.382
 5919SOL    HW218645   4.692   2.513   2.274
 5920SOL     OW18646   3.813   2.683   2.637
 5920SOL    HW118647   3.893   2.675   2.688
 5920SOL    HW218648   3.769   2.760   2.673
 5921SOL     OW18649   3.851   3.709   3.439
 5921SOL    HW118650   3.851   3.689   3.533
 5921SOL    HW218651   3.759   3.698   3.413
 5922SOL     OW18652   4.617   2.209   2.056
 5922SOL    HW118653   4.657   2.270   1.994
 5922SOL    HW218654   4.632   2.123   2.018
 5923SOL     OW18655   5.092   3.008   2.409
 5923SOL    HW118656   5.180   3.009   2.371
 5923SOL    HW218657   5.041   3.068   2.354
 5924SOL     OW18658   4.274   2.044   2.755
 5924SOL    HW118659   4.276   2.072   2.846
 5924SOL    HW218660   4.275   2.125   2.704
 5925SOL     OW18661   4.730   3.305   2.334
 5925SOL    HW118662   4.692   3.377   2.285
 5925SOL    HW218663   4.713   3.327   2.426
 5926SOL     OW18664   4.079   3.671   2.724
 5926SOL    HW118665   4.122   3.586   2.732
 5926SOL    HW218666   4.147   3.735   2.742
 5927SOL     OW18667   4.940   3.404   3.381
 5927SOL    HW118668   4.927   3.331   3.441
 5927SOL    HW218669   4.883   3.385   3.307
 5928SOL     OW18670   4.044   2.819   2.112
 5928SOL    HW118671   4.126   2.838   2.066
 5928SOL    HW218672   4.013   2.737   2.073
 5929SOL     OW18673   4.190   3.126   3.599
 5929SOL    HW118674   4.162   3.131   3.508
 5929SOL    HW218675   4.108   3.124   3.649
 5930SOL     OW18676   4.832   3.637   2.098
 5930SOL    HW118677   4.760   3.592   2.143
 5930SOL    HW218678   4.857   3.578   2.027
 5931SOL     OW18679   3.920   2.147   3.362
 5931SOL    HW118680   3.833   2.184   3.345
 5931SOL    HW218681   3.906   2.084   3.432
 5932SOL     OW18682   4.190   3.599   2.183
 5932SOL    HW118683   4.232   3.656   2.247
 5932SOL    HW218684   4.262   3.569   2.127
 5933SOL     OW18685   5.121   1.969   2.286
 5933SOL    HW118686   5.101   1.951   2.194
 5933SOL    HW218687   5.215   1.985   2.288
 5934SOL     OW18688   3.978   3.653   3.094
 5934SOL    HW118689   4.031   3.588   3.141
 5934SOL    HW218690   3.970   3.619   3.005
 5935SOL     OW18691   4.662   3.560   2.761
 5935SOL    HW118692   4.741   3.510   2.779
 5935SOL    HW218693   4.617   3.511   2.692
 5936SOL     OW18694   4.117   2.557   2.338
 5936SOL    HW118695   4.137   2.465   2.350
 5936SOL    HW218696   4.023   2.563   2.356
 5937SOL     OW18697   4.359   1.985   1.967
 5937SOL    HW118698   4.429   1.920   1.979
 5937SOL    HW218699   4.310   1.953   1.891
 5938SOL     OW18700   4.490   2.141   3.616
 5938SOL    HW118701   4.566   2.082   3.617
 5938SOL    HW218702   4.441   2.118   3.695
 5939SOL     OW18703   4.599   3.383   3.056
 5939SOL    HW118704   4.585   3.348   2.968
 5939SOL    HW218705   4.670   3.329   3.092
 5940SOL     OW18706   5.058   2.453   3.294
 5940SOL    HW118707   5.090   2.421   3.378
 5940SOL    HW218708   5.100   2.538   3.283
 5941SOL     OW18709   4.538   3.257   2.801
 5941SOL    HW118710   4.623   3.246   2.757
 5941SOL    HW218711   4.474   3.258   2.730
 5942SOL     OW18712   4.652   2.371   2.765
 5942SOL    HW118713   4.628   2.362   2.672
 5942SOL    HW218714   4.683   2.284   2.790
 5943SOL     OW18715   4.273   1.925   2.364
 5943SOL    HW118716   4.192   1.926   2.416
 5943SOL    HW218717   4.267   2.003   2.310
 5944SOL     OW18718   5.137   3.042   1.906
 5944SOL    HW118719   5.146   2.964   1.960
 5944SOL    HW218720   5.049   3.075   1.926
 5945SOL     OW18721   4.016   1.909   2.047
 5945SOL    HW118722   4.074   1.974   2.007
 5945SOL    HW218723   4.074   1.846   2.088
 5946SOL     OW18724   4.661   2.108   2.322
 5946SOL    HW118725   4.634   2.149   2.240
 5946SOL    HW218726   4.756   2.121   2.325
 5947SOL     OW18727   4.801   2.543   3.323
 5947SOL    HW118728   4.733   2.476   3.325
 5947SOL    HW218729   4.883   2.495   3.313
 5948SOL     OW18730   4.941   3.433   2.656
 5948SOL    HW118731   4.963   3.499   2.591
 5948SOL    HW218732   5.021   3.422   2.707
 5949SOL     OW18733   4.193   3.011   2.596
 5949SOL    HW118734   4.124   2.992   2.659
 5949SOL    HW218735   4.153   2.995   2.510
 5950SOL     OW18736   4.996   3.656   2.467
 5950SOL    HW118737   5.038   3.717   2.407
 5950SOL    HW218738   4.929   3.708   2.512
 5951SOL     OW18739   4.748   2.406   1.883
 5951SOL    HW118740   4.704   2.488   1.863
 5951SOL    HW218741   4.809   2.428   1.954
 5952SOL     OW18742   3.813   2.447   3.237
 5952SOL    HW118743   3.904   2.434   3.212
 5952SOL    HW218744   3.816   2.507   3.311
 5953SOL     OW18745   4.283   2.089   3.028
 5953SOL    HW118746   4.324   2.013   3.068
 5953SOL    HW218747   4.192   2.086   3.058
 5954SOL     OW18748   4.593   2.321   2.501
 5954SOL    HW118749   4.546   2.376   2.438
 5954SOL    HW218750   4.613   2.241   2.453
 5955SOL     OW18751   4.739   1.915   2.614
 5955SOL    HW118752   4.681   1.908   2.538
 5955SOL    HW218753   4.717   1.839   2.668
 5956SOL     OW18754   5.157   3.038   2.713
 5956SOL    HW118755   5.101   2.961   2.726
 5956SOL    HW218756   5.169   3.043   2.618
 5957SOL     OW18757   4.215   3.280   2.019
 5957SOL    HW118758   4.140   3.251   2.071
 5957SOL    HW218759   4.200   3.242   1.932
 5958SOL     OW18760   5.127   2.424   1.942
 5958SOL    HW118761   5.055   2.414   2.003
 5958SOL    HW218762   5.202   2.386   1.987
 5959SOL     OW18763   4.250   2.125   2.180
 5959SOL    HW118764   4.294   2.077   2.110
 5959SOL    HW218765   4.227   2.209   2.142
 5960SOL     OW18766   4.781   3.216   3.195
 5960SOL    HW118767   4.706   3.185   3.246
 5960SOL    HW218768   4.856   3.173   3.236
 5961SOL     OW18769   0.006   3.466   3.479
 5961SOL    HW118770   0.040   3.472   3.389
 5961SOL    HW218771   0.083   3.446   3.532
 5962SOL     OW18772   4.853   3.065   2.969
 5962SOL    HW118773   4.791   3.101   3.033
 5962SOL    HW218774   4.819   3.094   2.884
 5963SOL     OW18775   4.642   1.960   3.259
 5963SOL    HW118776   4.664   1.941   3.167
 5963SOL    HW218777   4.721   1.999   3.295
 5964SOL     OW18778   4.708   2.975   3.587
 5964SOL    HW118779   4.617   2.992   3.607
 5964SOL    HW218780   4.706   2.898   3.530
 5965SOL     OW18781   4.432   2.923   2.233
 5965SOL    HW118782   4.418   2.907   2.326
 5965SOL    HW218783   4.508   2.870   2.210
 5966SOL     OW18784   4.143   2.679   3.113
 5966SOL    HW118785   4.212   2.688   3.180
 5966SOL    HW218786   4.111   2.590   3.125
 5967SOL     OW18787   4.989   2.237   3.138
 5967SOL    HW118788   5.023   2.316   3.179
 5967SOL    HW218789   4.899   2.261   3.113
 5968SOL     OW18790   3.796   3.432   3.213
 5968SOL    HW118791   3.767   3.510   3.165
 5968SOL    HW218792   3.892   3.436   3.209
 5969SOL     OW18793   4.073   2.971   2.353
 5969SOL    HW118794   4.078   3.045   2.292
 5969SOL    HW218795   4.071   2.893   2.297
 5970SOL     OW18796   4.277   2.398   2.722
 5970SOL    HW118797   4.293   2.457   2.647
 5970SOL    HW218798   4.342   2.425   2.787
 5971SOL     OW18799   4.972   3.211   2.250
 5971SOL    HW118800   5.026   3.284   2.280
 5971SOL    HW218801   4.884   3.231   2.283
 5972SOL     OW18802   4.994   3.318   3.001
 5972SOL    HW118803   5.049   3.320   3.080
 5972SOL    HW218804   4.940   3.240   3.012
 5973SOL     OW18805   4.071   3.389   3.177
 5973SOL    HW118806   4.059   3.347   3.092
 5973SOL    HW218807   4.166   3.401   3.184
 5974SOL     OW18808   4.148   2.605   3.468
 5974SOL    HW118809   4.209   2.649   3.408
 5974SOL    HW218810   4.188   2.519   3.482
 5975SOL     OW18811   4.718   1.986   3.618
 5975SOL    HW118812   4.774   2.058   3.590
 5975SOL    HW218813   4.766   1.907   3.592
 5976SOL     OW18814   4.222   1.903   3.609
 5976SOL    HW118815   4.179   1.848   3.544
 5976SOL    HW218816   4.163   1.977   3.622
 5977SOL     OW18817   4.308   2.734   2.893
 5977SOL    HW118818   4.337   2.826   2.892
 5977SOL    HW218819   4.251   2.729   2.970
 5978SOL     OW18820   5.086   2.719   2.899
 5978SOL    HW118821   5.009   2.701   2.845
 5978SOL    HW218822   5.138   2.639   2.894
 5979SOL     OW18823   4.928   2.393   2.127
 5979SOL    HW118824   4.935   2.313   2.179
 5979SOL    HW218825   4.885   2.456   2.184
 5980SOL     OW18826   4.022   2.061   3.109
 5980SOL    HW118827   3.985   2.095   3.191
 5980SOL    HW218828   4.002   1.967   3.111
 5981SOL     OW18829   3.748   3.174   3.136
 5981SOL    HW118830   3.784   3.116   3.204
 5981SOL    HW218831   3.765   3.262   3.169
 5982SOL     OW18832   4.448   2.493   2.920
 5982SOL    HW118833   4.523   2.477   2.862
 5982SOL    HW218834   4.420   2.582   2.899
 5983SOL     OW18835   4.026   1.926   2.485
 5983SOL    HW118836   4.007   2.017   2.508
 5983SOL    HW218837   4.034   1.881   2.570
 5984SOL     OW18838   0.035   2.255   2.221
 5984SOL    HW118839   0.055   2.181   2.278
 5984SOL    HW218840   0.017   2.328   2.282
 5985SOL     OW18841   4.751   2.621   2.822
 5985SOL    HW118842   4.749   2.639   2.916
 5985SOL    HW218843   4.725   2.529   2.815
 5986SOL     OW18844   4.698   3.424   3.576
 5986SOL    HW118845   4.687   3.471   3.493
 5986SOL    HW218846   4.746   3.344   3.551
 5987SOL     OW18847   4.081   2.780   3.670
 5987SOL    HW118848   4.162   2.799   3.718
 5987SOL    HW218849   4.107   2.716   3.604
 5988SOL     OW18850   5.027   2.691   1.899
 5988SOL    HW118851   5.065   2.603   1.901
 5988SOL    HW218852   5.054   2.727   1.814
 5989SOL     OW18853   4.789   3.196   2.717
 5989SOL    HW118854   4.793   3.124   2.654
 5989SOL    HW218855   4.847   3.263   2.681
 5990SOL     OW18856   4.032   2.671   2.809
 5990SOL    HW118857   4.126   2.692   2.803
 5990SOL    HW218858   4.030   2.581   2.842
 5991SOL     OW18859   4.056   2.387   2.874
 5991SOL    HW118860   4.020   2.300   2.858
 5991SOL    HW218861   4.132   2.392   2.816
 5992SOL     OW18862   4.856   2.238   3.543
 5992SOL    HW118863   4.809   2.293   3.605
 5992SOL    HW218864   4.944   2.278   3.538
 5993SOL     OW18865   4.885   2.064   3.331
 5993SOL    HW118866   4.874   2.126   3.403
 5993SOL    HW218867   4.924   2.116   3.260
 5994SOL     OW18868   3.729   3.183   2.057
 5994SOL    HW118869   3.642   3.198   2.019
 5994SOL    HW218870   3.726   3.094   2.091
 5995SOL     OW18871   3.814   3.650   2.800
 5995SOL    HW118872   3.784   3.570   2.757
 5995SOL    HW218873   3.904   3.662   2.769
 5996SOL     OW18874   4.221   3.435   2.768
 5996SOL    HW118875   4.289   3.498   2.792
 5996SOL    HW218876   4.265   3.372   2.711
 5997SOL     OW18877   4.707   2.654   3.089
 5997SOL    HW118878   4.762   2.631   3.163
 5997SOL    HW218879   4.621   2.617   3.109
 5998SOL     OW18880   3.756   2.400   2.971
 5998SOL    HW118881   3.844   2.395   2.933
 5998SOL    HW218882   3.770   2.424   3.062
 5999SOL     OW18883   3.923   2.379   3.588
 5999SOL    HW118884   3.972   2.339   3.517
 5999SOL    HW218885   3.879   2.454   3.548
 6000SOL     OW18886   5.112   2.800   3.528
 6000SOL    HW118887   5.121   2.895   3.516
 6000SOL    HW218888   5.115   2.764   3.440
 6001SOL     OW18889   4.540   2.431   2.221
 6001SOL    HW118890   4.543   2.356   2.161
 6001SOL    HW218891   4.466   2.483   2.190
 6002SOL     OW18892   3.968   3.414   3.590
 6002SOL    HW118893   3.944   3.478   3.657
 6002SOL    HW218894   3.970   3.330   3.636
 6003SOL     OW18895   4.425   2.312   3.121
 6003SOL    HW118896   4.372   2.239   3.091
 6003SOL    HW218897   4.421   2.376   3.050
 6004SOL     OW18898   4.645   3.542   3.330
 6004SOL    HW118899   4.623   3.510   3.243
 6004SOL    HW218900   4.646   3.637   3.321
 6005SOL     OW18901   4.189   2.354   2.049
 6005SOL    HW118902   4.247   2.428   2.071
 6005SOL    HW218903   4.103   2.395   2.037
 6006SOL     OW18904   3.866   3.004   3.331
 6006SOL    HW118905   3.869   2.952   3.412
 6006SOL    HW218906   3.885   2.941   3.262
 6007SOL     OW18907   5.054   2.911   3.086
 6007SOL    HW118908   5.075   2.847   3.019
 6007SOL    HW218909   4.982   2.962   3.049
 6008SOL     OW18910   5.034   2.722   2.178
 6008SOL    HW118911   4.952   2.689   2.215
 6008SOL    HW218912   5.023   2.713   2.084
 6009SOL     OW18913   4.960   3.593   2.983
 6009SOL    HW118914   5.045   3.614   2.946
 6009SOL    HW218915   4.960   3.498   2.993
 6010SOL     OW18916   3.805   3.129   2.874
 6010SOL    HW118917   3.789   3.141   2.968
 6010SOL    HW218918   3.733   3.073   2.845
 6011SOL     OW18919   4.401   3.527   3.590
 6011SOL    HW118920   4.349   3.607   3.584
 6011SOL    HW218921   4.470   3.538   3.524
 6012SOL     OW18922   0.081   2.022   2.392
 6012SOL    HW118923   0.165   2.009   2.348
 6012SOL    HW218924   0.068   1.942   2.443
 6013SOL     OW18925   5.111   3.432   2.342
 6013SOL    HW118926   5.181   3.472   2.291
 6013SOL    HW218927   5.061   3.506   2.377
 6014SOL     OW18928   3.859   3.659   3.705
 6014SOL    HW118929   3.809   3.593   3.753
 6014SOL    HW218930   3.908   3.706   3.773
 6015SOL     OW18931   5.016   2.781   2.534
 6015SOL    HW118932   5.094   2.727   2.521
 6015SOL    HW218933   5.034   2.862   2.485
 6016SOL     OW18934   4.538   3.135   3.292
 6016SOL    HW118935   4.510   3.174   3.375
 6016SOL    HW218936   4.469   3.158   3.230
 6017SOL     OW18937   4.395   3.482   2.017
 6017SOL    HW118938   4.406   3.494   1.923
 6017SOL    HW218939   4.340   3.404   2.025
 6018SOL     OW18940   3.986   2.178   2.578
 6018SOL    HW118941   3.901   2.214   2.555
 6018SOL    HW218942   3.983   2.170   2.674
 6019SOL     OW18943   4.908   3.471   1.904
 6019SOL    HW118944   4.920   3.377   1.914
 6019SOL    HW218945   4.854   3.480   1.825
 6020SOL     OW18946   4.548   2.868   3.234
 6020SOL    HW118947   4.591   2.864   3.149
 6020SOL    HW218948   4.548   2.961   3.256
 6021SOL     OW18949   4.640   2.773   2.152
 6021SOL    HW118950   4.702   2.805   2.086
 6021SOL    HW218951   4.687   2.702   2.197
 6022SOL     OW18952   4.092   3.164   3.354
 6022SOL    HW118953   4.080   3.242   3.299
 6022SOL    HW218954   4.014   3.111   3.337
 6023SOL     OW18955   4.776   2.969   2.569
 6023SOL    HW118956   4.705   2.919   2.609
 6023SOL    HW218957   4.834   2.902   2.531
 6024SOL     OW18958   4.740   2.101   2.830
 6024SOL    HW118959   4.737   2.054   2.747
 6024SOL    HW218960   4.736   2.033   2.897
 6025SOL     OW18961   4.326   3.350   2.344
 6025SOL    HW118962   4.371   3.300   2.275
 6025SOL    HW218963   4.258   3.398   2.298
 6026SOL     OW18964   3.983   3.207   2.150
 6026SOL    HW118965   3.890   3.205   2.128
 6026SOL    HW218966   3.986   3.244   2.238
 6027SOL     OW18967   3.840   2.863   3.571
 6027SOL    HW118968   3.767   2.843   3.630
 6027SOL    HW218969   3.918   2.842   3.622
 6028SOL     OW18970   4.398   2.058   3.362
 6028SOL    HW118971   4.482   2.038   3.320
 6028SOL    HW218972   4.421   2.090   3.449
 6029SOL     OW18973   3.802   2.196   1.897
 6029SOL    HW118974   3.715   2.176   1.863
 6029SOL    HW218975   3.832   2.271   1.846
 6030SOL     OW18976   5.162   2.722   3.266
 6030SOL    HW118977   5.111   2.779   3.209
 6030SOL    HW218978   5.251   2.728   3.232
 6031SOL     OW18979   3.792   2.018   2.172
 6031SOL    HW118980   3.778   2.098   2.122
 6031SOL    HW218981   3.877   1.986   2.143
 6032SOL     OW18982   4.907   3.191   1.976
 6032SOL    HW118983   4.813   3.173   1.977
 6032SOL    HW218984   4.931   3.198   2.069
 6033SOL     OW18985   4.344   2.693   3.295
 6033SOL    HW118986   4.401   2.769   3.280
 6033SOL    HW218987   4.405   2.619   3.302
 6034SOL     OW18988   4.442   2.425   3.566
 6034SOL    HW118989   4.481   2.487   3.627
 6034SOL    HW218990   4.468   2.339   3.598
 6035SOL     OW18991   5.182   3.066   3.494
 6035SOL    HW118992   5.173   3.079   3.589
 6035SOL    HW218993   5.276   3.073   3.478
 6036SOL     OW18994   4.103   3.601   3.426
 6036SOL    HW118995   4.018   3.643   3.413
 6036SOL    HW218996   4.083   3.518   3.469
 6037SOL     OW18997   4.940   2.182   2.318
 6037SOL    HW118998   5.002   2.110   2.305
 6037SOL    HW218999   4.970   2.226   2.397
 6038SOL     OW19000   4.315   2.600   2.531
 6038SOL    HW119001   4.353   2.686   2.516
 6038SOL    HW219002   4.246   2.592   2.464
 6039SOL     OW19003   4.590   3.228   1.897
 6039SOL    HW119004   4.549   3.259   1.978
 6039SOL    HW219005   4.607   3.308   1.847
 6040SOL     OW19006   4.384   3.653   2.806
 6040SOL    HW119007   4.364   3.744   2.783
 6040SOL    HW219008   4.479   3.647   2.800
 6041SOL     OW19009   4.592   2.829   2.717
 6041SOL    HW119010   4.642   2.757   2.757
 6041SOL    HW219011   4.557   2.878   2.792
 6042SOL     OW19012   4.806   2.849   1.952
 6042SOL    HW119013   4.782   2.899   1.874
 6042SOL    HW219014   4.881   2.796   1.925
 6043SOL     OW19015   3.949   3.166   3.718
 6043SOL    HW119016   3.875   3.113   3.689
 6043SOL    HW219017   3.934   3.178   3.812
 6044SOL     OW19018   3.807   3.096   2.527
 6044SOL    HW119019   3.810   3.045   2.608
 6044SOL    HW219020   3.876   3.058   2.472
 6045SOL     OW19021   4.405   3.264   3.490
 6045SOL    HW119022   4.325   3.222   3.521
 6045SOL    HW219023   4.401   3.352   3.526
 6046SOL     OW19024   4.154   2.296   2.388
 6046SOL    HW119025   4.183   2.225   2.330
 6046SOL    HW219026   4.105   2.252   2.458
 6047SOL     OW19027   0.095   3.383   2.962
 6047SOL    HW119028   0.028   3.359   2.898
 6047SOL    HW219029   0.102   3.307   3.019
 6048SOL     OW19030   4.065   2.419   3.152
 6048SOL    HW119031   4.116   2.360   3.208
 6048SOL    HW219032   4.080   2.387   3.063
 6049SOL     OW19033   4.552   3.439   2.539
 6049SOL    HW119034   4.540   3.493   2.461
 6049SOL    HW219035   4.474   3.383   2.542
 6050SOL     OW19036   5.147   2.081   2.977
 6050SOL    HW119037   5.193   2.016   3.031
 6050SOL    HW219038   5.101   2.136   3.040
 6051SOL     OW19039   4.730   1.881   3.005
 6051SOL    HW119040   4.677   1.812   2.964
 6051SOL    HW219041   4.818   1.843   3.009
 6052SOL     OW19042   4.494   3.195   2.177
 6052SOL    HW119043   4.464   3.104   2.183
 6052SOL    HW219044   4.577   3.195   2.225
 6053SOL     OW19045   4.344   3.419   3.147
 6053SOL    HW119046   4.346   3.501   3.196
 6053SOL    HW219047   4.431   3.411   3.109
 6054SOL     OW19048   5.058   1.908   2.029
 6054SOL    HW119049   5.082   1.867   1.946
 6054SOL    HW219050   4.973   1.870   2.051
 6055SOL     OW19051   5.028   2.320   2.544
 6055SOL    HW119052   4.973   2.399   2.548
 6055SOL    HW219053   5.017   2.279   2.630
 6056SOL     OW19054   0.002   2.087   2.742
 6056SOL    HW119055   5.236   2.075   2.810
 6056SOL    HW219056   5.276   2.167   2.697
 6057SOL     OW19057   3.767   2.933   2.168
 6057SOL    HW119058   3.861   2.925   2.151
 6057SOL    HW219059   3.739   2.844   2.191
 6058SOL     OW19060   4.604   3.512   2.208
 6058SOL    HW119061   4.533   3.497   2.145
 6058SOL    HW219062   4.576   3.589   2.257
 6059SOL     OW19063   3.954   2.485   3.846
 6059SOL    HW119064   3.864   2.483   3.879
 6059SOL    HW219065   3.946   2.458   3.754
 6060SOL     OW19066   3.947   2.140   4.714
 6060SOL    HW119067   3.975   2.109   4.800
 6060SOL    HW219068   3.856   2.113   4.707
 6061SOL     OW19069   3.733   2.246   4.367
 6061SOL    HW119070   3.654   2.277   4.413
 6061SOL    HW219071   3.702   2.171   4.316
 6062SOL     OW19072   4.291   3.149   4.899
 6062SOL    HW119073   4.204   3.150   4.860
 6062SOL    HW219074   4.304   3.238   4.931
 6063SOL     OW19075   5.285   3.398   4.430
 6063SOL    HW119076   5.246   3.354   4.506
 6063SOL    HW219077   5.220   3.389   4.360
 6064SOL     OW19078   4.858   2.561   4.424
 6064SOL    HW119079   4.908   2.642   4.414
 6064SOL    HW219080   4.810   2.573   4.506
 6065SOL     OW19081   4.481   3.005   4.765
 6065SOL    HW119082   4.411   3.039   4.821
 6065SOL    HW219083   4.515   3.082   4.720
 6066SOL     OW19084   4.593   2.636   5.547
 6066SOL    HW119085   4.574   2.708   5.607
 6066SOL    HW219086   4.614   2.680   5.464
 6067SOL     OW19087   4.411   2.864   4.371
 6067SOL    HW119088   4.475   2.853   4.441
 6067SOL    HW219089   4.341   2.916   4.410
 6068SOL     OW19090   4.434   3.013   5.537
 6068SOL    HW119091   4.482   3.092   5.563
 6068SOL    HW219092   4.352   3.046   5.501
 6069SOL     OW19093   4.054   3.289   4.793
 6069SOL    HW119094   3.982   3.249   4.745
 6069SOL    HW219095   4.103   3.338   4.726
 6070SOL     OW19096   5.161   3.343   5.075
 6070SOL    HW119097   5.205   3.423   5.101
 6070SOL    HW219098   5.106   3.321   5.150
 6071SOL     OW19099   4.173   2.260   5.212
 6071SOL    HW119100   4.247   2.200   5.217
 6071SOL    HW219101   4.096   2.204   5.224
 6072SOL     OW19102   3.943   3.578   4.197
 6072SOL    HW119103   3.966   3.654   4.250
 6072SOL    HW219104   4.016   3.569   4.136
 6073SOL     OW19105   4.860   3.202   5.418
 6073SOL    HW119106   4.899   3.198   5.505
 6073SOL    HW219107   4.807   3.122   5.411
 6074SOL     OW19108   3.959   3.305   4.256
 6074SOL    HW119109   3.936   3.397   4.265
 6074SOL    HW219110   3.905   3.260   4.321
 6075SOL     OW19111   3.995   2.955   4.628
 6075SOL    HW119112   3.981   2.868   4.666
 6075SOL    HW219113   3.927   3.010   4.668
 6076SOL     OW19114   4.334   3.655   5.151
 6076SOL    HW119115   4.253   3.636   5.199
 6076SOL    HW219116   4.358   3.743   5.178
 6077SOL     OW19117   4.310   2.843   3.858
 6077SOL    HW119118   4.355   2.893   3.790
 6077SOL    HW219119   4.349   2.874   3.940
 6078SOL     OW19120   3.845   2.513   4.279
 6078SOL    HW119121   3.814   2.427   4.308
 6078SOL    HW219122   3.850   2.565   4.360
 6079SOL     OW19123   3.755   3.456   3.846
 6079SOL    HW119124   3.739   3.364   3.869
 6079SOL    HW219125   3.733   3.504   3.926
 6080SOL     OW19126   0.111   2.803   4.300
 6080SOL    HW119127   0.198   2.765   4.316
 6080SOL    HW219128   0.129   2.887   4.257
 6081SOL     OW19129   3.847   2.604   5.311
 6081SOL    HW119130   3.939   2.629   5.317
 6081SOL    HW219131   3.799   2.686   5.317
 6082SOL     OW19132   4.338   3.247   4.459
 6082SOL    HW119133   4.292   3.164   4.469
 6082SOL    HW219134   4.321   3.274   4.369
 6083SOL     OW19135   5.007   3.099   5.149
 6083SOL    HW119136   5.040   3.032   5.089
 6083SOL    HW219137   5.062   3.091   5.227
 6084SOL     OW19138   4.538   1.862   4.232
 6084SOL    HW119139   4.579   1.946   4.213
 6084SOL    HW219140   4.445   1.882   4.242
 6085SOL     OW19141   3.913   2.829   4.996
 6085SOL    HW119142   3.994   2.783   4.976
 6085SOL    HW219143   3.844   2.777   4.955
 6086SOL     OW19144   4.897   3.669   5.347
 6086SOL    HW119145   4.918   3.728   5.275
 6086SOL    HW219146   4.919   3.582   5.315
 6087SOL     OW19147   4.057   2.112   5.537
 6087SOL    HW119148   4.101   2.196   5.550
 6087SOL    HW219149   3.967   2.126   5.567
 6088SOL     OW19150   5.169   3.297   4.661
 6088SOL    HW119151   5.106   3.304   4.733
 6088SOL    HW219152   5.162   3.206   4.632
 6089SOL     OW19153   4.320   2.583   3.990
 6089SOL    HW119154   4.325   2.665   3.940
 6089SOL    HW219155   4.255   2.600   4.058
 6090SOL     OW19156   4.996   2.198   4.643
 6090SOL    HW119157   4.908   2.169   4.665
 6090SOL    HW219158   5.051   2.164   4.714
 6091SOL     OW19159   4.516   2.479   5.175
 6091SOL    HW119160   4.489   2.456   5.264
 6091SOL    HW219161   4.475   2.413   5.119
 6092SOL     OW19162   5.115   2.342   5.404
 6092SOL    HW119163   5.116   2.380   5.492
 6092SOL    HW219164   5.190   2.282   5.403
 6093SOL     OW19165   4.679   2.750   5.306
 6093SOL    HW119166   4.731   2.678   5.271
 6093SOL    HW219167   4.631   2.784   5.231
 6094SOL     OW19168   4.715   2.275   4.963
 6094SOL    HW119169   4.629   2.296   4.999
 6094SOL    HW219170   4.696   2.228   4.881
 6095SOL     OW19171   4.775   2.560   4.149
 6095SOL    HW119172   4.790   2.554   4.244
 6095SOL    HW219173   4.692   2.514   4.136
 6096SOL     OW19174   3.861   2.687   4.484
 6096SOL    HW119175   3.929   2.685   4.552
 6096SOL    HW219176   3.809   2.764   4.505
 6097SOL     OW19177   3.851   3.711   5.302
 6097SOL    HW119178   3.852   3.690   5.396
 6097SOL    HW219179   3.760   3.699   5.275
 6098SOL     OW19180   4.617   2.209   3.918
 6098SOL    HW119181   4.657   2.270   3.856
 6098SOL    HW219182   4.632   2.123   3.880
 6099SOL     OW19183   5.092   3.009   4.272
 6099SOL    HW119184   5.180   3.009   4.233
 6099SOL    HW219185   5.041   3.068   4.217
 6100SOL     OW19186   4.274   2.044   4.617
 6100SOL    HW119187   4.276   2.072   4.708
 6100SOL    HW219188   4.275   2.125   4.566
 6101SOL     OW19189   4.730   3.306   4.197
 6101SOL    HW119190   4.692   3.378   4.147
 6101SOL    HW219191   4.712   3.327   4.288
 6102SOL     OW19192   4.078   3.671   4.586
 6102SOL    HW119193   4.121   3.586   4.594
 6102SOL    HW219194   4.148   3.734   4.604
 6103SOL     OW19195   4.940   3.404   5.243
 6103SOL    HW119196   4.927   3.331   5.303
 6103SOL    HW219197   4.883   3.385   5.169
 6104SOL     OW19198   4.043   2.819   3.974
 6104SOL    HW119199   4.126   2.838   3.929
 6104SOL    HW219200   4.014   2.736   3.937
 6105SOL     OW19201   4.190   3.126   5.462
 6105SOL    HW119202   4.162   3.131   5.370
 6105SOL    HW219203   4.108   3.124   5.511
 6106SOL     OW19204   4.833   3.637   3.961
 6106SOL    HW119205   4.760   3.592   4.005
 6106SOL    HW219206   4.857   3.577   3.890
 6107SOL     OW19207   3.925   2.145   5.224
 6107SOL    HW119208   3.843   2.195   5.215
 6107SOL    HW219209   3.904   2.077   5.288
 6108SOL     OW19210   4.190   3.600   4.044
 6108SOL    HW119211   4.232   3.656   4.109
 6108SOL    HW219212   4.262   3.568   3.989
 6109SOL     OW19213   5.121   1.969   4.148
 6109SOL    HW119214   5.101   1.951   4.056
 6109SOL    HW219215   5.215   1.984   4.150
 6110SOL     OW19216   3.979   3.653   4.955
 6110SOL    HW119217   4.031   3.588   5.002
 6110SOL    HW219218   3.970   3.619   4.867
 6111SOL     OW19219   4.662   3.560   4.623
 6111SOL    HW119220   4.741   3.509   4.641
 6111SOL    HW219221   4.617   3.511   4.554
 6112SOL     OW19222   4.119   2.557   4.198
 6112SOL    HW119223   4.138   2.465   4.211
 6112SOL    HW219224   4.025   2.565   4.216
 6113SOL     OW19225   4.359   1.985   3.829
 6113SOL    HW119226   4.429   1.920   3.841
 6113SOL    HW219227   4.310   1.953   3.754
 6114SOL     OW19228   4.490   2.141   5.478
 6114SOL    HW119229   4.566   2.082   5.479
 6114SOL    HW219230   4.441   2.118   5.557
 6115SOL     OW19231   4.600   3.384   4.918
 6115SOL    HW119232   4.584   3.348   4.830
 6115SOL    HW219233   4.670   3.329   4.954
 6116SOL     OW19234   5.058   2.453   5.156
 6116SOL    HW119235   5.090   2.421   5.240
 6116SOL    HW219236   5.100   2.538   5.145
 6117SOL     OW19237   4.538   3.257   4.663
 6117SOL    HW119238   4.622   3.246   4.619
 6117SOL    HW219239   4.474   3.258   4.592
 6118SOL     OW19240   4.652   2.371   4.627
 6118SOL    HW119241   4.629   2.363   4.534
 6118SOL    HW219242   4.683   2.284   4.652
 6119SOL     OW19243   4.273   1.925   4.226
 6119SOL    HW119244   4.192   1.926   4.278
 6119SOL    HW219245   4.267   2.004   4.172
 6120SOL     OW19246   5.136   3.042   3.768
 6120SOL    HW119247   5.146   2.964   3.822
 6120SOL    HW219248   5.049   3.075   3.788
 6121SOL     OW19249   4.015   1.910   3.909
 6121SOL    HW119250   4.073   1.975   3.869
 6121SOL    HW219251   4.074   1.847   3.950
 6122SOL     OW19252   4.661   2.108   4.184
 6122SOL    HW119253   4.634   2.149   4.102
 6122SOL    HW219254   4.756   2.121   4.187
 6123SOL     OW19255   4.801   2.543   5.185
 6123SOL    HW119256   4.733   2.476   5.187
 6123SOL    HW219257   4.883   2.494   5.175
 6124SOL     OW19258   4.941   3.432   4.518
 6124SOL    HW119259   4.963   3.499   4.453
 6124SOL    HW219260   5.021   3.422   4.569
 6125SOL     OW19261   4.195   3.011   4.457
 6125SOL    HW119262   4.127   2.993   4.523
 6125SOL    HW219263   4.152   2.995   4.373
 6126SOL     OW19264   4.996   3.656   4.329
 6126SOL    HW119265   5.038   3.717   4.269
 6126SOL    HW219266   4.929   3.708   4.374
 6127SOL     OW19267   4.749   2.406   3.745
 6127SOL    HW119268   4.704   2.488   3.725
 6127SOL    HW219269   4.809   2.428   3.816
 6128SOL     OW19270   3.803   2.416   5.115
 6128SOL    HW119271   3.894   2.416   5.088
 6128SOL    HW219272   3.796   2.487   5.178
 6129SOL     OW19273   4.283   2.089   4.890
 6129SOL    HW119274   4.324   2.012   4.930
 6129SOL    HW219275   4.192   2.086   4.919
 6130SOL     OW19276   4.593   2.321   4.363
 6130SOL    HW119277   4.545   2.376   4.301
 6130SOL    HW219278   4.613   2.241   4.315
 6131SOL     OW19279   4.739   1.915   4.476
 6131SOL    HW119280   4.681   1.908   4.400
 6131SOL    HW219281   4.717   1.839   4.530
 6132SOL     OW19282   5.157   3.038   4.575
 6132SOL    HW119283   5.101   2.962   4.589
 6132SOL    HW219284   5.168   3.043   4.480
 6133SOL     OW19285   4.215   3.280   3.881
 6133SOL    HW119286   4.140   3.251   3.933
 6133SOL    HW219287   4.200   3.242   3.794
 6134SOL     OW19288   5.127   2.424   3.804
 6134SOL    HW119289   5.054   2.414   3.865
 6134SOL    HW219290   5.202   2.386   3.849
 6135SOL     OW19291   4.250   2.125   4.042
 6135SOL    HW119292   4.294   2.077   3.972
 6135SOL    HW219293   4.227   2.209   4.004
 6136SOL     OW19294   4.781   3.216   5.058
 6136SOL    HW119295   4.706   3.185   5.108
 6136SOL    HW219296   4.856   3.173   5.098
 6137SOL     OW19297   0.006   3.467   5.341
 6137SOL    HW119298   0.040   3.472   5.251
 6137SOL    HW219299   0.083   3.446   5.394
 6138SOL     OW19300   4.853   3.065   4.831
 6138SOL    HW119301   4.791   3.100   4.895
 6138SOL    HW219302   4.819   3.094   4.746
 6139SOL     OW19303   4.642   1.960   5.121
 6139SOL    HW119304   4.664   1.941   5.029
 6139SOL    HW219305   4.721   1.998   5.157
 6140SOL     OW19306   4.708   2.975   5.449
 6140SOL    HW119307   4.617   2.992   5.469
 6140SOL    HW219308   4.706   2.898   5.392
 6141SOL     OW19309   4.432   2.923   4.095
 6141SOL    HW119310   4.418   2.907   4.188
 6141SOL    HW219311   4.508   2.870   4.073
 6142SOL     OW19312   4.143   2.677   4.976
 6142SOL    HW119313   4.211   2.686   5.042
 6142SOL    HW219314   4.107   2.589   4.990
 6143SOL     OW19315   4.989   2.237   5.000
 6143SOL    HW119316   5.023   2.316   5.041
 6143SOL    HW219317   4.899   2.260   4.975
 6144SOL     OW19318   3.795   3.436   5.078
 6144SOL    HW119319   3.765   3.505   5.020
 6144SOL    HW219320   3.890   3.437   5.071
 6145SOL     OW19321   4.075   2.971   4.215
 6145SOL    HW119322   4.077   3.044   4.153
 6145SOL    HW219323   4.071   2.893   4.159
 6146SOL     OW19324   4.277   2.399   4.584
 6146SOL    HW119325   4.292   2.457   4.509
 6146SOL    HW219326   4.341   2.426   4.649
 6147SOL     OW19327   4.972   3.211   4.111
 6147SOL    HW119328   5.026   3.284   4.142
 6147SOL    HW219329   4.884   3.231   4.145
 6148SOL     OW19330   4.994   3.318   4.863
 6148SOL    HW119331   5.049   3.320   4.942
 6148SOL    HW219332   4.940   3.240   4.874
 6149SOL     OW19333   4.071   3.389   5.039
 6149SOL    HW119334   4.058   3.347   4.955
 6149SOL    HW219335   4.165   3.401   5.046
 6150SOL     OW19336   4.138   2.607   5.326
 6150SOL    HW119337   4.200   2.652   5.268
 6150SOL    HW219338   4.176   2.521   5.341
 6151SOL     OW19339   4.718   1.986   5.480
 6151SOL    HW119340   4.774   2.058   5.452
 6151SOL    HW219341   4.766   1.907   5.454
 6152SOL     OW19342   4.222   1.903   5.472
 6152SOL    HW119343   4.179   1.849   5.405
 6152SOL    HW219344   4.163   1.977   5.484
 6153SOL     OW19345   4.312   2.734   4.759
 6153SOL    HW119346   4.336   2.827   4.753
 6153SOL    HW219347   4.253   2.730   4.834
 6154SOL     OW19348   5.086   2.719   4.761
 6154SOL    HW119349   5.008   2.702   4.708
 6154SOL    HW219350   5.137   2.638   4.756
 6155SOL     OW19351   4.928   2.393   3.989
 6155SOL    HW119352   4.935   2.313   4.041
 6155SOL    HW219353   4.885   2.456   4.046
 6156SOL     OW19354   4.023   2.061   4.970
 6156SOL    HW119355   3.985   2.094   5.051
 6156SOL    HW219356   4.004   1.967   4.971
 6157SOL     OW19357   3.773   3.172   5.001
 6157SOL    HW119358   3.805   3.118   5.073
 6157SOL    HW219359   3.779   3.262   5.035
 6158SOL     OW19360   4.448   2.492   4.782
 6158SOL    HW119361   4.523   2.478   4.724
 6158SOL    HW219362   4.420   2.582   4.763
 6159SOL     OW19363   4.027   1.926   4.347
 6159SOL    HW119364   4.008   2.017   4.370
 6159SOL    HW219365   4.034   1.881   4.431
 6160SOL     OW19366   0.035   2.255   4.083
 6160SOL    HW119367   0.055   2.181   4.140
 6160SOL    HW219368   0.016   2.327   4.144
 6161SOL     OW19369   4.752   2.621   4.684
 6161SOL    HW119370   4.749   2.639   4.778
 6161SOL    HW219371   4.725   2.529   4.676
 6162SOL     OW19372   4.698   3.423   5.438
 6162SOL    HW119373   4.687   3.471   5.355
 6162SOL    HW219374   4.746   3.344   5.413
 6163SOL     OW19375   4.077   2.778   5.533
 6163SOL    HW119376   4.160   2.797   5.577
 6163SOL    HW219377   4.100   2.716   5.464
 6164SOL     OW19378   5.027   2.691   3.761
 6164SOL    HW119379   5.064   2.603   3.763
 6164SOL    HW219380   5.054   2.727   3.676
 6165SOL     OW19381   4.789   3.196   4.579
 6165SOL    HW119382   4.793   3.124   4.516
 6165SOL    HW219383   4.847   3.263   4.543
 6166SOL     OW19384   4.042   2.671   4.681
 6166SOL    HW119385   4.135   2.691   4.675
 6166SOL    HW219386   4.039   2.581   4.712
 6167SOL     OW19387   4.056   2.386   4.737
 6167SOL    HW119388   4.020   2.298   4.721
 6167SOL    HW219389   4.132   2.392   4.679
 6168SOL     OW19390   4.856   2.238   5.405
 6168SOL    HW119391   4.809   2.293   5.467
 6168SOL    HW219392   4.944   2.278   5.400
 6169SOL     OW19393   4.885   2.064   5.193
 6169SOL    HW119394   4.874   2.126   5.265
 6169SOL    HW219395   4.924   2.116   5.122
 6170SOL     OW19396   3.728   3.183   3.918
 6170SOL    HW119397   3.639   3.194   3.883
 6170SOL    HW219398   3.729   3.094   3.954
 6171SOL     OW19399   3.814   3.650   4.662
 6171SOL    HW119400   3.783   3.571   4.619
 6171SOL    HW219401   3.904   3.661   4.631
 6172SOL     OW19402   4.221   3.436   4.629
 6172SOL    HW119403   4.290   3.498   4.653
 6172SOL    HW219404   4.264   3.372   4.573
 6173SOL     OW19405   4.707   2.654   4.950
 6173SOL    HW119406   4.762   2.631   5.025
 6173SOL    HW219407   4.621   2.618   4.971
 6174SOL     OW19408   3.761   2.392   4.839
 6174SOL    HW119409   3.845   2.393   4.793
 6174SOL    HW219410   3.784   2.408   4.931
 6175SOL     OW19411   3.916   2.381   5.451
 6175SOL    HW119412   3.970   2.341   5.383
 6175SOL    HW219413   3.873   2.454   5.408
 6176SOL     OW19414   5.112   2.800   5.390
 6176SOL    HW119415   5.121   2.895   5.378
 6176SOL    HW219416   5.115   2.764   5.302
 6177SOL     OW19417   4.540   2.432   4.082
 6177SOL    HW119418   4.543   2.356   4.023
 6177SOL    HW219419   4.466   2.484   4.052
 6178SOL     OW19420   3.967   3.413   5.452
 6178SOL    HW119421   3.945   3.477   5.520
 6178SOL    HW219422   3.969   3.329   5.497
 6179SOL     OW19423   4.425   2.312   4.984
 6179SOL    HW119424   4.372   2.239   4.953
 6179SOL    HW219425   4.421   2.375   4.912
 6180SOL     OW19426   4.645   3.542   5.192
 6180SOL    HW119427   4.623   3.509   5.105
 6180SOL    HW219428   4.646   3.637   5.183
 6181SOL     OW19429   4.189   2.355   3.912
 6181SOL    HW119430   4.246   2.428   3.933
 6181SOL    HW219431   4.103   2.394   3.898
 6182SOL     OW19432   3.870   3.003   5.197
 6182SOL    HW119433   3.873   2.951   5.277
 6182SOL    HW219434   3.887   2.939   5.127
 6183SOL     OW19435   5.054   2.912   4.948
 6183SOL    HW119436   5.075   2.847   4.881
 6183SOL    HW219437   4.982   2.962   4.911
 6184SOL     OW19438   5.035   2.722   4.040
 6184SOL    HW119439   4.953   2.689   4.078
 6184SOL    HW219440   5.023   2.713   3.946
 6185SOL     OW19441   4.960   3.593   4.845
 6185SOL    HW119442   5.046   3.614   4.808
 6185SOL    HW219443   4.960   3.498   4.855
 6186SOL     OW19444   3.812   3.139   4.736
 6186SOL    HW119445   3.796   3.146   4.830
 6186SOL    HW219446   3.746   3.078   4.705
 6187SOL     OW19447   4.401   3.527   5.452
 6187SOL    HW119448   4.349   3.607   5.446
 6187SOL    HW219449   4.469   3.537   5.386
 6188SOL     OW19450   0.081   2.022   4.254
 6188SOL    HW119451   0.165   2.008   4.210
 6188SOL    HW219452   0.068   1.942   4.305
 6189SOL     OW19453   5.111   3.432   4.204
 6189SOL    HW119454   5.180   3.473   4.153
 6189SOL    HW219455   5.061   3.506   4.240
 6190SOL     OW19456   3.859   3.659   5.568
 6190SOL    HW119457   3.809   3.593   5.616
 6190SOL    HW219458   3.908   3.706   5.635
 6191SOL     OW19459   5.016   2.781   4.396
 6191SOL    HW119460   5.094   2.727   4.383
 6191SOL    HW219461   5.034   2.862   4.347
 6192SOL     OW19462   4.538   3.135   5.154
 6192SOL    HW119463   4.510   3.175   5.237
 6192SOL    HW219464   4.469   3.157   5.092
 6193SOL     OW19465   4.395   3.482   3.879
 6193SOL    HW119466   4.406   3.494   3.785
 6193SOL    HW219467   4.340   3.404   3.888
 6194SOL     OW19468   3.989   2.177   4.441
 6194SOL    HW119469   3.904   2.213   4.416
 6194SOL    HW219470   3.985   2.169   4.536
 6195SOL     OW19471   4.909   3.471   3.765
 6195SOL    HW119472   4.920   3.377   3.777
 6195SOL    HW219473   4.854   3.480   3.687
 6196SOL     OW19474   4.548   2.868   5.097
 6196SOL    HW119475   4.590   2.864   5.010
 6196SOL    HW219476   4.547   2.961   5.118
 6197SOL     OW19477   4.640   2.773   4.014
 6197SOL    HW119478   4.702   2.805   3.948
 6197SOL    HW219479   4.687   2.702   4.059
 6198SOL     OW19480   4.093   3.165   5.216
 6198SOL    HW119481   4.080   3.241   5.160
 6198SOL    HW219482   4.017   3.109   5.199
 6199SOL     OW19483   4.776   2.969   4.431
 6199SOL    HW119484   4.705   2.919   4.471
 6199SOL    HW219485   4.833   2.902   4.393
 6200SOL     OW19486   4.740   2.101   4.692
 6200SOL    HW119487   4.738   2.054   4.609
 6200SOL    HW219488   4.736   2.033   4.759
 6201SOL     OW19489   4.328   3.351   4.206
 6201SOL    HW119490   4.371   3.301   4.137
 6201SOL    HW219491   4.256   3.397   4.161
 6202SOL     OW19492   3.983   3.207   4.010
 6202SOL    HW119493   3.889   3.204   3.989
 6202SOL    HW219494   3.986   3.244   4.099
 6203SOL     OW19495   3.837   2.885   5.443
 6203SOL    HW119496   3.760   2.862   5.496
 6203SOL    HW219497   3.910   2.846   5.490
 6204SOL     OW19498   4.398   2.058   5.223
 6204SOL    HW119499   4.482   2.038   5.182
 6204SOL    HW219500   4.421   2.090   5.311
 6205SOL     OW19501   3.805   2.190   3.759
 6205SOL    HW119502   3.715   2.172   3.731
 6205SOL    HW219503   3.829   2.269   3.713
 6206SOL     OW19504   5.162   2.722   5.128
 6206SOL    HW119505   5.110   2.779   5.071
 6206SOL    HW219506   5.251   2.728   5.094
 6207SOL     OW19507   3.791   2.019   4.036
 6207SOL    HW119508   3.774   2.097   3.983
 6207SOL    HW219509   3.876   1.987   4.005
 6208SOL     OW19510   4.907   3.191   3.838
 6208SOL    HW119511   4.813   3.173   3.839
 6208SOL    HW219512   4.931   3.198   3.930
 6209SOL     OW19513   4.343   2.693   5.158
 6209SOL    HW119514   4.399   2.769   5.142
 6209SOL    HW219515   4.404   2.619   5.166
 6210SOL     OW19516   4.442   2.425   5.428
 6210SOL    HW119517   4.482   2.487   5.490
 6210SOL    HW219518   4.469   2.339   5.460
 6211SOL     OW19519   5.182   3.066   5.356
 6211SOL    HW119520   5.173   3.079   5.451
 6211SOL    HW219521   5.276   3.073   5.340
 6212SOL     OW19522   4.104   3.602   5.289
 6212SOL    HW119523   4.018   3.643   5.275
 6212SOL    HW219524   4.083   3.517   5.330
 6213SOL     OW19525   4.940   2.182   4.180
 6213SOL    HW119526   5.002   2.110   4.167
 6213SOL    HW219527   4.970   2.226   4.259
 6214SOL     OW19528   4.315   2.599   4.393
 6214SOL    HW119529   4.353   2.686   4.378
 6214SOL    HW219530   4.246   2.592   4.327
 6215SOL     OW19531   4.591   3.228   3.759
 6215SOL    HW119532   4.549   3.257   3.840
 6215SOL    HW219533   4.606   3.309   3.709
 6216SOL     OW19534   4.384   3.654   4.669
 6216SOL    HW119535   4.365   3.745   4.645
 6216SOL    HW219536   4.479   3.647   4.662
 6217SOL     OW19537   4.592   2.829   4.580
 6217SOL    HW119538   4.641   2.758   4.619
 6217SOL    HW219539   4.556   2.878   4.654
 6218SOL     OW19540   4.807   2.850   3.814
 6218SOL    HW119541   4.782   2.899   3.736
 6218SOL    HW219542   4.881   2.796   3.787
 6219SOL     OW19543   3.948   3.165   5.580
 6219SOL    HW119544   3.882   3.103   5.550
 6219SOL    HW219545   3.930   3.177   5.673
 6220SOL     OW19546   3.825   3.104   4.394
 6220SOL    HW119547   3.804   3.046   4.468
 6220SOL    HW219548   3.883   3.052   4.339
 6221SOL     OW19549   4.405   3.263   5.353
 6221SOL    HW119550   4.325   3.222   5.383
 6221SOL    HW219551   4.401   3.352   5.388
 6222SOL     OW19552   4.155   2.296   4.250
 6222SOL    HW119553   4.183   2.225   4.192
 6222SOL    HW219554   4.106   2.252   4.320
 6223SOL     OW19555   0.096   3.382   4.823
 6223SOL    HW119556   0.028   3.358   4.760
 6223SOL    HW219557   0.102   3.307   4.882
 6224SOL     OW19558   4.055   2.418   5.016
 6224SOL    HW119559   4.110   2.362   5.071
 6224SOL    HW219560   4.073   2.389   4.927
 6225SOL     OW19561   4.552   3.439   4.401
 6225SOL    HW119562   4.540   3.492   4.323
 6225SOL    HW219563   4.474   3.383   4.404
 6226SOL     OW19564   5.147   2.081   4.839
 6226SOL    HW119565   5.192   2.016   4.893
 6226SOL    HW219566   5.101   2.136   4.902
 6227SOL     OW19567   4.730   1.881   4.866
 6227SOL    HW119568   4.677   1.812   4.826
 6227SOL    HW219569   4.818   1.843   4.871
 6228SOL     OW19570   4.495   3.194   4.038
 6228SOL    HW119571   4.464   3.104   4.045
 6228SOL    HW219572   4.577   3.195   4.087
 6229SOL     OW19573   4.344   3.419   5.009
 6229SOL    HW119574   4.346   3.501   5.058
 6229SOL    HW219575   4.431   3.411   4.971
 6230SOL     OW19576   5.058   1.908   3.891
 6230SOL    HW119577   5.082   1.867   3.808
 6230SOL    HW219578   4.973   1.870   3.913
 6231SOL     OW19579   5.028   2.320   4.406
 6231SOL    HW119580   4.973   2.399   4.410
 6231SOL    HW219581   5.017   2.279   4.492
 6232SOL     OW19582   0.002   2.087   4.604
 6232SOL    HW119583   5.236   2.075   4.672
 6232SOL    HW219584   5.276   2.168   4.559
 6233SOL     OW19585   3.772   2.932   4.022
 6233SOL    HW119586   3.866   2.920   4.009
 6233SOL    HW219587   3.740   2.847   4.051
 6234SOL     OW19588   4.605   3.512   4.070
 6234SOL    HW119589   4.533   3.496   4.007
 6234SOL    HW219590   4.577   3.589   4.119
 6235SOL     OW19591   3.954   2.485   5.709
 6235SOL    HW119592   3.864   2.484   5.743
 6235SOL    HW219593   3.945   2.460   5.617
 6236SOL     OW19594   3.949   2.143   6.578
 6236SOL    HW119595   3.977   2.109   6.662
 6236SOL    HW219596   3.859   2.111   6.568
 6237SOL     OW19597   3.728   2.245   6.224
 6237SOL    HW119598   3.646   2.270   6.265
 6237SOL    HW219599   3.707   2.165   6.175
 6238SOL     OW19600   4.291   3.149   6.761
 6238SOL    HW119601   4.203   3.152   6.723
 6238SOL    HW219602   4.306   3.238   6.794
 6239SOL     OW19603   5.285   3.398   6.292
 6239SOL    HW119604   5.246   3.354   6.368
 6239SOL    HW219605   5.220   3.389   6.222
 6240SOL     OW19606   4.858   2.561   6.286
 6240SOL    HW119607   4.908   2.642   6.276
 6240SOL    HW219608   4.810   2.573   6.368
 6241SOL     OW19609   4.480   3.005   6.627
 6241SOL    HW119610   4.410   3.039   6.683
 6241SOL    HW219611   4.514   3.082   6.582
 6242SOL     OW19612   4.592   2.638   7.407
 6242SOL    HW119613   4.570   2.713   7.463
 6242SOL    HW219614   4.615   2.677   7.323
 6243SOL     OW19615   4.410   2.865   6.233
 6243SOL    HW119616   4.475   2.853   6.303
 6243SOL    HW219617   4.341   2.917   6.273
 6244SOL     OW19618   4.434   3.013   7.398
 6244SOL    HW119619   4.482   3.092   7.425
 6244SOL    HW219620   4.352   3.046   7.362
 6245SOL     OW19621   4.054   3.288   6.654
 6245SOL    HW119622   3.982   3.250   6.604
 6245SOL    HW219623   4.104   3.338   6.590
 6246SOL     OW19624   5.161   3.343   6.937
 6246SOL    HW119625   5.205   3.423   6.963
 6246SOL    HW219626   5.105   3.321   7.012
 6247SOL     OW19627   4.173   2.260   7.075
 6247SOL    HW119628   4.248   2.201   7.079
 6247SOL    HW219629   4.097   2.204   7.086
 6248SOL     OW19630   3.943   3.576   6.058
 6248SOL    HW119631   3.965   3.652   6.112
 6248SOL    HW219632   4.016   3.568   5.997
 6249SOL     OW19633   4.859   3.201   7.278
 6249SOL    HW119634   4.899   3.199   7.365
 6249SOL    HW219635   4.807   3.121   7.273
 6250SOL     OW19636   3.954   3.303   6.121
 6250SOL    HW119637   3.937   3.397   6.125
 6250SOL    HW219638   3.894   3.265   6.185
 6251SOL     OW19639   3.982   2.952   6.477
 6251SOL    HW119640   3.978   2.866   6.518
 6251SOL    HW219641   3.923   3.006   6.531
 6252SOL     OW19642   4.333   3.655   7.012
 6252SOL    HW119643   4.253   3.636   7.061
 6252SOL    HW219644   4.358   3.743   7.039
 6253SOL     OW19645   4.311   2.843   5.720
 6253SOL    HW119646   4.355   2.893   5.652
 6253SOL    HW219647   4.350   2.874   5.802
 6254SOL     OW19648   3.839   2.515   6.145
 6254SOL    HW119649   3.810   2.426   6.166
 6254SOL    HW219650   3.831   2.562   6.228
 6255SOL     OW19651   3.755   3.457   5.710
 6255SOL    HW119652   3.739   3.365   5.730
 6255SOL    HW219653   3.732   3.504   5.790
 6256SOL     OW19654   0.112   2.803   6.163
 6256SOL    HW119655   0.198   2.765   6.178
 6256SOL    HW219656   0.129   2.886   6.119
 6257SOL     OW19657   3.846   2.604   7.172
 6257SOL    HW119658   3.938   2.630   7.180
 6257SOL    HW219659   3.797   2.686   7.179
 6258SOL     OW19660   4.337   3.247   6.321
 6258SOL    HW119661   4.291   3.164   6.330
 6258SOL    HW219662   4.321   3.274   6.231
 6259SOL     OW19663   5.007   3.099   7.010
 6259SOL    HW119664   5.040   3.032   6.950
 6259SOL    HW219665   5.062   3.091   7.088
 6260SOL     OW19666   4.538   1.862   6.095
 6260SOL    HW119667   4.579   1.946   6.075
 6260SOL    HW219668   4.445   1.882   6.104
 6261SOL     OW19669   3.914   2.828   6.857
 6261SOL    HW119670   3.999   2.786   6.842
 6261SOL    HW219671   3.851   2.773   6.811
 6262SOL     OW19672   4.897   3.670   7.209
 6262SOL    HW119673   4.918   3.728   7.135
 6262SOL    HW219674   4.919   3.582   7.177
 6263SOL     OW19675   4.057   2.111   7.399
 6263SOL    HW119676   4.101   2.195   7.411
 6263SOL    HW219677   3.967   2.126   7.429
 6264SOL     OW19678   5.169   3.297   6.522
 6264SOL    HW119679   5.106   3.304   6.595
 6264SOL    HW219680   5.162   3.206   6.494
 6265SOL     OW19681   4.320   2.584   5.852
 6265SOL    HW119682   4.325   2.665   5.801
 6265SOL    HW219683   4.254   2.601   5.920
 6266SOL     OW19684   4.996   2.199   6.506
 6266SOL    HW119685   4.908   2.169   6.527
 6266SOL    HW219686   5.051   2.164   6.576
 6267SOL     OW19687   4.515   2.480   7.037
 6267SOL    HW119688   4.489   2.456   7.126
 6267SOL    HW219689   4.475   2.413   6.982
 6268SOL     OW19690   5.115   2.343   7.266
 6268SOL    HW119691   5.116   2.380   7.354
 6268SOL    HW219692   5.190   2.284   7.264
 6269SOL     OW19693   4.679   2.750   7.168
 6269SOL    HW119694   4.731   2.679   7.132
 6269SOL    HW219695   4.631   2.784   7.093
 6270SOL     OW19696   4.715   2.275   6.824
 6270SOL    HW119697   4.629   2.296   6.861
 6270SOL    HW219698   4.696   2.228   6.743
 6271SOL     OW19699   4.775   2.560   6.011
 6271SOL    HW119700   4.790   2.554   6.106
 6271SOL    HW219701   4.692   2.514   5.998
 6272SOL     OW19702   3.813   2.683   6.362
 6272SOL    HW119703   3.894   2.675   6.413
 6272SOL    HW219704   3.770   2.761   6.397
 6273SOL     OW19705   3.851   3.711   7.164
 6273SOL    HW119706   3.851   3.689   7.258
 6273SOL    HW219707   3.759   3.700   7.138
 6274SOL     OW19708   4.617   2.209   5.781
 6274SOL    HW119709   4.657   2.270   5.718
 6274SOL    HW219710   4.631   2.123   5.742
 6275SOL     OW19711   5.092   3.008   6.134
 6275SOL    HW119712   5.180   3.008   6.094
 6275SOL    HW219713   5.041   3.068   6.078
 6276SOL     OW19714   4.274   2.044   6.479
 6276SOL    HW119715   4.276   2.073   6.570
 6276SOL    HW219716   4.275   2.125   6.428
 6277SOL     OW19717   4.730   3.305   6.059
 6277SOL    HW119718   4.692   3.378   6.009
 6277SOL    HW219719   4.713   3.327   6.150
 6278SOL     OW19720   4.078   3.671   6.448
 6278SOL    HW119721   4.122   3.586   6.456
 6278SOL    HW219722   4.147   3.735   6.466
 6279SOL     OW19723   4.940   3.404   7.105
 6279SOL    HW119724   4.928   3.331   7.165
 6279SOL    HW219725   4.883   3.385   7.031
 6280SOL     OW19726   4.044   2.819   5.836
 6280SOL    HW119727   4.126   2.838   5.790
 6280SOL    HW219728   4.013   2.738   5.797
 6281SOL     OW19729   4.189   3.125   7.323
 6281SOL    HW119730   4.162   3.130   7.232
 6281SOL    HW219731   4.107   3.124   7.373
 6282SOL     OW19732   4.832   3.637   5.823
 6282SOL    HW119733   4.760   3.592   5.867
 6282SOL    HW219734   4.857   3.578   5.751
 6283SOL     OW19735   3.925   2.144   7.087
 6283SOL    HW119736   3.842   2.192   7.080
 6283SOL    HW219737   3.906   2.073   7.149
 6284SOL     OW19738   4.190   3.599   5.907
 6284SOL    HW119739   4.232   3.656   5.971
 6284SOL    HW219740   4.261   3.569   5.851
 6285SOL     OW19741   5.121   1.969   6.010
 6285SOL    HW119742   5.101   1.951   5.918
 6285SOL    HW219743   5.215   1.985   6.012
 6286SOL     OW19744   3.979   3.653   6.818
 6286SOL    HW119745   4.031   3.588   6.864
 6286SOL    HW219746   3.970   3.619   6.729
 6287SOL     OW19747   4.662   3.560   6.485
 6287SOL    HW119748   4.741   3.510   6.503
 6287SOL    HW219749   4.617   3.511   6.416
 6288SOL     OW19750   4.117   2.557   6.063
 6288SOL    HW119751   4.138   2.464   6.074
 6288SOL    HW219752   4.023   2.563   6.080
 6289SOL     OW19753   4.359   1.985   5.691
 6289SOL    HW119754   4.429   1.920   5.703
 6289SOL    HW219755   4.310   1.953   5.616
 6290SOL     OW19756   4.489   2.139   7.340
 6290SOL    HW119757   4.566   2.082   7.341
 6290SOL    HW219758   4.445   2.122   7.423
 6291SOL     OW19759   4.599   3.383   6.780
 6291SOL    HW119760   4.585   3.348   6.692
 6291SOL    HW219761   4.670   3.329   6.816
 6292SOL     OW19762   5.058   2.454   7.018
 6292SOL    HW119763   5.090   2.421   7.102
 6292SOL    HW219764   5.100   2.539   7.007
 6293SOL     OW19765   4.538   3.257   6.525
 6293SOL    HW119766   4.623   3.246   6.481
 6293SOL    HW219767   4.474   3.258   6.454
 6294SOL     OW19768   4.651   2.371   6.489
 6294SOL    HW119769   4.628   2.363   6.396
 6294SOL    HW219770   4.683   2.284   6.514
 6295SOL     OW19771   4.273   1.925   6.088
 6295SOL    HW119772   4.192   1.926   6.140
 6295SOL    HW219773   4.267   2.003   6.034
 6296SOL     OW19774   5.136   3.042   5.630
 6296SOL    HW119775   5.146   2.964   5.684
 6296SOL    HW219776   5.049   3.075   5.650
 6297SOL     OW19777   4.016   1.910   5.771
 6297SOL    HW119778   4.074   1.974   5.730
 6297SOL    HW219779   4.075   1.847   5.812
 6298SOL     OW19780   4.661   2.108   6.046
 6298SOL    HW119781   4.634   2.149   5.964
 6298SOL    HW219782   4.756   2.121   6.049
 6299SOL     OW19783   4.801   2.543   7.047
 6299SOL    HW119784   4.733   2.475   7.049
 6299SOL    HW219785   4.883   2.495   7.037
 6300SOL     OW19786   4.941   3.433   6.380
 6300SOL    HW119787   4.963   3.499   6.315
 6300SOL    HW219788   5.021   3.421   6.431
 6301SOL     OW19789   4.193   3.011   6.320
 6301SOL    HW119790   4.123   2.992   6.383
 6301SOL    HW219791   4.153   2.995   6.234
 6302SOL     OW19792   4.996   3.656   6.191
 6302SOL    HW119793   5.038   3.717   6.131
 6302SOL    HW219794   4.929   3.708   6.236
 6303SOL     OW19795   4.749   2.406   5.607
 6303SOL    HW119796   4.704   2.488   5.587
 6303SOL    HW219797   4.809   2.428   5.678
 6304SOL     OW19798   3.803   2.417   6.978
 6304SOL    HW119799   3.895   2.416   6.951
 6304SOL    HW219800   3.798   2.487   7.043
 6305SOL     OW19801   4.283   2.089   6.752
 6305SOL    HW119802   4.325   2.012   6.791
 6305SOL    HW219803   4.192   2.086   6.781
 6306SOL     OW19804   4.593   2.321   6.225
 6306SOL    HW119805   4.546   2.376   6.162
 6306SOL    HW219806   4.613   2.241   6.177
 6307SOL     OW19807   4.739   1.915   6.338
 6307SOL    HW119808   4.681   1.908   6.262
 6307SOL    HW219809   4.717   1.839   6.392
 6308SOL     OW19810   5.157   3.038   6.437
 6308SOL    HW119811   5.101   2.961   6.450
 6308SOL    HW219812   5.168   3.043   6.342
 6309SOL     OW19813   4.215   3.280   5.743
 6309SOL    HW119814   4.140   3.251   5.795
 6309SOL    HW219815   4.200   3.241   5.656
 6310SOL     OW19816   5.127   2.424   5.666
 6310SOL    HW119817   5.055   2.414   5.727
 6310SOL    HW219818   5.202   2.386   5.711
 6311SOL     OW19819   4.250   2.125   5.904
 6311SOL    HW119820   4.294   2.077   5.834
 6311SOL    HW219821   4.227   2.209   5.866
 6312SOL     OW19822   4.781   3.216   6.919
 6312SOL    HW119823   4.706   3.185   6.970
 6312SOL    HW219824   4.856   3.173   6.960
 6313SOL     OW19825   0.007   3.467   7.202
 6313SOL    HW119826   0.040   3.472   7.113
 6313SOL    HW219827   0.083   3.447   7.256
 6314SOL     OW19828   4.853   3.065   6.693
 6314SOL    HW119829   4.791   3.101   6.757
 6314SOL    HW219830   4.819   3.094   6.608
 6315SOL     OW19831   4.642   1.960   6.983
 6315SOL    HW119832   4.664   1.941   6.891
 6315SOL    HW219833   4.721   1.998   7.019
 6316SOL     OW19834   4.709   2.974   7.313
 6316SOL    HW119835   4.617   2.993   7.331
 6316SOL    HW219836   4.707   2.898   7.255
 6317SOL     OW19837   4.433   2.924   5.957
 6317SOL    HW119838   4.418   2.907   6.050
 6317SOL    HW219839   4.508   2.870   5.934
 6318SOL     OW19840   4.143   2.677   6.837
 6318SOL    HW119841   4.211   2.686   6.903
 6318SOL    HW219842   4.107   2.589   6.851
 6319SOL     OW19843   4.989   2.237   6.862
 6319SOL    HW119844   5.023   2.317   6.903
 6319SOL    HW219845   4.899   2.261   6.837
 6320SOL     OW19846   3.794   3.435   6.939
 6320SOL    HW119847   3.765   3.508   6.884
 6320SOL    HW219848   3.890   3.439   6.933
 6321SOL     OW19849   4.073   2.971   6.077
 6321SOL    HW119850   4.078   3.044   6.015
 6321SOL    HW219851   4.071   2.893   6.021
 6322SOL     OW19852   4.277   2.399   6.446
 6322SOL    HW119853   4.292   2.457   6.372
 6322SOL    HW219854   4.342   2.426   6.511
 6323SOL     OW19855   4.972   3.211   5.974
 6323SOL    HW119856   5.026   3.284   6.004
 6323SOL    HW219857   4.884   3.231   6.007
 6324SOL     OW19858   4.994   3.318   6.726
 6324SOL    HW119859   5.049   3.320   6.804
 6324SOL    HW219860   4.940   3.240   6.736
 6325SOL     OW19861   4.071   3.389   6.901
 6325SOL    HW119862   4.058   3.346   6.816
 6325SOL    HW219863   4.165   3.401   6.908
 6326SOL     OW19864   4.138   2.607   7.188
 6326SOL    HW119865   4.200   2.652   7.130
 6326SOL    HW219866   4.176   2.521   7.202
 6327SOL     OW19867   4.718   1.987   7.341
 6327SOL    HW119868   4.775   2.058   7.313
 6327SOL    HW219869   4.766   1.907   7.316
 6328SOL     OW19870   4.222   1.903   7.334
 6328SOL    HW119871   4.180   1.848   7.267
 6328SOL    HW219872   4.163   1.977   7.346
 6329SOL     OW19873   4.308   2.735   6.618
 6329SOL    HW119874   4.337   2.826   6.616
 6329SOL    HW219875   4.251   2.729   6.694
 6330SOL     OW19876   5.086   2.719   6.623
 6330SOL    HW119877   5.009   2.701   6.569
 6330SOL    HW219878   5.138   2.639   6.618
 6331SOL     OW19879   4.929   2.393   5.851
 6331SOL    HW119880   4.935   2.313   5.903
 6331SOL    HW219881   4.885   2.456   5.908
 6332SOL     OW19882   4.023   2.061   6.833
 6332SOL    HW119883   3.986   2.093   6.914
 6332SOL    HW219884   4.004   1.967   6.833
 6333SOL     OW19885   3.770   3.173   6.862
 6333SOL    HW119886   3.803   3.118   6.934
 6333SOL    HW219887   3.777   3.262   6.895
 6334SOL     OW19888   4.448   2.493   6.644
 6334SOL    HW119889   4.523   2.477   6.586
 6334SOL    HW219890   4.420   2.582   6.623
 6335SOL     OW19891   4.027   1.926   6.209
 6335SOL    HW119892   4.007   2.017   6.232
 6335SOL    HW219893   4.034   1.881   6.293
 6336SOL     OW19894   0.035   2.256   5.945
 6336SOL    HW119895   0.055   2.181   6.002
 6336SOL    HW219896   0.017   2.327   6.006
 6337SOL     OW19897   4.751   2.621   6.546
 6337SOL    HW119898   4.749   2.639   6.640
 6337SOL    HW219899   4.725   2.529   6.539
 6338SOL     OW19900   4.699   3.424   7.300
 6338SOL    HW119901   4.687   3.471   7.217
 6338SOL    HW219902   4.746   3.344   7.275
 6339SOL     OW19903   4.077   2.776   7.397
 6339SOL    HW119904   4.161   2.797   7.438
 6339SOL    HW219905   4.100   2.714   7.327
 6340SOL     OW19906   5.027   2.691   5.623
 6340SOL    HW119907   5.064   2.603   5.625
 6340SOL    HW219908   5.054   2.727   5.538
 6341SOL     OW19909   4.789   3.196   6.441
 6341SOL    HW119910   4.793   3.124   6.378
 6341SOL    HW219911   4.847   3.263   6.405
 6342SOL     OW19912   4.033   2.671   6.533
 6342SOL    HW119913   4.126   2.692   6.527
 6342SOL    HW219914   4.031   2.581   6.566
 6343SOL     OW19915   4.056   2.388   6.599
 6343SOL    HW119916   4.020   2.300   6.583
 6343SOL    HW219917   4.132   2.393   6.541
 6344SOL     OW19918   4.857   2.238   7.266
 6344SOL    HW119919   4.809   2.293   7.328
 6344SOL    HW219920   4.944   2.278   7.260
 6345SOL     OW19921   4.885   2.064   7.054
 6345SOL    HW119922   4.874   2.126   7.126
 6345SOL    HW219923   4.924   2.116   6.984
 6346SOL     OW19924   3.729   3.183   5.782
 6346SOL    HW119925   3.642   3.197   5.744
 6346SOL    HW219926   3.726   3.093   5.815
 6347SOL     OW19927   3.814   3.649   6.524
 6347SOL    HW119928   3.784   3.570   6.480
 6347SOL    HW219929   3.904   3.662   6.493
 6348SOL     OW19930   4.221   3.436   6.492
 6348SOL    HW119931   4.289   3.498   6.516
 6348SOL    HW219932   4.265   3.372   6.435
 6349SOL     OW19933   4.707   2.654   6.813
 6349SOL    HW119934   4.762   2.631   6.887
 6349SOL    HW219935   4.621   2.617   6.833
 6350SOL     OW19936   3.759   2.405   6.703
 6350SOL    HW119937   3.840   2.392   6.653
 6350SOL    HW219938   3.788   2.410   6.794
 6351SOL     OW19939   3.917   2.381   7.313
 6351SOL    HW119940   3.971   2.341   7.245
 6351SOL    HW219941   3.873   2.454   7.270
 6352SOL     OW19942   5.110   2.800   7.253
 6352SOL    HW119943   5.119   2.894   7.241
 6352SOL    HW219944   5.114   2.764   7.164
 6353SOL     OW19945   4.540   2.432   5.945
 6353SOL    HW119946   4.543   2.356   5.886
 6353SOL    HW219947   4.466   2.483   5.914
 6354SOL     OW19948   3.967   3.413   7.314
 6354SOL    HW119949   3.945   3.478   7.381
 6354SOL    HW219950   3.969   3.330   7.360
 6355SOL     OW19951   4.424   2.313   6.846
 6355SOL    HW119952   4.372   2.239   6.815
 6355SOL    HW219953   4.421   2.376   6.774
 6356SOL     OW19954   4.645   3.542   7.054
 6356SOL    HW119955   4.623   3.510   6.967
 6356SOL    HW219956   4.646   3.637   7.045
 6357SOL     OW19957   4.189   2.355   5.774
 6357SOL    HW119958   4.246   2.428   5.795
 6357SOL    HW219959   4.103   2.395   5.761
 6358SOL     OW19960   3.870   3.002   7.058
 6358SOL    HW119961   3.872   2.951   7.139
 6358SOL    HW219962   3.887   2.939   6.989
 6359SOL     OW19963   5.054   2.911   6.810
 6359SOL    HW119964   5.075   2.847   6.743
 6359SOL    HW219965   4.982   2.962   6.773
 6360SOL     OW19966   5.034   2.722   5.902
 6360SOL    HW119967   4.952   2.689   5.939
 6360SOL    HW219968   5.023   2.713   5.808
 6361SOL     OW19969   4.960   3.593   6.707
 6361SOL    HW119970   5.046   3.614   6.670
 6361SOL    HW219971   4.960   3.498   6.717
 6362SOL     OW19972   3.808   3.129   6.598
 6362SOL    HW119973   3.794   3.142   6.692
 6362SOL    HW219974   3.735   3.074   6.570
 6363SOL     OW19975   4.400   3.526   7.313
 6363SOL    HW119976   4.350   3.607   7.309
 6363SOL    HW219977   4.470   3.538   7.248
 6364SOL     OW19978   0.081   2.022   6.116
 6364SOL    HW119979   0.165   2.009   6.072
 6364SOL    HW219980   0.068   1.942   6.167
 6365SOL     OW19981   5.111   3.432   6.066
 6365SOL    HW119982   5.181   3.472   6.015
 6365SOL    HW219983   5.061   3.506   6.101
 6366SOL     OW19984   3.860   3.658   7.430
 6366SOL    HW119985   3.809   3.594   7.479
 6366SOL    HW219986   3.908   3.707   7.497
 6367SOL     OW19987   5.016   2.781   6.258
 6367SOL    HW119988   5.094   2.727   6.245
 6367SOL    HW219989   5.034   2.862   6.209
 6368SOL     OW19990   4.538   3.135   7.016
 6368SOL    HW119991   4.510   3.175   7.099
 6368SOL    HW219992   4.469   3.158   6.954
 6369SOL     OW19993   4.395   3.482   5.741
 6369SOL    HW119994   4.406   3.494   5.647
 6369SOL    HW219995   4.340   3.404   5.749
 6370SOL     OW19996   3.986   2.178   6.303
 6370SOL    HW119997   3.900   2.213   6.279
 6370SOL    HW219998   3.983   2.170   6.398
 6371SOL     OW19999   4.909   3.471   5.627
 6371SOL    HW120000   4.920   3.377   5.638
 6371SOL    HW220001   4.854   3.480   5.549
 6372SOL     OW20002   4.548   2.868   6.958
 6372SOL    HW120003   4.591   2.864   6.873
 6372SOL    HW220004   4.547   2.961   6.980
 6373SOL     OW20005   4.640   2.773   5.876
 6373SOL    HW120006   4.702   2.805   5.810
 6373SOL    HW220007   4.687   2.702   5.920
 6374SOL     OW20008   4.093   3.165   7.078
 6374SOL    HW120009   4.080   3.242   7.023
 6374SOL    HW220010   4.016   3.110   7.061
 6375SOL     OW20011   4.776   2.969   6.293
 6375SOL    HW120012   4.705   2.919   6.333
 6375SOL    HW220013   4.834   2.902   6.255
 6376SOL     OW20014   4.740   2.101   6.554
 6376SOL    HW120015   4.737   2.054   6.471
 6376SOL    HW220016   4.736   2.033   6.621
 6377SOL     OW20017   4.326   3.350   6.068
 6377SOL    HW120018   4.371   3.300   5.999
 6377SOL    HW220019   4.258   3.398   6.022
 6378SOL     OW20020   3.983   3.207   5.874
 6378SOL    HW120021   3.890   3.205   5.852
 6378SOL    HW220022   3.986   3.244   5.963
 6379SOL     OW20023   3.837   2.884   7.306
 6379SOL    HW120024   3.760   2.861   7.358
 6379SOL    HW220025   3.911   2.845   7.354
 6380SOL     OW20026   4.398   2.058   7.085
 6380SOL    HW120027   4.482   2.038   7.044
 6380SOL    HW220028   4.421   2.088   7.173
 6381SOL     OW20029   3.802   2.196   5.621
 6381SOL    HW120030   3.715   2.177   5.586
 6381SOL    HW220031   3.832   2.271   5.570
 6382SOL     OW20032   5.162   2.722   6.990
 6382SOL    HW120033   5.111   2.779   6.933
 6382SOL    HW220034   5.252   2.729   6.956
 6383SOL     OW20035   3.792   2.018   5.896
 6383SOL    HW120036   3.777   2.098   5.846
 6383SOL    HW220037   3.877   1.986   5.866
 6384SOL     OW20038   4.907   3.191   5.700
 6384SOL    HW120039   4.813   3.173   5.701
 6384SOL    HW220040   4.931   3.198   5.792
 6385SOL     OW20041   4.343   2.693   7.019
 6385SOL    HW120042   4.399   2.769   7.004
 6385SOL    HW220043   4.403   2.619   7.027
 6386SOL     OW20044   4.442   2.425   7.291
 6386SOL    HW120045   4.481   2.486   7.353
 6386SOL    HW220046   4.469   2.339   7.322
 6387SOL     OW20047   5.182   3.066   7.217
 6387SOL    HW120048   5.172   3.077   7.312
 6387SOL    HW220049   5.276   3.073   7.202
 6388SOL     OW20050   4.103   3.602   7.150
 6388SOL    HW120051   4.018   3.643   7.137
 6388SOL    HW220052   4.083   3.518   7.192
 6389SOL     OW20053   4.940   2.182   6.042
 6389SOL    HW120054   5.002   2.110   6.029
 6389SOL    HW220055   4.970   2.226   6.121
 6390SOL     OW20056   4.315   2.600   6.255
 6390SOL    HW120057   4.353   2.686   6.240
 6390SOL    HW220058   4.246   2.592   6.189
 6391SOL     OW20059   4.591   3.228   5.621
 6391SOL    HW120060   4.549   3.259   5.702
 6391SOL    HW220061   4.607   3.308   5.571
 6392SOL     OW20062   4.384   3.653   6.530
 6392SOL    HW120063   4.364   3.744   6.507
 6392SOL    HW220064   4.479   3.647   6.524
 6393SOL     OW20065   4.592   2.829   6.441
 6393SOL    HW120066   4.642   2.758   6.481
 6393SOL    HW220067   4.557   2.878   6.516
 6394SOL     OW20068   4.807   2.850   5.676
 6394SOL    HW120069   4.782   2.899   5.598
 6394SOL    HW220070   4.881   2.796   5.649
 6395SOL     OW20071   3.949   3.165   7.443
 6395SOL    HW120072   3.882   3.105   7.412
 6395SOL    HW220073   3.928   3.179   7.535
 6396SOL     OW20074   3.807   3.096   6.251
 6396SOL    HW120075   3.812   3.047   6.333
 6396SOL    HW220076   3.875   3.057   6.196
 6397SOL     OW20077   4.405   3.263   7.214
 6397SOL    HW120078   4.324   3.222   7.245
 6397SOL    HW220079   4.401   3.352   7.249
 6398SOL     OW20080   4.154   2.296   6.112
 6398SOL    HW120081   4.183   2.225   6.054
 6398SOL    HW220082   4.105   2.252   6.182
 6399SOL     OW20083   0.095   3.383   6.686
 6399SOL    HW120084   0.028   3.359   6.622
 6399SOL    HW220085   0.102   3.307   6.743
 6400SOL     OW20086   4.054   2.417   6.878
 6400SOL    HW120087   4.110   2.361   6.932
 6400SOL    HW220088   4.073   2.389   6.788
 6401SOL     OW20089   4.551   3.439   6.263
 6401SOL    HW120090   4.540   3.492   6.185
 6401SOL    HW220091   4.474   3.383   6.266
 6402SOL     OW20092   5.147   2.081   6.701
 6402SOL    HW120093   5.192   2.015   6.755
 6402SOL    HW220094   5.101   2.136   6.764
 6403SOL     OW20095   4.730   1.881   6.729
 6403SOL    HW120096   4.676   1.812   6.688
 6403SOL    HW220097   4.818   1.843   6.733
 6404SOL     OW20098   4.494   3.195   5.901
 6404SOL    HW120099   4.464   3.104   5.907
 6404SOL    HW220100   4.577   3.195   5.949
 6405SOL     OW20101   4.344   3.418   6.871
 6405SOL    HW120102   4.346   3.501   6.920
 6405SOL    HW220103   4.431   3.411   6.833
 6406SOL     OW20104   5.058   1.908   5.753
 6406SOL    HW120105   5.082   1.867   5.670
 6406SOL    HW220106   4.973   1.869   5.775
 6407SOL     OW20107   5.028   2.320   6.268
 6407SOL    HW120108   4.973   2.399   6.272
 6407SOL    HW220109   5.017   2.279   6.354
 6408SOL     OW20110   0.002   2.087   6.466
 6408SOL    HW120111   5.236   2.075   6.534
 6408SOL    HW220112   5.276   2.167   6.421
 6409SOL     OW20113   3.767   2.933   5.893
 6409SOL    HW120114   3.861   2.925   5.875
 6409SOL    HW220115   3.739   2.844   5.915
 6410SOL     OW20116   4.604   3.512   5.932
 6410SOL    HW120117   4.533   3.497   5.869
 6410SOL    HW220118   4.576   3.589   5.981
 6411SOL     OW20119   3.953   2.481   7.572
 6411SOL    HW120120   3.862   2.489   7.602
 6411SOL    HW220121   3.945   2.458   7.479
 6412SOL     OW20122   3.945   3.579   7.919
 6412SOL    HW120123   3.974   3.622   8.000
 6412SOL    HW220124   4.023   3.577   7.863
 6413SOL     OW20125   3.941   3.300   7.991
 6413SOL    HW120126   3.927   3.395   7.990
 6413SOL    HW220127   3.881   3.268   8.058
 6414SOL     OW20128   4.311   2.843   7.579
 6414SOL    HW120129   4.355   2.894   7.510
 6414SOL    HW220130   4.350   2.875   7.660
 6415SOL     OW20131   3.754   3.461   7.577
 6415SOL    HW120132   3.738   3.368   7.592
 6415SOL    HW220133   3.727   3.504   7.659
 6416SOL     OW20134   0.117   2.788   8.016
 6416SOL    HW120135   0.210   2.779   8.036
 6416SOL    HW220136   0.106   2.882   7.999
 6417SOL     OW20137   4.525   1.856   7.938
 6417SOL    HW120138   4.575   1.937   7.922
 6417SOL    HW220139   4.434   1.885   7.947
 6418SOL     OW20140   4.315   2.587   7.709
 6418SOL    HW120141   4.318   2.669   7.659
 6418SOL    HW220142   4.254   2.605   7.780
 6419SOL     OW20143   3.785   2.724   0.090
 6419SOL    HW120144   3.850   2.660   0.120
 6419SOL    HW220145   3.779   2.787   0.162
 6420SOL     OW20146   4.607   2.207   7.639
 6420SOL    HW120147   4.650   2.266   7.577
 6420SOL    HW220148   4.638   2.120   7.614
 6421SOL     OW20149   4.047   2.817   7.698
 6421SOL    HW120150   4.127   2.836   7.647
 6421SOL    HW220151   4.010   2.740   7.656
 6422SOL     OW20152   4.837   3.638   7.684
 6422SOL    HW120153   4.763   3.595   7.728
 6422SOL    HW220154   4.861   3.578   7.613
 6423SOL     OW20155   4.191   3.600   7.769
 6423SOL    HW120156   4.239   3.653   7.833
 6423SOL    HW220157   4.258   3.565   7.711
 6424SOL     OW20158   5.133   1.988   7.857
 6424SOL    HW120159   5.096   1.964   7.772
 6424SOL    HW220160   5.227   1.988   7.844
 6425SOL     OW20161   4.115   2.560   7.918
 6425SOL    HW120162   4.119   2.465   7.926
 6425SOL    HW220163   4.024   2.582   7.934
 6426SOL     OW20164   4.353   1.982   7.559
 6426SOL    HW120165   4.428   1.923   7.569
 6426SOL    HW220166   4.309   1.951   7.480
 6427SOL     OW20167   4.256   1.935   7.959
 6427SOL    HW120168   4.170   1.940   8.002
 6427SOL    HW220169   4.254   2.007   7.895
 6428SOL     OW20170   5.137   3.041   7.488
 6428SOL    HW120171   5.153   2.971   7.551
 6428SOL    HW220172   5.050   3.074   7.511
 6429SOL     OW20173   4.016   1.911   7.633
 6429SOL    HW120174   4.075   1.972   7.587
 6429SOL    HW220175   4.075   1.846   7.672
 6430SOL     OW20176   4.666   2.089   7.911
 6430SOL    HW120177   4.624   2.152   7.853
 6430SOL    HW220178   4.758   2.116   7.913
 6431SOL     OW20179   4.163   3.010   0.100
 6431SOL    HW120180   4.089   3.050   0.145
 6431SOL    HW220181   4.133   2.998   0.010
 6432SOL     OW20182   5.008   3.667   8.012
 6432SOL    HW120183   5.047   3.732   7.955
 6432SOL    HW220184   4.937   3.713   8.058
 6433SOL     OW20185   4.751   2.407   7.465
 6433SOL    HW120186   4.704   2.488   7.448
 6433SOL    HW220187   4.805   2.426   7.542
 6434SOL     OW20188   4.212   3.278   7.605
 6434SOL    HW120189   4.138   3.249   7.658
 6434SOL    HW220190   4.196   3.240   7.518
 6435SOL     OW20191   5.128   2.423   7.529
 6435SOL    HW120192   5.053   2.414   7.589
 6435SOL    HW220193   5.201   2.383   7.577
 6436SOL     OW20194   4.250   2.128   7.770
 6436SOL    HW120195   4.293   2.078   7.702
 6436SOL    HW220196   4.227   2.211   7.729
 6437SOL     OW20197   4.436   2.924   7.811
 6437SOL    HW120198   4.411   2.911   7.902
 6437SOL    HW220199   4.515   2.871   7.801
 6438SOL     OW20200   4.089   2.964   7.927
 6438SOL    HW120201   4.071   3.044   7.877
 6438SOL    HW220202   4.076   2.893   7.865
 6439SOL     OW20203   4.958   3.220   7.819
 6439SOL    HW120204   5.016   3.291   7.848
 6439SOL    HW220205   4.903   3.201   7.895
 6440SOL     OW20206   0.037   2.510   7.924
 6440SOL    HW120207   5.279   2.530   7.999
 6440SOL    HW220208   0.039   2.591   7.874
 6441SOL     OW20209   4.927   2.391   7.713
 6441SOL    HW120210   4.931   2.307   7.759
 6441SOL    HW220211   4.897   2.454   7.779
 6442SOL     OW20212   0.025   2.264   7.807
 6442SOL    HW120213   0.038   2.195   7.872
 6442SOL    HW220214   0.023   2.345   7.857
 6443SOL     OW20215   5.034   2.694   7.490
 6443SOL    HW120216   5.065   2.603   7.487
 6443SOL    HW220217   5.057   2.730   7.404
 6444SOL     OW20218   3.729   3.186   7.640
 6444SOL    HW120219   3.642   3.199   7.602
 6444SOL    HW220220   3.728   3.097   7.673
 6445SOL     OW20221   4.564   2.462   7.759
 6445SOL    HW120222   4.555   2.370   7.734
 6445SOL    HW220223   4.474   2.496   7.760
 6446SOL     OW20224   4.186   2.355   7.643
 6446SOL    HW120225   4.245   2.430   7.657
 6446SOL    HW220226   4.101   2.395   7.623
 6447SOL     OW20227   5.032   2.709   7.773
 6447SOL    HW120228   4.939   2.724   7.791
 6447SOL    HW220229   5.038   2.707   7.677
 6448SOL     OW20230   0.181   2.004   7.990
 6448SOL    HW120231   0.158   1.987   7.899
 6448SOL    HW220232   0.137   1.934   8.039
 6449SOL     OW20233   5.103   3.435   7.907
 6449SOL    HW120234   5.198   3.446   7.906
 6449SOL    HW220235   5.069   3.516   7.945
 6450SOL     OW20236   4.390   3.482   7.604
 6450SOL    HW120237   4.403   3.493   7.509
 6450SOL    HW220238   4.338   3.402   7.611
 6451SOL     OW20239   4.911   3.473   7.486
 6451SOL    HW120240   4.920   3.378   7.501
 6451SOL    HW220241   4.853   3.480   7.411
 6452SOL     OW20242   4.655   2.771   7.758
 6452SOL    HW120243   4.705   2.796   7.681
 6452SOL    HW220244   4.644   2.676   7.751
 6453SOL     OW20245   4.328   3.368   7.936
 6453SOL    HW120246   4.374   3.308   7.878
 6453SOL    HW220247   4.256   3.403   7.883
 6454SOL     OW20248   3.982   3.208   7.741
 6454SOL    HW120249   3.890   3.206   7.716
 6454SOL    HW220250   3.981   3.244   7.830
 6455SOL     OW20251   3.801   2.195   7.483
 6455SOL    HW120252   3.715   2.176   7.447
 6455SOL    HW220253   3.832   2.271   7.433
 6456SOL     OW20254   3.794   2.019   7.758
 6456SOL    HW120255   3.777   2.095   7.703
 6456SOL    HW220256   3.877   1.984   7.726
 6457SOL     OW20257   4.905   3.191   7.555
 6457SOL    HW120258   4.810   3.177   7.555
 6457SOL    HW220259   4.928   3.204   7.648
 6458SOL     OW20260   5.267   3.605   0.321
 6458SOL    HW120261   5.270   3.691   0.281
 6458SOL    HW220262   0.040   3.605   0.383
 6459SOL     OW20263   4.938   2.182   7.901
 6459SOL    HW120264   5.010   2.119   7.890
 6459SOL    HW220265   4.956   2.225   7.984
 6460SOL     OW20266   4.349   2.596   8.058
 6460SOL    HW120267   4.355   2.679   0.024
 6460SOL    HW220268   4.262   2.597   8.017
 6461SOL     OW20269   4.591   3.228   7.483
 6461SOL    HW120270   4.551   3.257   7.565
 6461SOL    HW220271   4.607   3.309   7.434
 6462SOL     OW20272   4.802   2.840   7.540
 6462SOL    HW120273   4.778   2.895   7.465
 6462SOL    HW220274   4.880   2.793   7.511
 6463SOL     OW20275   4.111   2.288   7.982
 6463SOL    HW120276   4.162   2.237   7.919
 6463SOL    HW220277   4.161   2.282   8.064
 6464SOL     OW20278   4.489   3.197   7.759
 6464SOL    HW120279   4.459   3.106   7.762
 6464SOL    HW220280   4.568   3.198   7.814
 6465SOL     OW20281   5.062   1.906   7.611
 6465SOL    HW120282   5.082   1.862   7.528
 6465SOL    HW220283   4.978   1.869   7.638
 6466SOL     OW20284   3.775   2.941   7.750
 6466SOL    HW120285   3.869   2.930   7.736
 6466SOL    HW220286   3.743   2.852   7.766
 6467SOL     OW20287   4.613   3.509   7.783
 6467SOL    HW120288   4.537   3.489   7.729
 6467SOL    HW220289   4.582   3.573   7.846
 6468SOL     OW20290   3.944   4.347   0.122
 6468SOL    HW120291   3.863   4.313   0.161
 6468SOL    HW220292   3.965   4.285   0.052
 6469SOL     OW20293   3.949   4.005   0.992
 6469SOL    HW120294   3.977   3.971   1.076
 6469SOL    HW220295   3.859   3.973   0.982
 6470SOL     OW20296   3.728   4.107   0.638
 6470SOL    HW120297   3.646   4.133   0.679
 6470SOL    HW220298   3.707   4.027   0.590
 6471SOL     OW20299   4.290   5.005   1.179
 6471SOL    HW120300   4.205   5.005   1.135
 6471SOL    HW220301   4.303   5.096   1.205
 6472SOL     OW20302   5.276   5.233   0.692
 6472SOL    HW120303   5.264   5.216   0.786
 6472SOL    HW220304   5.188   5.230   0.655
 6473SOL     OW20305   4.858   4.423   0.701
 6473SOL    HW120306   4.909   4.504   0.690
 6473SOL    HW220307   4.810   4.436   0.782
 6474SOL     OW20308   4.479   4.867   1.038
 6474SOL    HW120309   4.412   4.900   1.098
 6474SOL    HW220310   4.510   4.946   0.992
 6475SOL     OW20311   4.592   4.499   1.822
 6475SOL    HW120312   4.575   4.570   1.883
 6475SOL    HW220313   4.614   4.542   1.740
 6476SOL     OW20314   4.408   4.725   0.651
 6476SOL    HW120315   4.474   4.715   0.720
 6476SOL    HW220316   4.340   4.780   0.691
 6477SOL     OW20317   4.433   4.874   1.812
 6477SOL    HW120318   4.481   4.953   1.836
 6477SOL    HW220319   4.350   4.906   1.777
 6478SOL     OW20320   4.061   5.151   1.060
 6478SOL    HW120321   3.984   5.107   1.024
 6478SOL    HW220322   4.101   5.195   0.985
 6479SOL     OW20323   5.128   5.238   1.341
 6479SOL    HW120324   5.150   0.008   1.403
 6479SOL    HW220325   5.109   5.163   1.396
 6480SOL     OW20326   4.173   4.122   1.488
 6480SOL    HW120327   4.248   4.063   1.493
 6480SOL    HW220328   4.097   4.066   1.500
 6481SOL     OW20329   4.864   5.051   1.700
 6481SOL    HW120330   4.887   5.065   1.792
 6481SOL    HW220331   4.803   4.978   1.701
 6482SOL     OW20332   3.931   5.155   0.515
 6482SOL    HW120333   3.960   5.237   0.556
 6482SOL    HW220334   3.880   5.112   0.583
 6483SOL     OW20335   3.981   4.811   0.891
 6483SOL    HW120336   3.979   4.724   0.931
 6483SOL    HW220337   3.924   4.864   0.947
 6484SOL     OW20338   4.353   4.685   0.132
 6484SOL    HW120339   4.302   4.761   0.107
 6484SOL    HW220340   4.403   4.713   0.209
 6485SOL     OW20341   3.839   4.374   0.562
 6485SOL    HW120342   3.809   4.286   0.583
 6485SOL    HW220343   3.830   4.423   0.644
 6486SOL     OW20344   3.701   0.019   0.095
 6486SOL    HW120345   3.718   5.229   0.123
 6486SOL    HW220346   3.731   0.073   0.169
 6487SOL     OW20347   0.115   4.656   0.582
 6487SOL    HW120348   0.207   4.634   0.590
 6487SOL    HW220349   0.113   4.744   0.545
 6488SOL     OW20350   3.847   4.466   1.586
 6488SOL    HW120351   3.939   4.491   1.594
 6488SOL    HW220352   3.799   4.549   1.594
 6489SOL     OW20353   4.345   5.099   0.737
 6489SOL    HW120354   4.291   5.020   0.735
 6489SOL    HW220355   4.328   5.142   0.654
 6490SOL     OW20356   5.020   4.971   1.421
 6490SOL    HW120357   5.048   4.899   1.363
 6490SOL    HW220358   5.067   4.956   1.503
 6491SOL     OW20359   4.539   3.726   0.511
 6491SOL    HW120360   4.579   3.811   0.489
 6491SOL    HW220361   4.446   3.744   0.519
 6492SOL     OW20362   3.915   4.690   1.270
 6492SOL    HW120363   3.999   4.648   1.255
 6492SOL    HW220364   3.852   4.635   1.224
 6493SOL     OW20365   4.057   3.974   1.811
 6493SOL    HW120366   4.102   4.057   1.827
 6493SOL    HW220367   3.967   3.989   1.843
 6494SOL     OW20368   5.178   5.153   0.951
 6494SOL    HW120369   5.110   5.162   1.017
 6494SOL    HW220370   5.164   5.066   0.914
 6495SOL     OW20371   0.050   0.163   0.563
 6495SOL    HW120372   0.091   0.122   0.487
 6495SOL    HW220373   0.039   0.092   0.626
 6496SOL     OW20374   4.322   4.438   0.282
 6496SOL    HW120375   4.341   4.516   0.229
 6496SOL    HW220376   4.258   4.468   0.346
 6497SOL     OW20377   4.996   4.060   0.919
 6497SOL    HW120378   4.908   4.031   0.941
 6497SOL    HW220379   5.051   4.026   0.990
 6498SOL     OW20380   4.515   4.342   1.451
 6498SOL    HW120381   4.489   4.318   1.540
 6498SOL    HW220382   4.475   4.275   1.396
 6499SOL     OW20383   5.115   4.204   1.680
 6499SOL    HW120384   5.116   4.242   1.768
 6499SOL    HW220385   5.191   4.146   1.678
 6500SOL     OW20386   4.678   4.612   1.582
 6500SOL    HW120387   4.731   4.541   1.547
 6500SOL    HW220388   4.630   4.646   1.506
 6501SOL     OW20389   4.715   4.137   1.238
 6501SOL    HW120390   4.629   4.158   1.275
 6501SOL    HW220391   4.696   4.090   1.157
 6502SOL     OW20392   4.776   4.421   0.426
 6502SOL    HW120393   4.792   4.417   0.520
 6502SOL    HW220394   4.693   4.376   0.413
 6503SOL     OW20395   3.813   4.545   0.776
 6503SOL    HW120396   3.893   4.538   0.826
 6503SOL    HW220397   3.769   4.622   0.811
 6504SOL     OW20398   4.608   4.081   0.200
 6504SOL    HW120399   4.654   4.129   0.131
 6504SOL    HW220400   4.610   3.990   0.170
 6505SOL     OW20401   5.092   4.869   0.547
 6505SOL    HW120402   5.180   4.864   0.509
 6505SOL    HW220403   5.044   4.928   0.489
 6506SOL     OW20404   4.273   3.906   0.893
 6506SOL    HW120405   4.276   3.934   0.984
 6506SOL    HW220406   4.276   3.987   0.843
 6507SOL     OW20407   4.742   5.166   0.468
 6507SOL    HW120408   4.666   5.224   0.468
 6507SOL    HW220409   4.766   5.158   0.560
 6508SOL     OW20410   4.937   5.262   1.556
 6508SOL    HW120411   4.915   5.178   1.597
 6508SOL    HW220412   4.903   5.254   1.467
 6509SOL     OW20413   4.051   4.665   0.254
 6509SOL    HW120414   4.120   4.707   0.203
 6509SOL    HW220415   4.052   4.574   0.225
 6510SOL     OW20416   4.188   4.987   1.741
 6510SOL    HW120417   4.161   4.990   1.649
 6510SOL    HW220418   4.106   4.986   1.790
 6511SOL     OW20419   4.874   0.190   0.218
 6511SOL    HW120420   4.799   0.180   0.276
 6511SOL    HW220421   4.846   0.150   0.136
 6512SOL     OW20422   3.925   4.005   1.501
 6512SOL    HW120423   3.843   4.055   1.497
 6512SOL    HW220424   3.907   3.936   1.565
 6513SOL     OW20425   5.117   3.849   0.439
 6513SOL    HW120426   5.101   3.831   0.346
 6513SOL    HW220427   5.212   3.857   0.445
 6514SOL     OW20428   4.110   4.421   0.477
 6514SOL    HW120429   4.135   4.329   0.487
 6514SOL    HW220430   4.017   4.424   0.499
 6515SOL     OW20431   4.354   3.835   0.135
 6515SOL    HW120432   4.449   3.823   0.142
 6515SOL    HW220433   4.333   3.815   0.044
 6516SOL     OW20434   4.490   4.002   1.754
 6516SOL    HW120435   4.566   3.944   1.755
 6516SOL    HW220436   4.442   3.980   1.834
 6517SOL     OW20437   5.058   4.316   1.432
 6517SOL    HW120438   5.091   4.284   1.516
 6517SOL    HW220439   5.100   4.400   1.420
 6518SOL     OW20440   4.535   5.119   0.936
 6518SOL    HW120441   4.617   5.107   0.887
 6518SOL    HW220442   4.468   5.126   0.869
 6519SOL     OW20443   4.651   4.233   0.903
 6519SOL    HW120444   4.627   4.224   0.810
 6519SOL    HW220445   4.683   4.146   0.927
 6520SOL     OW20446   4.273   3.787   0.505
 6520SOL    HW120447   4.193   3.787   0.557
 6520SOL    HW220448   4.267   3.865   0.451
 6521SOL     OW20449   5.129   4.895   0.031
 6521SOL    HW120450   5.148   4.832   0.100
 6521SOL    HW220451   5.047   4.937   0.059
 6522SOL     OW20452   4.035   3.779   0.169
 6522SOL    HW120453   4.099   3.848   0.184
 6522SOL    HW220454   4.071   3.701   0.211
 6523SOL     OW20455   4.662   3.970   0.459
 6523SOL    HW120456   4.634   4.012   0.377
 6523SOL    HW220457   4.756   3.987   0.464
 6524SOL     OW20458   4.801   4.405   1.461
 6524SOL    HW120459   4.734   4.337   1.463
 6524SOL    HW220460   4.884   4.357   1.451
 6525SOL     OW20461   4.981   5.265   0.774
 6525SOL    HW120462   4.954   0.053   0.746
 6525SOL    HW220463   5.037   5.281   0.850
 6526SOL     OW20464   4.189   4.873   0.731
 6526SOL    HW120465   4.121   4.852   0.795
 6526SOL    HW220466   4.148   4.855   0.646
 6527SOL     OW20467   4.758   4.255   0.029
 6527SOL    HW120468   4.711   4.334   0.003
 6527SOL    HW220469   4.818   4.283   0.098
 6528SOL     OW20470   3.803   4.279   1.392
 6528SOL    HW120471   3.894   4.277   1.365
 6528SOL    HW220472   3.798   4.349   1.457
 6529SOL     OW20473   4.283   3.951   1.165
 6529SOL    HW120474   4.325   3.875   1.206
 6529SOL    HW220475   4.193   3.947   1.196
 6530SOL     OW20476   4.591   4.182   0.639
 6530SOL    HW120477   4.549   4.238   0.574
 6530SOL    HW220478   4.613   4.102   0.591
 6531SOL     OW20479   4.739   3.776   0.751
 6531SOL    HW120480   4.680   3.770   0.676
 6531SOL    HW220481   4.717   3.701   0.806
 6532SOL     OW20482   5.152   4.902   0.849
 6532SOL    HW120483   5.100   4.822   0.859
 6532SOL    HW220484   5.172   4.907   0.756
 6533SOL     OW20485   4.190   5.161   0.155
 6533SOL    HW120486   4.143   5.104   0.217
 6533SOL    HW220487   4.228   5.100   0.091
 6534SOL     OW20488   5.125   4.307   0.076
 6534SOL    HW120489   5.067   4.283   0.148
 6534SOL    HW220490   5.195   4.242   0.078
 6535SOL     OW20491   4.241   3.987   0.323
 6535SOL    HW120492   4.291   3.935   0.261
 6535SOL    HW220493   4.229   4.072   0.280
 6536SOL     OW20494   4.787   5.073   1.330
 6536SOL    HW120495   4.709   5.049   1.380
 6536SOL    HW220496   4.860   5.036   1.379
 6537SOL     OW20497   4.847   4.922   1.109
 6537SOL    HW120498   4.797   4.966   1.177
 6537SOL    HW220499   4.806   4.951   1.027
 6538SOL     OW20500   4.642   3.822   1.396
 6538SOL    HW120501   4.664   3.803   1.305
 6538SOL    HW220502   4.721   3.861   1.433
 6539SOL     OW20503   4.706   4.833   1.730
 6539SOL    HW120504   4.613   4.852   1.746
 6539SOL    HW220505   4.704   4.759   1.669
 6540SOL     OW20506   4.434   4.783   0.381
 6540SOL    HW120507   4.418   4.767   0.474
 6540SOL    HW220508   4.513   4.734   0.361
 6541SOL     OW20509   4.142   4.539   1.252
 6541SOL    HW120510   4.211   4.548   1.318
 6541SOL    HW220511   4.107   4.451   1.266
 6542SOL     OW20512   4.989   4.099   1.276
 6542SOL    HW120513   5.024   4.178   1.317
 6542SOL    HW220514   4.899   4.123   1.251
 6543SOL     OW20515   4.067   4.832   0.490
 6543SOL    HW120516   4.071   4.904   0.428
 6543SOL    HW220517   4.077   4.753   0.437
 6544SOL     OW20518   4.277   4.261   0.860
 6544SOL    HW120519   4.292   4.319   0.785
 6544SOL    HW220520   4.341   4.287   0.925
 6545SOL     OW20521   4.981   5.069   0.385
 6545SOL    HW120522   5.032   5.150   0.389
 6545SOL    HW220523   4.893   5.095   0.413
 6546SOL     OW20524   4.978   5.181   1.131
 6546SOL    HW120525   5.033   5.204   1.206
 6546SOL    HW220526   4.940   5.096   1.154
 6547SOL     OW20527   4.072   5.236   1.315
 6547SOL    HW120528   4.061   5.201   1.226
 6547SOL    HW220529   4.166   5.257   1.321
 6548SOL     OW20530   4.138   4.469   1.602
 6548SOL    HW120531   4.200   4.513   1.544
 6548SOL    HW220532   4.178   4.383   1.618
 6549SOL     OW20533   4.718   3.848   1.756
 6549SOL    HW120534   4.775   3.920   1.728
 6549SOL    HW220535   4.766   3.769   1.730
 6550SOL     OW20536   4.222   3.765   1.748
 6550SOL    HW120537   4.179   3.710   1.682
 6550SOL    HW220538   4.163   3.839   1.760
 6551SOL     OW20539   4.306   4.597   1.031
 6551SOL    HW120540   4.339   4.687   1.030
 6551SOL    HW220541   4.251   4.592   1.109
 6552SOL     OW20542   5.085   4.580   1.038
 6552SOL    HW120543   5.010   4.564   0.981
 6552SOL    HW220544   5.139   4.501   1.030
 6553SOL     OW20545   4.932   4.255   0.269
 6553SOL    HW120546   4.935   4.175   0.321
 6553SOL    HW220547   4.886   4.318   0.325
 6554SOL     OW20548   4.023   3.922   1.246
 6554SOL    HW120549   3.986   3.955   1.328
 6554SOL    HW220550   4.003   3.829   1.247
 6555SOL     OW20551   3.776   5.046   1.284
 6555SOL    HW120552   3.801   4.982   1.351
 6555SOL    HW220553   3.812   5.129   1.316
 6556SOL     OW20554   4.447   4.355   1.057
 6556SOL    HW120555   4.523   4.338   1.001
 6556SOL    HW220556   4.420   4.444   1.036
 6557SOL     OW20557   4.026   3.789   0.623
 6557SOL    HW120558   4.008   3.879   0.647
 6557SOL    HW220559   4.034   3.743   0.707
 6558SOL     OW20560   0.046   4.101   0.357
 6558SOL    HW120561   0.061   4.044   0.433
 6558SOL    HW220562   0.018   4.184   0.395
 6559SOL     OW20563   4.750   4.483   0.960
 6559SOL    HW120564   4.750   4.501   1.054
 6559SOL    HW220565   4.725   4.391   0.953
 6560SOL     OW20566   4.077   4.640   1.809
 6560SOL    HW120567   4.159   4.659   1.854
 6560SOL    HW220568   4.102   4.577   1.740
 6561SOL     OW20569   5.027   4.556   0.026
 6561SOL    HW120570   5.060   4.468   0.044
 6561SOL    HW220571   5.060   4.577   8.019
 6562SOL     OW20572   4.781   5.078   0.829
 6562SOL    HW120573   4.788   4.994   0.784
 6562SOL    HW220574   4.866   5.120   0.814
 6563SOL     OW20575   4.033   4.533   0.947
 6563SOL    HW120576   4.126   4.554   0.942
 6563SOL    HW220577   4.031   4.443   0.980
 6564SOL     OW20578   4.055   4.250   1.012
 6564SOL    HW120579   4.020   4.162   0.997
 6564SOL    HW220580   4.132   4.256   0.955
 6565SOL     OW20581   4.856   4.100   1.681
 6565SOL    HW120582   4.809   4.155   1.743
 6565SOL    HW220583   4.943   4.139   1.676
 6566SOL     OW20584   4.885   3.926   1.469
 6566SOL    HW120585   4.874   3.989   1.541
 6566SOL    HW220586   4.924   3.978   1.398
 6567SOL     OW20587   3.735   5.045   0.179
 6567SOL    HW120588   3.647   5.057   0.145
 6567SOL    HW220589   3.733   4.958   0.219
 6568SOL     OW20590   4.706   4.516   1.227
 6568SOL    HW120591   4.763   4.494   1.300
 6568SOL    HW220592   4.621   4.478   1.249
 6569SOL     OW20593   3.760   4.268   1.116
 6569SOL    HW120594   3.841   4.255   1.067
 6569SOL    HW220595   3.788   4.272   1.208
 6570SOL     OW20596   3.915   4.243   1.727
 6570SOL    HW120597   3.972   4.205   1.660
 6570SOL    HW220598   3.873   4.317   1.683
 6571SOL     OW20599   5.112   4.662   1.666
 6571SOL    HW120600   5.120   4.757   1.654
 6571SOL    HW220601   5.115   4.626   1.577
 6572SOL     OW20602   4.542   4.293   0.367
 6572SOL    HW120603   4.551   4.222   0.303
 6572SOL    HW220604   4.466   4.343   0.336
 6573SOL     OW20605   3.929   5.277   1.745
 6573SOL    HW120606   3.916   0.029   1.824
 6573SOL    HW220607   3.942   5.188   1.777
 6574SOL     OW20608   4.424   4.175   1.259
 6574SOL    HW120609   4.371   4.101   1.229
 6574SOL    HW220610   4.421   4.238   1.187
 6575SOL     OW20611   4.192   4.215   0.179
 6575SOL    HW120612   4.258   4.281   0.198
 6575SOL    HW220613   4.109   4.260   0.190
 6576SOL     OW20614   3.869   4.863   1.471
 6576SOL    HW120615   3.871   4.812   1.551
 6576SOL    HW220616   3.887   4.799   1.401
 6577SOL     OW20617   5.050   4.770   1.227
 6577SOL    HW120618   5.075   4.708   1.159
 6577SOL    HW220619   4.980   4.822   1.189
 6578SOL     OW20620   5.022   4.594   0.319
 6578SOL    HW120621   4.945   4.548   0.352
 6578SOL    HW220622   5.024   4.573   0.226
 6579SOL     OW20623   3.817   4.986   1.021
 6579SOL    HW120624   3.796   5.004   1.113
 6579SOL    HW220625   3.737   4.948   0.986
 6580SOL     OW20626   4.469   0.034   1.713
 6580SOL    HW120627   4.378   0.060   1.716
 6580SOL    HW220628   4.501   0.065   1.628
 6581SOL     OW20629   4.629   3.815   0.133
 6581SOL    HW120630   4.648   3.798   0.041
 6581SOL    HW220631   4.693   3.761   0.181
 6582SOL     OW20632   0.081   3.874   0.522
 6582SOL    HW120633   0.173   3.867   0.494
 6582SOL    HW220634   0.072   3.804   0.588
 6583SOL     OW20635   5.017   4.642   0.673
 6583SOL    HW120636   5.094   4.588   0.658
 6583SOL    HW220637   5.034   4.723   0.623
 6584SOL     OW20638   4.543   4.992   1.422
 6584SOL    HW120639   4.513   5.029   1.506
 6584SOL    HW220640   4.468   5.004   1.363
 6585SOL     OW20641   3.986   4.040   0.717
 6585SOL    HW120642   3.901   4.076   0.694
 6585SOL    HW220643   3.983   4.032   0.813
 6586SOL     OW20644   4.857   0.019   0.006
 6586SOL    HW120645   4.882   5.232   0.035
 6586SOL    HW220646   4.867   0.018   7.991
 6587SOL     OW20647   4.549   4.728   1.370
 6587SOL    HW120648   4.595   4.722   1.287
 6587SOL    HW220649   4.552   4.821   1.392
 6588SOL     OW20650   4.642   4.638   0.299
 6588SOL    HW120651   4.696   4.665   0.225
 6588SOL    HW220652   4.691   4.566   0.340
 6589SOL     OW20653   4.089   5.026   1.497
 6589SOL    HW120654   4.079   5.100   1.437
 6589SOL    HW220655   4.013   4.970   1.479
 6590SOL     OW20656   4.777   4.833   0.712
 6590SOL    HW120657   4.706   4.781   0.749
 6590SOL    HW220658   4.834   4.769   0.670
 6591SOL     OW20659   4.739   3.963   0.968
 6591SOL    HW120660   4.738   3.916   0.885
 6591SOL    HW220661   4.736   3.894   1.035
 6592SOL     OW20662   3.988   5.028   0.288
 6592SOL    HW120663   3.907   5.044   0.241
 6592SOL    HW220664   3.979   5.079   0.369
 6593SOL     OW20665   3.836   4.745   1.718
 6593SOL    HW120666   3.760   4.722   1.772
 6593SOL    HW220667   3.911   4.708   1.765
 6594SOL     OW20668   4.398   3.920   1.499
 6594SOL    HW120669   4.482   3.900   1.458
 6594SOL    HW220670   4.421   3.952   1.587
 6595SOL     OW20671   3.781   4.086   0.039
 6595SOL    HW120672   3.706   4.032   0.015
 6595SOL    HW220673   3.829   4.099   8.037
 6596SOL     OW20674   5.163   4.584   1.404
 6596SOL    HW120675   5.111   4.640   1.348
 6596SOL    HW220676   5.252   4.591   1.369
 6597SOL     OW20677   3.795   3.878   0.305
 6597SOL    HW120678   3.779   3.963   0.263
 6597SOL    HW220679   3.879   3.849   0.271
 6598SOL     OW20680   4.906   5.052   0.108
 6598SOL    HW120681   4.811   5.046   0.106
 6598SOL    HW220682   4.929   5.061   0.201
 6599SOL     OW20683   4.343   4.555   1.433
 6599SOL    HW120684   4.399   4.631   1.417
 6599SOL    HW220685   4.403   4.481   1.442
 6600SOL     OW20686   4.441   4.288   1.704
 6600SOL    HW120687   4.482   4.350   1.765
 6600SOL    HW220688   4.469   4.202   1.736
 6601SOL     OW20689   5.184   4.928   1.633
 6601SOL    HW120690   5.173   4.940   1.727
 6601SOL    HW220691   5.278   4.932   1.618
 6602SOL     OW20692   4.934   4.049   0.461
 6602SOL    HW120693   4.996   3.977   0.450
 6602SOL    HW220694   4.963   4.095   0.539
 6603SOL     OW20695   4.313   4.461   0.669
 6603SOL    HW120696   4.353   4.547   0.656
 6603SOL    HW220697   4.244   4.456   0.602
 6604SOL     OW20698   4.634   5.096   0.037
 6604SOL    HW120699   4.574   5.078   0.109
 6604SOL    HW220700   4.588   5.159   8.062
 6605SOL     OW20701   4.591   4.690   0.856
 6605SOL    HW120702   4.642   4.620   0.896
 6605SOL    HW220703   4.558   4.741   0.930
 6606SOL     OW20704   4.801   4.700   0.087
 6606SOL    HW120705   4.787   4.758   0.012
 6606SOL    HW220706   4.883   4.655   0.068
 6607SOL     OW20707   3.947   5.024   1.853
 6607SOL    HW120708   3.878   4.962   1.828
 6607SOL    HW220709   3.936   5.035   1.947
 6608SOL     OW20710   3.811   4.954   0.669
 6608SOL    HW120711   3.809   4.902   0.750
 6608SOL    HW220712   3.879   4.914   0.616
 6609SOL     OW20713   4.394   5.105   1.609
 6609SOL    HW120714   4.318   5.073   1.657
 6609SOL    HW220715   4.425   5.180   1.659
 6610SOL     OW20716   4.149   4.160   0.523
 6610SOL    HW120717   4.182   4.088   0.469
 6610SOL    HW220718   4.105   4.116   0.596
 6611SOL     OW20719   0.122   5.229   1.052
 6611SOL    HW120720   0.038   5.205   1.013
 6611SOL    HW220721   0.105   5.232   1.146
 6612SOL     OW20722   4.054   4.279   1.292
 6612SOL    HW120723   4.109   4.224   1.347
 6612SOL    HW220724   4.074   4.251   1.202
 6613SOL     OW20725   5.148   3.942   1.115
 6613SOL    HW120726   5.193   3.878   1.169
 6613SOL    HW220727   5.102   3.998   1.177
 6614SOL     OW20728   4.730   3.743   1.143
 6614SOL    HW120729   4.677   3.674   1.102
 6614SOL    HW220730   4.818   3.705   1.147
 6615SOL     OW20731   4.518   5.040   0.282
 6615SOL    HW120732   4.465   4.965   0.308
 6615SOL    HW220733   4.577   5.053   0.356
 6616SOL     OW20734   4.346   5.299   1.291
 6616SOL    HW120735   4.353   0.053   1.369
 6616SOL    HW220736   4.437   5.280   1.267
 6617SOL     OW20737   5.051   3.785   0.186
 6617SOL    HW120738   5.094   3.736   0.116
 6617SOL    HW220739   4.973   3.734   0.207
 6618SOL     OW20740   5.028   4.184   0.683
 6618SOL    HW120741   4.973   4.263   0.688
 6618SOL    HW220742   5.016   4.142   0.769
 6619SOL     OW20743   0.000   3.949   0.877
 6619SOL    HW120744   5.237   3.935   0.948
 6619SOL    HW220745   5.276   4.033   0.839
 6620SOL     OW20746   3.765   4.791   0.303
 6620SOL    HW120747   3.861   4.794   0.307
 6620SOL    HW220748   3.741   4.708   0.343
 6621SOL     OW20749   3.953   4.347   1.985
 6621SOL    HW120750   3.864   4.346   2.019
 6621SOL    HW220751   3.944   4.322   1.893
 6622SOL     OW20752   3.949   4.005   2.854
 6622SOL    HW120753   3.977   3.971   2.938
 6622SOL    HW220754   3.859   3.973   2.844
 6623SOL     OW20755   3.728   4.107   2.500
 6623SOL    HW120756   3.645   4.132   2.541
 6623SOL    HW220757   3.708   4.027   2.451
 6624SOL     OW20758   4.290   5.005   3.041
 6624SOL    HW120759   4.205   5.004   2.997
 6624SOL    HW220760   4.302   5.096   3.067
 6625SOL     OW20761   5.275   5.232   2.555
 6625SOL    HW120762   5.265   5.216   2.649
 6625SOL    HW220763   5.186   5.231   2.521
 6626SOL     OW20764   4.858   4.423   2.562
 6626SOL    HW120765   4.908   4.504   2.552
 6626SOL    HW220766   4.809   4.435   2.644
 6627SOL     OW20767   4.480   4.868   2.900
 6627SOL    HW120768   4.412   4.899   2.960
 6627SOL    HW220769   4.510   4.947   2.854
 6628SOL     OW20770   4.592   4.499   3.684
 6628SOL    HW120771   4.575   4.570   3.745
 6628SOL    HW220772   4.614   4.542   3.602
 6629SOL     OW20773   4.410   4.727   2.510
 6629SOL    HW120774   4.475   4.716   2.580
 6629SOL    HW220775   4.341   4.780   2.550
 6630SOL     OW20776   4.433   4.874   3.674
 6630SOL    HW120777   4.481   4.953   3.698
 6630SOL    HW220778   4.350   4.905   3.639
 6631SOL     OW20779   4.061   5.151   2.922
 6631SOL    HW120780   3.984   5.107   2.886
 6631SOL    HW220781   4.101   5.194   2.847
 6632SOL     OW20782   5.130   5.237   3.203
 6632SOL    HW120783   5.150   0.008   3.264
 6632SOL    HW220784   5.108   5.162   3.259
 6633SOL     OW20785   4.173   4.122   3.350
 6633SOL    HW120786   4.248   4.063   3.355
 6633SOL    HW220787   4.097   4.066   3.362
 6634SOL     OW20788   4.864   5.052   3.562
 6634SOL    HW120789   4.887   5.065   3.654
 6634SOL    HW220790   4.803   4.978   3.563
 6635SOL     OW20791   3.934   5.156   2.382
 6635SOL    HW120792   3.960   5.238   2.424
 6635SOL    HW220793   3.882   5.110   2.449
 6636SOL     OW20794   3.982   4.811   2.754
 6636SOL    HW120795   3.979   4.724   2.793
 6636SOL    HW220796   3.924   4.864   2.809
 6637SOL     OW20797   4.310   4.705   1.996
 6637SOL    HW120798   4.356   4.755   1.928
 6637SOL    HW220799   4.349   4.735   2.078
 6638SOL     OW20800   3.839   4.376   2.421
 6638SOL    HW120801   3.810   4.288   2.443
 6638SOL    HW220802   3.831   4.425   2.504
 6639SOL     OW20803   3.710   0.014   1.961
 6639SOL    HW120804   3.726   5.224   1.991
 6639SOL    HW220805   3.732   0.069   2.036
 6640SOL     OW20806   0.112   4.658   2.429
 6640SOL    HW120807   0.199   4.626   2.452
 6640SOL    HW220808   0.126   4.749   2.401
 6641SOL     OW20809   3.847   4.466   3.448
 6641SOL    HW120810   3.939   4.491   3.456
 6641SOL    HW220811   3.799   4.549   3.456
 6642SOL     OW20812   4.346   5.098   2.598
 6642SOL    HW120813   4.292   5.019   2.597
 6642SOL    HW220814   4.327   5.141   2.515
 6643SOL     OW20815   5.020   4.971   3.282
 6643SOL    HW120816   5.048   4.899   3.226
 6643SOL    HW220817   5.067   4.956   3.365
 6644SOL     OW20818   4.538   3.724   2.370
 6644SOL    HW120819   4.579   3.808   2.351
 6644SOL    HW220820   4.445   3.744   2.380
 6645SOL     OW20821   3.914   4.690   3.132
 6645SOL    HW120822   3.999   4.648   3.117
 6645SOL    HW220823   3.852   4.635   3.085
 6646SOL     OW20824   4.057   3.974   3.673
 6646SOL    HW120825   4.102   4.057   3.690
 6646SOL    HW220826   3.968   3.988   3.705
 6647SOL     OW20827   5.178   5.153   2.813
 6647SOL    HW120828   5.110   5.162   2.880
 6647SOL    HW220829   5.164   5.066   2.777
 6648SOL     OW20830   0.045   0.163   2.427
 6648SOL    HW120831   0.086   0.124   2.350
 6648SOL    HW220832   0.035   0.091   2.489
 6649SOL     OW20833   4.320   4.445   2.128
 6649SOL    HW120834   4.326   4.527   2.078
 6649SOL    HW220835   4.255   4.464   2.196
 6650SOL     OW20836   4.996   4.061   2.782
 6650SOL    HW120837   4.907   4.031   2.803
 6650SOL    HW220838   5.051   4.026   2.852
 6651SOL     OW20839   4.515   4.342   3.313
 6651SOL    HW120840   4.489   4.318   3.402
 6651SOL    HW220841   4.475   4.275   3.258
 6652SOL     OW20842   5.115   4.204   3.542
 6652SOL    HW120843   5.116   4.242   3.630
 6652SOL    HW220844   5.190   4.145   3.540
 6653SOL     OW20845   4.678   4.612   3.444
 6653SOL    HW120846   4.731   4.540   3.409
 6653SOL    HW220847   4.630   4.646   3.368
 6654SOL     OW20848   4.715   4.137   3.100
 6654SOL    HW120849   4.629   4.158   3.137
 6654SOL    HW220850   4.696   4.090   3.019
 6655SOL     OW20851   4.775   4.422   2.287
 6655SOL    HW120852   4.790   4.416   2.382
 6655SOL    HW220853   4.692   4.376   2.274
 6656SOL     OW20854   3.812   4.545   2.638
 6656SOL    HW120855   3.893   4.538   2.689
 6656SOL    HW220856   3.769   4.622   2.673
 6657SOL     OW20857   4.617   4.071   2.056
 6657SOL    HW120858   4.657   4.133   1.994
 6657SOL    HW220859   4.633   3.985   2.018
 6658SOL     OW20860   5.092   4.868   2.408
 6658SOL    HW120861   5.182   4.867   2.375
 6658SOL    HW220862   5.045   4.928   2.350
 6659SOL     OW20863   4.274   3.906   2.755
 6659SOL    HW120864   4.276   3.934   2.846
 6659SOL    HW220865   4.275   3.987   2.704
 6660SOL     OW20866   4.745   5.168   2.332
 6660SOL    HW120867   4.668   5.224   2.324
 6660SOL    HW220868   4.760   5.161   2.426
 6661SOL     OW20869   4.939   5.261   3.417
 6661SOL    HW120870   4.915   5.178   3.459
 6661SOL    HW220871   4.901   5.254   3.329
 6662SOL     OW20872   4.044   4.680   2.112
 6662SOL    HW120873   4.127   4.700   2.067
 6662SOL    HW220874   4.014   4.599   2.072
 6663SOL     OW20875   4.188   4.987   3.603
 6663SOL    HW120876   4.161   4.990   3.511
 6663SOL    HW220877   4.106   4.986   3.651
 6664SOL     OW20878   4.790   0.173   2.073
 6664SOL    HW120879   4.803   0.117   2.149
 6664SOL    HW220880   4.867   0.157   2.018
 6665SOL     OW20881   3.925   4.005   3.363
 6665SOL    HW120882   3.843   4.055   3.359
 6665SOL    HW220883   3.907   3.935   3.426
 6666SOL     OW20884   5.121   3.831   2.286
 6666SOL    HW120885   5.101   3.813   2.194
 6666SOL    HW220886   5.215   3.847   2.288
 6667SOL     OW20887   4.117   4.419   2.339
 6667SOL    HW120888   4.137   4.326   2.350
 6667SOL    HW220889   4.023   4.425   2.356
 6668SOL     OW20890   4.359   3.846   1.968
 6668SOL    HW120891   4.429   3.783   1.979
 6668SOL    HW220892   4.310   3.815   1.891
 6669SOL     OW20893   4.490   4.002   3.616
 6669SOL    HW120894   4.566   3.944   3.617
 6669SOL    HW220895   4.441   3.979   3.695
 6670SOL     OW20896   5.058   4.316   3.294
 6670SOL    HW120897   5.091   4.283   3.378
 6670SOL    HW220898   5.100   4.401   3.283
 6671SOL     OW20899   4.536   5.120   2.798
 6671SOL    HW120900   4.617   5.106   2.748
 6671SOL    HW220901   4.468   5.126   2.730
 6672SOL     OW20902   4.651   4.233   2.765
 6672SOL    HW120903   4.628   4.224   2.673
 6672SOL    HW220904   4.683   4.146   2.790
 6673SOL     OW20905   4.273   3.787   2.364
 6673SOL    HW120906   4.192   3.788   2.416
 6673SOL    HW220907   4.267   3.865   2.310
 6674SOL     OW20908   5.136   4.904   1.905
 6674SOL    HW120909   5.144   4.825   1.959
 6674SOL    HW220910   5.048   4.936   1.921
 6675SOL     OW20911   4.016   3.771   2.047
 6675SOL    HW120912   4.075   3.836   2.007
 6675SOL    HW220913   4.074   3.708   2.088
 6676SOL     OW20914   4.661   3.970   2.322
 6676SOL    HW120915   4.634   4.011   2.240
 6676SOL    HW220916   4.756   3.983   2.325
 6677SOL     OW20917   4.801   4.405   3.323
 6677SOL    HW120918   4.734   4.337   3.325
 6677SOL    HW220919   4.884   4.357   3.313
 6678SOL     OW20920   4.984   5.266   2.633
 6678SOL    HW120921   4.949   0.052   2.612
 6678SOL    HW220922   5.037   5.280   2.711
 6679SOL     OW20923   4.189   4.872   2.593
 6679SOL    HW120924   4.121   4.852   2.656
 6679SOL    HW220925   4.149   4.854   2.508
 6680SOL     OW20926   4.748   4.268   1.884
 6680SOL    HW120927   4.704   4.350   1.863
 6680SOL    HW220928   4.809   4.290   1.954
 6681SOL     OW20929   3.803   4.279   3.254
 6681SOL    HW120930   3.894   4.277   3.227
 6681SOL    HW220931   3.798   4.349   3.319
 6682SOL     OW20932   4.283   3.951   3.027
 6682SOL    HW120933   4.325   3.875   3.068
 6682SOL    HW220934   4.192   3.947   3.058
 6683SOL     OW20935   4.592   4.183   2.501
 6683SOL    HW120936   4.546   4.238   2.438
 6683SOL    HW220937   4.613   4.103   2.453
 6684SOL     OW20938   4.739   3.777   2.614
 6684SOL    HW120939   4.681   3.770   2.538
 6684SOL    HW220940   4.717   3.701   2.668
 6685SOL     OW20941   5.152   4.901   2.712
 6685SOL    HW120942   5.100   4.822   2.723
 6685SOL    HW220943   5.170   4.906   2.618
 6686SOL     OW20944   4.204   5.146   2.016
 6686SOL    HW120945   4.142   5.094   2.067
 6686SOL    HW220946   4.206   5.104   1.930
 6687SOL     OW20947   5.127   4.286   1.942
 6687SOL    HW120948   5.055   4.276   2.003
 6687SOL    HW220949   5.202   4.248   1.987
 6688SOL     OW20950   4.249   3.987   2.180
 6688SOL    HW120951   4.294   3.939   2.110
 6688SOL    HW220952   4.227   4.071   2.142
 6689SOL     OW20953   4.787   5.074   3.192
 6689SOL    HW120954   4.709   5.049   3.242
 6689SOL    HW220955   4.860   5.036   3.241
 6690SOL     OW20956   4.848   4.923   2.971
 6690SOL    HW120957   4.797   4.965   3.040
 6690SOL    HW220958   4.805   4.950   2.889
 6691SOL     OW20959   4.642   3.822   3.259
 6691SOL    HW120960   4.664   3.803   3.167
 6691SOL    HW220961   4.721   3.861   3.295
 6692SOL     OW20962   4.706   4.833   3.592
 6692SOL    HW120963   4.613   4.852   3.608
 6692SOL    HW220964   4.704   4.759   3.531
 6693SOL     OW20965   4.428   4.782   2.234
 6693SOL    HW120966   4.416   4.766   2.328
 6693SOL    HW220967   4.506   4.731   2.211
 6694SOL     OW20968   4.142   4.539   3.113
 6694SOL    HW120969   4.211   4.548   3.180
 6694SOL    HW220970   4.107   4.451   3.128
 6695SOL     OW20971   4.989   4.099   3.138
 6695SOL    HW120972   5.023   4.179   3.179
 6695SOL    HW220973   4.899   4.123   3.113
 6696SOL     OW20974   4.071   4.832   2.351
 6696SOL    HW120975   4.075   4.905   2.289
 6696SOL    HW220976   4.071   4.754   2.296
 6697SOL     OW20977   4.277   4.261   2.722
 6697SOL    HW120978   4.292   4.319   2.647
 6697SOL    HW220979   4.342   4.287   2.787
 6698SOL     OW20980   4.985   5.077   2.249
 6698SOL    HW120981   5.037   5.152   2.276
 6698SOL    HW220982   4.896   5.099   2.277
 6699SOL     OW20983   4.978   5.181   2.993
 6699SOL    HW120984   5.033   5.203   3.068
 6699SOL    HW220985   4.940   5.096   3.016
 6700SOL     OW20986   4.072   5.236   3.177
 6700SOL    HW120987   4.061   5.201   3.088
 6700SOL    HW220988   4.166   5.257   3.183
 6701SOL     OW20989   4.138   4.469   3.464
 6701SOL    HW120990   4.200   4.513   3.406
 6701SOL    HW220991   4.178   4.383   3.480
 6702SOL     OW20992   4.718   3.848   3.617
 6702SOL    HW120993   4.775   3.920   3.590
 6702SOL    HW220994   4.766   3.769   3.592
 6703SOL     OW20995   4.222   3.765   3.609
 6703SOL    HW120996   4.179   3.710   3.544
 6703SOL    HW220997   4.163   3.839   3.622
 6704SOL     OW20998   4.307   4.596   2.893
 6704SOL    HW120999   4.338   4.687   2.891
 6704SOL    HW221000   4.251   4.591   2.970
 6705SOL     OW21001   5.086   4.581   2.897
 6705SOL    HW121002   5.009   4.563   2.844
 6705SOL    HW221003   5.137   4.500   2.894
 6706SOL     OW21004   4.928   4.255   2.127
 6706SOL    HW121005   4.935   4.175   2.179
 6706SOL    HW221006   4.885   4.318   2.184
 6707SOL     OW21007   4.023   3.922   3.109
 6707SOL    HW121008   3.986   3.955   3.190
 6707SOL    HW221009   4.003   3.829   3.109
 6708SOL     OW21010   3.776   5.046   3.147
 6708SOL    HW121011   3.801   4.982   3.213
 6708SOL    HW221012   3.812   5.129   3.178
 6709SOL     OW21013   4.448   4.355   2.920
 6709SOL    HW121014   4.523   4.339   2.863
 6709SOL    HW221015   4.420   4.444   2.899
 6710SOL     OW21016   4.027   3.788   2.485
 6710SOL    HW121017   4.008   3.879   2.508
 6710SOL    HW221018   4.034   3.743   2.569
 6711SOL     OW21019   0.034   4.117   2.221
 6711SOL    HW121020   0.054   4.043   2.278
 6711SOL    HW221021   0.018   4.190   2.282
 6712SOL     OW21022   4.751   4.483   2.822
 6712SOL    HW121023   4.749   4.501   2.916
 6712SOL    HW221024   4.725   4.391   2.815
 6713SOL     OW21025   4.077   4.640   3.670
 6713SOL    HW121026   4.159   4.659   3.716
 6713SOL    HW221027   4.101   4.578   3.602
 6714SOL     OW21028   5.027   4.553   1.899
 6714SOL    HW121029   5.065   4.465   1.900
 6714SOL    HW221030   5.054   4.589   1.814
 6715SOL     OW21031   4.781   5.079   2.689
 6715SOL    HW121032   4.787   4.994   2.645
 6715SOL    HW221033   4.866   5.119   2.675
 6716SOL     OW21034   4.033   4.533   2.809
 6716SOL    HW121035   4.126   4.554   2.803
 6716SOL    HW221036   4.031   4.443   2.842
 6717SOL     OW21037   4.055   4.250   2.874
 6717SOL    HW121038   4.020   4.162   2.859
 6717SOL    HW221039   4.132   4.255   2.817
 6718SOL     OW21040   4.856   4.100   3.543
 6718SOL    HW121041   4.809   4.155   3.605
 6718SOL    HW221042   4.944   4.139   3.538
 6719SOL     OW21043   4.885   3.926   3.331
 6719SOL    HW121044   4.874   3.988   3.403
 6719SOL    HW221045   4.924   3.978   3.260
 6720SOL     OW21046   3.730   5.041   2.053
 6720SOL    HW121047   3.640   5.058   2.026
 6720SOL    HW221048   3.728   4.953   2.090
 6721SOL     OW21049   4.706   4.516   3.089
 6721SOL    HW121050   4.763   4.494   3.163
 6721SOL    HW221051   4.621   4.478   3.110
 6722SOL     OW21052   3.760   4.268   2.979
 6722SOL    HW121053   3.840   4.255   2.929
 6722SOL    HW221054   3.788   4.272   3.070
 6723SOL     OW21055   3.915   4.243   3.589
 6723SOL    HW121056   3.972   4.205   3.522
 6723SOL    HW221057   3.873   4.317   3.545
 6724SOL     OW21058   5.112   4.662   3.528
 6724SOL    HW121059   5.120   4.757   3.516
 6724SOL    HW221060   5.115   4.626   3.439
 6725SOL     OW21061   4.540   4.293   2.221
 6725SOL    HW121062   4.543   4.218   2.161
 6725SOL    HW221063   4.466   4.345   2.190
 6726SOL     OW21064   3.929   5.277   3.607
 6726SOL    HW121065   3.916   0.029   3.686
 6726SOL    HW221066   3.942   5.188   3.639
 6727SOL     OW21067   4.424   4.175   3.122
 6727SOL    HW121068   4.372   4.101   3.091
 6727SOL    HW221069   4.421   4.238   3.050
 6728SOL     OW21070   4.189   4.217   2.049
 6728SOL    HW121071   4.247   4.290   2.071
 6728SOL    HW221072   4.103   4.257   2.037
 6729SOL     OW21073   3.869   4.863   3.333
 6729SOL    HW121074   3.871   4.812   3.413
 6729SOL    HW221075   3.887   4.799   3.263
 6730SOL     OW21076   5.050   4.770   3.089
 6730SOL    HW121077   5.075   4.709   3.020
 6730SOL    HW221078   4.980   4.822   3.051
 6731SOL     OW21079   5.033   4.584   2.178
 6731SOL    HW121080   4.952   4.550   2.215
 6731SOL    HW221081   5.023   4.575   2.084
 6732SOL     OW21082   3.817   4.987   2.883
 6732SOL    HW121083   3.796   5.004   2.975
 6732SOL    HW221084   3.738   4.947   2.847
 6733SOL     OW21085   4.469   0.034   3.575
 6733SOL    HW121086   4.377   0.060   3.578
 6733SOL    HW221087   4.500   0.065   3.490
 6734SOL     OW21088   0.081   3.884   2.392
 6734SOL    HW121089   0.165   3.871   2.348
 6734SOL    HW221090   0.068   3.804   2.443
 6735SOL     OW21091   5.016   4.643   2.535
 6735SOL    HW121092   5.094   4.588   2.522
 6735SOL    HW221093   5.034   4.723   2.485
 6736SOL     OW21094   4.543   4.993   3.284
 6736SOL    HW121095   4.514   5.029   3.367
 6736SOL    HW221096   4.468   5.004   3.225
 6737SOL     OW21097   3.986   4.040   2.579
 6737SOL    HW121098   3.901   4.076   2.555
 6737SOL    HW221099   3.983   4.032   2.674
 6738SOL     OW21100   4.549   4.728   3.232
 6738SOL    HW121101   4.595   4.721   3.149
 6738SOL    HW221102   4.552   4.821   3.254
 6739SOL     OW21103   4.640   4.635   2.153
 6739SOL    HW121104   4.702   4.668   2.087
 6739SOL    HW221105   4.687   4.565   2.197
 6740SOL     OW21106   4.089   5.026   3.358
 6740SOL    HW121107   4.078   5.100   3.299
 6740SOL    HW221108   4.013   4.970   3.341
 6741SOL     OW21109   4.777   4.833   2.573
 6741SOL    HW121110   4.706   4.782   2.611
 6741SOL    HW221111   4.835   4.768   2.534
 6742SOL     OW21112   4.739   3.963   2.830
 6742SOL    HW121113   4.737   3.916   2.747
 6742SOL    HW221114   4.736   3.895   2.897
 6743SOL     OW21115   3.982   5.052   2.144
 6743SOL    HW121116   3.890   5.054   2.118
 6743SOL    HW221117   3.983   5.095   2.230
 6744SOL     OW21118   3.836   4.745   3.580
 6744SOL    HW121119   3.760   4.722   3.634
 6744SOL    HW221120   3.911   4.708   3.627
 6745SOL     OW21121   4.398   3.920   3.361
 6745SOL    HW121122   4.482   3.900   3.320
 6745SOL    HW221123   4.421   3.952   3.449
 6746SOL     OW21124   3.802   4.058   1.897
 6746SOL    HW121125   3.715   4.038   1.863
 6746SOL    HW221126   3.832   4.133   1.846
 6747SOL     OW21127   5.163   4.584   3.266
 6747SOL    HW121128   5.111   4.641   3.210
 6747SOL    HW221129   5.252   4.591   3.231
 6748SOL     OW21130   3.792   3.880   2.172
 6748SOL    HW121131   3.778   3.960   2.121
 6748SOL    HW221132   3.877   3.848   2.143
 6749SOL     OW21133   4.909   5.059   1.983
 6749SOL    HW121134   4.815   5.041   1.981
 6749SOL    HW221135   4.933   5.055   2.075
 6750SOL     OW21136   4.343   4.555   3.295
 6750SOL    HW121137   4.399   4.631   3.279
 6750SOL    HW221138   4.403   4.481   3.304
 6751SOL     OW21139   4.442   4.287   3.566
 6751SOL    HW121140   4.482   4.349   3.627
 6751SOL    HW221141   4.469   4.201   3.598
 6752SOL     OW21142   5.184   4.928   3.495
 6752SOL    HW121143   5.173   4.940   3.589
 6752SOL    HW221144   5.279   4.932   3.481
 6753SOL     OW21145   4.940   4.044   2.318
 6753SOL    HW121146   5.002   3.972   2.305
 6753SOL    HW221147   4.970   4.088   2.397
 6754SOL     OW21148   4.314   4.462   2.531
 6754SOL    HW121149   4.353   4.548   2.517
 6754SOL    HW221150   4.246   4.454   2.464
 6755SOL     OW21151   4.580   5.095   1.882
 6755SOL    HW121152   4.556   5.098   1.974
 6755SOL    HW221153   4.589   5.187   1.856
 6756SOL     OW21154   4.592   4.691   2.717
 6756SOL    HW121155   4.642   4.620   2.758
 6756SOL    HW221156   4.557   4.741   2.792
 6757SOL     OW21157   4.808   4.712   1.954
 6757SOL    HW121158   4.781   4.760   1.876
 6757SOL    HW221159   4.882   4.658   1.925
 6758SOL     OW21160   3.947   5.024   3.715
 6758SOL    HW121161   3.879   4.962   3.690
 6758SOL    HW221162   3.936   5.035   3.809
 6759SOL     OW21163   3.810   4.956   2.532
 6759SOL    HW121164   3.809   4.903   2.612
 6759SOL    HW221165   3.873   4.913   2.475
 6760SOL     OW21166   4.394   5.105   3.471
 6760SOL    HW121167   4.318   5.073   3.519
 6760SOL    HW221168   4.425   5.180   3.521
 6761SOL     OW21169   4.153   4.158   2.388
 6761SOL    HW121170   4.183   4.087   2.330
 6761SOL    HW221171   4.105   4.114   2.458
 6762SOL     OW21172   0.123   5.229   2.912
 6762SOL    HW121173   0.038   5.204   2.875
 6762SOL    HW221174   0.106   5.236   3.006
 6763SOL     OW21175   4.054   4.279   3.154
 6763SOL    HW121176   4.109   4.224   3.209
 6763SOL    HW221177   4.073   4.251   3.064
 6764SOL     OW21178   5.147   3.942   2.977
 6764SOL    HW121179   5.193   3.878   3.031
 6764SOL    HW221180   5.101   3.998   3.040
 6765SOL     OW21181   4.730   3.743   3.005
 6765SOL    HW121182   4.677   3.674   2.964
 6765SOL    HW221183   4.818   3.705   3.009
 6766SOL     OW21184   4.526   5.047   2.146
 6766SOL    HW121185   4.465   4.975   2.166
 6766SOL    HW221186   4.581   5.053   2.224
 6767SOL     OW21187   4.346   5.299   3.153
 6767SOL    HW121188   4.353   0.054   3.231
 6767SOL    HW221189   4.437   5.280   3.129
 6768SOL     OW21190   5.058   3.770   2.030
 6768SOL    HW121191   5.082   3.729   1.946
 6768SOL    HW221192   4.973   3.732   2.051
 6769SOL     OW21193   5.028   4.182   2.544
 6769SOL    HW121194   4.973   4.261   2.548
 6769SOL    HW221195   5.017   4.141   2.630
 6770SOL     OW21196   0.002   3.949   2.742
 6770SOL    HW121197   5.236   3.938   2.810
 6770SOL    HW221198   5.276   4.029   2.697
 6771SOL     OW21199   3.766   4.795   2.169
 6771SOL    HW121200   3.860   4.788   2.152
 6771SOL    HW221201   3.739   4.705   2.191
 6772SOL     OW21202   3.953   4.347   3.847
 6772SOL    HW121203   3.864   4.346   3.881
 6772SOL    HW221204   3.944   4.322   3.755
 6773SOL     OW21205   3.949   4.006   4.716
 6773SOL    HW121206   3.978   3.971   4.800
 6773SOL    HW221207   3.859   3.973   4.706
 6774SOL     OW21208   3.728   4.106   4.362
 6774SOL    HW121209   3.645   4.131   4.403
 6774SOL    HW221210   3.708   4.027   4.313
 6775SOL     OW21211   4.290   5.005   4.903
 6775SOL    HW121212   4.205   5.004   4.859
 6775SOL    HW221213   4.302   5.096   4.929
 6776SOL     OW21214   5.275   5.232   4.417
 6776SOL    HW121215   5.265   5.216   4.511
 6776SOL    HW221216   5.186   5.231   4.383
 6777SOL     OW21217   4.858   4.423   4.424
 6777SOL    HW121218   4.908   4.504   4.414
 6777SOL    HW221219   4.809   4.435   4.506
 6778SOL     OW21220   4.480   4.868   4.762
 6778SOL    HW121221   4.412   4.899   4.822
 6778SOL    HW221222   4.510   4.947   4.716
 6779SOL     OW21223   4.592   4.499   5.546
 6779SOL    HW121224   4.575   4.570   5.607
 6779SOL    HW221225   4.614   4.542   5.464
 6780SOL     OW21226   4.410   4.727   4.372
 6780SOL    HW121227   4.475   4.716   4.442
 6780SOL    HW221228   4.341   4.780   4.412
 6781SOL     OW21229   4.433   4.874   5.536
 6781SOL    HW121230   4.481   4.953   5.560
 6781SOL    HW221231   4.350   4.905   5.501
 6782SOL     OW21232   4.061   5.151   4.784
 6782SOL    HW121233   3.984   5.107   4.748
 6782SOL    HW221234   4.101   5.194   4.709
 6783SOL     OW21235   5.130   5.237   5.065
 6783SOL    HW121236   5.150   0.007   5.126
 6783SOL    HW221237   5.108   5.162   5.121
 6784SOL     OW21238   4.173   4.123   5.212
 6784SOL    HW121239   4.248   4.063   5.217
 6784SOL    HW221240   4.097   4.066   5.224
 6785SOL     OW21241   4.864   5.052   5.424
 6785SOL    HW121242   4.886   5.065   5.516
 6785SOL    HW221243   4.803   4.978   5.425
 6786SOL     OW21244   3.934   5.156   4.244
 6786SOL    HW121245   3.960   5.238   4.286
 6786SOL    HW221246   3.882   5.110   4.311
 6787SOL     OW21247   3.982   4.811   4.616
 6787SOL    HW121248   3.979   4.724   4.655
 6787SOL    HW221249   3.924   4.864   4.671
 6788SOL     OW21250   4.310   4.705   3.858
 6788SOL    HW121251   4.356   4.755   3.790
 6788SOL    HW221252   4.349   4.735   3.940
 6789SOL     OW21253   3.839   4.376   4.283
 6789SOL    HW121254   3.810   4.288   4.304
 6789SOL    HW221255   3.831   4.424   4.366
 6790SOL     OW21256   3.710   0.014   3.823
 6790SOL    HW121257   3.726   5.224   3.853
 6790SOL    HW221258   3.732   0.069   3.898
 6791SOL     OW21259   0.112   4.658   4.291
 6791SOL    HW121260   0.199   4.626   4.314
 6791SOL    HW221261   0.127   4.749   4.263
 6792SOL     OW21262   3.847   4.466   5.310
 6792SOL    HW121263   3.939   4.491   5.318
 6792SOL    HW221264   3.799   4.549   5.318
 6793SOL     OW21265   4.346   5.098   4.460
 6793SOL    HW121266   4.292   5.019   4.459
 6793SOL    HW221267   4.327   5.141   4.377
 6794SOL     OW21268   5.020   4.971   5.144
 6794SOL    HW121269   5.048   4.899   5.088
 6794SOL    HW221270   5.067   4.956   5.227
 6795SOL     OW21271   4.538   3.724   4.232
 6795SOL    HW121272   4.579   3.809   4.213
 6795SOL    HW221273   4.445   3.744   4.242
 6796SOL     OW21274   3.914   4.690   4.994
 6796SOL    HW121275   3.999   4.648   4.979
 6796SOL    HW221276   3.852   4.635   4.947
 6797SOL     OW21277   4.057   3.974   5.535
 6797SOL    HW121278   4.102   4.057   5.551
 6797SOL    HW221279   3.967   3.989   5.567
 6798SOL     OW21280   5.178   5.153   4.675
 6798SOL    HW121281   5.110   5.162   4.742
 6798SOL    HW221282   5.164   5.066   4.639
 6799SOL     OW21283   0.045   0.163   4.289
 6799SOL    HW121284   0.087   0.124   4.212
 6799SOL    HW221285   0.035   0.091   4.351
 6800SOL     OW21286   4.320   4.445   3.990
 6800SOL    HW121287   4.326   4.527   3.940
 6800SOL    HW221288   4.255   4.464   4.058
 6801SOL     OW21289   4.996   4.061   4.644
 6801SOL    HW121290   4.907   4.031   4.665
 6801SOL    HW221291   5.051   4.026   4.714
 6802SOL     OW21292   4.515   4.342   5.175
 6802SOL    HW121293   4.489   4.318   5.264
 6802SOL    HW221294   4.475   4.275   5.120
 6803SOL     OW21295   5.115   4.204   5.404
 6803SOL    HW121296   5.116   4.242   5.492
 6803SOL    HW221297   5.190   4.145   5.402
 6804SOL     OW21298   4.678   4.612   5.306
 6804SOL    HW121299   4.731   4.540   5.271
 6804SOL    HW221300   4.630   4.646   5.230
 6805SOL     OW21301   4.715   4.137   4.962
 6805SOL    HW121302   4.629   4.158   4.999
 6805SOL    HW221303   4.696   4.090   4.881
 6806SOL     OW21304   4.775   4.422   4.149
 6806SOL    HW121305   4.790   4.416   4.244
 6806SOL    HW221306   4.692   4.376   4.136
 6807SOL     OW21307   3.812   4.545   4.500
 6807SOL    HW121308   3.893   4.537   4.551
 6807SOL    HW221309   3.769   4.623   4.535
 6808SOL     OW21310   4.617   4.071   3.919
 6808SOL    HW121311   4.657   4.132   3.856
 6808SOL    HW221312   4.631   3.985   3.880
 6809SOL     OW21313   5.092   4.868   4.270
 6809SOL    HW121314   5.182   4.867   4.237
 6809SOL    HW221315   5.045   4.928   4.212
 6810SOL     OW21316   4.274   3.906   4.617
 6810SOL    HW121317   4.276   3.935   4.708
 6810SOL    HW221318   4.275   3.987   4.566
 6811SOL     OW21319   4.745   5.168   4.194
 6811SOL    HW121320   4.668   5.224   4.186
 6811SOL    HW221321   4.761   5.161   4.288
 6812SOL     OW21322   4.939   5.261   5.278
 6812SOL    HW121323   4.916   5.178   5.321
 6812SOL    HW221324   4.901   5.254   5.191
 6813SOL     OW21325   4.044   4.680   3.974
 6813SOL    HW121326   4.126   4.700   3.929
 6813SOL    HW221327   4.014   4.599   3.934
 6814SOL     OW21328   4.188   4.987   5.465
 6814SOL    HW121329   4.161   4.990   5.373
 6814SOL    HW221330   4.106   4.986   5.514
 6815SOL     OW21331   4.790   0.173   3.935
 6815SOL    HW121332   4.803   0.117   4.012
 6815SOL    HW221333   4.867   0.157   3.880
 6816SOL     OW21334   3.925   4.005   5.225
 6816SOL    HW121335   3.843   4.055   5.222
 6816SOL    HW221336   3.907   3.935   5.287
 6817SOL     OW21337   5.121   3.831   4.148
 6817SOL    HW121338   5.101   3.813   4.056
 6817SOL    HW221339   5.215   3.847   4.150
 6818SOL     OW21340   4.117   4.419   4.201
 6818SOL    HW121341   4.138   4.326   4.212
 6818SOL    HW221342   4.023   4.425   4.218
 6819SOL     OW21343   4.359   3.847   3.829
 6819SOL    HW121344   4.428   3.782   3.842
 6819SOL    HW221345   4.310   3.815   3.753
 6820SOL     OW21346   4.490   4.003   5.478
 6820SOL    HW121347   4.566   3.944   5.479
 6820SOL    HW221348   4.441   3.980   5.558
 6821SOL     OW21349   5.058   4.316   5.156
 6821SOL    HW121350   5.091   4.283   5.240
 6821SOL    HW221351   5.100   4.401   5.145
 6822SOL     OW21352   4.536   5.120   4.660
 6822SOL    HW121353   4.617   5.106   4.610
 6822SOL    HW221354   4.468   5.126   4.592
 6823SOL     OW21355   4.651   4.233   4.627
 6823SOL    HW121356   4.628   4.224   4.534
 6823SOL    HW221357   4.683   4.146   4.652
 6824SOL     OW21358   4.273   3.787   4.226
 6824SOL    HW121359   4.193   3.787   4.278
 6824SOL    HW221360   4.267   3.865   4.171
 6825SOL     OW21361   5.136   4.904   3.767
 6825SOL    HW121362   5.144   4.825   3.821
 6825SOL    HW221363   5.047   4.936   3.783
 6826SOL     OW21364   4.016   3.772   3.908
 6826SOL    HW121365   4.075   3.836   3.869
 6826SOL    HW221366   4.073   3.708   3.950
 6827SOL     OW21367   4.661   3.970   4.184
 6827SOL    HW121368   4.634   4.011   4.102
 6827SOL    HW221369   4.756   3.983   4.187
 6828SOL     OW21370   4.801   4.405   5.185
 6828SOL    HW121371   4.734   4.337   5.187
 6828SOL    HW221372   4.884   4.357   5.175
 6829SOL     OW21373   4.984   5.266   4.495
 6829SOL    HW121374   4.948   0.052   4.474
 6829SOL    HW221375   5.037   5.280   4.573
 6830SOL     OW21376   4.189   4.872   4.455
 6830SOL    HW121377   4.121   4.852   4.518
 6830SOL    HW221378   4.149   4.854   4.370
 6831SOL     OW21379   4.748   4.268   3.745
 6831SOL    HW121380   4.704   4.350   3.725
 6831SOL    HW221381   4.809   4.290   3.816
 6832SOL     OW21382   3.802   4.278   5.116
 6832SOL    HW121383   3.894   4.276   5.089
 6832SOL    HW221384   3.798   4.349   5.181
 6833SOL     OW21385   4.283   3.951   4.890
 6833SOL    HW121386   4.325   3.874   4.928
 6833SOL    HW221387   4.192   3.947   4.920
 6834SOL     OW21388   4.593   4.183   4.363
 6834SOL    HW121389   4.546   4.238   4.300
 6834SOL    HW221390   4.613   4.103   4.316
 6835SOL     OW21391   4.739   3.777   4.476
 6835SOL    HW121392   4.681   3.770   4.400
 6835SOL    HW221393   4.717   3.701   4.530
 6836SOL     OW21394   5.152   4.901   4.574
 6836SOL    HW121395   5.100   4.822   4.585
 6836SOL    HW221396   5.169   4.906   4.480
 6837SOL     OW21397   4.204   5.146   3.878
 6837SOL    HW121398   4.142   5.094   3.929
 6837SOL    HW221399   4.206   5.104   3.792
 6838SOL     OW21400   5.127   4.286   3.804
 6838SOL    HW121401   5.055   4.276   3.865
 6838SOL    HW221402   5.202   4.248   3.849
 6839SOL     OW21403   4.250   3.987   4.042
 6839SOL    HW121404   4.294   3.939   3.972
 6839SOL    HW221405   4.227   4.071   4.003
 6840SOL     OW21406   4.787   5.074   5.054
 6840SOL    HW121407   4.709   5.049   5.104
 6840SOL    HW221408   4.860   5.036   5.103
 6841SOL     OW21409   4.848   4.923   4.833
 6841SOL    HW121410   4.797   4.965   4.902
 6841SOL    HW221411   4.805   4.950   4.751
 6842SOL     OW21412   4.642   3.822   5.121
 6842SOL    HW121413   4.664   3.803   5.029
 6842SOL    HW221414   4.721   3.861   5.157
 6843SOL     OW21415   4.706   4.833   5.454
 6843SOL    HW121416   4.613   4.852   5.470
 6843SOL    HW221417   4.704   4.759   5.393
 6844SOL     OW21418   4.428   4.782   4.096
 6844SOL    HW121419   4.416   4.767   4.190
 6844SOL    HW221420   4.506   4.731   4.073
 6845SOL     OW21421   4.142   4.539   4.976
 6845SOL    HW121422   4.211   4.548   5.042
 6845SOL    HW221423   4.107   4.451   4.990
 6846SOL     OW21424   4.989   4.099   5.000
 6846SOL    HW121425   5.023   4.179   5.041
 6846SOL    HW221426   4.899   4.123   4.975
 6847SOL     OW21427   4.071   4.832   4.213
 6847SOL    HW121428   4.074   4.905   4.151
 6847SOL    HW221429   4.071   4.754   4.158
 6848SOL     OW21430   4.277   4.261   4.584
 6848SOL    HW121431   4.292   4.319   4.510
 6848SOL    HW221432   4.342   4.287   4.649
 6849SOL     OW21433   4.985   5.077   4.111
 6849SOL    HW121434   5.037   5.152   4.138
 6849SOL    HW221435   4.896   5.099   4.139
 6850SOL     OW21436   4.978   5.181   4.855
 6850SOL    HW121437   5.033   5.203   4.930
 6850SOL    HW221438   4.940   5.096   4.878
 6851SOL     OW21439   4.072   5.236   5.039
 6851SOL    HW121440   4.061   5.201   4.950
 6851SOL    HW221441   4.166   5.257   5.045
 6852SOL     OW21442   4.138   4.468   5.326
 6852SOL    HW121443   4.200   4.513   5.268
 6852SOL    HW221444   4.178   4.383   5.342
 6853SOL     OW21445   4.718   3.848   5.480
 6853SOL    HW121446   4.775   3.920   5.452
 6853SOL    HW221447   4.765   3.769   5.454
 6854SOL     OW21448   4.222   3.765   5.472
 6854SOL    HW121449   4.179   3.710   5.406
 6854SOL    HW221450   4.162   3.839   5.483
 6855SOL     OW21451   4.307   4.596   4.755
 6855SOL    HW121452   4.338   4.687   4.754
 6855SOL    HW221453   4.251   4.591   4.832
 6856SOL     OW21454   5.086   4.581   4.759
 6856SOL    HW121455   5.009   4.563   4.707
 6856SOL    HW221456   5.137   4.500   4.756
 6857SOL     OW21457   4.928   4.255   3.989
 6857SOL    HW121458   4.935   4.175   4.041
 6857SOL    HW221459   4.885   4.318   4.046
 6858SOL     OW21460   4.023   3.922   4.970
 6858SOL    HW121461   3.986   3.955   5.053
 6858SOL    HW221462   4.004   3.828   4.971
 6859SOL     OW21463   3.776   5.046   5.009
 6859SOL    HW121464   3.801   4.982   5.075
 6859SOL    HW221465   3.812   5.129   5.040
 6860SOL     OW21466   4.448   4.355   4.782
 6860SOL    HW121467   4.523   4.339   4.725
 6860SOL    HW221468   4.420   4.444   4.761
 6861SOL     OW21469   4.028   3.789   4.347
 6861SOL    HW121470   4.008   3.880   4.371
 6861SOL    HW221471   4.034   3.743   4.431
 6862SOL     OW21472   0.035   4.117   4.083
 6862SOL    HW121473   0.054   4.043   4.140
 6862SOL    HW221474   0.018   4.190   4.143
 6863SOL     OW21475   4.751   4.483   4.684
 6863SOL    HW121476   4.749   4.501   4.778
 6863SOL    HW221477   4.725   4.391   4.677
 6864SOL     OW21478   4.077   4.640   5.533
 6864SOL    HW121479   4.159   4.659   5.578
 6864SOL    HW221480   4.102   4.577   5.464
 6865SOL     OW21481   5.027   4.553   3.761
 6865SOL    HW121482   5.065   4.465   3.762
 6865SOL    HW221483   5.054   4.588   3.676
 6866SOL     OW21484   4.781   5.079   4.551
 6866SOL    HW121485   4.787   4.994   4.507
 6866SOL    HW221486   4.866   5.119   4.536
 6867SOL     OW21487   4.033   4.533   4.671
 6867SOL    HW121488   4.126   4.554   4.665
 6867SOL    HW221489   4.031   4.443   4.704
 6868SOL     OW21490   4.055   4.250   4.736
 6868SOL    HW121491   4.020   4.163   4.721
 6868SOL    HW221492   4.132   4.256   4.679
 6869SOL     OW21493   4.856   4.100   5.405
 6869SOL    HW121494   4.809   4.155   5.467
 6869SOL    HW221495   4.944   4.139   5.400
 6870SOL     OW21496   4.885   3.926   5.193
 6870SOL    HW121497   4.874   3.989   5.265
 6870SOL    HW221498   4.924   3.978   5.122
 6871SOL     OW21499   3.730   5.041   3.915
 6871SOL    HW121500   3.640   5.058   3.888
 6871SOL    HW221501   3.728   4.953   3.952
 6872SOL     OW21502   4.707   4.516   4.951
 6872SOL    HW121503   4.763   4.494   5.025
 6872SOL    HW221504   4.621   4.478   4.972
 6873SOL     OW21505   3.759   4.268   4.841
 6873SOL    HW121506   3.840   4.254   4.790
 6873SOL    HW221507   3.789   4.272   4.932
 6874SOL     OW21508   3.915   4.243   5.451
 6874SOL    HW121509   3.972   4.205   5.385
 6874SOL    HW221510   3.873   4.317   5.407
 6875SOL     OW21511   5.112   4.662   5.390
 6875SOL    HW121512   5.120   4.757   5.378
 6875SOL    HW221513   5.115   4.626   5.301
 6876SOL     OW21514   4.540   4.293   4.083
 6876SOL    HW121515   4.543   4.218   4.024
 6876SOL    HW221516   4.466   4.345   4.052
 6877SOL     OW21517   3.929   5.277   5.469
 6877SOL    HW121518   3.916   0.029   5.548
 6877SOL    HW221519   3.942   5.188   5.502
 6878SOL     OW21520   4.424   4.175   4.984
 6878SOL    HW121521   4.372   4.100   4.953
 6878SOL    HW221522   4.421   4.237   4.912
 6879SOL     OW21523   4.189   4.217   3.911
 6879SOL    HW121524   4.247   4.290   3.933
 6879SOL    HW221525   4.103   4.257   3.899
 6880SOL     OW21526   3.869   4.863   5.195
 6880SOL    HW121527   3.872   4.812   5.275
 6880SOL    HW221528   3.887   4.799   5.125
 6881SOL     OW21529   5.050   4.770   4.951
 6881SOL    HW121530   5.075   4.709   4.882
 6881SOL    HW221531   4.980   4.822   4.913
 6882SOL     OW21532   5.033   4.584   4.040
 6882SOL    HW121533   4.952   4.550   4.077
 6882SOL    HW221534   5.023   4.575   3.946
 6883SOL     OW21535   3.817   4.987   4.746
 6883SOL    HW121536   3.796   5.004   4.837
 6883SOL    HW221537   3.738   4.947   4.709
 6884SOL     OW21538   4.469   0.034   5.437
 6884SOL    HW121539   4.378   0.060   5.440
 6884SOL    HW221540   4.500   0.065   5.352
 6885SOL     OW21541   0.081   3.884   4.254
 6885SOL    HW121542   0.165   3.870   4.210
 6885SOL    HW221543   0.068   3.804   4.305
 6886SOL     OW21544   5.016   4.643   4.397
 6886SOL    HW121545   5.094   4.588   4.384
 6886SOL    HW221546   5.034   4.723   4.347
 6887SOL     OW21547   4.543   4.993   5.146
 6887SOL    HW121548   4.514   5.029   5.230
 6887SOL    HW221549   4.468   5.004   5.087
 6888SOL     OW21550   3.986   4.040   4.441
 6888SOL    HW121551   3.900   4.076   4.417
 6888SOL    HW221552   3.983   4.032   4.536
 6889SOL     OW21553   4.549   4.728   5.094
 6889SOL    HW121554   4.595   4.721   5.011
 6889SOL    HW221555   4.552   4.821   5.116
 6890SOL     OW21556   4.640   4.636   4.014
 6890SOL    HW121557   4.702   4.668   3.949
 6890SOL    HW221558   4.687   4.565   4.059
 6891SOL     OW21559   4.089   5.026   5.220
 6891SOL    HW121560   4.078   5.100   5.161
 6891SOL    HW221561   4.013   4.970   5.203
 6892SOL     OW21562   4.777   4.833   4.435
 6892SOL    HW121563   4.706   4.782   4.473
 6892SOL    HW221564   4.835   4.768   4.396
 6893SOL     OW21565   4.739   3.963   4.692
 6893SOL    HW121566   4.737   3.916   4.609
 6893SOL    HW221567   4.736   3.894   4.759
 6894SOL     OW21568   3.982   5.052   4.006
 6894SOL    HW121569   3.890   5.054   3.980
 6894SOL    HW221570   3.983   5.095   4.092
 6895SOL     OW21571   3.836   4.745   5.442
 6895SOL    HW121572   3.760   4.722   5.496
 6895SOL    HW221573   3.911   4.708   5.489
 6896SOL     OW21574   4.398   3.920   5.223
 6896SOL    HW121575   4.482   3.900   5.182
 6896SOL    HW221576   4.421   3.952   5.311
 6897SOL     OW21577   3.802   4.058   3.759
 6897SOL    HW121578   3.715   4.038   3.725
 6897SOL    HW221579   3.832   4.133   3.707
 6898SOL     OW21580   5.163   4.584   5.128
 6898SOL    HW121581   5.111   4.641   5.072
 6898SOL    HW221582   5.252   4.591   5.093
 6899SOL     OW21583   3.793   3.882   4.034
 6899SOL    HW121584   3.779   3.961   3.983
 6899SOL    HW221585   3.878   3.849   4.005
 6900SOL     OW21586   4.909   5.059   3.845
 6900SOL    HW121587   4.815   5.041   3.843
 6900SOL    HW221588   4.933   5.055   3.937
 6901SOL     OW21589   4.343   4.555   5.157
 6901SOL    HW121590   4.399   4.631   5.142
 6901SOL    HW221591   4.403   4.481   5.166
 6902SOL     OW21592   4.441   4.287   5.428
 6902SOL    HW121593   4.482   4.349   5.489
 6902SOL    HW221594   4.469   4.201   5.460
 6903SOL     OW21595   5.184   4.928   5.357
 6903SOL    HW121596   5.173   4.940   5.451
 6903SOL    HW221597   5.279   4.932   5.343
 6904SOL     OW21598   4.940   4.044   4.180
 6904SOL    HW121599   5.002   3.972   4.167
 6904SOL    HW221600   4.970   4.088   4.259
 6905SOL     OW21601   4.314   4.462   4.393
 6905SOL    HW121602   4.353   4.548   4.378
 6905SOL    HW221603   4.246   4.454   4.326
 6906SOL     OW21604   4.580   5.095   3.744
 6906SOL    HW121605   4.556   5.098   3.836
 6906SOL    HW221606   4.589   5.187   3.718
 6907SOL     OW21607   4.592   4.691   4.579
 6907SOL    HW121608   4.642   4.620   4.619
 6907SOL    HW221609   4.557   4.741   4.654
 6908SOL     OW21610   4.808   4.713   3.816
 6908SOL    HW121611   4.781   4.760   3.738
 6908SOL    HW221612   4.882   4.658   3.787
 6909SOL     OW21613   3.947   5.024   5.577
 6909SOL    HW121614   3.878   4.962   5.552
 6909SOL    HW221615   3.936   5.035   5.671
 6910SOL     OW21616   3.810   4.956   4.394
 6910SOL    HW121617   3.810   4.903   4.474
 6910SOL    HW221618   3.873   4.913   4.337
 6911SOL     OW21619   4.394   5.105   5.333
 6911SOL    HW121620   4.318   5.073   5.381
 6911SOL    HW221621   4.425   5.180   5.383
 6912SOL     OW21622   4.154   4.158   4.250
 6912SOL    HW121623   4.183   4.087   4.192
 6912SOL    HW221624   4.105   4.114   4.320
 6913SOL     OW21625   0.123   5.229   4.774
 6913SOL    HW121626   0.038   5.204   4.737
 6913SOL    HW221627   0.107   5.236   4.868
 6914SOL     OW21628   4.053   4.279   5.016
 6914SOL    HW121629   4.109   4.224   5.071
 6914SOL    HW221630   4.073   4.251   4.926
 6915SOL     OW21631   5.147   3.943   4.839
 6915SOL    HW121632   5.193   3.878   4.893
 6915SOL    HW221633   5.101   3.998   4.902
 6916SOL     OW21634   4.730   3.743   4.867
 6916SOL    HW121635   4.676   3.674   4.826
 6916SOL    HW221636   4.818   3.705   4.871
 6917SOL     OW21637   4.526   5.046   4.008
 6917SOL    HW121638   4.465   4.975   4.028
 6917SOL    HW221639   4.581   5.053   4.086
 6918SOL     OW21640   4.346   5.299   5.015
 6918SOL    HW121641   4.353   0.054   5.093
 6918SOL    HW221642   4.437   5.280   4.991
 6919SOL     OW21643   5.058   3.770   3.891
 6919SOL    HW121644   5.082   3.729   3.808
 6919SOL    HW221645   4.973   3.732   3.913
 6920SOL     OW21646   5.028   4.182   4.406
 6920SOL    HW121647   4.973   4.261   4.410
 6920SOL    HW221648   5.017   4.141   4.492
 6921SOL     OW21649   0.002   3.949   4.604
 6921SOL    HW121650   5.236   3.938   4.672
 6921SOL    HW221651   5.276   4.029   4.559
 6922SOL     OW21652   3.766   4.795   4.031
 6922SOL    HW121653   3.860   4.788   4.014
 6922SOL    HW221654   3.739   4.705   4.053
 6923SOL     OW21655   3.953   4.347   5.709
 6923SOL    HW121656   3.864   4.346   5.743
 6923SOL    HW221657   3.944   4.322   5.617
 6924SOL     OW21658   3.948   4.005   6.578
 6924SOL    HW121659   3.977   3.971   6.662
 6924SOL    HW221660   3.859   3.973   6.568
 6925SOL     OW21661   3.728   4.107   6.224
 6925SOL    HW121662   3.645   4.132   6.265
 6925SOL    HW221663   3.708   4.027   6.175
 6926SOL     OW21664   4.290   5.005   6.765
 6926SOL    HW121665   4.205   5.004   6.721
 6926SOL    HW221666   4.302   5.096   6.791
 6927SOL     OW21667   5.275   5.232   6.279
 6927SOL    HW121668   5.265   5.216   6.373
 6927SOL    HW221669   5.186   5.231   6.245
 6928SOL     OW21670   4.858   4.423   6.286
 6928SOL    HW121671   4.908   4.504   6.276
 6928SOL    HW221672   4.809   4.435   6.368
 6929SOL     OW21673   4.480   4.868   6.624
 6929SOL    HW121674   4.412   4.900   6.684
 6929SOL    HW221675   4.510   4.947   6.578
 6930SOL     OW21676   4.592   4.501   7.407
 6930SOL    HW121677   4.569   4.575   7.463
 6930SOL    HW221678   4.616   4.540   7.323
 6931SOL     OW21679   4.410   4.727   6.234
 6931SOL    HW121680   4.475   4.716   6.304
 6931SOL    HW221681   4.341   4.780   6.274
 6932SOL     OW21682   4.433   4.874   7.398
 6932SOL    HW121683   4.481   4.953   7.421
 6932SOL    HW221684   4.350   4.906   7.362
 6933SOL     OW21685   4.061   5.151   6.646
 6933SOL    HW121686   3.984   5.107   6.610
 6933SOL    HW221687   4.101   5.195   6.571
 6934SOL     OW21688   5.130   5.236   6.927
 6934SOL    HW121689   5.150   0.007   6.988
 6934SOL    HW221690   5.108   5.162   6.983
 6935SOL     OW21691   4.173   4.123   7.075
 6935SOL    HW121692   4.248   4.063   7.079
 6935SOL    HW221693   4.097   4.066   7.087
 6936SOL     OW21694   4.864   5.051   7.284
 6936SOL    HW121695   4.888   5.064   7.376
 6936SOL    HW221696   4.803   4.978   7.286
 6937SOL     OW21697   3.934   5.155   6.106
 6937SOL    HW121698   3.960   5.238   6.148
 6937SOL    HW221699   3.882   5.110   6.173
 6938SOL     OW21700   3.982   4.811   6.478
 6938SOL    HW121701   3.979   4.724   6.517
 6938SOL    HW221702   3.924   4.864   6.533
 6939SOL     OW21703   4.310   4.705   5.720
 6939SOL    HW121704   4.356   4.755   5.652
 6939SOL    HW221705   4.349   4.735   5.802
 6940SOL     OW21706   3.839   4.376   6.145
 6940SOL    HW121707   3.810   4.288   6.167
 6940SOL    HW221708   3.831   4.425   6.228
 6941SOL     OW21709   3.710   0.014   5.685
 6941SOL    HW121710   3.726   5.224   5.715
 6941SOL    HW221711   3.732   0.069   5.759
 6942SOL     OW21712   0.112   4.658   6.154
 6942SOL    HW121713   0.199   4.626   6.176
 6942SOL    HW221714   0.127   4.749   6.125
 6943SOL     OW21715   3.847   4.466   7.172
 6943SOL    HW121716   3.939   4.492   7.180
 6943SOL    HW221717   3.798   4.548   7.180
 6944SOL     OW21718   4.346   5.098   6.322
 6944SOL    HW121719   4.292   5.019   6.321
 6944SOL    HW221720   4.327   5.141   6.239
 6945SOL     OW21721   5.020   4.971   7.006
 6945SOL    HW121722   5.048   4.899   6.949
 6945SOL    HW221723   5.067   4.956   7.088
 6946SOL     OW21724   4.538   3.724   6.094
 6946SOL    HW121725   4.579   3.809   6.075
 6946SOL    HW221726   4.445   3.744   6.104
 6947SOL     OW21727   3.914   4.690   6.856
 6947SOL    HW121728   3.999   4.647   6.841
 6947SOL    HW221729   3.851   4.635   6.809
 6948SOL     OW21730   4.056   3.973   7.398
 6948SOL    HW121731   4.101   4.056   7.412
 6948SOL    HW221732   3.967   3.989   7.429
 6949SOL     OW21733   5.178   5.153   6.537
 6949SOL    HW121734   5.110   5.162   6.604
 6949SOL    HW221735   5.164   5.066   6.501
 6950SOL     OW21736   0.045   0.163   6.151
 6950SOL    HW121737   0.086   0.124   6.074
 6950SOL    HW221738   0.035   0.091   6.213
 6951SOL     OW21739   4.320   4.445   5.852
 6951SOL    HW121740   4.326   4.527   5.802
 6951SOL    HW221741   4.255   4.464   5.920
 6952SOL     OW21742   4.996   4.061   6.506
 6952SOL    HW121743   4.907   4.031   6.527
 6952SOL    HW221744   5.051   4.026   6.576
 6953SOL     OW21745   4.514   4.342   7.037
 6953SOL    HW121746   4.489   4.318   7.126
 6953SOL    HW221747   4.475   4.275   6.982
 6954SOL     OW21748   5.115   4.205   7.266
 6954SOL    HW121749   5.116   4.242   7.354
 6954SOL    HW221750   5.190   4.146   7.264
 6955SOL     OW21751   4.678   4.612   7.168
 6955SOL    HW121752   4.731   4.540   7.132
 6955SOL    HW221753   4.630   4.646   7.092
 6956SOL     OW21754   4.715   4.137   6.824
 6956SOL    HW121755   4.629   4.158   6.861
 6956SOL    HW221756   4.696   4.090   6.743
 6957SOL     OW21757   4.775   4.422   6.011
 6957SOL    HW121758   4.790   4.416   6.106
 6957SOL    HW221759   4.692   4.376   5.998
 6958SOL     OW21760   3.812   4.545   6.362
 6958SOL    HW121761   3.893   4.538   6.413
 6958SOL    HW221762   3.769   4.622   6.397
 6959SOL     OW21763   4.617   4.071   5.780
 6959SOL    HW121764   4.657   4.132   5.718
 6959SOL    HW221765   4.632   3.985   5.742
 6960SOL     OW21766   5.092   4.868   6.132
 6960SOL    HW121767   5.182   4.867   6.099
 6960SOL    HW221768   5.045   4.928   6.074
 6961SOL     OW21769   4.274   3.906   6.479
 6961SOL    HW121770   4.276   3.934   6.570
 6961SOL    HW221771   4.275   3.987   6.428
 6962SOL     OW21772   4.745   5.168   6.056
 6962SOL    HW121773   4.668   5.224   6.048
 6962SOL    HW221774   4.760   5.161   6.150
 6963SOL     OW21775   4.940   5.260   7.141
 6963SOL    HW121776   4.916   5.178   7.183
 6963SOL    HW221777   4.901   5.255   7.054
 6964SOL     OW21778   4.044   4.680   5.836
 6964SOL    HW121779   4.126   4.700   5.791
 6964SOL    HW221780   4.014   4.599   5.796
 6965SOL     OW21781   4.187   4.986   7.328
 6965SOL    HW121782   4.160   4.990   7.236
 6965SOL    HW221783   4.105   4.986   7.377
 6966SOL     OW21784   4.790   0.173   5.797
 6966SOL    HW121785   4.803   0.118   5.874
 6966SOL    HW221786   4.867   0.157   5.742
 6967SOL     OW21787   3.925   4.005   7.087
 6967SOL    HW121788   3.842   4.054   7.082
 6967SOL    HW221789   3.907   3.934   7.148
 6968SOL     OW21790   5.121   3.831   6.010
 6968SOL    HW121791   5.101   3.813   5.918
 6968SOL    HW221792   5.215   3.847   6.012
 6969SOL     OW21793   4.117   4.419   6.063
 6969SOL    HW121794   4.137   4.326   6.074
 6969SOL    HW221795   4.023   4.425   6.080
 6970SOL     OW21796   4.359   3.847   5.691
 6970SOL    HW121797   4.429   3.782   5.703
 6970SOL    HW221798   4.310   3.815   5.615
 6971SOL     OW21799   4.489   4.001   7.340
 6971SOL    HW121800   4.566   3.944   7.341
 6971SOL    HW221801   4.445   3.984   7.423
 6972SOL     OW21802   5.058   4.316   7.018
 6972SOL    HW121803   5.091   4.284   7.102
 6972SOL    HW221804   5.100   4.401   7.006
 6973SOL     OW21805   4.536   5.120   6.522
 6973SOL    HW121806   4.617   5.106   6.472
 6973SOL    HW221807   4.468   5.126   6.455
 6974SOL     OW21808   4.651   4.233   6.489
 6974SOL    HW121809   4.628   4.224   6.396
 6974SOL    HW221810   4.683   4.146   6.514
 6975SOL     OW21811   4.273   3.787   6.088
 6975SOL    HW121812   4.192   3.788   6.140
 6975SOL    HW221813   4.267   3.865   6.034
 6976SOL     OW21814   5.136   4.904   5.629
 6976SOL    HW121815   5.144   4.825   5.683
 6976SOL    HW221816   5.047   4.936   5.645
 6977SOL     OW21817   4.016   3.771   5.771
 6977SOL    HW121818   4.074   3.835   5.731
 6977SOL    HW221819   4.074   3.708   5.812
 6978SOL     OW21820   4.661   3.970   6.046
 6978SOL    HW121821   4.634   4.011   5.964
 6978SOL    HW221822   4.756   3.983   6.049
 6979SOL     OW21823   4.801   4.405   7.047
 6979SOL    HW121824   4.734   4.337   7.049
 6979SOL    HW221825   4.883   4.357   7.037
 6980SOL     OW21826   4.984   5.266   6.357
 6980SOL    HW121827   4.948   0.052   6.336
 6980SOL    HW221828   5.037   5.280   6.435
 6981SOL     OW21829   4.190   4.872   6.317
 6981SOL    HW121830   4.121   4.852   6.380
 6981SOL    HW221831   4.149   4.854   6.232
 6982SOL     OW21832   4.748   4.268   5.607
 6982SOL    HW121833   4.704   4.350   5.587
 6982SOL    HW221834   4.809   4.290   5.678
 6983SOL     OW21835   3.803   4.279   6.978
 6983SOL    HW121836   3.895   4.277   6.951
 6983SOL    HW221837   3.798   4.349   7.043
 6984SOL     OW21838   4.283   3.951   6.752
 6984SOL    HW121839   4.325   3.874   6.791
 6984SOL    HW221840   4.193   3.947   6.782
 6985SOL     OW21841   4.592   4.183   6.225
 6985SOL    HW121842   4.546   4.238   6.162
 6985SOL    HW221843   4.613   4.103   6.177
 6986SOL     OW21844   4.739   3.777   6.338
 6986SOL    HW121845   4.681   3.770   6.262
 6986SOL    HW221846   4.717   3.701   6.392
 6987SOL     OW21847   5.152   4.901   6.436
 6987SOL    HW121848   5.100   4.822   6.446
 6987SOL    HW221849   5.170   4.906   6.342
 6988SOL     OW21850   4.204   5.146   5.740
 6988SOL    HW121851   4.142   5.094   5.791
 6988SOL    HW221852   4.206   5.104   5.654
 6989SOL     OW21853   5.127   4.286   5.666
 6989SOL    HW121854   5.055   4.276   5.727
 6989SOL    HW221855   5.202   4.248   5.711
 6990SOL     OW21856   4.250   3.987   5.904
 6990SOL    HW121857   4.294   3.939   5.834
 6990SOL    HW221858   4.227   4.071   5.866
 6991SOL     OW21859   4.787   5.074   6.916
 6991SOL    HW121860   4.709   5.049   6.966
 6991SOL    HW221861   4.860   5.036   6.965
 6992SOL     OW21862   4.848   4.923   6.695
 6992SOL    HW121863   4.797   4.965   6.764
 6992SOL    HW221864   4.805   4.950   6.613
 6993SOL     OW21865   4.641   3.822   6.982
 6993SOL    HW121866   4.664   3.803   6.891
 6993SOL    HW221867   4.721   3.860   7.019
 6994SOL     OW21868   4.706   4.832   7.318
 6994SOL    HW121869   4.614   4.853   7.332
 6994SOL    HW221870   4.705   4.758   7.257
 6995SOL     OW21871   4.428   4.782   5.958
 6995SOL    HW121872   4.416   4.766   6.052
 6995SOL    HW221873   4.506   4.731   5.935
 6996SOL     OW21874   4.142   4.539   6.837
 6996SOL    HW121875   4.211   4.548   6.904
 6996SOL    HW221876   4.108   4.451   6.851
 6997SOL     OW21877   4.989   4.100   6.862
 6997SOL    HW121878   5.023   4.179   6.903
 6997SOL    HW221879   4.899   4.123   6.837
 6998SOL     OW21880   4.071   4.832   6.075
 6998SOL    HW121881   4.074   4.905   6.013
 6998SOL    HW221882   4.071   4.754   6.020
 6999SOL     OW21883   4.277   4.261   6.446
 6999SOL    HW121884   4.292   4.319   6.372
 6999SOL    HW221885   4.342   4.287   6.511
 7000SOL     OW21886   4.985   5.077   5.973
 7000SOL    HW121887   5.037   5.152   6.000
 7000SOL    HW221888   4.896   5.099   6.001
 7001SOL     OW21889   4.978   5.181   6.717
 7001SOL    HW121890   5.033   5.203   6.792
 7001SOL    HW221891   4.940   5.096   6.740
 7002SOL     OW21892   4.072   5.236   6.901
 7002SOL    HW121893   4.061   5.201   6.812
 7002SOL    HW221894   4.166   5.257   6.907
 7003SOL     OW21895   4.138   4.469   7.188
 7003SOL    HW121896   4.200   4.514   7.130
 7003SOL    HW221897   4.177   4.383   7.203
 7004SOL     OW21898   4.718   3.849   7.341
 7004SOL    HW121899   4.775   3.920   7.313
 7004SOL    HW221900   4.766   3.769   7.316
 7005SOL     OW21901   4.222   3.765   7.334
 7005SOL    HW121902   4.180   3.710   7.267
 7005SOL    HW221903   4.163   3.839   7.345
 7006SOL     OW21904   4.307   4.596   6.617
 7006SOL    HW121905   4.337   4.687   6.615
 7006SOL    HW221906   4.251   4.591   6.694
 7007SOL     OW21907   5.086   4.581   6.622
 7007SOL    HW121908   5.009   4.563   6.568
 7007SOL    HW221909   5.138   4.500   6.618
 7008SOL     OW21910   4.928   4.255   5.851
 7008SOL    HW121911   4.936   4.175   5.903
 7008SOL    HW221912   4.885   4.318   5.908
 7009SOL     OW21913   4.023   3.922   6.832
 7009SOL    HW121914   3.986   3.955   6.914
 7009SOL    HW221915   4.004   3.829   6.833
 7010SOL     OW21916   3.776   5.046   6.870
 7010SOL    HW121917   3.801   4.982   6.937
 7010SOL    HW221918   3.812   5.129   6.903
 7011SOL     OW21919   4.448   4.355   6.644
 7011SOL    HW121920   4.523   4.339   6.587
 7011SOL    HW221921   4.420   4.444   6.623
 7012SOL     OW21922   4.027   3.788   6.209
 7012SOL    HW121923   4.008   3.879   6.232
 7012SOL    HW221924   4.034   3.743   6.293
 7013SOL     OW21925   0.035   4.118   5.945
 7013SOL    HW121926   0.054   4.043   6.002
 7013SOL    HW221927   0.018   4.190   6.006
 7014SOL     OW21928   4.751   4.483   6.546
 7014SOL    HW121929   4.749   4.501   6.640
 7014SOL    HW221930   4.725   4.391   6.539
 7015SOL     OW21931   4.077   4.639   7.396
 7015SOL    HW121932   4.160   4.659   7.439
 7015SOL    HW221933   4.101   4.577   7.326
 7016SOL     OW21934   5.027   4.553   5.623
 7016SOL    HW121935   5.065   4.465   5.624
 7016SOL    HW221936   5.054   4.588   5.538
 7017SOL     OW21937   4.781   5.079   6.413
 7017SOL    HW121938   4.787   4.994   6.369
 7017SOL    HW221939   4.866   5.119   6.399
 7018SOL     OW21940   4.033   4.533   6.533
 7018SOL    HW121941   4.126   4.554   6.527
 7018SOL    HW221942   4.031   4.443   6.566
 7019SOL     OW21943   4.055   4.250   6.598
 7019SOL    HW121944   4.020   4.162   6.583
 7019SOL    HW221945   4.132   4.255   6.541
 7020SOL     OW21946   4.857   4.100   7.266
 7020SOL    HW121947   4.809   4.155   7.328
 7020SOL    HW221948   4.944   4.140   7.260
 7021SOL     OW21949   4.885   3.926   7.054
 7021SOL    HW121950   4.874   3.988   7.126
 7021SOL    HW221951   4.924   3.978   6.984
 7022SOL     OW21952   3.730   5.041   5.777
 7022SOL    HW121953   3.640   5.058   5.750
 7022SOL    HW221954   3.728   4.953   5.814
 7023SOL     OW21955   4.706   4.516   6.813
 7023SOL    HW121956   4.763   4.493   6.887
 7023SOL    HW221957   4.621   4.478   6.834
 7024SOL     OW21958   3.760   4.269   6.702
 7024SOL    HW121959   3.840   4.255   6.653
 7024SOL    HW221960   3.788   4.272   6.794
 7025SOL     OW21961   3.916   4.243   7.313
 7025SOL    HW121962   3.971   4.204   7.246
 7025SOL    HW221963   3.873   4.316   7.270
 7026SOL     OW21964   5.111   4.662   7.253
 7026SOL    HW121965   5.119   4.757   7.240
 7026SOL    HW221966   5.114   4.626   7.164
 7027SOL     OW21967   4.540   4.293   5.945
 7027SOL    HW121968   4.543   4.218   5.885
 7027SOL    HW221969   4.466   4.345   5.914
 7028SOL     OW21970   3.930   5.275   7.329
 7028SOL    HW121971   3.901   0.026   7.405
 7028SOL    HW221972   3.943   5.187   7.363
 7029SOL     OW21973   4.424   4.175   6.846
 7029SOL    HW121974   4.372   4.101   6.815
 7029SOL    HW221975   4.421   4.237   6.774
 7030SOL     OW21976   4.189   4.217   5.773
 7030SOL    HW121977   4.247   4.290   5.795
 7030SOL    HW221978   4.103   4.257   5.761
 7031SOL     OW21979   3.869   4.863   7.057
 7031SOL    HW121980   3.871   4.811   7.137
 7031SOL    HW221981   3.887   4.799   6.987
 7032SOL     OW21982   5.050   4.770   6.813
 7032SOL    HW121983   5.075   4.708   6.744
 7032SOL    HW221984   4.980   4.822   6.775
 7033SOL     OW21985   5.033   4.584   5.902
 7033SOL    HW121986   4.952   4.550   5.939
 7033SOL    HW221987   5.023   4.575   5.808
 7034SOL     OW21988   3.817   4.987   6.607
 7034SOL    HW121989   3.796   5.004   6.699
 7034SOL    HW221990   3.738   4.948   6.571
 7035SOL     OW21991   4.469   0.031   7.300
 7035SOL    HW121992   4.377   0.060   7.302
 7035SOL    HW221993   4.503   0.066   7.218
 7036SOL     OW21994   0.081   3.884   6.116
 7036SOL    HW121995   0.165   3.870   6.072
 7036SOL    HW221996   0.068   3.804   6.167
 7037SOL     OW21997   5.016   4.643   6.259
 7037SOL    HW121998   5.094   4.588   6.246
 7037SOL    HW221999   5.035   4.723   6.209
 7038SOL     OW22000   4.543   4.993   7.008
 7038SOL    HW122001   4.513   5.029   7.091
 7038SOL    HW222002   4.469   5.004   6.949
 7039SOL     OW22003   3.986   4.040   6.303
 7039SOL    HW122004   3.901   4.076   6.279
 7039SOL    HW222005   3.983   4.032   6.398
 7040SOL     OW22006   4.549   4.728   6.957
 7040SOL    HW122007   4.595   4.721   6.873
 7040SOL    HW222008   4.552   4.821   6.978
 7041SOL     OW22009   4.640   4.636   5.877
 7041SOL    HW122010   4.702   4.668   5.811
 7041SOL    HW222011   4.687   4.565   5.921
 7042SOL     OW22012   4.089   5.026   7.083
 7042SOL    HW122013   4.079   5.100   7.023
 7042SOL    HW222014   4.013   4.970   7.065
 7043SOL     OW22015   4.777   4.833   6.297
 7043SOL    HW122016   4.705   4.782   6.335
 7043SOL    HW222017   4.835   4.768   6.258
 7044SOL     OW22018   4.739   3.963   6.554
 7044SOL    HW122019   4.737   3.916   6.471
 7044SOL    HW222020   4.736   3.894   6.621
 7045SOL     OW22021   3.982   5.052   5.868
 7045SOL    HW122022   3.890   5.054   5.842
 7045SOL    HW222023   3.983   5.095   5.954
 7046SOL     OW22024   3.837   4.746   7.305
 7046SOL    HW122025   3.760   4.723   7.357
 7046SOL    HW222026   3.911   4.708   7.352
 7047SOL     OW22027   4.398   3.920   7.085
 7047SOL    HW122028   4.482   3.900   7.044
 7047SOL    HW222029   4.421   3.950   7.173
 7048SOL     OW22030   3.802   4.058   5.621
 7048SOL    HW122031   3.715   4.038   5.587
 7048SOL    HW222032   3.832   4.133   5.570
 7049SOL     OW22033   5.164   4.584   6.990
 7049SOL    HW122034   5.111   4.641   6.934
 7049SOL    HW222035   5.252   4.591   6.955
 7050SOL     OW22036   3.792   3.880   5.896
 7050SOL    HW122037   3.778   3.960   5.845
 7050SOL    HW222038   3.877   3.847   5.867
 7051SOL     OW22039   4.909   5.059   5.707
 7051SOL    HW122040   4.815   5.041   5.705
 7051SOL    HW222041   4.933   5.055   5.799
 7052SOL     OW22042   4.343   4.555   7.019
 7052SOL    HW122043   4.399   4.631   7.003
 7052SOL    HW222044   4.403   4.481   7.028
 7053SOL     OW22045   4.442   4.287   7.291
 7053SOL    HW122046   4.481   4.348   7.353
 7053SOL    HW222047   4.469   4.201   7.322
 7054SOL     OW22048   5.184   4.928   7.218
 7054SOL    HW122049   5.173   4.939   7.312
 7054SOL    HW222050   5.278   4.932   7.204
 7055SOL     OW22051   4.940   4.044   6.042
 7055SOL    HW122052   5.002   3.972   6.029
 7055SOL    HW222053   4.970   4.088   6.121
 7056SOL     OW22054   4.314   4.462   6.255
 7056SOL    HW122055   4.353   4.548   6.241
 7056SOL    HW222056   4.246   4.454   6.188
 7057SOL     OW22057   4.580   5.095   5.606
 7057SOL    HW122058   4.556   5.098   5.698
 7057SOL    HW222059   4.589   5.187   5.580
 7058SOL     OW22060   4.592   4.691   6.441
 7058SOL    HW122061   4.642   4.620   6.481
 7058SOL    HW222062   4.557   4.741   6.516
 7059SOL     OW22063   4.808   4.712   5.678
 7059SOL    HW122064   4.781   4.760   5.600
 7059SOL    HW222065   4.882   4.658   5.649
 7060SOL     OW22066   3.946   5.024   7.442
 7060SOL    HW122067   3.880   4.961   7.412
 7060SOL    HW222068   3.926   5.037   7.534
 7061SOL     OW22069   3.810   4.956   6.256
 7061SOL    HW122070   3.809   4.903   6.336
 7061SOL    HW222071   3.874   4.913   6.199
 7062SOL     OW22072   4.394   5.103   7.195
 7062SOL    HW122073   4.317   5.073   7.243
 7062SOL    HW222074   4.425   5.180   7.244
 7063SOL     OW22075   4.153   4.158   6.112
 7063SOL    HW122076   4.183   4.087   6.054
 7063SOL    HW222077   4.106   4.114   6.182
 7064SOL     OW22078   0.123   5.229   6.636
 7064SOL    HW122079   0.038   5.205   6.599
 7064SOL    HW222080   0.106   5.236   6.730
 7065SOL     OW22081   4.054   4.279   6.878
 7065SOL    HW122082   4.110   4.224   6.933
 7065SOL    HW222083   4.073   4.251   6.788
 7066SOL     OW22084   5.147   3.943   6.701
 7066SOL    HW122085   5.192   3.877   6.755
 7066SOL    HW222086   5.101   3.998   6.764
 7067SOL     OW22087   4.730   3.743   6.729
 7067SOL    HW122088   4.677   3.674   6.688
 7067SOL    HW222089   4.818   3.705   6.733
 7068SOL     OW22090   4.526   5.046   5.870
 7068SOL    HW122091   4.465   4.975   5.889
 7068SOL    HW222092   4.581   5.053   5.948
 7069SOL     OW22093   4.346   5.299   6.877
 7069SOL    HW122094   4.353   0.054   6.956
 7069SOL    HW222095   4.437   5.280   6.853
 7070SOL     OW22096   5.058   3.770   5.753
 7070SOL    HW122097   5.082   3.729   5.670
 7070SOL    HW222098   4.973   3.732   5.775
 7071SOL     OW22099   5.028   4.182   6.268
 7071SOL    HW122100   4.973   4.261   6.272
 7071SOL    HW222101   5.017   4.141   6.354
 7072SOL     OW22102   0.002   3.949   6.466
 7072SOL    HW122103   5.236   3.938   6.534
 7072SOL    HW222104   5.276   4.029   6.421
 7073SOL     OW22105   3.766   4.795   5.893
 7073SOL    HW122106   3.860   4.788   5.876
 7073SOL    HW222107   3.740   4.705   5.915
 7074SOL     OW22108   3.953   4.343   7.572
 7074SOL    HW122109   3.862   4.350   7.602
 7074SOL    HW222110   3.945   4.320   7.479
 7075SOL     OW22111   4.001   0.125   7.957
 7075SOL    HW122112   3.975   0.211   7.992
 7075SOL    HW222113   4.007   0.139   7.863
 7076SOL     OW22114   3.941   5.156   7.990
 7076SOL    HW122115   3.954   5.251   7.997
 7076SOL    HW222116   3.883   5.134   8.063
 7077SOL     OW22117   4.310   4.705   7.579
 7077SOL    HW122118   4.355   4.756   7.511
 7077SOL    HW222119   4.348   4.736   7.661
 7078SOL     OW22120   3.723   0.010   7.538
 7078SOL    HW122121   3.727   5.221   7.574
 7078SOL    HW222122   3.723   0.067   7.616
 7079SOL     OW22123   0.118   4.650   8.013
 7079SOL    HW122124   0.210   4.639   8.039
 7079SOL    HW222125   0.109   4.744   7.998
 7080SOL     OW22126   4.525   3.718   7.938
 7080SOL    HW122127   4.575   3.798   7.922
 7080SOL    HW222128   4.434   3.747   7.947
 7081SOL     OW22129   4.315   4.449   7.709
 7081SOL    HW122130   4.319   4.531   7.659
 7081SOL    HW222131   4.255   4.467   7.781
 7082SOL     OW22132   3.784   4.586   0.090
 7082SOL    HW122133   3.850   4.522   0.119
 7082SOL    HW222134   3.779   4.649   0.162
 7083SOL     OW22135   4.606   4.069   7.639
 7083SOL    HW122136   4.650   4.128   7.577
 7083SOL    HW222137   4.638   3.982   7.615
 7084SOL     OW22138   4.047   4.679   7.697
 7084SOL    HW122139   4.127   4.697   7.648
 7084SOL    HW222140   4.011   4.601   7.656
 7085SOL     OW22141   4.795   0.183   7.648
 7085SOL    HW122142   4.791   0.139   7.733
 7085SOL    HW222143   4.877   0.152   7.609
 7086SOL     OW22144   5.132   3.850   7.857
 7086SOL    HW122145   5.096   3.826   7.772
 7086SOL    HW222146   5.227   3.850   7.844
 7087SOL     OW22147   4.115   4.422   7.918
 7087SOL    HW122148   4.119   4.327   7.926
 7087SOL    HW222149   4.024   4.444   7.937
 7088SOL     OW22150   4.353   3.844   7.559
 7088SOL    HW122151   4.428   3.786   7.569
 7088SOL    HW222152   4.309   3.813   7.480
 7089SOL     OW22153   4.256   3.797   7.959
 7089SOL    HW122154   4.171   3.802   8.002
 7089SOL    HW222155   4.254   3.869   7.895
 7090SOL     OW22156   5.138   4.906   7.490
 7090SOL    HW122157   5.149   4.830   7.547
 7090SOL    HW222158   5.049   4.936   7.508
 7091SOL     OW22159   4.017   3.773   7.633
 7091SOL    HW122160   4.075   3.834   7.587
 7091SOL    HW222161   4.075   3.708   7.672
 7092SOL     OW22162   4.666   3.950   7.911
 7092SOL    HW122163   4.624   4.014   7.853
 7092SOL    HW222164   4.758   3.978   7.913
 7093SOL     OW22165   4.165   4.874   0.100
 7093SOL    HW122166   4.089   4.910   0.146
 7093SOL    HW222167   4.133   4.860   0.010
 7094SOL     OW22168   4.752   4.269   7.465
 7094SOL    HW122169   4.704   4.350   7.448
 7094SOL    HW222170   4.805   4.288   7.542
 7095SOL     OW22171   4.197   5.150   7.602
 7095SOL    HW122172   4.139   5.096   7.656
 7095SOL    HW222173   4.203   5.102   7.519
 7096SOL     OW22174   5.127   4.285   7.529
 7096SOL    HW122175   5.053   4.276   7.589
 7096SOL    HW222176   5.201   4.245   7.576
 7097SOL     OW22177   4.250   3.990   7.770
 7097SOL    HW122178   4.294   3.940   7.702
 7097SOL    HW222179   4.227   4.073   7.729
 7098SOL     OW22180   4.432   4.781   7.812
 7098SOL    HW122181   4.409   4.770   7.905
 7098SOL    HW222182   4.513   4.732   7.801
 7099SOL     OW22183   4.089   4.826   7.927
 7099SOL    HW122184   4.067   4.905   7.878
 7099SOL    HW222185   4.076   4.754   7.865
 7100SOL     OW22186   4.954   5.103   7.832
 7100SOL    HW122187   5.034   5.128   7.878
 7100SOL    HW222188   4.901   5.059   7.897
 7101SOL     OW22189   0.036   4.372   7.924
 7101SOL    HW122190   5.279   4.391   7.999
 7101SOL    HW222191   0.040   4.455   7.876
 7102SOL     OW22192   4.927   4.254   7.714
 7102SOL    HW122193   4.932   4.169   7.759
 7102SOL    HW222194   4.895   4.315   7.780
 7103SOL     OW22195   0.026   4.126   7.807
 7103SOL    HW122196   0.038   4.057   7.873
 7103SOL    HW222197   0.022   4.207   7.857
 7104SOL     OW22198   5.034   4.556   7.489
 7104SOL    HW122199   5.065   4.465   7.487
 7104SOL    HW222200   5.057   4.591   7.403
 7105SOL     OW22201   3.732   5.045   7.640
 7105SOL    HW122202   3.642   5.058   7.610
 7105SOL    HW222203   3.733   4.956   7.675
 7106SOL     OW22204   4.564   4.324   7.759
 7106SOL    HW122205   4.555   4.232   7.734
 7106SOL    HW222206   4.474   4.358   7.761
 7107SOL     OW22207   4.186   4.217   7.642
 7107SOL    HW122208   4.245   4.291   7.657
 7107SOL    HW222209   4.101   4.257   7.624
 7108SOL     OW22210   5.033   4.574   7.772
 7108SOL    HW122211   4.939   4.583   7.791
 7108SOL    HW222212   5.037   4.571   7.676
 7109SOL     OW22213   0.181   3.866   7.990
 7109SOL    HW122214   0.158   3.849   7.899
 7109SOL    HW222215   0.138   3.797   8.040
 7110SOL     OW22216   4.655   4.634   7.760
 7110SOL    HW122217   4.706   4.659   7.682
 7110SOL    HW222218   4.644   4.539   7.751
 7111SOL     OW22219   3.982   5.058   7.745
 7111SOL    HW122220   3.890   5.061   7.717
 7111SOL    HW222221   3.981   5.097   7.832
 7112SOL     OW22222   3.801   4.057   7.483
 7112SOL    HW122223   3.715   4.038   7.447
 7112SOL    HW222224   3.832   4.133   7.433
 7113SOL     OW22225   3.794   3.881   7.758
 7113SOL    HW122226   3.778   3.957   7.703
 7113SOL    HW222227   3.877   3.846   7.726
 7114SOL     OW22228   4.908   5.055   7.567
 7114SOL    HW122229   4.814   5.040   7.560
 7114SOL    HW222230   4.923   5.067   7.660
 7115SOL     OW22231   4.939   4.044   7.901
 7115SOL    HW122232   5.010   3.981   7.890
 7115SOL    HW222233   4.956   4.087   7.984
 7116SOL     OW22234   4.350   4.459   8.056
 7116SOL    HW122235   4.355   4.541   0.024
 7116SOL    HW222236   4.262   4.459   8.016
 7117SOL     OW22237   4.583   5.094   7.466
 7117SOL    HW122238   4.560   5.097   7.559
 7117SOL    HW222239   4.588   5.186   7.440
 7118SOL     OW22240   4.803   4.703   7.541
 7118SOL    HW122241   4.777   4.756   7.466
 7118SOL    HW222242   4.880   4.655   7.511
 7119SOL     OW22243   4.111   4.150   7.982
 7119SOL    HW122244   4.162   4.099   7.919
 7119SOL    HW222245   4.161   4.144   8.064
 7120SOL     OW22246   4.529   5.047   7.730
 7120SOL    HW122247   4.471   4.973   7.749
 7120SOL    HW222248   4.548   5.085   7.815
 7121SOL     OW22249   5.061   3.769   7.611
 7121SOL    HW122250   5.082   3.724   7.529
 7121SOL    HW222251   4.977   3.732   7.638
 7122SOL     OW22252   3.774   4.801   7.751
 7122SOL    HW122253   3.868   4.793   7.738
 7122SOL    HW222254   3.744   4.712   7.766
   5.30000   5.30000   8.08000
