Built with Packmol
21951
    1LIG      O    1   2.227   2.220   0.053
    1LIG      C    2   2.292   2.270   0.173
    1LIG     C1    3   2.221   2.217   0.301
    1LIG     O1    4   2.285   2.267   0.423
    1LIG     C2    5   2.220   2.218   0.544
    1LIG     C3    6   2.291   2.273   0.670
    1LIG     O2    7   2.227   2.225   0.791
    1LIG     C4    8   2.290   2.275   0.912
    1LIG     C5    9   2.218   2.220   1.038
    1LIG     O3   10   2.281   2.270   1.160
    1LIG     C6   11   2.216   2.221   1.280
    1LIG     C7   12   2.288   2.277   1.406
    1LIG     O4   13   2.224   2.229   1.528
    1LIG     C8   14   2.288   2.279   1.649
    1LIG     C9   15   2.215   2.223   1.774
    1LIG     O5   16   2.279   2.273   1.895
    1LIG    C10   17   2.215   2.224   2.016
    1LIG    C11   18   2.287   2.280   2.141
    1LIG     O6   19   2.223   2.231   2.263
    1LIG    C12   20   2.286   2.280   2.384
    1LIG    C13   21   2.213   2.225   2.509
    1LIG     O7   22   2.277   2.274   2.630
    1LIG    C14   23   2.213   2.225   2.752
    1LIG    C15   24   2.285   2.280   2.878
    1LIG     O8   25   2.221   2.231   3.000
    1LIG    C16   26   2.285   2.281   3.121
    1LIG    C17   27   2.214   2.226   3.247
    1LIG     O9   28   2.277   2.275   3.369
    1LIG    C18   29   2.212   2.226   3.489
    1LIG    C19   30   2.284   2.281   3.614
    1LIG    O10   31   2.221   2.232   3.736
    1LIG    C20   32   2.285   2.282   3.857
    1LIG    C21   33   2.212   2.226   3.982
    1LIG    O11   34   2.276   2.275   4.103
    1LIG    C22   35   2.212   2.226   4.224
    1LIG    C23   36   2.284   2.282   4.350
    1LIG    O12   37   2.220   2.233   4.471
    1LIG    C24   38   2.284   2.282   4.593
    1LIG    C25   39   2.212   2.227   4.719
    1LIG    O13   40   2.275   2.276   4.840
    1LIG    C26   41   2.211   2.227   4.961
    1LIG    C27   42   2.283   2.282   5.086
    1LIG    O14   43   2.219   2.233   5.208
    1LIG    C28   44   2.284   2.282   5.329
    1LIG    C29   45   2.212   2.226   5.455
    1LIG    O15   46   2.276   2.275   5.577
    1LIG    C30   47   2.212   2.226   5.697
    1LIG    C31   48   2.284   2.281   5.822
    1LIG    O16   49   2.220   2.232   5.943
    1LIG    C32   50   2.284   2.281   6.065
    1LIG    C33   51   2.212   2.226   6.190
    1LIG    O17   52   2.276   2.275   6.312
    1LIG    C34   53   2.212   2.225   6.433
    1LIG    C35   54   2.284   2.280   6.559
    1LIG    O18   55   2.220   2.231   6.680
    1LIG    C36   56   2.284   2.280   6.801
    1LIG    C37   57   2.213   2.225   6.927
    1LIG    O19   58   2.277   2.274   7.049
    1LIG    C38   59   2.213   2.224   7.169
    1LIG    C39   60   2.284   2.279   7.295
    1LIG    O20   61   2.221   2.230   7.417
    1LIG    C40   62   2.285   2.279   7.538
    1LIG    C41   63   2.214   2.224   7.664
    1LIG    O21   64   2.277   2.273   7.785
    1LIG    C42   65   2.213   2.223   7.906
    1LIG    C43   66   2.285   2.278   8.031
    1LIG    O22   67   2.222   2.229   8.153
    1LIG    C44   68   2.286   2.278   8.274
    1LIG    C45   69   2.214   2.222   8.399
    1LIG    O23   70   2.278   2.271   8.521
    1LIG    C46   71   2.214   2.222   8.642
    1LIG    C47   72   2.287   2.278   8.767
    1LIG    O24   73   2.223   2.228   8.888
    1LIG    C48   74   2.286   2.277   9.010
    1LIG    C49   75   2.214   2.221   9.135
    1LIG    O25   76   2.278   2.270   9.256
    1LIG    C50   77   2.215   2.221   9.378
    1LIG    C51   78   2.287   2.277   9.503
    1LIG    O26   79   2.224   2.227   9.624
    1LIG    C52   80   2.287   2.276   9.745
    1LIG    C53   81   2.215   2.219   9.870
    1LIG    O27   82   2.279   2.269   9.991
    1LIG    C54   83   2.216   2.219  10.113
    1LIG    C55   84   2.288   2.275  10.240
    1LIG    O28   85   2.224   2.225  10.361
    1LIG    C56   86   2.288   2.274  10.482
    1LIG    C57   87   2.217   2.218  10.609
    1LIG    O29   88   2.281   2.267  10.731
    1LIG    C58   89   2.217   2.217  10.852
    1LIG    C59   90   2.288   2.272  10.978
    1LIG      H   91   2.289   2.380   0.171
    1LIG     H1   92   2.397   2.239   0.172
    1LIG     H2   93   2.224   2.108   0.301
    1LIG     H3   94   2.116   2.248   0.300
    1LIG     H4   95   2.223   2.108   0.546
    1LIG     H5   96   2.115   2.249   0.545
    1LIG     H6   97   2.289   2.383   0.667
    1LIG     H7   98   2.397   2.242   0.669
    1LIG     H8   99   2.288   2.384   0.913
    1LIG     H9  100   2.395   2.244   0.914
    1LIG    H10  101   2.221   2.111   1.037
    1LIG    H11  102   2.113   2.251   1.036
    1LIG    H12  103   2.219   2.112   1.282
    1LIG    H13  104   2.111   2.252   1.281
    1LIG    H14  105   2.285   2.387   1.404
    1LIG    H15  106   2.393   2.246   1.405
    1LIG    H16  107   2.285   2.388   1.650
    1LIG    H17  108   2.393   2.248   1.651
    1LIG    H18  109   2.218   2.114   1.772
    1LIG    H19  110   2.110   2.254   1.772
    1LIG    H20  111   2.217   2.114   2.018
    1LIG    H21  112   2.109   2.255   2.018
    1LIG    H22  113   2.284   2.389   2.140
    1LIG    H23  114   2.392   2.249   2.140
    1LIG    H24  115   2.283   2.389   2.385
    1LIG    H25  116   2.391   2.249   2.386
    1LIG    H26  117   2.216   2.115   2.508
    1LIG    H27  118   2.108   2.256   2.508
    1LIG    H28  119   2.216   2.115   2.754
    1LIG    H29  120   2.108   2.256   2.753
    1LIG    H30  121   2.282   2.390   2.877
    1LIG    H31  122   2.390   2.249   2.877
    1LIG    H32  123   2.282   2.391   3.122
    1LIG    H33  124   2.390   2.250   3.122
    1LIG    H34  125   2.216   2.117   3.245
    1LIG    H35  126   2.108   2.257   3.245
    1LIG    H36  127   2.215   2.116   3.490
    1LIG    H37  128   2.107   2.257   3.490
    1LIG    H38  129   2.281   2.391   3.613
    1LIG    H39  130   2.389   2.250   3.613
    1LIG    H40  131   2.282   2.391   3.858
    1LIG    H41  132   2.390   2.251   3.858
    1LIG    H42  133   2.215   2.117   3.980
    1LIG    H43  134   2.107   2.257   3.980
    1LIG    H44  135   2.215   2.117   4.226
    1LIG    H45  136   2.107   2.257   4.226
    1LIG    H46  137   2.281   2.392   4.348
    1LIG    H47  138   2.390   2.251   4.348
    1LIG    H48  139   2.281   2.391   4.594
    1LIG    H49  140   2.389   2.251   4.594
    1LIG    H50  141   2.215   2.117   4.717
    1LIG    H51  142   2.107   2.258   4.717
    1LIG    H52  143   2.214   2.117   4.963
    1LIG    H53  144   2.106   2.258   4.963
    1LIG    H54  145   2.280   2.392   5.085
    1LIG    H55  146   2.388   2.251   5.085
    1LIG    H56  147   2.281   2.391   5.331
    1LIG    H57  148   2.389   2.251   5.330
    1LIG    H58  149   2.215   2.117   5.453
    1LIG    H59  150   2.107   2.257   5.454
    1LIG    H60  151   2.215   2.116   5.699
    1LIG    H61  152   2.107   2.257   5.699
    1LIG    H62  153   2.281   2.391   5.821
    1LIG    H63  154   2.389   2.250   5.821
    1LIG    H64  155   2.281   2.390   6.066
    1LIG    H65  156   2.389   2.250   6.066
    1LIG    H66  157   2.215   2.116   6.189
    1LIG    H67  158   2.107   2.257   6.189
    1LIG    H68  159   2.215   2.116   6.434
    1LIG    H69  160   2.107   2.256   6.434
    1LIG    H70  161   2.281   2.390   6.558
    1LIG    H71  162   2.389   2.250   6.557
    1LIG    H72  163   2.281   2.390   6.802
    1LIG    H73  164   2.390   2.250   6.802
    1LIG    H74  165   2.216   2.116   6.926
    1LIG    H75  166   2.108   2.256   6.926
    1LIG    H76  167   2.216   2.115   7.170
    1LIG    H77  168   2.108   2.255   7.171
    1LIG    H78  169   2.281   2.388   7.294
    1LIG    H79  170   2.390   2.248   7.294
    1LIG    H80  171   2.282   2.389   7.539
    1LIG    H81  172   2.390   2.249   7.539
    1LIG    H82  173   2.217   2.114   7.662
    1LIG    H83  174   2.108   2.254   7.663
    1LIG    H84  175   2.217   2.113   7.907
    1LIG    H85  176   2.108   2.253   7.907
    1LIG    H86  177   2.282   2.388   8.030
    1LIG    H87  178   2.391   2.248   8.029
    1LIG    H88  179   2.283   2.388   8.276
    1LIG    H89  180   2.391   2.248   8.275
    1LIG    H90  181   2.217   2.113   8.397
    1LIG    H91  182   2.109   2.253   8.398
    1LIG    H92  183   2.218   2.112   8.644
    1LIG    H93  184   2.109   2.252   8.644
    1LIG    H94  185   2.283   2.387   8.766
    1LIG    H95  186   2.392   2.247   8.766
    1LIG    H96  187   2.283   2.386   9.012
    1LIG    H97  188   2.391   2.246   9.011
    1LIG    H98  189   2.218   2.111   9.133
    1LIG    H99  190   2.109   2.251   9.134
    1LIG   H100  191   2.218   2.111   9.379
    1LIG   H101  192   2.110   2.251   9.380
    1LIG   H102  193   2.284   2.386   9.502
    1LIG   H103  194   2.392   2.246   9.501
    1LIG   H104  195   2.284   2.385   9.747
    1LIG   H105  196   2.392   2.245   9.747
    1LIG   H106  197   2.219   2.110   9.869
    1LIG   H107  198   2.110   2.250   9.869
    1LIG   H108  199   2.220   2.110  10.114
    1LIG   H109  200   2.111   2.250  10.115
    1LIG   H110  201   2.284   2.384  10.238
    1LIG   H111  202   2.393   2.244  10.238
    1LIG   H112  203   2.285   2.384  10.484
    1LIG   H113  204   2.394   2.244  10.483
    1LIG   H114  205   2.221   2.109  10.607
    1LIG   H115  206   2.112   2.249  10.608
    1LIG   H116  207   2.221   2.107  10.852
    1LIG   H117  208   2.112   2.249  10.853
    1LIG   H118  209   2.393   2.242  10.978
    1LIG   H119  210   2.241   2.235  11.073
    1MOL     C1  211   1.729   1.797   5.446
    1MOL     H1  212   1.707   1.690   5.436
    1MOL     O1  213   1.683   1.830   5.576
    1MOL     C2  214   1.703   1.968   5.612
    1MOL     H2  215   1.809   1.995   5.598
    1MOL     C3  216   1.672   1.981   5.760
    1MOL     H3  217   1.705   2.080   5.795
    1MOL     H4  218   1.728   1.904   5.815
    1MOL     O2  219   1.532   1.966   5.782
    1MOL     C4  220   1.497   1.983   5.918
    1MOL     C5  221   1.647   1.878   5.343
    1MOL     H5  222   1.544   1.842   5.351
    1MOL     O3  223   1.693   1.863   5.210
    1MOL     C6  224   1.663   1.739   5.150
    1MOL     C7  225   1.646   2.029   5.373
    1MOL     H6  226   1.744   2.071   5.349
    1MOL     O4  227   1.544   2.089   5.295
    1MOL     C8  228   1.591   2.180   5.197
    1MOL     C9  229   1.616   2.057   5.521
    1MOL     H7  230   1.511   2.033   5.540
    1MOL     O5  231   1.641   2.196   5.543
    1MOL    C10  232   1.555   2.265   5.632
    1MOL     H8  233   1.477   2.198   5.667
    1MOL     O6  234   1.624   2.305   5.749
    1MOL    C11  235   1.735   2.393   5.725
    1MOL     H9  236   1.805   2.345   5.655
    1MOL    C12  237   1.808   2.412   5.857
    1MOL    H10  238   1.904   2.460   5.838
    1MOL    H11  239   1.826   2.313   5.902
    1MOL     O7  240   1.730   2.492   5.944
    1MOL    C13  241   1.796   2.520   6.065
    1MOL    C14  242   1.495   2.389   5.563
    1MOL    H12  243   1.420   2.430   5.632
    1MOL     O8  244   1.435   2.361   5.438
    1MOL    C15  245   1.311   2.294   5.445
    1MOL    C16  246   1.599   2.499   5.538
    1MOL    H13  247   1.665   2.466   5.457
    1MOL     O9  248   1.533   2.619   5.504
    1MOL    C17  249   1.547   2.659   5.369
    1MOL    C18  250   1.685   2.525   5.662
    1MOL    H14  251   1.624   2.577   5.736
    1MOL    O10  252   1.794   2.607   5.621
    1MOL    C19  253   1.835   2.712   5.706
    1MOL    H15  254   1.768   2.719   5.792
    1MOL    O11  255   1.963   2.686   5.763
    1MOL    C20  256   2.068   2.672   5.668
    1MOL    H16  257   2.042   2.593   5.595
    1MOL    C21  258   2.191   2.623   5.743
    1MOL    H17  259   2.267   2.591   5.670
    1MOL    H18  260   2.162   2.536   5.803
    1MOL    O12  261   2.241   2.726   5.827
    1MOL    C22  262   2.342   2.680   5.914
    1MOL    C23  263   1.841   2.845   5.628
    1MOL    H19  264   1.863   2.924   5.702
    1MOL    O13  265   1.722   2.875   5.559
    1MOL    C24  266   1.614   2.916   5.642
    1MOL    C25  267   1.955   2.845   5.526
    1MOL    H20  268   1.932   2.773   5.446
    1MOL    O14  269   1.969   2.976   5.471
    1MOL    C26  270   1.913   2.992   5.341
    1MOL    C27  271   2.088   2.804   5.591
    1MOL    H21  272   2.122   2.881   5.661
    1MOL    O15  273   2.188   2.780   5.491
    1MOL    C28  274   2.260   2.894   5.448
    1MOL    H22  275   2.194   2.980   5.444
    1MOL    O16  276   2.363   2.931   5.538
    1MOL    C29  277   2.463   2.831   5.561
    1MOL    H23  278   2.417   2.741   5.604
    1MOL    C30  279   2.557   2.889   5.666
    1MOL    H24  280   2.621   2.809   5.707
    1MOL    H25  281   2.495   2.930   5.747
    1MOL    O17  282   2.638   2.990   5.608
    1MOL    C31  283   2.722   3.052   5.703
    1MOL    C32  284   2.320   2.864   5.310
    1MOL    H26  285   2.369   2.956   5.276
    1MOL    O18  286   2.216   2.827   5.221
    1MOL    C33  287   2.230   2.879   5.090
    1MOL    C34  288   2.428   2.755   5.321
    1MOL    H27  289   2.379   2.661   5.349
    1MOL    O19  290   2.491   2.742   5.194
    1MOL    C35  291   2.506   2.608   5.148
    1MOL    C36  292   2.532   2.792   5.428
    1MOL    H28  293   2.589   2.878   5.391
    1MOL    O20  294   2.619   2.679   5.444
    1MOL    C37  295   2.753   2.705   5.479
    1MOL    H29  296   2.771   2.813   5.481
    1MOL    O21  297   2.782   2.662   5.611
    1MOL    C38  298   2.765   2.521   5.632
    1MOL    H30  299   2.663   2.493   5.603
    1MOL    C39  300   2.778   2.496   5.782
    1MOL    H31  301   2.745   2.394   5.804
    1MOL    H32  302   2.713   2.567   5.836
    1MOL    O22  303   2.913   2.513   5.821
    1MOL    C40  304   2.934   2.480   5.957
    1MOL    C41  305   2.850   2.635   5.381
    1MOL    H33  306   2.951   2.673   5.404
    1MOL    O23  307   2.819   2.660   5.245
    1MOL    C42  308   2.851   2.790   5.198
    1MOL    C43  309   2.854   2.483   5.399
    1MOL    H34  310   2.761   2.440   5.359
    1MOL    O24  311   2.966   2.432   5.329
    1MOL    C44  312   2.935   2.352   5.216
    1MOL    C45  313   2.866   2.444   5.546
    1MOL    H35  314   2.967   2.469   5.581
    1MOL    O25  315   2.845   2.302   5.554
    1MOL    C46  316   2.927   2.229   5.644
    1MOL    H36  317   3.002   2.295   5.688
    1MOL    O26  318   2.853   2.180   5.754
    1MOL    C47  319   2.747   2.090   5.721
    1MOL    H37  320   2.678   2.138   5.650
    1MOL    C48  321   2.669   2.061   5.849
    1MOL    H38  322   2.574   2.013   5.824
    1MOL    H39  323   2.647   2.158   5.898
    1MOL    O27  324   2.746   1.979   5.934
    1MOL    C49  325   2.673   1.939   6.049
    1MOL    C50  326   2.993   2.110   5.571
    1MOL    H40  327   3.066   2.067   5.641
    1MOL    O28  328   3.059   2.147   5.451
    1MOL    C51  329   3.181   2.217   5.469
    1MOL    C52  330   2.893   2.000   5.535
    1MOL    H41  331   2.828   2.036   5.454
    1MOL    O29  332   2.964   1.884   5.494
    1MOL    C53  333   2.959   1.858   5.355
    1MOL    C54  334   2.806   1.964   5.655
    1MOL    H42  335   2.868   1.913   5.730
    1MOL    O30  336   2.703   1.875   5.610
    1MOL    C55  337   2.679   1.758   5.684
    1MOL    H43  338   2.759   1.743   5.757
    1MOL    O31  339   2.561   1.765   5.761
    1MOL    C56  340   2.439   1.784   5.687
    1MOL    H44  341   2.443   1.879   5.632
    1MOL    C57  342   2.328   1.789   5.790
    1MOL    H45  343   2.343   1.707   5.863
    1MOL    H46  344   2.231   1.773   5.742
    1MOL    O32  345   2.331   1.915   5.856
    1MOL    C58  346   2.230   1.926   5.954
    1MOL    C59  347   2.669   1.636   5.589
    1MOL    H47  348   2.658   1.547   5.654
    1MOL    O33  349   2.781   1.619   5.505
    1MOL    C60  350   2.898   1.572   5.570
    1MOL    C61  351   2.544   1.644   5.501
    1MOL    H48  352   2.555   1.728   5.431
    1MOL    O34  353   2.524   1.522   5.431
    1MOL    C62  354   2.576   1.519   5.299
    1MOL    C63  355   2.418   1.669   5.586
    1MOL    H49  356   2.395   1.577   5.641
    1MOL    O35  357   2.308   1.704   5.501
    1MOL    C64  358   2.225   1.597   5.462
    1MOL    H50  359   2.282   1.504   5.463
    1MOL    O36  360   2.119   1.576   5.554
    1MOL    C65  361   2.024   1.682   5.566
    1MOL    H51  362   2.074   1.775   5.595
    1MOL    C66  363   1.929   1.641   5.678
    1MOL    H52  364   1.904   1.534   5.665
    1MOL    H53  365   1.837   1.699   5.675
    1MOL    O37  366   1.996   1.661   5.802
    1MOL    C67  367   1.923   1.609   5.911
    1MOL    C68  368   2.167   1.621   5.322
    1MOL    H54  369   2.117   1.528   5.294
    1MOL    O38  370   2.272   1.650   5.230
    1MOL    C69  371   2.260   1.582   5.106
    1MOL    C70  372   2.062   1.733   5.323
    1MOL    H55  373   2.112   1.828   5.346
    1MOL    O39  374   2.002   1.739   5.194
    1MOL    C71  375   2.009   1.866   5.132
    1MOL    C72  376   1.955   1.706   5.430
    1MOL    H56  377   1.898   1.617   5.401
    1MOL    O40  378   1.867   1.820   5.431
    1MOL    H57  379   1.388   1.969   5.924
    1MOL    H58  380   1.546   1.908   5.982
    1MOL    H59  381   1.523   2.083   5.954
    1MOL    H60  382   1.981   1.630   6.001
    1MOL    H61  383   1.824   1.657   5.921
    1MOL    H62  384   1.908   1.501   5.903
    1MOL    H63  385   2.235   2.028   5.994
    1MOL    H64  386   2.130   1.908   5.911
    1MOL    H65  387   2.246   1.855   6.036
    1MOL    H66  388   2.738   1.872   6.106
    1MOL    H67  389   2.647   2.025   6.112
    1MOL    H68  390   2.582   1.885   6.021
    1MOL    H69  391   3.040   2.496   5.979
    1MOL    H70  392   2.874   2.544   6.024
    1MOL    H71  393   2.908   2.375   5.977
    1MOL    H72  394   2.780   3.128   5.650
    1MOL    H73  395   2.664   3.101   5.783
    1MOL    H74  396   2.791   2.980   5.750
    1MOL    H75  397   2.374   2.766   5.974
    1MOL    H76  398   2.304   2.601   5.981
    1MOL    H77  399   2.429   2.640   5.860
    1MOL    H78  400   1.729   2.582   6.125
    1MOL    H79  401   1.819   2.428   6.121
    1MOL    H80  402   1.890   2.575   6.048
    1MOL    H81  403   1.489   2.751   5.357
    1MOL    H82  404   1.652   2.681   5.345
    1MOL    H83  405   1.508   2.583   5.300
    1MOL    H84  406   1.270   2.293   5.344
    1MOL    H85  407   1.321   2.190   5.479
    1MOL    H86  408   1.240   2.346   5.511
    1MOL    H87  409   1.502   2.218   5.144
    1MOL    H88  410   1.642   2.266   5.243
    1MOL    H89  411   1.657   2.131   5.124
    1MOL    H90  412   1.684   1.749   5.044
    1MOL    H91  413   1.725   1.657   5.190
    1MOL    H92  414   1.557   1.713   5.163
    1MOL    H93  415   1.962   1.856   5.033
    1MOL    H94  416   1.953   1.942   5.189
    1MOL    H95  417   2.113   1.898   5.118
    1MOL    H96  418   2.345   1.615   5.045
    1MOL    H97  419   2.266   1.473   5.119
    1MOL    H98  420   2.167   1.607   5.055
    1MOL    H99  421   2.547   1.423   5.257
    1MOL   H100  422   2.533   1.599   5.238
    1MOL   H101  423   2.685   1.528   5.299
    1MOL   H102  424   2.968   1.544   5.492
    1MOL   H103  425   2.945   1.650   5.632
    1MOL   H104  426   2.876   1.484   5.632
    1MOL   H105  427   3.022   1.769   5.338
    1MOL   H106  428   2.857   1.835   5.322
    1MOL   H107  429   3.000   1.942   5.297
    1MOL   H108  430   3.229   2.223   5.371
    1MOL   H109  431   3.166   2.319   5.507
    1MOL   H110  432   3.248   2.162   5.538
    1MOL   H111  433   3.030   2.322   5.172
    1MOL   H112  434   2.880   2.262   5.245
    1MOL   H113  435   2.877   2.409   5.142
    1MOL   H114  436   2.836   2.789   5.090
    1MOL   H115  437   2.785   2.866   5.241
    1MOL   H116  438   2.956   2.815   5.220
    1MOL   H117  439   2.553   2.614   5.050
    1MOL   H118  440   2.569   2.549   5.215
    1MOL   H119  441   2.408   2.559   5.137
    1MOL   H120  442   2.144   2.843   5.033
    1MOL   H121  443   2.229   2.990   5.090
    1MOL   H122  444   2.323   2.845   5.042
    1MOL   H123  445   1.929   3.097   5.313
    1MOL   H124  446   1.963   2.927   5.268
    1MOL   H125  447   1.805   2.971   5.342
    1MOL   H126  448   1.536   2.952   5.575
    1MOL   H127  449   1.573   2.833   5.701
    1MOL   H128  450   1.644   2.998   5.709
    2SOL     OW  451   0.230   0.628   0.113
    2SOL    HW1  452   0.137   0.626   0.150
    2SOL    HW2  453   0.231   0.589   0.021
    3SOL     OW  454   0.225   0.275   0.996
    3SOL    HW1  455   0.260   0.258   1.088
    3SOL    HW2  456   0.137   0.230   0.984
    4SOL     OW  457   0.019   0.368   0.647
    4SOL    HW1  458  -0.063   0.411   0.686
    4SOL    HW2  459  -0.009   0.295   0.584
    5SOL     OW  460   0.569   1.275   1.165
    5SOL    HW1  461   0.476   1.268   1.128
    5SOL    HW2  462   0.580   1.364   1.209
    6SOL     OW  463   1.555   1.511   0.703
    6SOL    HW1  464   1.498   1.495   0.784
    6SOL    HW2  465   1.496   1.521   0.623
    7SOL     OW  466   1.135   0.703   0.717
    7SOL    HW1  467   1.192   0.781   0.692
    7SOL    HW2  468   1.075   0.729   0.793
    8SOL     OW  469   1.755   0.607   0.231
    8SOL    HW1  470   1.743   0.594   0.132
    8SOL    HW2  471   1.725   0.526   0.280
    9SOL     OW  472   0.768   1.144   1.023
    9SOL    HW1  473   0.690   1.161   1.083
    9SOL    HW2  474   0.802   1.231   0.987
   10SOL     OW  475   0.850   0.798   1.823
   10SOL    HW1  476   0.846   0.874   1.888
   10SOL    HW2  477   0.872   0.834   1.732
   11SOL     OW  478   0.685   1.012   0.665
   11SOL    HW1  479   0.754   0.996   0.735
   11SOL    HW2  480   0.612   1.069   0.703
   12SOL     OW  481   0.686   1.161   1.803
   12SOL    HW1  482   0.746   1.240   1.817
   12SOL    HW2  483   0.600   1.192   1.762
   13SOL     OW  484   0.335   1.435   1.061
   13SOL    HW1  485   0.257   1.404   1.008
   13SOL    HW2  486   0.393   1.493   1.004
   14SOL     OW  487   1.460   1.505   1.339
   14SOL    HW1  488   1.484   1.599   1.365
   14SOL    HW2  489   1.444   1.451   1.421
   15SOL     OW  490   0.438   0.392   1.499
   15SOL    HW1  491   0.520   0.336   1.508
   15SOL    HW2  492   0.357   0.334   1.503
   16SOL     OW  493   1.603   0.447   0.737
   16SOL    HW1  494   1.529   0.493   0.687
   16SOL    HW2  495   1.654   0.515   0.790
   17SOL     OW  496   0.231   1.713   0.483
   17SOL    HW1  497   0.265   1.790   0.537
   17SOL    HW2  498   0.275   1.713   0.393
   18SOL     OW  499   1.127   1.341   1.690
   18SOL    HW1  500   1.174   1.341   1.778
   18SOL    HW2  501   1.079   1.254   1.679
   19SOL     OW  502   0.230   1.434   0.538
   19SOL    HW1  503   0.204   1.530   0.538
   19SOL    HW2  504   0.159   1.380   0.583
   20SOL     OW  505   0.240   1.091   0.886
   20SOL    HW1  506   0.254   1.007   0.938
   20SOL    HW2  507   0.185   1.155   0.941
   21SOL     OW  508   0.620   1.786   1.439
   21SOL    HW1  509   0.528   1.769   1.474
   21SOL    HW2  510   0.648   1.878   1.465
   22SOL     OW  511   0.606   0.964   0.123
   22SOL    HW1  512   0.613   1.048   0.069
   22SOL    HW2  513   0.652   0.977   0.211
   23SOL     OW  514   1.594   0.114   1.480
   23SOL    HW1  515   1.576   0.181   1.408
   23SOL    HW2  516   1.591   0.160   1.569
   24SOL     OW  517   0.122   0.643   0.563
   24SOL    HW1  518   0.077   0.555   0.580
   24SOL    HW2  519   0.121   0.697   0.647
   25SOL     OW  520   1.842   1.767   0.359
   25SOL    HW1  521   1.896   1.738   0.439
   25SOL    HW2  522   1.872   1.857   0.330
   26SOL     OW  523   0.027   1.596   0.117
   26SOL    HW1  524   0.008   1.500   0.138
   26SOL    HW2  525  -0.006   1.654   0.192
   27SOL     OW  526   1.689   0.922   0.612
   27SOL    HW1  527   1.784   0.893   0.620
   27SOL    HW2  528   1.681   0.987   0.537
   28SOL     OW  529   1.641   1.108   0.432
   28SOL    HW1  530   1.727   1.110   0.380
   28SOL    HW2  531   1.655   1.155   0.520
   29SOL     OW  532   0.113   0.737   1.597
   29SOL    HW1  533   0.201   0.724   1.642
   29SOL    HW2  534   0.100   0.834   1.575
   30SOL     OW  535   0.613   1.365   0.726
   30SOL    HW1  536   0.564   1.278   0.735
   30SOL    HW2  537   0.590   1.408   0.639
   31SOL     OW  538   1.293   1.228   1.423
   31SOL    HW1  539   1.330   1.155   1.365
   31SOL    HW2  540   1.345   1.233   1.508
   32SOL     OW  541   0.809   0.004   0.502
   32SOL    HW1  542   0.849   0.095   0.493
   32SOL    HW2  543   0.709   0.012   0.508
   33SOL     OW  544   0.197   0.976   1.264
   33SOL    HW1  545   0.286   0.931   1.250
   33SOL    HW2  546   0.124   0.911   1.245
   34SOL     OW  547   1.525   0.999   0.190
   34SOL    HW1  548   1.462   0.923   0.203
   34SOL    HW2  549   1.573   1.017   0.276
   35SOL     OW  550   1.187   1.792   1.616
   35SOL    HW1  551   1.211   1.852   1.540
   35SOL    HW2  552   1.194   1.697   1.586
   36SOL     OW  553   0.317   0.251   1.801
   36SOL    HW1  554   0.388   0.322   1.807
   36SOL    HW2  555   0.229   0.290   1.829
   37SOL     OW  556   1.466   1.417   0.953
   37SOL    HW1  557   1.407   1.423   1.033
   37SOL    HW2  558   1.451   1.329   0.907
   38SOL     OW  559   1.667   1.714   0.572
   38SOL    HW1  560   1.626   1.691   0.484
   38SOL    HW2  561   1.649   1.640   0.637
   39SOL     OW  562   0.598   0.729   0.270
   39SOL    HW1  563   0.622   0.798   0.202
   39SOL    HW2  564   0.520   0.762   0.324
   40SOL     OW  565   1.281   0.345   0.944
   40SOL    HW1  566   1.195   0.295   0.931
   40SOL    HW2  567   1.343   0.291   1.000
   41SOL     OW  568   1.576   1.662   0.307
   41SOL    HW1  569   1.665   1.708   0.310
   41SOL    HW2  570   1.555   1.638   0.212
   42SOL     OW  571   0.807   0.605   1.465
   42SOL    HW1  572   0.760   0.602   1.554
   42SOL    HW2  573   0.756   0.550   1.399
   43SOL     OW  574   1.394   0.469   1.674
   43SOL    HW1  575   1.374   0.512   1.762
   43SOL    HW2  576   1.472   0.407   1.683
   44SOL     OW  577   0.973   0.890   1.572
   44SOL    HW1  578   1.019   0.806   1.543
   44SOL    HW2  579   0.917   0.924   1.497
   45SOL     OW  580   0.991   0.410   1.242
   45SOL    HW1  581   0.914   0.444   1.296
   45SOL    HW2  582   0.957   0.359   1.163
   46SOL     OW  583   1.041   0.701   0.429
   46SOL    HW1  584   1.067   0.697   0.525
   46SOL    HW2  585   0.956   0.650   0.415
   47SOL     OW  586   0.076   0.811   0.789
   47SOL    HW1  587   0.175   0.799   0.798
   47SOL    HW2  588   0.052   0.906   0.810
   48SOL     OW  589   0.130   1.821   1.571
   48SOL    HW1  590   0.120   1.806   1.670
   48SOL    HW2  591   0.044   1.857   1.535
   49SOL     OW  592   0.865   0.348   0.195
   49SOL    HW1  593   0.924   0.411   0.146
   49SOL    HW2  594   0.884   0.254   0.166
   50SOL     OW  595   1.719   0.585   1.831
   50SOL    HW1  596   1.693   0.674   1.795
   50SOL    HW2  597   1.717   0.517   1.758
   51SOL     OW  598   1.362   1.144   0.545
   51SOL    HW1  599   1.445   1.115   0.497
   51SOL    HW2  600   1.313   1.211   0.489
   52SOL     OW  601   0.550   0.196   0.885
   52SOL    HW1  602   0.545   0.191   0.985
   52SOL    HW2  603   0.552   0.292   0.856
   53SOL     OW  604   1.008   1.456   0.477
   53SOL    HW1  605   0.962   1.528   0.425
   53SOL    HW2  606   1.004   1.476   0.575
   54SOL     OW  607   0.351   1.801   0.853
   54SOL    HW1  608   0.401   1.715   0.859
   54SOL    HW2  609   0.416   1.878   0.850
   55SOL     OW  610   1.795   1.066   0.873
   55SOL    HW1  611   1.733   1.051   0.797
   55SOL    HW2  612   1.743   1.077   0.958
   56SOL     OW  613   1.227   1.550   1.506
   56SOL    HW1  614   1.233   1.473   1.570
   56SOL    HW2  615   1.175   1.524   1.426
   57SOL     OW  616   0.321   0.943   0.242
   57SOL    HW1  617   0.403   0.982   0.200
   57SOL    HW2  618   0.294   0.861   0.193
   58SOL     OW  619   1.458   0.735   0.728
   58SOL    HW1  620   1.453   0.670   0.803
   58SOL    HW2  621   1.538   0.794   0.741
   59SOL     OW  622   0.461   1.266   1.727
   59SOL    HW1  623   0.411   1.267   1.641
   59SOL    HW2  624   0.398   1.248   1.803
   60SOL     OW  625   1.111   1.776   0.237
   60SOL    HW1  626   1.051   1.714   0.287
   60SOL    HW2  627   1.142   1.732   0.152
   61SOL     OW  628   0.202   0.285   1.498
   61SOL    HW1  629   0.122   0.345   1.485
   61SOL    HW2  630   0.192   0.236   1.584
   62SOL     OW  631   1.632   1.377   0.081
   62SOL    HW1  632   1.600   1.471   0.071
   62SOL    HW2  633   1.556   1.314   0.069
   63SOL     OW  634   0.464   1.743   0.323
   63SOL    HW1  635   0.497   1.782   0.409
   63SOL    HW2  636   0.540   1.736   0.258
   64SOL     OW  637   1.400   0.107   0.426
   64SOL    HW1  638   1.376   0.070   0.336
   64SOL    HW2  639   1.499   0.123   0.430
   65SOL     OW  640   0.249   1.785   1.241
   65SOL    HW1  641   0.306   1.720   1.291
   65SOL    HW2  642   0.233   1.752   1.148
   66SOL     OW  643   0.940   1.698   0.904
   66SOL    HW1  644   1.020   1.641   0.925
   66SOL    HW2  645   0.891   1.658   0.827
   67SOL     OW  646   0.382   0.700   0.480
   67SOL    HW1  647   0.427   0.610   0.477
   67SOL    HW2  648   0.288   0.689   0.513
   68SOL     OW  649   1.547   0.222   1.729
   68SOL    HW1  650   1.542   0.259   1.821
   68SOL    HW2  651   1.475   0.153   1.717
   69SOL     OW  652   0.614   0.122   0.117
   69SOL    HW1  653   0.712   0.100   0.124
   69SOL    HW2  654   0.583   0.105   0.024
   70SOL     OW  655   0.781   0.264   1.749
   70SOL    HW1  656   0.848   0.203   1.792
   70SOL    HW2  657   0.708   0.283   1.814
   71SOL     OW  658   0.888   1.514   1.195
   71SOL    HW1  659   0.865   1.489   1.101
   71SOL    HW2  660   0.949   1.445   1.234
   72SOL     OW  661   1.351   0.590   1.433
   72SOL    HW1  662   1.379   0.547   1.518
   72SOL    HW2  663   1.376   0.686   1.434
   73SOL     OW  664   0.803   1.402   0.924
   73SOL    HW1  665   0.893   1.416   0.882
   73SOL    HW2  666   0.732   1.404   0.853
   74SOL     OW  667   0.922   0.503   0.899
   74SOL    HW1  668   0.897   0.494   0.803
   74SOL    HW2  669   0.970   0.421   0.930
   75SOL     OW  670   0.539   0.064   0.512
   75SOL    HW1  671   0.458   0.065   0.570
   75SOL    HW2  672   0.542   0.147   0.457
   76SOL     OW  673   1.434   1.188   0.041
   76SOL    HW1  674   1.466   1.112   0.098
   76SOL    HW2  675   1.342   1.215   0.071
   77SOL     OW  676   0.297   0.035   0.171
   77SOL    HW1  677   0.346   0.119   0.150
   77SOL    HW2  678   0.359  -0.030   0.216
   78SOL     OW  679   0.935   0.236   0.480
   78SOL    HW1  680   0.887   0.277   0.402
   78SOL    HW2  681   1.034   0.234   0.461
   79SOL     OW  682   1.076   0.683   1.464
   79SOL    HW1  683   0.996   0.622   1.467
   79SOL    HW2  684   1.157   0.630   1.440
   80SOL     OW  685   1.227   1.570   0.793
   80SOL    HW1  686   1.248   1.644   0.728
   80SOL    HW2  687   1.295   1.570   0.866
   81SOL     OW  688   0.459   1.152   0.741
   81SOL    HW1  689   0.388   1.125   0.806
   81SOL    HW2  690   0.433   1.124   0.648
   82SOL     OW  691   1.271   1.797   0.591
   82SOL    HW1  692   1.315   1.861   0.527
   82SOL    HW2  693   1.221   1.849   0.661
   83SOL     OW  694   1.032   0.549   0.016
   83SOL    HW1  695   0.991   0.631  -0.023
   83SOL    HW2  696   1.096   0.575   0.089
   84SOL     OW  697   0.078   0.556   1.386
   84SOL    HW1  698   0.170   0.555   1.345
   84SOL    HW2  699   0.072   0.630   1.453
   85SOL     OW  700   0.561   0.222   1.147
   85SOL    HW1  701   0.599   0.138   1.184
   85SOL    HW2  702   0.473   0.241   1.191
   86SOL     OW  703   0.866   0.454   0.642
   86SOL    HW1  704   0.834   0.526   0.580
   86SOL    HW2  705   0.890   0.373   0.589
   87SOL     OW  706   1.017   0.039   0.753
   87SOL    HW1  707   0.945   0.044   0.684
   87SOL    HW2  708   0.993  -0.030   0.822
   88SOL     OW  709   1.429   1.173   0.867
   88SOL    HW1  710   1.374   1.089   0.860
   88SOL    HW2  711   1.455   1.202   0.775
   89SOL     OW  712   1.466   0.590   0.992
   89SOL    HW1  713   1.436   0.495   0.999
   89SOL    HW2  714   1.539   0.606   1.058
   90SOL     OW  715   1.857   0.833   0.377
   90SOL    HW1  716   1.899   0.769   0.441
   90SOL    HW2  717   1.819   0.782   0.299
   91SOL     OW  718   0.488   1.385   0.174
   91SOL    HW1  719   0.401   1.370   0.221
   91SOL    HW2  720   0.471   1.411   0.079
   92SOL     OW  721   1.664   1.280   0.657
   92SOL    HW1  722   1.763   1.288   0.671
   92SOL    HW2  723   1.619   1.364   0.688
   93SOL     OW  724   1.390   0.575   0.078
   93SOL    HW1  725   1.336   0.554   0.159
   93SOL    HW2  726   1.481   0.534   0.087
   94SOL     OW  727   0.527   0.256   0.328
   94SOL    HW1  728   0.554   0.197   0.253
   94SOL    HW2  729   0.527   0.351   0.297
   95SOL     OW  730   1.754   1.223   1.588
   95SOL    HW1  731   1.845   1.184   1.575
   95SOL    HW2  732   1.762   1.319   1.612
   96SOL     OW  733   1.064   1.347   1.340
   96SOL    HW1  734   0.984   1.324   1.395
   96SOL    HW2  735   1.147   1.321   1.389
   97SOL     OW  736   1.592   1.629   1.625
   97SOL    HW1  737   1.619   1.663   1.535
   97SOL    HW2  738   1.671   1.591   1.671
   98SOL     OW  739   1.111   1.195   1.100
   98SOL    HW1  740   1.071   1.239   1.181
   98SOL    HW2  741   1.070   1.232   1.017
   99SOL     OW  742   1.638   1.099   1.079
   99SOL    HW1  743   1.643   1.180   1.138
   99SOL    HW2  744   1.552   1.101   1.028
  100SOL     OW  745   0.915   0.089   1.402
  100SOL    HW1  746   0.940   0.069   1.307
  100SOL    HW2  747   0.987   0.145   1.444
  101SOL     OW  748   0.980   1.116   1.719
  101SOL    HW1  749   0.881   1.122   1.729
  101SOL    HW2  750   1.003   1.036   1.663
  102SOL     OW  751   0.705   1.050   0.368
  102SOL    HW1  752   0.691   1.057   0.467
  102SOL    HW2  753   0.789   0.999   0.350
  103SOL     OW  754   0.410   0.813   1.251
  103SOL    HW1  755   0.496   0.825   1.301
  103SOL    HW2  756   0.368   0.726   1.278
  104SOL     OW  757   1.274   0.386   1.262
  104SOL    HW1  758   1.295   0.460   1.326
  104SOL    HW2  759   1.185   0.403   1.219
  105SOL     OW  760   0.064   1.564   1.331
  105SOL    HW1  761   0.018   1.646   1.297
  105SOL    HW2  762   0.162   1.583   1.340
  106SOL     OW  763   0.367   1.100   0.501
  106SOL    HW1  764   0.360   1.183   0.445
  106SOL    HW2  765   0.371   1.020   0.441
  107SOL     OW  766   0.566   0.537   0.865
  107SOL    HW1  767   0.578   0.603   0.791
  107SOL    HW2  768   0.612   0.571   0.948
  108SOL     OW  769   1.252   1.348   0.388
  108SOL    HW1  770   1.302   1.425   0.428
  108SOL    HW2  771   1.157   1.350   0.420
  109SOL     OW  772   1.272   1.445   1.142
  109SOL    HW1  773   1.319   1.458   1.229
  109SOL    HW2  774   1.206   1.371   1.151
  110SOL     OW  775   1.582   0.639   0.472
  110SOL    HW1  776   1.551   0.700   0.545
  110SOL    HW2  777   1.632   0.691   0.403
  111SOL     OW  778   0.354   1.510   1.329
  111SOL    HW1  779   0.333   1.466   1.242
  111SOL    HW2  780   0.451   1.536   1.332
  112SOL     OW  781   0.402   0.751   1.598
  112SOL    HW1  782   0.470   0.806   1.551
  112SOL    HW2  783   0.442   0.663   1.625
  113SOL     OW  784   1.587   0.779   1.670
  113SOL    HW1  785   1.495   0.817   1.665
  113SOL    HW2  786   1.647   0.826   1.605
  114SOL     OW  787   1.013   0.105   1.770
  114SOL    HW1  788   1.019   0.190   1.718
  114SOL    HW2  789   1.045   0.029   1.713
  115SOL     OW  790   0.504   0.050   1.740
  115SOL    HW1  791   0.462  -0.007   1.670
  115SOL    HW2  792   0.438   0.119   1.772
  116SOL     OW  793   0.573   0.870   1.029
  116SOL    HW1  794   0.617   0.959   1.020
  116SOL    HW2  795   0.510   0.870   1.106
  117SOL     OW  796   1.360   0.862   1.045
  117SOL    HW1  797   1.285   0.862   0.979
  117SOL    HW2  798   1.397   0.770   1.054
  118SOL     OW  799   1.209   0.525   0.275
  118SOL    HW1  800   1.222   0.441   0.329
  118SOL    HW2  801   1.180   0.599   0.335
  119SOL     OW  802   0.307   0.213   1.231
  119SOL    HW1  803   0.284   0.250   1.321
  119SOL    HW2  804   0.277   0.118   1.225
  120SOL     OW  805   0.037   1.310   1.282
  120SOL    HW1  806   0.090   1.261   1.350
  120SOL    HW2  807   0.059   1.408   1.287
  121SOL     OW  808   0.732   0.634   1.064
  121SOL    HW1  809   0.791   0.608   0.988
  121SOL    HW2  810   0.704   0.730   1.053
  122SOL     OW  811   1.728   0.935   1.854
  122SOL    HW1  812   1.682   0.928   1.765
  122SOL    HW2  813   1.666   0.979   1.920
  123SOL     OW  814   0.307   0.063   0.618
  123SOL    HW1  815   0.296   0.157   0.651
  123SOL    HW2  816   0.302   0.000   0.695
  124SOL     OW  817   1.622   0.367   0.374
  124SOL    HW1  818   1.624   0.291   0.438
  124SOL    HW2  819   1.574   0.444   0.414
  125SOL     OW  820   1.023   0.766   0.966
  125SOL    HW1  821   1.038   0.787   1.062
  125SOL    HW2  822   0.993   0.671   0.957
  126SOL     OW  823   0.980   1.573   1.700
  126SOL    HW1  824   0.960   1.617   1.612
  126SOL    HW2  825   1.019   1.482   1.684
  127SOL     OW  826   1.859   1.518   1.605
  127SOL    HW1  827   1.873   1.545   1.510
  127SOL    HW2  828   1.942   1.540   1.658
  128SOL     OW  829   0.350   0.898   1.804
  128SOL    HW1  830   0.426   0.942   1.852
  128SOL    HW2  831   0.385   0.851   1.722
  129SOL     OW  832   1.540   0.274   0.125
  129SOL    HW1  833   1.479   0.199   0.148
  129SOL    HW2  834   1.562   0.326   0.208
  130SOL     OW  835   1.303   0.838   0.042
  130SOL    HW1  836   1.337   0.745   0.057
  130SOL    HW2  837   1.321   0.865  -0.053
  131SOL     OW  838   1.068   1.333   0.849
  131SOL    HW1  839   1.075   1.249   0.794
  131SOL    HW2  840   1.130   1.402   0.813
  132SOL     OW  841   0.319   0.810   0.949
  132SOL    HW1  842   0.412   0.846   0.954
  132SOL    HW2  843   0.313   0.725   1.001
  133SOL     OW  844   0.339   0.509   1.006
  133SOL    HW1  845   0.287   0.426   0.989
  133SOL    HW2  846   0.416   0.514   0.942
  134SOL     OW  847   1.138   0.380   1.678
  134SOL    HW1  848   1.093   0.443   1.742
  134SOL    HW2  849   1.231   0.411   1.661
  135SOL     OW  850   1.160   0.207   1.477
  135SOL    HW1  851   1.160   0.271   1.554
  135SOL    HW2  852   1.188   0.255   1.394
  136SOL     OW  853   0.008   1.326   0.200
  136SOL    HW1  854  -0.085   1.347   0.169
  136SOL    HW2  855   0.018   1.227   0.213
  137SOL     OW  856   0.088   1.801   0.927
  137SOL    HW1  857   0.046   1.715   0.900
  137SOL    HW2  858   0.182   1.804   0.893
  138SOL     OW  859   0.504   1.568   0.910
  138SOL    HW1  860   0.570   1.642   0.919
  138SOL    HW2  861   0.548   1.489   0.868
  139SOL     OW  862   1.002   0.796   1.238
  139SOL    HW1  863   1.043   0.764   1.324
  139SOL    HW2  864   0.906   0.769   1.235
  140SOL     OW  865   0.040   0.544   1.114
  140SOL    HW1  866   0.125   0.511   1.073
  140SOL    HW2  867   0.053   0.559   1.212
  141SOL     OW  868   0.189   0.520   1.722
  141SOL    HW1  869   0.248   0.480   1.652
  141SOL    HW2  870   0.131   0.591   1.681
  142SOL     OW  871   1.369   0.950   1.660
  142SOL    HW1  872   1.408   1.039   1.680
  142SOL    HW2  873   1.379   0.930   1.563
  143SOL     OW  874   0.815   0.572   0.325
  143SOL    HW1  875   0.822   0.483   0.279
  143SOL    HW2  876   0.721   0.606   0.317
  144SOL     OW  877   1.657   0.604   1.206
  144SOL    HW1  878   1.619   0.535   1.268
  144SOL    HW2  879   1.739   0.568   1.162
  145SOL     OW  880   0.252   1.564   1.744
  145SOL    HW1  881   0.222   1.621   1.820
  145SOL    HW2  882   0.245   1.467   1.770
  146SOL     OW  883   0.671   0.464   1.269
  146SOL    HW1  884   0.637   0.375   1.239
  146SOL    HW2  885   0.697   0.518   1.189
  147SOL     OW  886   0.930   1.678   1.465
  147SOL    HW1  887   0.906   1.660   1.370
  147SOL    HW2  888   0.960   1.772   1.475
  148SOL     OW  889   0.473   0.500   0.191
  148SOL    HW1  890   0.534   0.580   0.195
  148SOL    HW2  891   0.378   0.531   0.198
  149SOL     OW  892   0.159   1.137   1.466
  149SOL    HW1  893   0.181   1.076   1.542
  149SOL    HW2  894   0.169   1.088   1.380
  150SOL     OW  895   1.347   1.059   1.234
  150SOL    HW1  896   1.371   0.996   1.160
  150SOL    HW2  897   1.257   1.099   1.216
  151SOL     OW  898   1.302   0.855   0.309
  151SOL    HW1  899   1.216   0.824   0.351
  151SOL    HW2  900   1.298   0.841   0.210
  152SOL     OW  901   1.759   1.747   1.154
  152SOL    HW1  902   1.820   1.777   1.081
  152SOL    HW2  903   1.721   1.658   1.132
  153SOL     OW  904   1.252   1.731   1.128
  153SOL    HW1  905   1.336   1.736   1.074
  153SOL    HW2  906   1.229   1.635   1.146
  154SOL     OW  907   0.083   1.258   1.022
  154SOL    HW1  908   0.078   1.257   1.122
  154SOL    HW2  909   0.000   1.217   0.984
  155SOL     OW  910   0.688   1.662   1.716
  155SOL    HW1  911   0.632   1.743   1.725
  155SOL    HW2  912   0.740   1.666   1.630
  156SOL     OW  913   0.903   0.086   0.133
  156SOL    HW1  914   0.954   0.087   0.047
  156SOL    HW2  915   0.959   0.044   0.204
  157SOL     OW  916   1.726   0.135   0.523
  157SOL    HW1  917   1.799   0.118   0.456
  157SOL    HW2  918   1.695   0.048   0.561
  158SOL     OW  919   1.388   1.573   0.477
  158SOL    HW1  920   1.455   1.585   0.403
  158SOL    HW2  921   1.348   1.662   0.500
  159SOL     OW  922   0.130   1.794   1.851
  159SOL    HW1  923   0.089   1.720   1.904
  159SOL    HW2  924   0.194   1.845   1.909
  160SOL     OW  925   1.280   0.927   0.672
  160SOL    HW1  926   1.340   0.846   0.674
  160SOL    HW2  927   1.320   0.996   0.612
  161SOL     OW  928   0.830   1.273   1.422
  161SOL    HW1  929   0.825   1.306   1.517
  161SOL    HW2  930   0.744   1.292   1.376
  162SOL     OW  931   0.672   1.616   0.154
  162SOL    HW1  932   0.681   1.626   0.055
  162SOL    HW2  933   0.632   1.527   0.175
  163SOL     OW  934   1.650   1.720   1.394
  163SOL    HW1  935   1.703   1.730   1.310
  163SOL    HW2  936   1.623   1.810   1.428
  164SOL     OW  937   1.841   0.175   0.963
  164SOL    HW1  938   1.880   0.090   0.927
  164SOL    HW2  939   1.743   0.177   0.944
  165SOL     OW  940   0.263   0.326   0.720
  165SOL    HW1  941   0.184   0.377   0.686
  165SOL    HW2  942   0.254   0.311   0.818
  166SOL     OW  943   1.194   1.612   0.031
  166SOL    HW1  944   1.200   1.519   0.068
  166SOL    HW2  945   1.135   1.612  -0.049
  167SOL     OW  946   0.822   1.002   1.372
  167SOL    HW1  947   0.862   1.001   1.280
  167SOL    HW2  948   0.832   1.094   1.412
  168SOL     OW  949   0.916   0.910   0.291
  168SOL    HW1  950   0.979   0.948   0.223
  168SOL    HW2  951   0.956   0.827   0.330
  169SOL     OW  952   1.504   1.607   0.044
  169SOL    HW1  953   1.412   1.644   0.051
  169SOL    HW2  954   1.542   1.627  -0.046
  170SOL     OW  955   0.372   1.288   1.490
  170SOL    HW1  956   0.359   1.381   1.456
  170SOL    HW2  957   0.288   1.236   1.477
  171SOL     OW  958   1.614   1.292   1.289
  171SOL    HW1  959   1.674   1.295   1.369
  171SOL    HW2  960   1.539   1.356   1.302
  172SOL     OW  961   1.039   1.098   0.696
  172SOL    HW1  962   0.969   1.051   0.750
  172SOL    HW2  963   1.098   1.030   0.653
  173SOL     OW  964   1.014   0.236   0.971
  173SOL    HW1  965   1.006   0.200   0.878
  173SOL    HW2  966   1.012   0.160   1.036
  174SOL     OW  967   0.590   1.487   0.491
  174SOL    HW1  968   0.632   1.429   0.421
  174SOL    HW2  969   0.546   1.566   0.447
  175SOL     OW  970   1.709   0.385   1.381
  175SOL    HW1  971   1.782   0.454   1.385
  175SOL    HW2  972   1.737   0.310   1.322
  176SOL     OW  973   0.255   1.348   0.290
  176SOL    HW1  974   0.159   1.349   0.263
  176SOL    HW2  975   0.267   1.401   0.374
  177SOL     OW  976   0.105   1.013   1.726
  177SOL    HW1  977   0.028   0.980   1.780
  177SOL    HW2  978   0.190   0.983   1.768
  178SOL     OW  979   0.672   0.203   1.489
  178SOL    HW1  980   0.762   0.187   1.449
  178SOL    HW2  981   0.680   0.208   1.588
  179SOL     OW  982   0.075   0.345   0.033
  179SOL    HW1  983  -0.017   0.317   0.004
  179SOL    HW2  984   0.106   0.422  -0.023
  180SOL     OW  985   1.440   0.856   1.398
  180SOL    HW1  986   1.383   0.908   1.335
  180SOL    HW2  987   1.536   0.868   1.374
  181SOL     OW  988   0.072   0.166   0.318
  181SOL    HW1  989   0.055   0.249   0.264
  181SOL    HW2  990   0.162   0.129   0.296
  182SOL     OW  991   1.183   1.335   0.119
  182SOL    HW1  992   1.084   1.324   0.121
  182SOL    HW2  993   1.217   1.350   0.212
  183SOL     OW  994   0.613   0.842   1.431
  183SOL    HW1  995   0.669   0.923   1.414
  183SOL    HW2  996   0.672   0.762   1.434
  184SOL     OW  997   1.493   1.767   0.959
  184SOL    HW1  998   1.526   1.831   0.890
  184SOL    HW2  999   1.559   1.761   1.034
  185SOL     OW 1000   0.716   0.565   1.708
  185SOL    HW1 1001   0.735   0.630   1.782
  185SOL    HW2 1002   0.776   0.485   1.717
  186SOL     OW 1003   1.450   1.220   1.633
  186SOL    HW1 1004   1.441   1.210   1.732
  186SOL    HW2 1005   1.546   1.213   1.607
  187SOL     OW 1006   0.390   1.741   1.560
  187SOL    HW1 1007   0.299   1.782   1.558
  187SOL    HW2 1008   0.383   1.647   1.592
  188SOL     OW 1009   1.674   0.883   1.254
  188SOL    HW1 1010   1.647   0.794   1.217
  188SOL    HW2 1011   1.675   0.951   1.181
  189SOL     OW 1012   1.225   0.325   0.449
  189SOL    HW1 1013   1.290   0.251   0.438
  189SOL    HW2 1014   1.245   0.375   0.533
  190SOL     OW 1015   0.594   0.745   0.652
  190SOL    HW1 1016   0.644   0.830   0.633
  190SOL    HW2 1017   0.506   0.747   0.604
  191SOL     OW 1018   1.777   0.342   1.642
  191SOL    HW1 1019   1.760   0.373   1.548
  191SOL    HW2 1020   1.693   0.305   1.680
  192SOL     OW 1021   1.730   0.934   1.517
  192SOL    HW1 1022   1.768   1.025   1.532
  192SOL    HW2 1023   1.722   0.917   1.418
  193SOL     OW 1024   0.859   1.374   0.016
  193SOL    HW1 1025   0.813   1.389   0.104
  193SOL    HW2 1026   0.903   1.459  -0.014
  194SOL     OW 1027   0.661   1.790   0.953
  194SOL    HW1 1028   0.615   1.878   0.940
  194SOL    HW2 1029   0.760   1.802   0.946
  195SOL     OW 1030   0.859   0.956   0.861
  195SOL    HW1 1031   0.913   0.887   0.909
  195SOL    HW2 1032   0.827   1.025   0.927
  196SOL     OW 1033   1.083   0.984   0.087
  196SOL    HW1 1034   1.060   1.037   0.005
  196SOL    HW2 1035   1.164   0.928   0.068
  197SOL     OW 1036   1.861   1.569   0.851
  197SOL    HW1 1037   1.790   1.557   0.781
  197SOL    HW2 1038   1.862   1.490   0.911
  198SOL     OW 1039   0.221   1.314   1.844
  198SOL    HW1 1040   0.156   1.241   1.823
  198SOL    HW2 1041   0.225   1.328   1.942
  199SOL     OW 1042   0.079   1.240   0.653
  199SOL    HW1 1043   0.078   1.193   0.741
  199SOL    HW2 1044   0.161   1.212   0.602
  200SOL     OW 1045   0.672   1.391   1.624
  200SOL    HW1 1046   0.594   1.341   1.662
  200SOL    HW2 1047   0.669   1.486   1.655
  201SOL     OW 1048   1.824   0.192   1.227
  201SOL    HW1 1049   1.820   0.102   1.271
  201SOL    HW2 1050   1.827   0.181   1.128
  202SOL     OW 1051   0.428   0.424   0.520
  202SOL    HW1 1052   0.458   0.352   0.458
  202SOL    HW2 1053   0.389   0.384   0.603
  203SOL     OW 1054   1.705   1.487   1.104
  203SOL    HW1 1055   1.612   1.462   1.077
  203SOL    HW2 1056   1.731   1.437   1.186
  204SOL     OW 1057   0.317   0.547   1.280
  204SOL    HW1 1058   0.355   0.488   1.352
  204SOL    HW2 1059   0.357   0.521   1.192
  205SOL     OW 1060   0.812   1.586   0.687
  205SOL    HW1 1061   0.844   1.596   0.593
  205SOL    HW2 1062   0.733   1.524   0.689
  206SOL     OW 1063   1.424   0.214   1.112
  206SOL    HW1 1064   1.476   0.149   1.167
  206SOL    HW2 1065   1.375   0.277   1.173
  207SOL     OW 1066   1.001   0.034   1.154
  207SOL    HW1 1067   0.938  -0.038   1.123
  207SOL    HW2 1068   1.094  -0.002   1.154
  208SOL     OW 1069   0.770   1.330   0.301
  208SOL    HW1 1070   0.724   1.243   0.318
  208SOL    HW2 1071   0.861   1.327   0.342
  209SOL     OW 1072   0.618   1.567   1.284
  209SOL    HW1 1073   0.613   1.649   1.341
  209SOL    HW2 1074   0.707   1.564   1.239
  210SOL     OW 1075   1.352   0.052   0.168
  210SOL    HW1 1076   1.387   0.011   0.084
  210SOL    HW2 1077   1.262   0.014   0.188
  211SOL     OW 1078   1.300   0.453   0.691
  211SOL    HW1 1079   1.241   0.533   0.695
  211SOL    HW2 1080   1.315   0.418   0.784
  212SOL     OW 1081   1.593   0.221   0.882
  212SOL    HW1 1082   1.509   0.220   0.936
  212SOL    HW2 1083   1.595   0.304   0.826
  213SOL     OW 1084   0.039   1.077   0.300
  213SOL    HW1 1085   0.138   1.066   0.291
  213SOL    HW2 1086  -0.001   0.991   0.332
  214SOL     OW 1087   0.875   1.646   0.337
  214SOL    HW1 1088   0.798   1.611   0.283
  214SOL    HW2 1089   0.843   1.717   0.399
  215SOL     OW 1090   0.230   0.628   1.975
  215SOL    HW1 1091   0.137   0.626   2.012
  215SOL    HW2 1092   0.231   0.589   1.883
  216SOL     OW 1093   0.225   0.275   2.858
  216SOL    HW1 1094   0.260   0.258   2.950
  216SOL    HW2 1095   0.137   0.230   2.846
  217SOL     OW 1096   0.019   0.368   2.509
  217SOL    HW1 1097  -0.063   0.411   2.548
  217SOL    HW2 1098  -0.009   0.295   2.446
  218SOL     OW 1099   0.569   1.275   3.027
  218SOL    HW1 1100   0.476   1.268   2.990
  218SOL    HW2 1101   0.580   1.364   3.071
  219SOL     OW 1102   1.555   1.511   2.565
  219SOL    HW1 1103   1.498   1.495   2.646
  219SOL    HW2 1104   1.496   1.521   2.485
  220SOL     OW 1105   1.135   0.703   2.579
  220SOL    HW1 1106   1.192   0.781   2.554
  220SOL    HW2 1107   1.075   0.729   2.655
  221SOL     OW 1108   1.755   0.607   2.093
  221SOL    HW1 1109   1.743   0.594   1.994
  221SOL    HW2 1110   1.725   0.526   2.142
  222SOL     OW 1111   0.768   1.144   2.885
  222SOL    HW1 1112   0.690   1.161   2.945
  222SOL    HW2 1113   0.802   1.231   2.849
  223SOL     OW 1114   0.850   0.798   3.685
  223SOL    HW1 1115   0.846   0.874   3.750
  223SOL    HW2 1116   0.872   0.834   3.594
  224SOL     OW 1117   0.685   1.012   2.527
  224SOL    HW1 1118   0.754   0.996   2.597
  224SOL    HW2 1119   0.612   1.069   2.565
  225SOL     OW 1120   0.686   1.161   3.665
  225SOL    HW1 1121   0.746   1.240   3.679
  225SOL    HW2 1122   0.600   1.192   3.624
  226SOL     OW 1123   0.335   1.435   2.923
  226SOL    HW1 1124   0.257   1.404   2.870
  226SOL    HW2 1125   0.393   1.493   2.866
  227SOL     OW 1126   1.460   1.505   3.201
  227SOL    HW1 1127   1.484   1.599   3.227
  227SOL    HW2 1128   1.444   1.451   3.283
  228SOL     OW 1129   0.438   0.392   3.361
  228SOL    HW1 1130   0.520   0.336   3.370
  228SOL    HW2 1131   0.357   0.334   3.365
  229SOL     OW 1132   1.603   0.447   2.599
  229SOL    HW1 1133   1.529   0.493   2.549
  229SOL    HW2 1134   1.654   0.515   2.652
  230SOL     OW 1135   0.231   1.713   2.345
  230SOL    HW1 1136   0.265   1.790   2.399
  230SOL    HW2 1137   0.275   1.713   2.255
  231SOL     OW 1138   1.127   1.341   3.552
  231SOL    HW1 1139   1.174   1.341   3.640
  231SOL    HW2 1140   1.079   1.254   3.541
  232SOL     OW 1141   0.230   1.434   2.400
  232SOL    HW1 1142   0.204   1.530   2.400
  232SOL    HW2 1143   0.159   1.380   2.445
  233SOL     OW 1144   0.240   1.091   2.748
  233SOL    HW1 1145   0.254   1.007   2.800
  233SOL    HW2 1146   0.185   1.155   2.803
  234SOL     OW 1147   0.620   1.786   3.301
  234SOL    HW1 1148   0.528   1.769   3.336
  234SOL    HW2 1149   0.648   1.878   3.327
  235SOL     OW 1150   0.606   0.964   1.985
  235SOL    HW1 1151   0.613   1.048   1.931
  235SOL    HW2 1152   0.652   0.977   2.073
  236SOL     OW 1153   1.594   0.114   3.342
  236SOL    HW1 1154   1.576   0.181   3.270
  236SOL    HW2 1155   1.591   0.160   3.431
  237SOL     OW 1156   0.122   0.643   2.425
  237SOL    HW1 1157   0.077   0.555   2.442
  237SOL    HW2 1158   0.121   0.697   2.509
  238SOL     OW 1159   1.842   1.767   2.221
  238SOL    HW1 1160   1.896   1.738   2.301
  238SOL    HW2 1161   1.872   1.857   2.192
  239SOL     OW 1162   0.027   1.596   1.979
  239SOL    HW1 1163   0.008   1.500   2.000
  239SOL    HW2 1164  -0.006   1.654   2.054
  240SOL     OW 1165   1.689   0.922   2.474
  240SOL    HW1 1166   1.784   0.893   2.482
  240SOL    HW2 1167   1.681   0.987   2.399
  241SOL     OW 1168   1.641   1.108   2.294
  241SOL    HW1 1169   1.727   1.110   2.242
  241SOL    HW2 1170   1.655   1.155   2.382
  242SOL     OW 1171   0.113   0.737   3.459
  242SOL    HW1 1172   0.201   0.724   3.504
  242SOL    HW2 1173   0.100   0.834   3.437
  243SOL     OW 1174   0.613   1.365   2.588
  243SOL    HW1 1175   0.564   1.278   2.597
  243SOL    HW2 1176   0.590   1.408   2.501
  244SOL     OW 1177   1.293   1.228   3.285
  244SOL    HW1 1178   1.330   1.155   3.227
  244SOL    HW2 1179   1.345   1.233   3.370
  245SOL     OW 1180   0.809   0.004   2.364
  245SOL    HW1 1181   0.849   0.095   2.355
  245SOL    HW2 1182   0.709   0.012   2.370
  246SOL     OW 1183   0.197   0.976   3.126
  246SOL    HW1 1184   0.286   0.931   3.112
  246SOL    HW2 1185   0.124   0.911   3.107
  247SOL     OW 1186   1.525   0.999   2.052
  247SOL    HW1 1187   1.462   0.923   2.065
  247SOL    HW2 1188   1.573   1.017   2.138
  248SOL     OW 1189   1.187   1.792   3.478
  248SOL    HW1 1190   1.211   1.852   3.402
  248SOL    HW2 1191   1.194   1.697   3.448
  249SOL     OW 1192   0.317   0.251   3.663
  249SOL    HW1 1193   0.388   0.322   3.669
  249SOL    HW2 1194   0.229   0.290   3.691
  250SOL     OW 1195   1.466   1.417   2.815
  250SOL    HW1 1196   1.407   1.423   2.895
  250SOL    HW2 1197   1.451   1.329   2.769
  251SOL     OW 1198   1.667   1.714   2.434
  251SOL    HW1 1199   1.626   1.691   2.346
  251SOL    HW2 1200   1.649   1.640   2.499
  252SOL     OW 1201   0.598   0.729   2.132
  252SOL    HW1 1202   0.622   0.798   2.064
  252SOL    HW2 1203   0.520   0.762   2.186
  253SOL     OW 1204   1.281   0.345   2.806
  253SOL    HW1 1205   1.195   0.295   2.793
  253SOL    HW2 1206   1.343   0.291   2.862
  254SOL     OW 1207   1.576   1.662   2.169
  254SOL    HW1 1208   1.665   1.708   2.172
  254SOL    HW2 1209   1.555   1.638   2.074
  255SOL     OW 1210   0.807   0.605   3.327
  255SOL    HW1 1211   0.760   0.602   3.416
  255SOL    HW2 1212   0.756   0.550   3.261
  256SOL     OW 1213   1.394   0.469   3.536
  256SOL    HW1 1214   1.374   0.512   3.624
  256SOL    HW2 1215   1.472   0.407   3.545
  257SOL     OW 1216   0.973   0.890   3.434
  257SOL    HW1 1217   1.019   0.806   3.405
  257SOL    HW2 1218   0.917   0.924   3.359
  258SOL     OW 1219   0.991   0.410   3.104
  258SOL    HW1 1220   0.914   0.444   3.158
  258SOL    HW2 1221   0.957   0.359   3.025
  259SOL     OW 1222   1.041   0.701   2.291
  259SOL    HW1 1223   1.067   0.697   2.387
  259SOL    HW2 1224   0.956   0.650   2.277
  260SOL     OW 1225   0.076   0.811   2.651
  260SOL    HW1 1226   0.175   0.799   2.660
  260SOL    HW2 1227   0.052   0.906   2.672
  261SOL     OW 1228   0.130   1.821   3.433
  261SOL    HW1 1229   0.120   1.806   3.532
  261SOL    HW2 1230   0.044   1.857   3.397
  262SOL     OW 1231   0.865   0.348   2.057
  262SOL    HW1 1232   0.924   0.411   2.008
  262SOL    HW2 1233   0.884   0.254   2.028
  263SOL     OW 1234   1.719   0.585   3.693
  263SOL    HW1 1235   1.693   0.674   3.657
  263SOL    HW2 1236   1.717   0.517   3.620
  264SOL     OW 1237   1.362   1.144   2.407
  264SOL    HW1 1238   1.445   1.115   2.359
  264SOL    HW2 1239   1.313   1.211   2.351
  265SOL     OW 1240   0.550   0.196   2.747
  265SOL    HW1 1241   0.545   0.191   2.847
  265SOL    HW2 1242   0.552   0.292   2.718
  266SOL     OW 1243   1.008   1.456   2.339
  266SOL    HW1 1244   0.962   1.528   2.287
  266SOL    HW2 1245   1.004   1.476   2.437
  267SOL     OW 1246   0.351   1.801   2.715
  267SOL    HW1 1247   0.401   1.715   2.721
  267SOL    HW2 1248   0.416   1.878   2.712
  268SOL     OW 1249   1.795   1.066   2.735
  268SOL    HW1 1250   1.733   1.051   2.659
  268SOL    HW2 1251   1.743   1.077   2.820
  269SOL     OW 1252   1.227   1.550   3.368
  269SOL    HW1 1253   1.233   1.473   3.432
  269SOL    HW2 1254   1.175   1.524   3.288
  270SOL     OW 1255   0.321   0.943   2.104
  270SOL    HW1 1256   0.403   0.982   2.062
  270SOL    HW2 1257   0.294   0.861   2.055
  271SOL     OW 1258   1.458   0.735   2.590
  271SOL    HW1 1259   1.453   0.670   2.665
  271SOL    HW2 1260   1.538   0.794   2.603
  272SOL     OW 1261   0.461   1.266   3.589
  272SOL    HW1 1262   0.411   1.267   3.503
  272SOL    HW2 1263   0.398   1.248   3.665
  273SOL     OW 1264   1.111   1.776   2.099
  273SOL    HW1 1265   1.051   1.714   2.149
  273SOL    HW2 1266   1.142   1.732   2.014
  274SOL     OW 1267   0.202   0.285   3.360
  274SOL    HW1 1268   0.122   0.345   3.347
  274SOL    HW2 1269   0.192   0.236   3.446
  275SOL     OW 1270   1.632   1.377   1.943
  275SOL    HW1 1271   1.600   1.471   1.933
  275SOL    HW2 1272   1.556   1.314   1.931
  276SOL     OW 1273   0.464   1.743   2.185
  276SOL    HW1 1274   0.497   1.782   2.271
  276SOL    HW2 1275   0.540   1.736   2.120
  277SOL     OW 1276   1.400   0.107   2.288
  277SOL    HW1 1277   1.376   0.070   2.198
  277SOL    HW2 1278   1.499   0.123   2.292
  278SOL     OW 1279   0.249   1.785   3.103
  278SOL    HW1 1280   0.306   1.720   3.153
  278SOL    HW2 1281   0.233   1.752   3.010
  279SOL     OW 1282   0.940   1.698   2.766
  279SOL    HW1 1283   1.020   1.641   2.787
  279SOL    HW2 1284   0.891   1.658   2.689
  280SOL     OW 1285   0.382   0.700   2.342
  280SOL    HW1 1286   0.427   0.610   2.339
  280SOL    HW2 1287   0.288   0.689   2.375
  281SOL     OW 1288   1.547   0.222   3.591
  281SOL    HW1 1289   1.542   0.259   3.683
  281SOL    HW2 1290   1.475   0.153   3.579
  282SOL     OW 1291   0.614   0.122   1.979
  282SOL    HW1 1292   0.712   0.100   1.986
  282SOL    HW2 1293   0.583   0.105   1.886
  283SOL     OW 1294   0.781   0.264   3.611
  283SOL    HW1 1295   0.848   0.203   3.654
  283SOL    HW2 1296   0.708   0.283   3.676
  284SOL     OW 1297   0.888   1.514   3.057
  284SOL    HW1 1298   0.865   1.489   2.963
  284SOL    HW2 1299   0.949   1.445   3.096
  285SOL     OW 1300   1.351   0.590   3.295
  285SOL    HW1 1301   1.379   0.547   3.380
  285SOL    HW2 1302   1.376   0.686   3.296
  286SOL     OW 1303   0.803   1.402   2.786
  286SOL    HW1 1304   0.893   1.416   2.744
  286SOL    HW2 1305   0.732   1.404   2.715
  287SOL     OW 1306   0.922   0.503   2.761
  287SOL    HW1 1307   0.897   0.494   2.665
  287SOL    HW2 1308   0.970   0.421   2.792
  288SOL     OW 1309   0.539   0.064   2.374
  288SOL    HW1 1310   0.458   0.065   2.432
  288SOL    HW2 1311   0.542   0.147   2.319
  289SOL     OW 1312   1.434   1.188   1.903
  289SOL    HW1 1313   1.466   1.112   1.960
  289SOL    HW2 1314   1.342   1.215   1.933
  290SOL     OW 1315   0.297   0.035   2.033
  290SOL    HW1 1316   0.346   0.119   2.012
  290SOL    HW2 1317   0.359  -0.030   2.078
  291SOL     OW 1318   0.935   0.236   2.342
  291SOL    HW1 1319   0.887   0.277   2.264
  291SOL    HW2 1320   1.034   0.234   2.323
  292SOL     OW 1321   1.076   0.683   3.326
  292SOL    HW1 1322   0.996   0.622   3.329
  292SOL    HW2 1323   1.157   0.630   3.302
  293SOL     OW 1324   1.227   1.570   2.655
  293SOL    HW1 1325   1.248   1.644   2.590
  293SOL    HW2 1326   1.295   1.570   2.728
  294SOL     OW 1327   0.459   1.152   2.603
  294SOL    HW1 1328   0.388   1.125   2.668
  294SOL    HW2 1329   0.433   1.124   2.510
  295SOL     OW 1330   1.271   1.797   2.453
  295SOL    HW1 1331   1.315   1.861   2.389
  295SOL    HW2 1332   1.221   1.849   2.523
  296SOL     OW 1333   1.032   0.549   1.878
  296SOL    HW1 1334   0.991   0.631   1.839
  296SOL    HW2 1335   1.096   0.575   1.951
  297SOL     OW 1336   0.078   0.556   3.248
  297SOL    HW1 1337   0.170   0.555   3.207
  297SOL    HW2 1338   0.072   0.630   3.315
  298SOL     OW 1339   0.561   0.222   3.009
  298SOL    HW1 1340   0.599   0.138   3.046
  298SOL    HW2 1341   0.473   0.241   3.053
  299SOL     OW 1342   0.866   0.454   2.504
  299SOL    HW1 1343   0.834   0.526   2.442
  299SOL    HW2 1344   0.890   0.373   2.451
  300SOL     OW 1345   1.017   0.039   2.615
  300SOL    HW1 1346   0.945   0.044   2.546
  300SOL    HW2 1347   0.993  -0.030   2.684
  301SOL     OW 1348   1.429   1.173   2.729
  301SOL    HW1 1349   1.374   1.089   2.722
  301SOL    HW2 1350   1.455   1.202   2.637
  302SOL     OW 1351   1.466   0.590   2.854
  302SOL    HW1 1352   1.436   0.495   2.861
  302SOL    HW2 1353   1.539   0.606   2.920
  303SOL     OW 1354   1.857   0.833   2.239
  303SOL    HW1 1355   1.899   0.769   2.303
  303SOL    HW2 1356   1.819   0.782   2.161
  304SOL     OW 1357   0.488   1.385   2.036
  304SOL    HW1 1358   0.401   1.370   2.083
  304SOL    HW2 1359   0.471   1.411   1.941
  305SOL     OW 1360   1.664   1.280   2.519
  305SOL    HW1 1361   1.763   1.288   2.533
  305SOL    HW2 1362   1.619   1.364   2.550
  306SOL     OW 1363   1.390   0.575   1.940
  306SOL    HW1 1364   1.336   0.554   2.021
  306SOL    HW2 1365   1.481   0.534   1.949
  307SOL     OW 1366   0.527   0.256   2.190
  307SOL    HW1 1367   0.554   0.197   2.115
  307SOL    HW2 1368   0.527   0.351   2.159
  308SOL     OW 1369   1.754   1.223   3.450
  308SOL    HW1 1370   1.845   1.184   3.437
  308SOL    HW2 1371   1.762   1.319   3.474
  309SOL     OW 1372   1.064   1.347   3.202
  309SOL    HW1 1373   0.984   1.324   3.257
  309SOL    HW2 1374   1.147   1.321   3.251
  310SOL     OW 1375   1.592   1.629   3.487
  310SOL    HW1 1376   1.619   1.663   3.397
  310SOL    HW2 1377   1.671   1.591   3.533
  311SOL     OW 1378   1.111   1.195   2.962
  311SOL    HW1 1379   1.071   1.239   3.043
  311SOL    HW2 1380   1.070   1.232   2.879
  312SOL     OW 1381   1.638   1.099   2.941
  312SOL    HW1 1382   1.643   1.180   3.000
  312SOL    HW2 1383   1.552   1.101   2.890
  313SOL     OW 1384   0.915   0.089   3.264
  313SOL    HW1 1385   0.940   0.069   3.169
  313SOL    HW2 1386   0.987   0.145   3.306
  314SOL     OW 1387   0.980   1.116   3.581
  314SOL    HW1 1388   0.881   1.122   3.591
  314SOL    HW2 1389   1.003   1.036   3.525
  315SOL     OW 1390   0.705   1.050   2.230
  315SOL    HW1 1391   0.691   1.057   2.329
  315SOL    HW2 1392   0.789   0.999   2.212
  316SOL     OW 1393   0.410   0.813   3.113
  316SOL    HW1 1394   0.496   0.825   3.163
  316SOL    HW2 1395   0.368   0.726   3.140
  317SOL     OW 1396   1.274   0.386   3.124
  317SOL    HW1 1397   1.295   0.460   3.188
  317SOL    HW2 1398   1.185   0.403   3.081
  318SOL     OW 1399   0.064   1.564   3.193
  318SOL    HW1 1400   0.018   1.646   3.159
  318SOL    HW2 1401   0.162   1.583   3.202
  319SOL     OW 1402   0.367   1.100   2.363
  319SOL    HW1 1403   0.360   1.183   2.307
  319SOL    HW2 1404   0.371   1.020   2.303
  320SOL     OW 1405   0.566   0.537   2.727
  320SOL    HW1 1406   0.578   0.603   2.653
  320SOL    HW2 1407   0.612   0.571   2.810
  321SOL     OW 1408   1.252   1.348   2.250
  321SOL    HW1 1409   1.302   1.425   2.290
  321SOL    HW2 1410   1.157   1.350   2.282
  322SOL     OW 1411   1.272   1.445   3.004
  322SOL    HW1 1412   1.319   1.458   3.091
  322SOL    HW2 1413   1.206   1.371   3.013
  323SOL     OW 1414   1.582   0.639   2.334
  323SOL    HW1 1415   1.551   0.700   2.407
  323SOL    HW2 1416   1.632   0.691   2.265
  324SOL     OW 1417   0.354   1.510   3.191
  324SOL    HW1 1418   0.333   1.466   3.104
  324SOL    HW2 1419   0.451   1.536   3.194
  325SOL     OW 1420   0.402   0.751   3.460
  325SOL    HW1 1421   0.470   0.806   3.413
  325SOL    HW2 1422   0.442   0.663   3.487
  326SOL     OW 1423   1.587   0.779   3.532
  326SOL    HW1 1424   1.495   0.817   3.527
  326SOL    HW2 1425   1.647   0.826   3.467
  327SOL     OW 1426   1.013   0.105   3.632
  327SOL    HW1 1427   1.019   0.190   3.580
  327SOL    HW2 1428   1.045   0.029   3.575
  328SOL     OW 1429   0.504   0.050   3.602
  328SOL    HW1 1430   0.462  -0.007   3.532
  328SOL    HW2 1431   0.438   0.119   3.634
  329SOL     OW 1432   0.573   0.870   2.891
  329SOL    HW1 1433   0.617   0.959   2.882
  329SOL    HW2 1434   0.510   0.870   2.968
  330SOL     OW 1435   1.360   0.862   2.907
  330SOL    HW1 1436   1.285   0.862   2.841
  330SOL    HW2 1437   1.397   0.770   2.916
  331SOL     OW 1438   1.209   0.525   2.137
  331SOL    HW1 1439   1.222   0.441   2.191
  331SOL    HW2 1440   1.180   0.599   2.197
  332SOL     OW 1441   0.307   0.213   3.093
  332SOL    HW1 1442   0.284   0.250   3.183
  332SOL    HW2 1443   0.277   0.118   3.087
  333SOL     OW 1444   0.037   1.310   3.144
  333SOL    HW1 1445   0.090   1.261   3.212
  333SOL    HW2 1446   0.059   1.408   3.149
  334SOL     OW 1447   0.732   0.634   2.926
  334SOL    HW1 1448   0.791   0.608   2.850
  334SOL    HW2 1449   0.704   0.730   2.915
  335SOL     OW 1450   1.728   0.935   3.716
  335SOL    HW1 1451   1.682   0.928   3.627
  335SOL    HW2 1452   1.666   0.979   3.782
  336SOL     OW 1453   0.307   0.063   2.480
  336SOL    HW1 1454   0.296   0.157   2.513
  336SOL    HW2 1455   0.302   0.000   2.557
  337SOL     OW 1456   1.622   0.367   2.236
  337SOL    HW1 1457   1.624   0.291   2.300
  337SOL    HW2 1458   1.574   0.444   2.276
  338SOL     OW 1459   1.023   0.766   2.828
  338SOL    HW1 1460   1.038   0.787   2.924
  338SOL    HW2 1461   0.993   0.671   2.819
  339SOL     OW 1462   0.980   1.573   3.562
  339SOL    HW1 1463   0.960   1.617   3.474
  339SOL    HW2 1464   1.019   1.482   3.546
  340SOL     OW 1465   1.859   1.518   3.467
  340SOL    HW1 1466   1.873   1.545   3.372
  340SOL    HW2 1467   1.942   1.540   3.520
  341SOL     OW 1468   0.350   0.898   3.666
  341SOL    HW1 1469   0.426   0.942   3.714
  341SOL    HW2 1470   0.385   0.851   3.584
  342SOL     OW 1471   1.540   0.274   1.987
  342SOL    HW1 1472   1.479   0.199   2.010
  342SOL    HW2 1473   1.562   0.326   2.070
  343SOL     OW 1474   1.303   0.838   1.904
  343SOL    HW1 1475   1.337   0.745   1.919
  343SOL    HW2 1476   1.321   0.865   1.809
  344SOL     OW 1477   1.068   1.333   2.711
  344SOL    HW1 1478   1.075   1.249   2.656
  344SOL    HW2 1479   1.130   1.402   2.675
  345SOL     OW 1480   0.319   0.810   2.811
  345SOL    HW1 1481   0.412   0.846   2.816
  345SOL    HW2 1482   0.313   0.725   2.863
  346SOL     OW 1483   0.339   0.509   2.868
  346SOL    HW1 1484   0.287   0.426   2.851
  346SOL    HW2 1485   0.416   0.514   2.804
  347SOL     OW 1486   1.138   0.380   3.540
  347SOL    HW1 1487   1.093   0.443   3.604
  347SOL    HW2 1488   1.231   0.411   3.523
  348SOL     OW 1489   1.160   0.207   3.339
  348SOL    HW1 1490   1.160   0.271   3.416
  348SOL    HW2 1491   1.188   0.255   3.256
  349SOL     OW 1492   0.008   1.326   2.062
  349SOL    HW1 1493  -0.085   1.347   2.031
  349SOL    HW2 1494   0.018   1.227   2.075
  350SOL     OW 1495   0.088   1.801   2.789
  350SOL    HW1 1496   0.046   1.715   2.762
  350SOL    HW2 1497   0.182   1.804   2.755
  351SOL     OW 1498   0.504   1.568   2.772
  351SOL    HW1 1499   0.570   1.642   2.781
  351SOL    HW2 1500   0.548   1.489   2.730
  352SOL     OW 1501   1.002   0.796   3.100
  352SOL    HW1 1502   1.043   0.764   3.186
  352SOL    HW2 1503   0.906   0.769   3.097
  353SOL     OW 1504   0.040   0.544   2.976
  353SOL    HW1 1505   0.125   0.511   2.935
  353SOL    HW2 1506   0.053   0.559   3.074
  354SOL     OW 1507   0.189   0.520   3.584
  354SOL    HW1 1508   0.248   0.480   3.514
  354SOL    HW2 1509   0.131   0.591   3.543
  355SOL     OW 1510   1.369   0.950   3.522
  355SOL    HW1 1511   1.408   1.039   3.542
  355SOL    HW2 1512   1.379   0.930   3.425
  356SOL     OW 1513   0.815   0.572   2.187
  356SOL    HW1 1514   0.822   0.483   2.141
  356SOL    HW2 1515   0.721   0.606   2.179
  357SOL     OW 1516   1.657   0.604   3.068
  357SOL    HW1 1517   1.619   0.535   3.130
  357SOL    HW2 1518   1.739   0.568   3.024
  358SOL     OW 1519   0.252   1.564   3.606
  358SOL    HW1 1520   0.222   1.621   3.682
  358SOL    HW2 1521   0.245   1.467   3.632
  359SOL     OW 1522   0.671   0.464   3.131
  359SOL    HW1 1523   0.637   0.375   3.101
  359SOL    HW2 1524   0.697   0.518   3.051
  360SOL     OW 1525   0.930   1.678   3.327
  360SOL    HW1 1526   0.906   1.660   3.232
  360SOL    HW2 1527   0.960   1.772   3.337
  361SOL     OW 1528   0.473   0.500   2.053
  361SOL    HW1 1529   0.534   0.580   2.057
  361SOL    HW2 1530   0.378   0.531   2.060
  362SOL     OW 1531   0.159   1.137   3.328
  362SOL    HW1 1532   0.181   1.076   3.404
  362SOL    HW2 1533   0.169   1.088   3.242
  363SOL     OW 1534   1.347   1.059   3.096
  363SOL    HW1 1535   1.371   0.996   3.022
  363SOL    HW2 1536   1.257   1.099   3.078
  364SOL     OW 1537   1.302   0.855   2.171
  364SOL    HW1 1538   1.216   0.824   2.213
  364SOL    HW2 1539   1.298   0.841   2.072
  365SOL     OW 1540   1.759   1.747   3.016
  365SOL    HW1 1541   1.820   1.777   2.943
  365SOL    HW2 1542   1.721   1.658   2.994
  366SOL     OW 1543   1.252   1.731   2.990
  366SOL    HW1 1544   1.336   1.736   2.936
  366SOL    HW2 1545   1.229   1.635   3.008
  367SOL     OW 1546   0.083   1.258   2.884
  367SOL    HW1 1547   0.078   1.257   2.984
  367SOL    HW2 1548   0.000   1.217   2.846
  368SOL     OW 1549   0.688   1.662   3.578
  368SOL    HW1 1550   0.632   1.743   3.587
  368SOL    HW2 1551   0.740   1.666   3.492
  369SOL     OW 1552   1.726   0.135   2.385
  369SOL    HW1 1553   1.799   0.118   2.318
  369SOL    HW2 1554   1.695   0.048   2.423
  370SOL     OW 1555   1.388   1.573   2.339
  370SOL    HW1 1556   1.455   1.585   2.265
  370SOL    HW2 1557   1.348   1.662   2.362
  371SOL     OW 1558   0.130   1.794   3.713
  371SOL    HW1 1559   0.089   1.720   3.766
  371SOL    HW2 1560   0.194   1.845   3.771
  372SOL     OW 1561   1.280   0.927   2.534
  372SOL    HW1 1562   1.340   0.846   2.536
  372SOL    HW2 1563   1.320   0.996   2.474
  373SOL     OW 1564   0.830   1.273   3.284
  373SOL    HW1 1565   0.825   1.306   3.379
  373SOL    HW2 1566   0.744   1.292   3.238
  374SOL     OW 1567   0.672   1.616   2.016
  374SOL    HW1 1568   0.681   1.626   1.917
  374SOL    HW2 1569   0.632   1.527   2.037
  375SOL     OW 1570   1.650   1.720   3.256
  375SOL    HW1 1571   1.703   1.730   3.172
  375SOL    HW2 1572   1.623   1.810   3.290
  376SOL     OW 1573   1.841   0.175   2.825
  376SOL    HW1 1574   1.880   0.090   2.789
  376SOL    HW2 1575   1.743   0.177   2.806
  377SOL     OW 1576   0.263   0.326   2.582
  377SOL    HW1 1577   0.184   0.377   2.548
  377SOL    HW2 1578   0.254   0.311   2.680
  378SOL     OW 1579   1.194   1.612   1.893
  378SOL    HW1 1580   1.200   1.519   1.930
  378SOL    HW2 1581   1.135   1.612   1.813
  379SOL     OW 1582   0.822   1.002   3.234
  379SOL    HW1 1583   0.862   1.001   3.142
  379SOL    HW2 1584   0.832   1.094   3.274
  380SOL     OW 1585   0.916   0.910   2.153
  380SOL    HW1 1586   0.979   0.948   2.085
  380SOL    HW2 1587   0.956   0.827   2.192
  381SOL     OW 1588   1.504   1.607   1.906
  381SOL    HW1 1589   1.412   1.644   1.913
  381SOL    HW2 1590   1.542   1.627   1.816
  382SOL     OW 1591   0.372   1.288   3.352
  382SOL    HW1 1592   0.359   1.381   3.318
  382SOL    HW2 1593   0.288   1.236   3.339
  383SOL     OW 1594   1.614   1.292   3.151
  383SOL    HW1 1595   1.674   1.295   3.231
  383SOL    HW2 1596   1.539   1.356   3.164
  384SOL     OW 1597   1.039   1.098   2.558
  384SOL    HW1 1598   0.969   1.051   2.612
  384SOL    HW2 1599   1.098   1.030   2.515
  385SOL     OW 1600   1.014   0.236   2.833
  385SOL    HW1 1601   1.006   0.200   2.740
  385SOL    HW2 1602   1.012   0.160   2.898
  386SOL     OW 1603   0.590   1.487   2.353
  386SOL    HW1 1604   0.632   1.429   2.283
  386SOL    HW2 1605   0.546   1.566   2.309
  387SOL     OW 1606   1.709   0.385   3.243
  387SOL    HW1 1607   1.782   0.454   3.247
  387SOL    HW2 1608   1.737   0.310   3.184
  388SOL     OW 1609   0.255   1.348   2.152
  388SOL    HW1 1610   0.159   1.349   2.125
  388SOL    HW2 1611   0.267   1.401   2.236
  389SOL     OW 1612   0.105   1.013   3.588
  389SOL    HW1 1613   0.028   0.980   3.642
  389SOL    HW2 1614   0.190   0.983   3.630
  390SOL     OW 1615   0.672   0.203   3.351
  390SOL    HW1 1616   0.762   0.187   3.311
  390SOL    HW2 1617   0.680   0.208   3.450
  391SOL     OW 1618   0.075   0.345   1.895
  391SOL    HW1 1619  -0.017   0.317   1.866
  391SOL    HW2 1620   0.106   0.422   1.839
  392SOL     OW 1621   1.440   0.856   3.260
  392SOL    HW1 1622   1.383   0.908   3.197
  392SOL    HW2 1623   1.536   0.868   3.236
  393SOL     OW 1624   0.072   0.166   2.180
  393SOL    HW1 1625   0.055   0.249   2.126
  393SOL    HW2 1626   0.162   0.129   2.158
  394SOL     OW 1627   1.183   1.335   1.981
  394SOL    HW1 1628   1.084   1.324   1.983
  394SOL    HW2 1629   1.217   1.350   2.074
  395SOL     OW 1630   0.613   0.842   3.293
  395SOL    HW1 1631   0.669   0.923   3.276
  395SOL    HW2 1632   0.672   0.762   3.296
  396SOL     OW 1633   1.493   1.767   2.821
  396SOL    HW1 1634   1.526   1.831   2.752
  396SOL    HW2 1635   1.559   1.761   2.896
  397SOL     OW 1636   0.716   0.565   3.570
  397SOL    HW1 1637   0.735   0.630   3.644
  397SOL    HW2 1638   0.776   0.485   3.579
  398SOL     OW 1639   1.450   1.220   3.495
  398SOL    HW1 1640   1.441   1.210   3.594
  398SOL    HW2 1641   1.546   1.213   3.469
  399SOL     OW 1642   0.390   1.741   3.422
  399SOL    HW1 1643   0.299   1.782   3.420
  399SOL    HW2 1644   0.383   1.647   3.454
  400SOL     OW 1645   1.674   0.883   3.116
  400SOL    HW1 1646   1.647   0.794   3.079
  400SOL    HW2 1647   1.675   0.951   3.043
  401SOL     OW 1648   1.225   0.325   2.311
  401SOL    HW1 1649   1.290   0.251   2.300
  401SOL    HW2 1650   1.245   0.375   2.395
  402SOL     OW 1651   0.594   0.745   2.514
  402SOL    HW1 1652   0.644   0.830   2.495
  402SOL    HW2 1653   0.506   0.747   2.466
  403SOL     OW 1654   1.777   0.342   3.504
  403SOL    HW1 1655   1.760   0.373   3.410
  403SOL    HW2 1656   1.693   0.305   3.542
  404SOL     OW 1657   1.730   0.934   3.379
  404SOL    HW1 1658   1.768   1.025   3.394
  404SOL    HW2 1659   1.722   0.917   3.280
  405SOL     OW 1660   0.859   1.374   1.878
  405SOL    HW1 1661   0.813   1.389   1.966
  405SOL    HW2 1662   0.903   1.459   1.848
  406SOL     OW 1663   0.661   1.790   2.815
  406SOL    HW1 1664   0.615   1.878   2.802
  406SOL    HW2 1665   0.760   1.802   2.808
  407SOL     OW 1666   0.859   0.956   2.723
  407SOL    HW1 1667   0.913   0.887   2.771
  407SOL    HW2 1668   0.827   1.025   2.789
  408SOL     OW 1669   1.083   0.984   1.949
  408SOL    HW1 1670   1.060   1.037   1.867
  408SOL    HW2 1671   1.164   0.928   1.930
  409SOL     OW 1672   1.861   1.569   2.713
  409SOL    HW1 1673   1.790   1.557   2.643
  409SOL    HW2 1674   1.862   1.490   2.773
  410SOL     OW 1675   0.221   1.314   3.706
  410SOL    HW1 1676   0.156   1.241   3.685
  410SOL    HW2 1677   0.225   1.328   3.804
  411SOL     OW 1678   0.079   1.240   2.515
  411SOL    HW1 1679   0.078   1.193   2.603
  411SOL    HW2 1680   0.161   1.212   2.464
  412SOL     OW 1681   0.672   1.391   3.486
  412SOL    HW1 1682   0.594   1.341   3.524
  412SOL    HW2 1683   0.669   1.486   3.517
  413SOL     OW 1684   1.824   0.192   3.089
  413SOL    HW1 1685   1.820   0.102   3.133
  413SOL    HW2 1686   1.827   0.181   2.990
  414SOL     OW 1687   0.428   0.424   2.382
  414SOL    HW1 1688   0.458   0.352   2.320
  414SOL    HW2 1689   0.389   0.384   2.465
  415SOL     OW 1690   1.705   1.487   2.966
  415SOL    HW1 1691   1.612   1.462   2.939
  415SOL    HW2 1692   1.731   1.437   3.048
  416SOL     OW 1693   0.317   0.547   3.142
  416SOL    HW1 1694   0.355   0.488   3.214
  416SOL    HW2 1695   0.357   0.521   3.054
  417SOL     OW 1696   0.812   1.586   2.549
  417SOL    HW1 1697   0.844   1.596   2.455
  417SOL    HW2 1698   0.733   1.524   2.551
  418SOL     OW 1699   1.424   0.214   2.974
  418SOL    HW1 1700   1.476   0.149   3.029
  418SOL    HW2 1701   1.375   0.277   3.035
  419SOL     OW 1702   1.001   0.034   3.016
  419SOL    HW1 1703   0.938  -0.038   2.985
  419SOL    HW2 1704   1.094  -0.002   3.016
  420SOL     OW 1705   0.770   1.330   2.163
  420SOL    HW1 1706   0.724   1.243   2.180
  420SOL    HW2 1707   0.861   1.327   2.204
  421SOL     OW 1708   0.618   1.567   3.146
  421SOL    HW1 1709   0.613   1.649   3.203
  421SOL    HW2 1710   0.707   1.564   3.101
  422SOL     OW 1711   1.352   0.052   2.030
  422SOL    HW1 1712   1.387   0.011   1.946
  422SOL    HW2 1713   1.262   0.014   2.050
  423SOL     OW 1714   1.300   0.453   2.553
  423SOL    HW1 1715   1.241   0.533   2.557
  423SOL    HW2 1716   1.315   0.418   2.646
  424SOL     OW 1717   1.593   0.221   2.744
  424SOL    HW1 1718   1.509   0.220   2.798
  424SOL    HW2 1719   1.595   0.304   2.688
  425SOL     OW 1720   0.039   1.077   2.162
  425SOL    HW1 1721   0.138   1.066   2.153
  425SOL    HW2 1722  -0.001   0.991   2.194
  426SOL     OW 1723   0.875   1.646   2.199
  426SOL    HW1 1724   0.798   1.611   2.145
  426SOL    HW2 1725   0.843   1.717   2.261
  427SOL     OW 1726   0.230   0.628   3.837
  427SOL    HW1 1727   0.137   0.626   3.874
  427SOL    HW2 1728   0.231   0.589   3.745
  428SOL     OW 1729   0.225   0.275   4.720
  428SOL    HW1 1730   0.260   0.258   4.812
  428SOL    HW2 1731   0.137   0.230   4.708
  429SOL     OW 1732   0.019   0.368   4.371
  429SOL    HW1 1733  -0.063   0.411   4.410
  429SOL    HW2 1734  -0.009   0.295   4.308
  430SOL     OW 1735   0.569   1.275   4.889
  430SOL    HW1 1736   0.476   1.268   4.852
  430SOL    HW2 1737   0.580   1.364   4.933
  431SOL     OW 1738   1.555   1.511   4.427
  431SOL    HW1 1739   1.498   1.495   4.508
  431SOL    HW2 1740   1.496   1.521   4.347
  432SOL     OW 1741   1.135   0.703   4.441
  432SOL    HW1 1742   1.192   0.781   4.416
  432SOL    HW2 1743   1.075   0.729   4.517
  433SOL     OW 1744   1.755   0.607   3.955
  433SOL    HW1 1745   1.743   0.594   3.856
  433SOL    HW2 1746   1.725   0.526   4.004
  434SOL     OW 1747   0.768   1.144   4.747
  434SOL    HW1 1748   0.690   1.161   4.807
  434SOL    HW2 1749   0.802   1.231   4.711
  435SOL     OW 1750   0.850   0.798   5.547
  435SOL    HW1 1751   0.846   0.874   5.612
  435SOL    HW2 1752   0.872   0.834   5.456
  436SOL     OW 1753   0.685   1.012   4.389
  436SOL    HW1 1754   0.754   0.996   4.459
  436SOL    HW2 1755   0.612   1.069   4.427
  437SOL     OW 1756   0.686   1.161   5.527
  437SOL    HW1 1757   0.746   1.240   5.541
  437SOL    HW2 1758   0.600   1.192   5.486
  438SOL     OW 1759   0.335   1.435   4.785
  438SOL    HW1 1760   0.257   1.404   4.732
  438SOL    HW2 1761   0.393   1.493   4.728
  439SOL     OW 1762   1.460   1.505   5.063
  439SOL    HW1 1763   1.484   1.599   5.089
  439SOL    HW2 1764   1.444   1.451   5.145
  440SOL     OW 1765   0.438   0.392   5.223
  440SOL    HW1 1766   0.520   0.336   5.232
  440SOL    HW2 1767   0.357   0.334   5.227
  441SOL     OW 1768   1.603   0.447   4.461
  441SOL    HW1 1769   1.529   0.493   4.411
  441SOL    HW2 1770   1.654   0.515   4.514
  442SOL     OW 1771   0.231   1.713   4.207
  442SOL    HW1 1772   0.265   1.790   4.261
  442SOL    HW2 1773   0.275   1.713   4.117
  443SOL     OW 1774   1.127   1.341   5.414
  443SOL    HW1 1775   1.174   1.341   5.502
  443SOL    HW2 1776   1.079   1.254   5.403
  444SOL     OW 1777   0.230   1.434   4.262
  444SOL    HW1 1778   0.204   1.530   4.262
  444SOL    HW2 1779   0.159   1.380   4.307
  445SOL     OW 1780   0.240   1.091   4.610
  445SOL    HW1 1781   0.254   1.007   4.662
  445SOL    HW2 1782   0.185   1.155   4.665
  446SOL     OW 1783   0.620   1.786   5.163
  446SOL    HW1 1784   0.528   1.769   5.198
  446SOL    HW2 1785   0.648   1.878   5.189
  447SOL     OW 1786   0.606   0.964   3.847
  447SOL    HW1 1787   0.613   1.048   3.793
  447SOL    HW2 1788   0.652   0.977   3.935
  448SOL     OW 1789   1.594   0.114   5.204
  448SOL    HW1 1790   1.576   0.181   5.132
  448SOL    HW2 1791   1.591   0.160   5.293
  449SOL     OW 1792   0.122   0.643   4.287
  449SOL    HW1 1793   0.077   0.555   4.304
  449SOL    HW2 1794   0.121   0.697   4.371
  450SOL     OW 1795   1.842   1.767   4.083
  450SOL    HW1 1796   1.896   1.738   4.163
  450SOL    HW2 1797   1.872   1.857   4.054
  451SOL     OW 1798   0.027   1.596   3.841
  451SOL    HW1 1799   0.008   1.500   3.862
  451SOL    HW2 1800  -0.006   1.654   3.916
  452SOL     OW 1801   1.689   0.922   4.336
  452SOL    HW1 1802   1.784   0.893   4.344
  452SOL    HW2 1803   1.681   0.987   4.261
  453SOL     OW 1804   1.641   1.108   4.156
  453SOL    HW1 1805   1.727   1.110   4.104
  453SOL    HW2 1806   1.655   1.155   4.244
  454SOL     OW 1807   0.113   0.737   5.321
  454SOL    HW1 1808   0.201   0.724   5.366
  454SOL    HW2 1809   0.100   0.834   5.299
  455SOL     OW 1810   0.613   1.365   4.450
  455SOL    HW1 1811   0.564   1.278   4.459
  455SOL    HW2 1812   0.590   1.408   4.363
  456SOL     OW 1813   1.293   1.228   5.147
  456SOL    HW1 1814   1.330   1.155   5.089
  456SOL    HW2 1815   1.345   1.233   5.232
  457SOL     OW 1816   0.809   0.004   4.226
  457SOL    HW1 1817   0.849   0.095   4.217
  457SOL    HW2 1818   0.709   0.012   4.232
  458SOL     OW 1819   0.197   0.976   4.988
  458SOL    HW1 1820   0.286   0.931   4.974
  458SOL    HW2 1821   0.124   0.911   4.969
  459SOL     OW 1822   1.525   0.999   3.914
  459SOL    HW1 1823   1.462   0.923   3.927
  459SOL    HW2 1824   1.573   1.017   4.000
  460SOL     OW 1825   1.187   1.792   5.340
  460SOL    HW1 1826   1.211   1.852   5.264
  460SOL    HW2 1827   1.194   1.697   5.310
  461SOL     OW 1828   0.317   0.251   5.525
  461SOL    HW1 1829   0.388   0.322   5.531
  461SOL    HW2 1830   0.229   0.290   5.553
  462SOL     OW 1831   1.466   1.417   4.677
  462SOL    HW1 1832   1.407   1.423   4.757
  462SOL    HW2 1833   1.451   1.329   4.631
  463SOL     OW 1834   1.667   1.714   4.296
  463SOL    HW1 1835   1.626   1.691   4.208
  463SOL    HW2 1836   1.649   1.640   4.361
  464SOL     OW 1837   0.598   0.729   3.994
  464SOL    HW1 1838   0.622   0.798   3.926
  464SOL    HW2 1839   0.520   0.762   4.048
  465SOL     OW 1840   1.281   0.345   4.668
  465SOL    HW1 1841   1.195   0.295   4.655
  465SOL    HW2 1842   1.343   0.291   4.724
  466SOL     OW 1843   1.576   1.662   4.031
  466SOL    HW1 1844   1.665   1.708   4.034
  466SOL    HW2 1845   1.555   1.638   3.936
  467SOL     OW 1846   0.807   0.605   5.189
  467SOL    HW1 1847   0.760   0.602   5.278
  467SOL    HW2 1848   0.756   0.550   5.123
  468SOL     OW 1849   1.394   0.469   5.398
  468SOL    HW1 1850   1.374   0.512   5.486
  468SOL    HW2 1851   1.472   0.407   5.407
  469SOL     OW 1852   0.973   0.890   5.296
  469SOL    HW1 1853   1.019   0.806   5.267
  469SOL    HW2 1854   0.917   0.924   5.221
  470SOL     OW 1855   0.991   0.410   4.966
  470SOL    HW1 1856   0.914   0.444   5.020
  470SOL    HW2 1857   0.957   0.359   4.887
  471SOL     OW 1858   1.041   0.701   4.153
  471SOL    HW1 1859   1.067   0.697   4.249
  471SOL    HW2 1860   0.956   0.650   4.139
  472SOL     OW 1861   0.076   0.811   4.513
  472SOL    HW1 1862   0.175   0.799   4.522
  472SOL    HW2 1863   0.052   0.906   4.534
  473SOL     OW 1864   0.130   1.821   5.295
  473SOL    HW1 1865   0.120   1.806   5.394
  473SOL    HW2 1866   0.044   1.857   5.259
  474SOL     OW 1867   0.865   0.348   3.919
  474SOL    HW1 1868   0.924   0.411   3.870
  474SOL    HW2 1869   0.884   0.254   3.890
  475SOL     OW 1870   1.719   0.585   5.555
  475SOL    HW1 1871   1.693   0.674   5.519
  475SOL    HW2 1872   1.717   0.517   5.482
  476SOL     OW 1873   1.362   1.144   4.269
  476SOL    HW1 1874   1.445   1.115   4.221
  476SOL    HW2 1875   1.313   1.211   4.213
  477SOL     OW 1876   0.550   0.196   4.609
  477SOL    HW1 1877   0.545   0.191   4.709
  477SOL    HW2 1878   0.552   0.292   4.580
  478SOL     OW 1879   1.008   1.456   4.201
  478SOL    HW1 1880   0.962   1.528   4.149
  478SOL    HW2 1881   1.004   1.476   4.299
  479SOL     OW 1882   0.351   1.801   4.577
  479SOL    HW1 1883   0.401   1.715   4.583
  479SOL    HW2 1884   0.416   1.878   4.574
  480SOL     OW 1885   1.795   1.066   4.597
  480SOL    HW1 1886   1.733   1.051   4.521
  480SOL    HW2 1887   1.743   1.077   4.682
  481SOL     OW 1888   1.227   1.550   5.230
  481SOL    HW1 1889   1.233   1.473   5.294
  481SOL    HW2 1890   1.175   1.524   5.150
  482SOL     OW 1891   0.321   0.943   3.966
  482SOL    HW1 1892   0.403   0.982   3.924
  482SOL    HW2 1893   0.294   0.861   3.917
  483SOL     OW 1894   1.458   0.735   4.452
  483SOL    HW1 1895   1.453   0.670   4.527
  483SOL    HW2 1896   1.538   0.794   4.465
  484SOL     OW 1897   0.461   1.266   5.451
  484SOL    HW1 1898   0.411   1.267   5.365
  484SOL    HW2 1899   0.398   1.248   5.527
  485SOL     OW 1900   1.111   1.776   3.961
  485SOL    HW1 1901   1.051   1.714   4.011
  485SOL    HW2 1902   1.142   1.732   3.876
  486SOL     OW 1903   0.202   0.285   5.222
  486SOL    HW1 1904   0.122   0.345   5.209
  486SOL    HW2 1905   0.192   0.236   5.308
  487SOL     OW 1906   1.632   1.377   3.805
  487SOL    HW1 1907   1.600   1.471   3.795
  487SOL    HW2 1908   1.556   1.314   3.793
  488SOL     OW 1909   0.464   1.743   4.047
  488SOL    HW1 1910   0.497   1.782   4.133
  488SOL    HW2 1911   0.540   1.736   3.982
  489SOL     OW 1912   1.400   0.107   4.150
  489SOL    HW1 1913   1.376   0.070   4.060
  489SOL    HW2 1914   1.499   0.123   4.154
  490SOL     OW 1915   0.249   1.785   4.965
  490SOL    HW1 1916   0.306   1.720   5.015
  490SOL    HW2 1917   0.233   1.752   4.872
  491SOL     OW 1918   0.940   1.698   4.628
  491SOL    HW1 1919   1.020   1.641   4.649
  491SOL    HW2 1920   0.891   1.658   4.551
  492SOL     OW 1921   0.382   0.700   4.204
  492SOL    HW1 1922   0.427   0.610   4.201
  492SOL    HW2 1923   0.288   0.689   4.237
  493SOL     OW 1924   1.547   0.222   5.453
  493SOL    HW1 1925   1.542   0.259   5.545
  493SOL    HW2 1926   1.475   0.153   5.441
  494SOL     OW 1927   0.614   0.122   3.841
  494SOL    HW1 1928   0.712   0.100   3.848
  494SOL    HW2 1929   0.583   0.105   3.748
  495SOL     OW 1930   0.781   0.264   5.473
  495SOL    HW1 1931   0.848   0.203   5.516
  495SOL    HW2 1932   0.708   0.283   5.538
  496SOL     OW 1933   0.888   1.514   4.919
  496SOL    HW1 1934   0.865   1.489   4.825
  496SOL    HW2 1935   0.949   1.445   4.958
  497SOL     OW 1936   1.351   0.590   5.157
  497SOL    HW1 1937   1.379   0.547   5.242
  497SOL    HW2 1938   1.376   0.686   5.158
  498SOL     OW 1939   0.803   1.402   4.648
  498SOL    HW1 1940   0.893   1.416   4.606
  498SOL    HW2 1941   0.732   1.404   4.577
  499SOL     OW 1942   0.922   0.503   4.623
  499SOL    HW1 1943   0.897   0.494   4.527
  499SOL    HW2 1944   0.970   0.421   4.654
  500SOL     OW 1945   0.539   0.064   4.236
  500SOL    HW1 1946   0.458   0.065   4.294
  500SOL    HW2 1947   0.542   0.147   4.181
  501SOL     OW 1948   1.434   1.188   3.765
  501SOL    HW1 1949   1.466   1.112   3.822
  501SOL    HW2 1950   1.342   1.215   3.795
  502SOL     OW 1951   0.297   0.035   3.895
  502SOL    HW1 1952   0.346   0.119   3.874
  502SOL    HW2 1953   0.359  -0.030   3.940
  503SOL     OW 1954   0.935   0.236   4.204
  503SOL    HW1 1955   0.887   0.277   4.126
  503SOL    HW2 1956   1.034   0.234   4.185
  504SOL     OW 1957   1.076   0.683   5.188
  504SOL    HW1 1958   0.996   0.622   5.191
  504SOL    HW2 1959   1.157   0.630   5.164
  505SOL     OW 1960   1.227   1.570   4.517
  505SOL    HW1 1961   1.248   1.644   4.452
  505SOL    HW2 1962   1.295   1.570   4.590
  506SOL     OW 1963   0.459   1.152   4.465
  506SOL    HW1 1964   0.388   1.125   4.530
  506SOL    HW2 1965   0.433   1.124   4.372
  507SOL     OW 1966   1.271   1.797   4.315
  507SOL    HW1 1967   1.315   1.861   4.251
  507SOL    HW2 1968   1.221   1.849   4.385
  508SOL     OW 1969   1.032   0.549   3.740
  508SOL    HW1 1970   0.991   0.631   3.701
  508SOL    HW2 1971   1.096   0.575   3.813
  509SOL     OW 1972   0.078   0.556   5.110
  509SOL    HW1 1973   0.170   0.555   5.069
  509SOL    HW2 1974   0.072   0.630   5.177
  510SOL     OW 1975   0.561   0.222   4.871
  510SOL    HW1 1976   0.599   0.138   4.908
  510SOL    HW2 1977   0.473   0.241   4.915
  511SOL     OW 1978   0.866   0.454   4.366
  511SOL    HW1 1979   0.834   0.526   4.304
  511SOL    HW2 1980   0.890   0.373   4.313
  512SOL     OW 1981   1.017   0.039   4.477
  512SOL    HW1 1982   0.945   0.044   4.408
  512SOL    HW2 1983   0.993  -0.030   4.546
  513SOL     OW 1984   1.429   1.173   4.591
  513SOL    HW1 1985   1.374   1.089   4.584
  513SOL    HW2 1986   1.455   1.202   4.499
  514SOL     OW 1987   1.466   0.590   4.716
  514SOL    HW1 1988   1.436   0.495   4.723
  514SOL    HW2 1989   1.539   0.606   4.782
  515SOL     OW 1990   1.857   0.833   4.101
  515SOL    HW1 1991   1.899   0.769   4.165
  515SOL    HW2 1992   1.819   0.782   4.023
  516SOL     OW 1993   0.488   1.385   3.898
  516SOL    HW1 1994   0.401   1.370   3.945
  516SOL    HW2 1995   0.471   1.411   3.803
  517SOL     OW 1996   1.664   1.280   4.381
  517SOL    HW1 1997   1.763   1.288   4.395
  517SOL    HW2 1998   1.619   1.364   4.412
  518SOL     OW 1999   1.390   0.575   3.802
  518SOL    HW1 2000   1.336   0.554   3.883
  518SOL    HW2 2001   1.481   0.534   3.811
  519SOL     OW 2002   0.527   0.256   4.052
  519SOL    HW1 2003   0.554   0.197   3.977
  519SOL    HW2 2004   0.527   0.351   4.021
  520SOL     OW 2005   1.754   1.223   5.312
  520SOL    HW1 2006   1.845   1.184   5.299
  520SOL    HW2 2007   1.762   1.319   5.336
  521SOL     OW 2008   1.064   1.347   5.064
  521SOL    HW1 2009   0.984   1.324   5.119
  521SOL    HW2 2010   1.147   1.321   5.113
  522SOL     OW 2011   1.111   1.195   4.824
  522SOL    HW1 2012   1.071   1.239   4.905
  522SOL    HW2 2013   1.070   1.232   4.741
  523SOL     OW 2014   1.638   1.099   4.803
  523SOL    HW1 2015   1.643   1.180   4.862
  523SOL    HW2 2016   1.552   1.101   4.752
  524SOL     OW 2017   0.915   0.089   5.126
  524SOL    HW1 2018   0.940   0.069   5.031
  524SOL    HW2 2019   0.987   0.145   5.168
  525SOL     OW 2020   0.980   1.116   5.443
  525SOL    HW1 2021   0.881   1.122   5.453
  525SOL    HW2 2022   1.003   1.036   5.387
  526SOL     OW 2023   0.705   1.050   4.092
  526SOL    HW1 2024   0.691   1.057   4.191
  526SOL    HW2 2025   0.789   0.999   4.074
  527SOL     OW 2026   0.410   0.813   4.975
  527SOL    HW1 2027   0.496   0.825   5.025
  527SOL    HW2 2028   0.368   0.726   5.002
  528SOL     OW 2029   1.274   0.386   4.986
  528SOL    HW1 2030   1.295   0.460   5.050
  528SOL    HW2 2031   1.185   0.403   4.943
  529SOL     OW 2032   0.064   1.564   5.055
  529SOL    HW1 2033   0.018   1.646   5.021
  529SOL    HW2 2034   0.162   1.583   5.064
  530SOL     OW 2035   0.367   1.100   4.225
  530SOL    HW1 2036   0.360   1.183   4.169
  530SOL    HW2 2037   0.371   1.020   4.165
  531SOL     OW 2038   0.566   0.537   4.589
  531SOL    HW1 2039   0.578   0.603   4.515
  531SOL    HW2 2040   0.612   0.571   4.672
  532SOL     OW 2041   1.252   1.348   4.112
  532SOL    HW1 2042   1.302   1.425   4.152
  532SOL    HW2 2043   1.157   1.350   4.144
  533SOL     OW 2044   1.272   1.445   4.866
  533SOL    HW1 2045   1.319   1.458   4.953
  533SOL    HW2 2046   1.206   1.371   4.875
  534SOL     OW 2047   1.582   0.639   4.196
  534SOL    HW1 2048   1.551   0.700   4.269
  534SOL    HW2 2049   1.632   0.691   4.127
  535SOL     OW 2050   0.354   1.510   5.053
  535SOL    HW1 2051   0.333   1.466   4.966
  535SOL    HW2 2052   0.451   1.536   5.056
  536SOL     OW 2053   0.402   0.751   5.322
  536SOL    HW1 2054   0.470   0.806   5.275
  536SOL    HW2 2055   0.442   0.663   5.349
  537SOL     OW 2056   1.587   0.779   5.394
  537SOL    HW1 2057   1.495   0.817   5.389
  537SOL    HW2 2058   1.647   0.826   5.329
  538SOL     OW 2059   1.013   0.105   5.494
  538SOL    HW1 2060   1.019   0.190   5.442
  538SOL    HW2 2061   1.045   0.029   5.437
  539SOL     OW 2062   0.504   0.050   5.464
  539SOL    HW1 2063   0.462  -0.007   5.394
  539SOL    HW2 2064   0.438   0.119   5.496
  540SOL     OW 2065   0.573   0.870   4.753
  540SOL    HW1 2066   0.617   0.959   4.744
  540SOL    HW2 2067   0.510   0.870   4.830
  541SOL     OW 2068   1.360   0.862   4.769
  541SOL    HW1 2069   1.285   0.862   4.703
  541SOL    HW2 2070   1.397   0.770   4.778
  542SOL     OW 2071   1.209   0.525   3.999
  542SOL    HW1 2072   1.222   0.441   4.053
  542SOL    HW2 2073   1.180   0.599   4.059
  543SOL     OW 2074   0.307   0.213   4.955
  543SOL    HW1 2075   0.284   0.250   5.045
  543SOL    HW2 2076   0.277   0.118   4.949
  544SOL     OW 2077   0.037   1.310   5.006
  544SOL    HW1 2078   0.090   1.261   5.074
  544SOL    HW2 2079   0.059   1.408   5.011
  545SOL     OW 2080   0.732   0.634   4.788
  545SOL    HW1 2081   0.791   0.608   4.712
  545SOL    HW2 2082   0.704   0.730   4.777
  546SOL     OW 2083   1.728   0.935   5.578
  546SOL    HW1 2084   1.682   0.928   5.489
  546SOL    HW2 2085   1.666   0.979   5.644
  547SOL     OW 2086   0.307   0.063   4.342
  547SOL    HW1 2087   0.296   0.157   4.375
  547SOL    HW2 2088   0.302   0.000   4.419
  548SOL     OW 2089   1.622   0.367   4.098
  548SOL    HW1 2090   1.624   0.291   4.162
  548SOL    HW2 2091   1.574   0.444   4.138
  549SOL     OW 2092   1.023   0.766   4.690
  549SOL    HW1 2093   1.038   0.787   4.786
  549SOL    HW2 2094   0.993   0.671   4.681
  550SOL     OW 2095   0.980   1.573   5.424
  550SOL    HW1 2096   0.960   1.617   5.336
  550SOL    HW2 2097   1.019   1.482   5.408
  551SOL     OW 2098   0.350   0.898   5.528
  551SOL    HW1 2099   0.426   0.942   5.576
  551SOL    HW2 2100   0.385   0.851   5.446
  552SOL     OW 2101   1.540   0.274   3.849
  552SOL    HW1 2102   1.479   0.199   3.872
  552SOL    HW2 2103   1.562   0.326   3.932
  553SOL     OW 2104   1.303   0.838   3.766
  553SOL    HW1 2105   1.337   0.745   3.781
  553SOL    HW2 2106   1.321   0.865   3.671
  554SOL     OW 2107   1.068   1.333   4.573
  554SOL    HW1 2108   1.075   1.249   4.518
  554SOL    HW2 2109   1.130   1.402   4.537
  555SOL     OW 2110   0.319   0.810   4.673
  555SOL    HW1 2111   0.412   0.846   4.678
  555SOL    HW2 2112   0.313   0.725   4.725
  556SOL     OW 2113   0.339   0.509   4.730
  556SOL    HW1 2114   0.287   0.426   4.713
  556SOL    HW2 2115   0.416   0.514   4.666
  557SOL     OW 2116   1.138   0.380   5.402
  557SOL    HW1 2117   1.093   0.443   5.466
  557SOL    HW2 2118   1.231   0.411   5.385
  558SOL     OW 2119   1.160   0.207   5.201
  558SOL    HW1 2120   1.160   0.271   5.278
  558SOL    HW2 2121   1.188   0.255   5.118
  559SOL     OW 2122   0.008   1.326   3.924
  559SOL    HW1 2123  -0.085   1.347   3.893
  559SOL    HW2 2124   0.018   1.227   3.937
  560SOL     OW 2125   0.088   1.801   4.651
  560SOL    HW1 2126   0.046   1.715   4.624
  560SOL    HW2 2127   0.182   1.804   4.617
  561SOL     OW 2128   0.504   1.568   4.634
  561SOL    HW1 2129   0.570   1.642   4.643
  561SOL    HW2 2130   0.548   1.489   4.592
  562SOL     OW 2131   1.002   0.796   4.962
  562SOL    HW1 2132   1.043   0.764   5.048
  562SOL    HW2 2133   0.906   0.769   4.959
  563SOL     OW 2134   0.040   0.544   4.838
  563SOL    HW1 2135   0.125   0.511   4.797
  563SOL    HW2 2136   0.053   0.559   4.936
  564SOL     OW 2137   0.189   0.520   5.446
  564SOL    HW1 2138   0.248   0.480   5.376
  564SOL    HW2 2139   0.131   0.591   5.405
  565SOL     OW 2140   1.369   0.950   5.384
  565SOL    HW1 2141   1.408   1.039   5.404
  565SOL    HW2 2142   1.379   0.930   5.287
  566SOL     OW 2143   0.815   0.572   4.049
  566SOL    HW1 2144   0.822   0.483   4.003
  566SOL    HW2 2145   0.721   0.606   4.041
  567SOL     OW 2146   1.657   0.604   4.930
  567SOL    HW1 2147   1.619   0.535   4.992
  567SOL    HW2 2148   1.739   0.568   4.886
  568SOL     OW 2149   0.252   1.564   5.468
  568SOL    HW1 2150   0.222   1.621   5.544
  568SOL    HW2 2151   0.245   1.467   5.494
  569SOL     OW 2152   0.671   0.464   4.993
  569SOL    HW1 2153   0.637   0.375   4.963
  569SOL    HW2 2154   0.697   0.518   4.913
  570SOL     OW 2155   0.930   1.678   5.189
  570SOL    HW1 2156   0.906   1.660   5.094
  570SOL    HW2 2157   0.960   1.772   5.199
  571SOL     OW 2158   0.473   0.500   3.915
  571SOL    HW1 2159   0.534   0.580   3.919
  571SOL    HW2 2160   0.378   0.531   3.922
  572SOL     OW 2161   0.159   1.137   5.190
  572SOL    HW1 2162   0.181   1.076   5.266
  572SOL    HW2 2163   0.169   1.088   5.104
  573SOL     OW 2164   1.347   1.059   4.958
  573SOL    HW1 2165   1.371   0.996   4.884
  573SOL    HW2 2166   1.257   1.099   4.940
  574SOL     OW 2167   1.302   0.855   4.033
  574SOL    HW1 2168   1.216   0.824   4.075
  574SOL    HW2 2169   1.298   0.841   3.934
  575SOL     OW 2170   1.759   1.747   4.878
  575SOL    HW1 2171   1.820   1.777   4.805
  575SOL    HW2 2172   1.721   1.658   4.856
  576SOL     OW 2173   1.252   1.731   4.852
  576SOL    HW1 2174   1.336   1.736   4.798
  576SOL    HW2 2175   1.229   1.635   4.870
  577SOL     OW 2176   0.083   1.258   4.746
  577SOL    HW1 2177   0.078   1.257   4.846
  577SOL    HW2 2178   0.000   1.217   4.708
  578SOL     OW 2179   0.688   1.662   5.440
  578SOL    HW1 2180   0.632   1.743   5.449
  578SOL    HW2 2181   0.740   1.666   5.354
  579SOL     OW 2182   1.726   0.135   4.247
  579SOL    HW1 2183   1.799   0.118   4.180
  579SOL    HW2 2184   1.695   0.048   4.285
  580SOL     OW 2185   1.388   1.573   4.201
  580SOL    HW1 2186   1.455   1.585   4.127
  580SOL    HW2 2187   1.348   1.662   4.224
  581SOL     OW 2188   0.130   1.794   5.575
  581SOL    HW1 2189   0.089   1.720   5.628
  581SOL    HW2 2190   0.194   1.845   5.633
  582SOL     OW 2191   1.280   0.927   4.396
  582SOL    HW1 2192   1.340   0.846   4.398
  582SOL    HW2 2193   1.320   0.996   4.336
  583SOL     OW 2194   0.830   1.273   5.146
  583SOL    HW1 2195   0.825   1.306   5.241
  583SOL    HW2 2196   0.744   1.292   5.100
  584SOL     OW 2197   0.672   1.616   3.878
  584SOL    HW1 2198   0.681   1.626   3.779
  584SOL    HW2 2199   0.632   1.527   3.899
  585SOL     OW 2200   1.841   0.175   4.687
  585SOL    HW1 2201   1.880   0.090   4.651
  585SOL    HW2 2202   1.743   0.177   4.668
  586SOL     OW 2203   0.263   0.326   4.444
  586SOL    HW1 2204   0.184   0.377   4.410
  586SOL    HW2 2205   0.254   0.311   4.542
  587SOL     OW 2206   1.194   1.612   3.755
  587SOL    HW1 2207   1.200   1.519   3.792
  587SOL    HW2 2208   1.135   1.612   3.675
  588SOL     OW 2209   0.822   1.002   5.096
  588SOL    HW1 2210   0.862   1.001   5.004
  588SOL    HW2 2211   0.832   1.094   5.136
  589SOL     OW 2212   0.916   0.910   4.015
  589SOL    HW1 2213   0.979   0.948   3.947
  589SOL    HW2 2214   0.956   0.827   4.054
  590SOL     OW 2215   1.504   1.607   3.768
  590SOL    HW1 2216   1.412   1.644   3.775
  590SOL    HW2 2217   1.542   1.627   3.678
  591SOL     OW 2218   0.372   1.288   5.214
  591SOL    HW1 2219   0.359   1.381   5.180
  591SOL    HW2 2220   0.288   1.236   5.201
  592SOL     OW 2221   1.614   1.292   5.013
  592SOL    HW1 2222   1.674   1.295   5.093
  592SOL    HW2 2223   1.539   1.356   5.026
  593SOL     OW 2224   1.039   1.098   4.420
  593SOL    HW1 2225   0.969   1.051   4.474
  593SOL    HW2 2226   1.098   1.030   4.377
  594SOL     OW 2227   1.014   0.236   4.695
  594SOL    HW1 2228   1.006   0.200   4.602
  594SOL    HW2 2229   1.012   0.160   4.760
  595SOL     OW 2230   0.590   1.487   4.215
  595SOL    HW1 2231   0.632   1.429   4.145
  595SOL    HW2 2232   0.546   1.566   4.171
  596SOL     OW 2233   1.709   0.385   5.105
  596SOL    HW1 2234   1.782   0.454   5.109
  596SOL    HW2 2235   1.737   0.310   5.046
  597SOL     OW 2236   0.255   1.348   4.014
  597SOL    HW1 2237   0.159   1.349   3.987
  597SOL    HW2 2238   0.267   1.401   4.098
  598SOL     OW 2239   0.105   1.013   5.450
  598SOL    HW1 2240   0.028   0.980   5.504
  598SOL    HW2 2241   0.190   0.983   5.492
  599SOL     OW 2242   0.672   0.203   5.213
  599SOL    HW1 2243   0.762   0.187   5.173
  599SOL    HW2 2244   0.680   0.208   5.312
  600SOL     OW 2245   0.075   0.345   3.757
  600SOL    HW1 2246  -0.017   0.317   3.728
  600SOL    HW2 2247   0.106   0.422   3.701
  601SOL     OW 2248   1.440   0.856   5.122
  601SOL    HW1 2249   1.383   0.908   5.059
  601SOL    HW2 2250   1.536   0.868   5.098
  602SOL     OW 2251   0.072   0.166   4.042
  602SOL    HW1 2252   0.055   0.249   3.988
  602SOL    HW2 2253   0.162   0.129   4.020
  603SOL     OW 2254   1.183   1.335   3.843
  603SOL    HW1 2255   1.084   1.324   3.845
  603SOL    HW2 2256   1.217   1.350   3.936
  604SOL     OW 2257   0.613   0.842   5.155
  604SOL    HW1 2258   0.669   0.923   5.138
  604SOL    HW2 2259   0.672   0.762   5.158
  605SOL     OW 2260   1.493   1.767   4.683
  605SOL    HW1 2261   1.526   1.831   4.614
  605SOL    HW2 2262   1.559   1.761   4.758
  606SOL     OW 2263   0.716   0.565   5.432
  606SOL    HW1 2264   0.735   0.630   5.506
  606SOL    HW2 2265   0.776   0.485   5.441
  607SOL     OW 2266   1.450   1.220   5.357
  607SOL    HW1 2267   1.441   1.210   5.456
  607SOL    HW2 2268   1.546   1.213   5.331
  608SOL     OW 2269   0.390   1.741   5.284
  608SOL    HW1 2270   0.299   1.782   5.282
  608SOL    HW2 2271   0.383   1.647   5.316
  609SOL     OW 2272   1.674   0.883   4.978
  609SOL    HW1 2273   1.647   0.794   4.941
  609SOL    HW2 2274   1.675   0.951   4.905
  610SOL     OW 2275   1.225   0.325   4.173
  610SOL    HW1 2276   1.290   0.251   4.162
  610SOL    HW2 2277   1.245   0.375   4.257
  611SOL     OW 2278   0.594   0.745   4.376
  611SOL    HW1 2279   0.644   0.830   4.357
  611SOL    HW2 2280   0.506   0.747   4.328
  612SOL     OW 2281   1.777   0.342   5.366
  612SOL    HW1 2282   1.760   0.373   5.272
  612SOL    HW2 2283   1.693   0.305   5.404
  613SOL     OW 2284   1.730   0.934   5.241
  613SOL    HW1 2285   1.768   1.025   5.256
  613SOL    HW2 2286   1.722   0.917   5.142
  614SOL     OW 2287   0.859   1.374   3.740
  614SOL    HW1 2288   0.813   1.389   3.828
  614SOL    HW2 2289   0.903   1.459   3.710
  615SOL     OW 2290   0.661   1.790   4.677
  615SOL    HW1 2291   0.615   1.878   4.664
  615SOL    HW2 2292   0.760   1.802   4.670
  616SOL     OW 2293   0.859   0.956   4.585
  616SOL    HW1 2294   0.913   0.887   4.633
  616SOL    HW2 2295   0.827   1.025   4.651
  617SOL     OW 2296   1.083   0.984   3.811
  617SOL    HW1 2297   1.060   1.037   3.729
  617SOL    HW2 2298   1.164   0.928   3.792
  618SOL     OW 2299   1.861   1.569   4.575
  618SOL    HW1 2300   1.790   1.557   4.505
  618SOL    HW2 2301   1.862   1.490   4.635
  619SOL     OW 2302   0.221   1.314   5.568
  619SOL    HW1 2303   0.156   1.241   5.547
  619SOL    HW2 2304   0.225   1.328   5.666
  620SOL     OW 2305   0.079   1.240   4.377
  620SOL    HW1 2306   0.078   1.193   4.465
  620SOL    HW2 2307   0.161   1.212   4.326
  621SOL     OW 2308   0.672   1.391   5.348
  621SOL    HW1 2309   0.594   1.341   5.386
  621SOL    HW2 2310   0.669   1.486   5.379
  622SOL     OW 2311   1.824   0.192   4.951
  622SOL    HW1 2312   1.820   0.102   4.995
  622SOL    HW2 2313   1.827   0.181   4.852
  623SOL     OW 2314   0.428   0.424   4.244
  623SOL    HW1 2315   0.458   0.352   4.182
  623SOL    HW2 2316   0.389   0.384   4.327
  624SOL     OW 2317   1.705   1.487   4.828
  624SOL    HW1 2318   1.612   1.462   4.801
  624SOL    HW2 2319   1.731   1.437   4.910
  625SOL     OW 2320   0.317   0.547   5.004
  625SOL    HW1 2321   0.355   0.488   5.076
  625SOL    HW2 2322   0.357   0.521   4.916
  626SOL     OW 2323   0.812   1.586   4.411
  626SOL    HW1 2324   0.844   1.596   4.317
  626SOL    HW2 2325   0.733   1.524   4.413
  627SOL     OW 2326   1.424   0.214   4.836
  627SOL    HW1 2327   1.476   0.149   4.891
  627SOL    HW2 2328   1.375   0.277   4.897
  628SOL     OW 2329   1.001   0.034   4.878
  628SOL    HW1 2330   0.938  -0.038   4.847
  628SOL    HW2 2331   1.094  -0.002   4.878
  629SOL     OW 2332   0.770   1.330   4.025
  629SOL    HW1 2333   0.724   1.243   4.042
  629SOL    HW2 2334   0.861   1.327   4.066
  630SOL     OW 2335   0.618   1.567   5.008
  630SOL    HW1 2336   0.613   1.649   5.065
  630SOL    HW2 2337   0.707   1.564   4.963
  631SOL     OW 2338   1.352   0.052   3.892
  631SOL    HW1 2339   1.387   0.011   3.808
  631SOL    HW2 2340   1.262   0.014   3.912
  632SOL     OW 2341   1.300   0.453   4.415
  632SOL    HW1 2342   1.241   0.533   4.419
  632SOL    HW2 2343   1.315   0.418   4.508
  633SOL     OW 2344   1.593   0.221   4.606
  633SOL    HW1 2345   1.509   0.220   4.660
  633SOL    HW2 2346   1.595   0.304   4.550
  634SOL     OW 2347   0.039   1.077   4.024
  634SOL    HW1 2348   0.138   1.066   4.015
  634SOL    HW2 2349  -0.001   0.991   4.056
  635SOL     OW 2350   0.875   1.646   4.061
  635SOL    HW1 2351   0.798   1.611   4.007
  635SOL    HW2 2352   0.843   1.717   4.123
  636SOL     OW 2353   0.230   0.628   5.699
  636SOL    HW1 2354   0.137   0.626   5.736
  636SOL    HW2 2355   0.231   0.589   5.607
  637SOL     OW 2356   0.225   0.275   6.582
  637SOL    HW1 2357   0.260   0.258   6.674
  637SOL    HW2 2358   0.137   0.230   6.570
  638SOL     OW 2359   0.019   0.368   6.233
  638SOL    HW1 2360  -0.063   0.411   6.272
  638SOL    HW2 2361  -0.009   0.295   6.170
  639SOL     OW 2362   0.569   1.275   6.751
  639SOL    HW1 2363   0.476   1.268   6.714
  639SOL    HW2 2364   0.580   1.364   6.795
  640SOL     OW 2365   1.555   1.511   6.289
  640SOL    HW1 2366   1.498   1.495   6.370
  640SOL    HW2 2367   1.496   1.521   6.209
  641SOL     OW 2368   1.135   0.703   6.303
  641SOL    HW1 2369   1.192   0.781   6.278
  641SOL    HW2 2370   1.075   0.729   6.379
  642SOL     OW 2371   1.755   0.607   5.817
  642SOL    HW1 2372   1.743   0.594   5.718
  642SOL    HW2 2373   1.725   0.526   5.866
  643SOL     OW 2374   0.768   1.144   6.609
  643SOL    HW1 2375   0.690   1.161   6.669
  643SOL    HW2 2376   0.802   1.231   6.573
  644SOL     OW 2377   0.850   0.798   7.409
  644SOL    HW1 2378   0.846   0.874   7.474
  644SOL    HW2 2379   0.872   0.834   7.318
  645SOL     OW 2380   0.685   1.012   6.251
  645SOL    HW1 2381   0.754   0.996   6.321
  645SOL    HW2 2382   0.612   1.069   6.289
  646SOL     OW 2383   0.686   1.161   7.389
  646SOL    HW1 2384   0.746   1.240   7.403
  646SOL    HW2 2385   0.600   1.192   7.348
  647SOL     OW 2386   0.335   1.435   6.647
  647SOL    HW1 2387   0.257   1.404   6.594
  647SOL    HW2 2388   0.393   1.493   6.590
  648SOL     OW 2389   1.460   1.505   6.925
  648SOL    HW1 2390   1.484   1.599   6.951
  648SOL    HW2 2391   1.444   1.451   7.007
  649SOL     OW 2392   0.438   0.392   7.085
  649SOL    HW1 2393   0.520   0.336   7.094
  649SOL    HW2 2394   0.357   0.334   7.089
  650SOL     OW 2395   1.603   0.447   6.323
  650SOL    HW1 2396   1.529   0.493   6.273
  650SOL    HW2 2397   1.654   0.515   6.376
  651SOL     OW 2398   0.231   1.713   6.069
  651SOL    HW1 2399   0.265   1.790   6.123
  651SOL    HW2 2400   0.275   1.713   5.979
  652SOL     OW 2401   1.127   1.341   7.276
  652SOL    HW1 2402   1.174   1.341   7.364
  652SOL    HW2 2403   1.079   1.254   7.265
  653SOL     OW 2404   0.230   1.434   6.124
  653SOL    HW1 2405   0.204   1.530   6.124
  653SOL    HW2 2406   0.159   1.380   6.169
  654SOL     OW 2407   0.240   1.091   6.472
  654SOL    HW1 2408   0.254   1.007   6.524
  654SOL    HW2 2409   0.185   1.155   6.527
  655SOL     OW 2410   0.620   1.786   7.025
  655SOL    HW1 2411   0.528   1.769   7.060
  655SOL    HW2 2412   0.648   1.878   7.051
  656SOL     OW 2413   0.606   0.964   5.709
  656SOL    HW1 2414   0.613   1.048   5.655
  656SOL    HW2 2415   0.652   0.977   5.797
  657SOL     OW 2416   1.594   0.114   7.066
  657SOL    HW1 2417   1.576   0.181   6.994
  657SOL    HW2 2418   1.591   0.160   7.155
  658SOL     OW 2419   0.122   0.643   6.149
  658SOL    HW1 2420   0.077   0.555   6.166
  658SOL    HW2 2421   0.121   0.697   6.233
  659SOL     OW 2422   0.027   1.596   5.703
  659SOL    HW1 2423   0.008   1.500   5.724
  659SOL    HW2 2424  -0.006   1.654   5.778
  660SOL     OW 2425   1.689   0.922   6.198
  660SOL    HW1 2426   1.784   0.893   6.206
  660SOL    HW2 2427   1.681   0.987   6.123
  661SOL     OW 2428   1.641   1.108   6.018
  661SOL    HW1 2429   1.727   1.110   5.966
  661SOL    HW2 2430   1.655   1.155   6.106
  662SOL     OW 2431   0.113   0.737   7.183
  662SOL    HW1 2432   0.201   0.724   7.228
  662SOL    HW2 2433   0.100   0.834   7.161
  663SOL     OW 2434   0.613   1.365   6.312
  663SOL    HW1 2435   0.564   1.278   6.321
  663SOL    HW2 2436   0.590   1.408   6.225
  664SOL     OW 2437   1.293   1.228   7.009
  664SOL    HW1 2438   1.330   1.155   6.951
  664SOL    HW2 2439   1.345   1.233   7.094
  665SOL     OW 2440   0.809   0.004   6.088
  665SOL    HW1 2441   0.849   0.095   6.079
  665SOL    HW2 2442   0.709   0.012   6.094
  666SOL     OW 2443   0.197   0.976   6.850
  666SOL    HW1 2444   0.286   0.931   6.836
  666SOL    HW2 2445   0.124   0.911   6.831
  667SOL     OW 2446   1.525   0.999   5.776
  667SOL    HW1 2447   1.462   0.923   5.789
  667SOL    HW2 2448   1.573   1.017   5.862
  668SOL     OW 2449   1.187   1.792   7.202
  668SOL    HW1 2450   1.211   1.852   7.126
  668SOL    HW2 2451   1.194   1.697   7.172
  669SOL     OW 2452   0.317   0.251   7.387
  669SOL    HW1 2453   0.388   0.322   7.393
  669SOL    HW2 2454   0.229   0.290   7.415
  670SOL     OW 2455   1.466   1.417   6.539
  670SOL    HW1 2456   1.407   1.423   6.619
  670SOL    HW2 2457   1.451   1.329   6.493
  671SOL     OW 2458   1.667   1.714   6.158
  671SOL    HW1 2459   1.626   1.691   6.070
  671SOL    HW2 2460   1.649   1.640   6.223
  672SOL     OW 2461   0.598   0.729   5.856
  672SOL    HW1 2462   0.622   0.798   5.788
  672SOL    HW2 2463   0.520   0.762   5.910
  673SOL     OW 2464   1.281   0.345   6.530
  673SOL    HW1 2465   1.195   0.295   6.517
  673SOL    HW2 2466   1.343   0.291   6.586
  674SOL     OW 2467   1.576   1.662   5.893
  674SOL    HW1 2468   1.665   1.708   5.896
  674SOL    HW2 2469   1.555   1.638   5.798
  675SOL     OW 2470   0.807   0.605   7.051
  675SOL    HW1 2471   0.760   0.602   7.140
  675SOL    HW2 2472   0.756   0.550   6.985
  676SOL     OW 2473   1.394   0.469   7.260
  676SOL    HW1 2474   1.374   0.512   7.348
  676SOL    HW2 2475   1.472   0.407   7.269
  677SOL     OW 2476   0.973   0.890   7.158
  677SOL    HW1 2477   1.019   0.806   7.129
  677SOL    HW2 2478   0.917   0.924   7.083
  678SOL     OW 2479   0.991   0.410   6.828
  678SOL    HW1 2480   0.914   0.444   6.882
  678SOL    HW2 2481   0.957   0.359   6.749
  679SOL     OW 2482   1.041   0.701   6.015
  679SOL    HW1 2483   1.067   0.697   6.111
  679SOL    HW2 2484   0.956   0.650   6.001
  680SOL     OW 2485   0.076   0.811   6.375
  680SOL    HW1 2486   0.175   0.799   6.384
  680SOL    HW2 2487   0.052   0.906   6.396
  681SOL     OW 2488   0.130   1.821   7.157
  681SOL    HW1 2489   0.120   1.806   7.256
  681SOL    HW2 2490   0.044   1.857   7.121
  682SOL     OW 2491   0.865   0.348   5.781
  682SOL    HW1 2492   0.924   0.411   5.732
  682SOL    HW2 2493   0.884   0.254   5.752
  683SOL     OW 2494   1.719   0.585   7.417
  683SOL    HW1 2495   1.693   0.674   7.381
  683SOL    HW2 2496   1.717   0.517   7.344
  684SOL     OW 2497   1.362   1.144   6.131
  684SOL    HW1 2498   1.445   1.115   6.083
  684SOL    HW2 2499   1.313   1.211   6.075
  685SOL     OW 2500   0.550   0.196   6.471
  685SOL    HW1 2501   0.545   0.191   6.571
  685SOL    HW2 2502   0.552   0.292   6.442
  686SOL     OW 2503   1.008   1.456   6.063
  686SOL    HW1 2504   0.962   1.528   6.011
  686SOL    HW2 2505   1.004   1.476   6.161
  687SOL     OW 2506   0.351   1.801   6.439
  687SOL    HW1 2507   0.401   1.715   6.445
  687SOL    HW2 2508   0.416   1.878   6.436
  688SOL     OW 2509   1.795   1.066   6.459
  688SOL    HW1 2510   1.733   1.051   6.383
  688SOL    HW2 2511   1.743   1.077   6.544
  689SOL     OW 2512   1.227   1.550   7.092
  689SOL    HW1 2513   1.233   1.473   7.156
  689SOL    HW2 2514   1.175   1.524   7.012
  690SOL     OW 2515   0.321   0.943   5.828
  690SOL    HW1 2516   0.403   0.982   5.786
  690SOL    HW2 2517   0.294   0.861   5.779
  691SOL     OW 2518   1.458   0.735   6.314
  691SOL    HW1 2519   1.453   0.670   6.389
  691SOL    HW2 2520   1.538   0.794   6.327
  692SOL     OW 2521   0.461   1.266   7.313
  692SOL    HW1 2522   0.411   1.267   7.227
  692SOL    HW2 2523   0.398   1.248   7.389
  693SOL     OW 2524   1.111   1.776   5.823
  693SOL    HW1 2525   1.051   1.714   5.873
  693SOL    HW2 2526   1.142   1.732   5.738
  694SOL     OW 2527   0.202   0.285   7.084
  694SOL    HW1 2528   0.122   0.345   7.071
  694SOL    HW2 2529   0.192   0.236   7.170
  695SOL     OW 2530   1.632   1.377   5.667
  695SOL    HW1 2531   1.600   1.471   5.657
  695SOL    HW2 2532   1.556   1.314   5.655
  696SOL     OW 2533   0.464   1.743   5.909
  696SOL    HW1 2534   0.497   1.782   5.995
  696SOL    HW2 2535   0.540   1.736   5.844
  697SOL     OW 2536   1.400   0.107   6.012
  697SOL    HW1 2537   1.376   0.070   5.922
  697SOL    HW2 2538   1.499   0.123   6.016
  698SOL     OW 2539   0.249   1.785   6.827
  698SOL    HW1 2540   0.306   1.720   6.877
  698SOL    HW2 2541   0.233   1.752   6.734
  699SOL     OW 2542   0.940   1.698   6.490
  699SOL    HW1 2543   1.020   1.641   6.511
  699SOL    HW2 2544   0.891   1.658   6.413
  700SOL     OW 2545   0.382   0.700   6.066
  700SOL    HW1 2546   0.427   0.610   6.063
  700SOL    HW2 2547   0.288   0.689   6.099
  701SOL     OW 2548   1.547   0.222   7.315
  701SOL    HW1 2549   1.542   0.259   7.407
  701SOL    HW2 2550   1.475   0.153   7.303
  702SOL     OW 2551   0.614   0.122   5.703
  702SOL    HW1 2552   0.712   0.100   5.710
  702SOL    HW2 2553   0.583   0.105   5.610
  703SOL     OW 2554   0.781   0.264   7.335
  703SOL    HW1 2555   0.848   0.203   7.378
  703SOL    HW2 2556   0.708   0.283   7.400
  704SOL     OW 2557   0.888   1.514   6.781
  704SOL    HW1 2558   0.865   1.489   6.687
  704SOL    HW2 2559   0.949   1.445   6.820
  705SOL     OW 2560   1.351   0.590   7.019
  705SOL    HW1 2561   1.379   0.547   7.104
  705SOL    HW2 2562   1.376   0.686   7.020
  706SOL     OW 2563   0.803   1.402   6.510
  706SOL    HW1 2564   0.893   1.416   6.468
  706SOL    HW2 2565   0.732   1.404   6.439
  707SOL     OW 2566   0.922   0.503   6.485
  707SOL    HW1 2567   0.897   0.494   6.389
  707SOL    HW2 2568   0.970   0.421   6.516
  708SOL     OW 2569   0.539   0.064   6.098
  708SOL    HW1 2570   0.458   0.065   6.156
  708SOL    HW2 2571   0.542   0.147   6.043
  709SOL     OW 2572   1.434   1.188   5.627
  709SOL    HW1 2573   1.466   1.112   5.684
  709SOL    HW2 2574   1.342   1.215   5.657
  710SOL     OW 2575   0.297   0.035   5.757
  710SOL    HW1 2576   0.346   0.119   5.736
  710SOL    HW2 2577   0.359  -0.030   5.802
  711SOL     OW 2578   0.935   0.236   6.066
  711SOL    HW1 2579   0.887   0.277   5.988
  711SOL    HW2 2580   1.034   0.234   6.047
  712SOL     OW 2581   1.076   0.683   7.050
  712SOL    HW1 2582   0.996   0.622   7.053
  712SOL    HW2 2583   1.157   0.630   7.026
  713SOL     OW 2584   1.227   1.570   6.379
  713SOL    HW1 2585   1.248   1.644   6.314
  713SOL    HW2 2586   1.295   1.570   6.452
  714SOL     OW 2587   0.459   1.152   6.327
  714SOL    HW1 2588   0.388   1.125   6.392
  714SOL    HW2 2589   0.433   1.124   6.234
  715SOL     OW 2590   1.271   1.797   6.177
  715SOL    HW1 2591   1.315   1.861   6.113
  715SOL    HW2 2592   1.221   1.849   6.247
  716SOL     OW 2593   1.032   0.549   5.602
  716SOL    HW1 2594   0.991   0.631   5.563
  716SOL    HW2 2595   1.096   0.575   5.675
  717SOL     OW 2596   0.078   0.556   6.972
  717SOL    HW1 2597   0.170   0.555   6.931
  717SOL    HW2 2598   0.072   0.630   7.039
  718SOL     OW 2599   0.561   0.222   6.733
  718SOL    HW1 2600   0.599   0.138   6.770
  718SOL    HW2 2601   0.473   0.241   6.777
  719SOL     OW 2602   0.866   0.454   6.228
  719SOL    HW1 2603   0.834   0.526   6.166
  719SOL    HW2 2604   0.890   0.373   6.175
  720SOL     OW 2605   1.017   0.039   6.339
  720SOL    HW1 2606   0.945   0.044   6.270
  720SOL    HW2 2607   0.993  -0.030   6.408
  721SOL     OW 2608   1.429   1.173   6.453
  721SOL    HW1 2609   1.374   1.089   6.446
  721SOL    HW2 2610   1.455   1.202   6.361
  722SOL     OW 2611   1.466   0.590   6.578
  722SOL    HW1 2612   1.436   0.495   6.585
  722SOL    HW2 2613   1.539   0.606   6.644
  723SOL     OW 2614   1.857   0.833   5.963
  723SOL    HW1 2615   1.899   0.769   6.027
  723SOL    HW2 2616   1.819   0.782   5.885
  724SOL     OW 2617   0.488   1.385   5.760
  724SOL    HW1 2618   0.401   1.370   5.807
  724SOL    HW2 2619   0.471   1.411   5.665
  725SOL     OW 2620   1.664   1.280   6.243
  725SOL    HW1 2621   1.763   1.288   6.257
  725SOL    HW2 2622   1.619   1.364   6.274
  726SOL     OW 2623   1.390   0.575   5.664
  726SOL    HW1 2624   1.336   0.554   5.745
  726SOL    HW2 2625   1.481   0.534   5.673
  727SOL     OW 2626   0.527   0.256   5.914
  727SOL    HW1 2627   0.554   0.197   5.839
  727SOL    HW2 2628   0.527   0.351   5.883
  728SOL     OW 2629   1.754   1.223   7.174
  728SOL    HW1 2630   1.845   1.184   7.161
  728SOL    HW2 2631   1.762   1.319   7.198
  729SOL     OW 2632   1.064   1.347   6.926
  729SOL    HW1 2633   0.984   1.324   6.981
  729SOL    HW2 2634   1.147   1.321   6.975
  730SOL     OW 2635   1.592   1.629   7.211
  730SOL    HW1 2636   1.619   1.663   7.121
  730SOL    HW2 2637   1.671   1.591   7.257
  731SOL     OW 2638   1.111   1.195   6.686
  731SOL    HW1 2639   1.071   1.239   6.767
  731SOL    HW2 2640   1.070   1.232   6.603
  732SOL     OW 2641   1.638   1.099   6.665
  732SOL    HW1 2642   1.643   1.180   6.724
  732SOL    HW2 2643   1.552   1.101   6.614
  733SOL     OW 2644   0.915   0.089   6.988
  733SOL    HW1 2645   0.940   0.069   6.893
  733SOL    HW2 2646   0.987   0.145   7.030
  734SOL     OW 2647   0.980   1.116   7.305
  734SOL    HW1 2648   0.881   1.122   7.315
  734SOL    HW2 2649   1.003   1.036   7.249
  735SOL     OW 2650   0.705   1.050   5.954
  735SOL    HW1 2651   0.691   1.057   6.053
  735SOL    HW2 2652   0.789   0.999   5.936
  736SOL     OW 2653   0.410   0.813   6.837
  736SOL    HW1 2654   0.496   0.825   6.887
  736SOL    HW2 2655   0.368   0.726   6.864
  737SOL     OW 2656   1.274   0.386   6.848
  737SOL    HW1 2657   1.295   0.460   6.912
  737SOL    HW2 2658   1.185   0.403   6.805
  738SOL     OW 2659   0.064   1.564   6.917
  738SOL    HW1 2660   0.018   1.646   6.883
  738SOL    HW2 2661   0.162   1.583   6.926
  739SOL     OW 2662   0.367   1.100   6.087
  739SOL    HW1 2663   0.360   1.183   6.031
  739SOL    HW2 2664   0.371   1.020   6.027
  740SOL     OW 2665   0.566   0.537   6.451
  740SOL    HW1 2666   0.578   0.603   6.377
  740SOL    HW2 2667   0.612   0.571   6.534
  741SOL     OW 2668   1.252   1.348   5.974
  741SOL    HW1 2669   1.302   1.425   6.014
  741SOL    HW2 2670   1.157   1.350   6.006
  742SOL     OW 2671   1.272   1.445   6.728
  742SOL    HW1 2672   1.319   1.458   6.815
  742SOL    HW2 2673   1.206   1.371   6.737
  743SOL     OW 2674   1.582   0.639   6.058
  743SOL    HW1 2675   1.551   0.700   6.131
  743SOL    HW2 2676   1.632   0.691   5.989
  744SOL     OW 2677   0.354   1.510   6.915
  744SOL    HW1 2678   0.333   1.466   6.828
  744SOL    HW2 2679   0.451   1.536   6.918
  745SOL     OW 2680   0.402   0.751   7.184
  745SOL    HW1 2681   0.470   0.806   7.137
  745SOL    HW2 2682   0.442   0.663   7.211
  746SOL     OW 2683   1.587   0.779   7.256
  746SOL    HW1 2684   1.495   0.817   7.251
  746SOL    HW2 2685   1.647   0.826   7.191
  747SOL     OW 2686   1.013   0.105   7.356
  747SOL    HW1 2687   1.019   0.190   7.304
  747SOL    HW2 2688   1.045   0.029   7.299
  748SOL     OW 2689   0.504   0.050   7.326
  748SOL    HW1 2690   0.462  -0.007   7.256
  748SOL    HW2 2691   0.438   0.119   7.358
  749SOL     OW 2692   0.573   0.870   6.615
  749SOL    HW1 2693   0.617   0.959   6.606
  749SOL    HW2 2694   0.510   0.870   6.692
  750SOL     OW 2695   1.360   0.862   6.631
  750SOL    HW1 2696   1.285   0.862   6.565
  750SOL    HW2 2697   1.397   0.770   6.640
  751SOL     OW 2698   1.209   0.525   5.861
  751SOL    HW1 2699   1.222   0.441   5.915
  751SOL    HW2 2700   1.180   0.599   5.921
  752SOL     OW 2701   0.307   0.213   6.817
  752SOL    HW1 2702   0.284   0.250   6.907
  752SOL    HW2 2703   0.277   0.118   6.811
  753SOL     OW 2704   0.037   1.310   6.868
  753SOL    HW1 2705   0.090   1.261   6.936
  753SOL    HW2 2706   0.059   1.408   6.873
  754SOL     OW 2707   0.732   0.634   6.650
  754SOL    HW1 2708   0.791   0.608   6.574
  754SOL    HW2 2709   0.704   0.730   6.639
  755SOL     OW 2710   1.728   0.935   7.440
  755SOL    HW1 2711   1.682   0.928   7.351
  755SOL    HW2 2712   1.666   0.979   7.506
  756SOL     OW 2713   0.307   0.063   6.204
  756SOL    HW1 2714   0.296   0.157   6.237
  756SOL    HW2 2715   0.302   0.000   6.281
  757SOL     OW 2716   1.622   0.367   5.960
  757SOL    HW1 2717   1.624   0.291   6.024
  757SOL    HW2 2718   1.574   0.444   6.000
  758SOL     OW 2719   1.023   0.766   6.552
  758SOL    HW1 2720   1.038   0.787   6.648
  758SOL    HW2 2721   0.993   0.671   6.543
  759SOL     OW 2722   0.980   1.573   7.286
  759SOL    HW1 2723   0.960   1.617   7.198
  759SOL    HW2 2724   1.019   1.482   7.270
  760SOL     OW 2725   1.859   1.518   7.191
  760SOL    HW1 2726   1.873   1.545   7.096
  760SOL    HW2 2727   1.942   1.540   7.244
  761SOL     OW 2728   0.350   0.898   7.390
  761SOL    HW1 2729   0.426   0.942   7.438
  761SOL    HW2 2730   0.385   0.851   7.308
  762SOL     OW 2731   1.540   0.274   5.711
  762SOL    HW1 2732   1.479   0.199   5.734
  762SOL    HW2 2733   1.562   0.326   5.794
  763SOL     OW 2734   1.303   0.838   5.628
  763SOL    HW1 2735   1.337   0.745   5.643
  763SOL    HW2 2736   1.321   0.865   5.533
  764SOL     OW 2737   1.068   1.333   6.435
  764SOL    HW1 2738   1.075   1.249   6.380
  764SOL    HW2 2739   1.130   1.402   6.399
  765SOL     OW 2740   0.319   0.810   6.535
  765SOL    HW1 2741   0.412   0.846   6.540
  765SOL    HW2 2742   0.313   0.725   6.587
  766SOL     OW 2743   0.339   0.509   6.592
  766SOL    HW1 2744   0.287   0.426   6.575
  766SOL    HW2 2745   0.416   0.514   6.528
  767SOL     OW 2746   1.138   0.380   7.264
  767SOL    HW1 2747   1.093   0.443   7.328
  767SOL    HW2 2748   1.231   0.411   7.247
  768SOL     OW 2749   1.160   0.207   7.063
  768SOL    HW1 2750   1.160   0.271   7.140
  768SOL    HW2 2751   1.188   0.255   6.980
  769SOL     OW 2752   0.008   1.326   5.786
  769SOL    HW1 2753  -0.085   1.347   5.755
  769SOL    HW2 2754   0.018   1.227   5.799
  770SOL     OW 2755   0.088   1.801   6.513
  770SOL    HW1 2756   0.046   1.715   6.486
  770SOL    HW2 2757   0.182   1.804   6.479
  771SOL     OW 2758   0.504   1.568   6.496
  771SOL    HW1 2759   0.570   1.642   6.505
  771SOL    HW2 2760   0.548   1.489   6.454
  772SOL     OW 2761   1.002   0.796   6.824
  772SOL    HW1 2762   1.043   0.764   6.910
  772SOL    HW2 2763   0.906   0.769   6.821
  773SOL     OW 2764   0.040   0.544   6.700
  773SOL    HW1 2765   0.125   0.511   6.659
  773SOL    HW2 2766   0.053   0.559   6.798
  774SOL     OW 2767   0.189   0.520   7.308
  774SOL    HW1 2768   0.248   0.480   7.238
  774SOL    HW2 2769   0.131   0.591   7.267
  775SOL     OW 2770   1.369   0.950   7.246
  775SOL    HW1 2771   1.408   1.039   7.266
  775SOL    HW2 2772   1.379   0.930   7.149
  776SOL     OW 2773   0.815   0.572   5.911
  776SOL    HW1 2774   0.822   0.483   5.865
  776SOL    HW2 2775   0.721   0.606   5.903
  777SOL     OW 2776   1.657   0.604   6.792
  777SOL    HW1 2777   1.619   0.535   6.854
  777SOL    HW2 2778   1.739   0.568   6.748
  778SOL     OW 2779   0.252   1.564   7.330
  778SOL    HW1 2780   0.222   1.621   7.406
  778SOL    HW2 2781   0.245   1.467   7.356
  779SOL     OW 2782   0.671   0.464   6.855
  779SOL    HW1 2783   0.637   0.375   6.825
  779SOL    HW2 2784   0.697   0.518   6.775
  780SOL     OW 2785   0.930   1.678   7.051
  780SOL    HW1 2786   0.906   1.660   6.956
  780SOL    HW2 2787   0.960   1.772   7.061
  781SOL     OW 2788   0.473   0.500   5.777
  781SOL    HW1 2789   0.534   0.580   5.781
  781SOL    HW2 2790   0.378   0.531   5.784
  782SOL     OW 2791   0.159   1.137   7.052
  782SOL    HW1 2792   0.181   1.076   7.128
  782SOL    HW2 2793   0.169   1.088   6.966
  783SOL     OW 2794   1.347   1.059   6.820
  783SOL    HW1 2795   1.371   0.996   6.746
  783SOL    HW2 2796   1.257   1.099   6.802
  784SOL     OW 2797   1.302   0.855   5.895
  784SOL    HW1 2798   1.216   0.824   5.937
  784SOL    HW2 2799   1.298   0.841   5.796
  785SOL     OW 2800   1.759   1.747   6.740
  785SOL    HW1 2801   1.820   1.777   6.667
  785SOL    HW2 2802   1.721   1.658   6.718
  786SOL     OW 2803   1.252   1.731   6.714
  786SOL    HW1 2804   1.336   1.736   6.660
  786SOL    HW2 2805   1.229   1.635   6.732
  787SOL     OW 2806   0.083   1.258   6.608
  787SOL    HW1 2807   0.078   1.257   6.708
  787SOL    HW2 2808   0.000   1.217   6.570
  788SOL     OW 2809   0.688   1.662   7.302
  788SOL    HW1 2810   0.632   1.743   7.311
  788SOL    HW2 2811   0.740   1.666   7.216
  789SOL     OW 2812   1.726   0.135   6.109
  789SOL    HW1 2813   1.799   0.118   6.042
  789SOL    HW2 2814   1.695   0.048   6.147
  790SOL     OW 2815   1.388   1.573   6.063
  790SOL    HW1 2816   1.455   1.585   5.989
  790SOL    HW2 2817   1.348   1.662   6.086
  791SOL     OW 2818   0.130   1.794   7.437
  791SOL    HW1 2819   0.089   1.720   7.490
  791SOL    HW2 2820   0.194   1.845   7.495
  792SOL     OW 2821   1.280   0.927   6.258
  792SOL    HW1 2822   1.340   0.846   6.260
  792SOL    HW2 2823   1.320   0.996   6.198
  793SOL     OW 2824   0.830   1.273   7.008
  793SOL    HW1 2825   0.825   1.306   7.103
  793SOL    HW2 2826   0.744   1.292   6.962
  794SOL     OW 2827   0.672   1.616   5.740
  794SOL    HW1 2828   0.681   1.626   5.641
  794SOL    HW2 2829   0.632   1.527   5.761
  795SOL     OW 2830   1.650   1.720   6.980
  795SOL    HW1 2831   1.703   1.730   6.896
  795SOL    HW2 2832   1.623   1.810   7.014
  796SOL     OW 2833   1.841   0.175   6.549
  796SOL    HW1 2834   1.880   0.090   6.513
  796SOL    HW2 2835   1.743   0.177   6.530
  797SOL     OW 2836   0.263   0.326   6.306
  797SOL    HW1 2837   0.184   0.377   6.272
  797SOL    HW2 2838   0.254   0.311   6.404
  798SOL     OW 2839   1.194   1.612   5.617
  798SOL    HW1 2840   1.200   1.519   5.654
  798SOL    HW2 2841   1.135   1.612   5.537
  799SOL     OW 2842   0.822   1.002   6.958
  799SOL    HW1 2843   0.862   1.001   6.866
  799SOL    HW2 2844   0.832   1.094   6.998
  800SOL     OW 2845   0.916   0.910   5.877
  800SOL    HW1 2846   0.979   0.948   5.809
  800SOL    HW2 2847   0.956   0.827   5.916
  801SOL     OW 2848   1.504   1.607   5.630
  801SOL    HW1 2849   1.412   1.644   5.637
  801SOL    HW2 2850   1.542   1.627   5.540
  802SOL     OW 2851   0.372   1.288   7.076
  802SOL    HW1 2852   0.359   1.381   7.042
  802SOL    HW2 2853   0.288   1.236   7.063
  803SOL     OW 2854   1.614   1.292   6.875
  803SOL    HW1 2855   1.674   1.295   6.955
  803SOL    HW2 2856   1.539   1.356   6.888
  804SOL     OW 2857   1.039   1.098   6.282
  804SOL    HW1 2858   0.969   1.051   6.336
  804SOL    HW2 2859   1.098   1.030   6.239
  805SOL     OW 2860   1.014   0.236   6.557
  805SOL    HW1 2861   1.006   0.200   6.464
  805SOL    HW2 2862   1.012   0.160   6.622
  806SOL     OW 2863   0.590   1.487   6.077
  806SOL    HW1 2864   0.632   1.429   6.007
  806SOL    HW2 2865   0.546   1.566   6.033
  807SOL     OW 2866   1.709   0.385   6.967
  807SOL    HW1 2867   1.782   0.454   6.971
  807SOL    HW2 2868   1.737   0.310   6.908
  808SOL     OW 2869   0.255   1.348   5.876
  808SOL    HW1 2870   0.159   1.349   5.849
  808SOL    HW2 2871   0.267   1.401   5.960
  809SOL     OW 2872   0.105   1.013   7.312
  809SOL    HW1 2873   0.028   0.980   7.366
  809SOL    HW2 2874   0.190   0.983   7.354
  810SOL     OW 2875   0.672   0.203   7.075
  810SOL    HW1 2876   0.762   0.187   7.035
  810SOL    HW2 2877   0.680   0.208   7.174
  811SOL     OW 2878   0.075   0.345   5.619
  811SOL    HW1 2879  -0.017   0.317   5.590
  811SOL    HW2 2880   0.106   0.422   5.563
  812SOL     OW 2881   1.440   0.856   6.984
  812SOL    HW1 2882   1.383   0.908   6.921
  812SOL    HW2 2883   1.536   0.868   6.960
  813SOL     OW 2884   0.072   0.166   5.904
  813SOL    HW1 2885   0.055   0.249   5.850
  813SOL    HW2 2886   0.162   0.129   5.882
  814SOL     OW 2887   1.183   1.335   5.705
  814SOL    HW1 2888   1.084   1.324   5.707
  814SOL    HW2 2889   1.217   1.350   5.798
  815SOL     OW 2890   0.613   0.842   7.017
  815SOL    HW1 2891   0.669   0.923   7.000
  815SOL    HW2 2892   0.672   0.762   7.020
  816SOL     OW 2893   1.493   1.767   6.545
  816SOL    HW1 2894   1.526   1.831   6.476
  816SOL    HW2 2895   1.559   1.761   6.620
  817SOL     OW 2896   0.716   0.565   7.294
  817SOL    HW1 2897   0.735   0.630   7.368
  817SOL    HW2 2898   0.776   0.485   7.303
  818SOL     OW 2899   1.450   1.220   7.219
  818SOL    HW1 2900   1.441   1.210   7.318
  818SOL    HW2 2901   1.546   1.213   7.193
  819SOL     OW 2902   0.390   1.741   7.146
  819SOL    HW1 2903   0.299   1.782   7.144
  819SOL    HW2 2904   0.383   1.647   7.178
  820SOL     OW 2905   1.674   0.883   6.840
  820SOL    HW1 2906   1.647   0.794   6.803
  820SOL    HW2 2907   1.675   0.951   6.767
  821SOL     OW 2908   1.225   0.325   6.035
  821SOL    HW1 2909   1.290   0.251   6.024
  821SOL    HW2 2910   1.245   0.375   6.119
  822SOL     OW 2911   0.594   0.745   6.238
  822SOL    HW1 2912   0.644   0.830   6.219
  822SOL    HW2 2913   0.506   0.747   6.190
  823SOL     OW 2914   1.777   0.342   7.228
  823SOL    HW1 2915   1.760   0.373   7.134
  823SOL    HW2 2916   1.693   0.305   7.266
  824SOL     OW 2917   1.730   0.934   7.103
  824SOL    HW1 2918   1.768   1.025   7.118
  824SOL    HW2 2919   1.722   0.917   7.004
  825SOL     OW 2920   0.859   1.374   5.602
  825SOL    HW1 2921   0.813   1.389   5.690
  825SOL    HW2 2922   0.903   1.459   5.572
  826SOL     OW 2923   0.661   1.790   6.539
  826SOL    HW1 2924   0.615   1.878   6.526
  826SOL    HW2 2925   0.760   1.802   6.532
  827SOL     OW 2926   0.859   0.956   6.447
  827SOL    HW1 2927   0.913   0.887   6.495
  827SOL    HW2 2928   0.827   1.025   6.513
  828SOL     OW 2929   1.083   0.984   5.673
  828SOL    HW1 2930   1.060   1.037   5.591
  828SOL    HW2 2931   1.164   0.928   5.654
  829SOL     OW 2932   1.861   1.569   6.437
  829SOL    HW1 2933   1.790   1.557   6.367
  829SOL    HW2 2934   1.862   1.490   6.497
  830SOL     OW 2935   0.221   1.314   7.430
  830SOL    HW1 2936   0.156   1.241   7.409
  830SOL    HW2 2937   0.225   1.328   7.528
  831SOL     OW 2938   0.079   1.240   6.239
  831SOL    HW1 2939   0.078   1.193   6.327
  831SOL    HW2 2940   0.161   1.212   6.188
  832SOL     OW 2941   0.672   1.391   7.210
  832SOL    HW1 2942   0.594   1.341   7.248
  832SOL    HW2 2943   0.669   1.486   7.241
  833SOL     OW 2944   1.824   0.192   6.813
  833SOL    HW1 2945   1.820   0.102   6.857
  833SOL    HW2 2946   1.827   0.181   6.714
  834SOL     OW 2947   0.428   0.424   6.106
  834SOL    HW1 2948   0.458   0.352   6.044
  834SOL    HW2 2949   0.389   0.384   6.189
  835SOL     OW 2950   1.705   1.487   6.690
  835SOL    HW1 2951   1.612   1.462   6.663
  835SOL    HW2 2952   1.731   1.437   6.772
  836SOL     OW 2953   0.317   0.547   6.866
  836SOL    HW1 2954   0.355   0.488   6.938
  836SOL    HW2 2955   0.357   0.521   6.778
  837SOL     OW 2956   0.812   1.586   6.273
  837SOL    HW1 2957   0.844   1.596   6.179
  837SOL    HW2 2958   0.733   1.524   6.275
  838SOL     OW 2959   1.424   0.214   6.698
  838SOL    HW1 2960   1.476   0.149   6.753
  838SOL    HW2 2961   1.375   0.277   6.759
  839SOL     OW 2962   1.001   0.034   6.740
  839SOL    HW1 2963   0.938  -0.038   6.709
  839SOL    HW2 2964   1.094  -0.002   6.740
  840SOL     OW 2965   0.770   1.330   5.887
  840SOL    HW1 2966   0.724   1.243   5.904
  840SOL    HW2 2967   0.861   1.327   5.928
  841SOL     OW 2968   0.618   1.567   6.870
  841SOL    HW1 2969   0.613   1.649   6.927
  841SOL    HW2 2970   0.707   1.564   6.825
  842SOL     OW 2971   1.352   0.052   5.754
  842SOL    HW1 2972   1.387   0.011   5.670
  842SOL    HW2 2973   1.262   0.014   5.774
  843SOL     OW 2974   1.300   0.453   6.277
  843SOL    HW1 2975   1.241   0.533   6.281
  843SOL    HW2 2976   1.315   0.418   6.370
  844SOL     OW 2977   1.593   0.221   6.468
  844SOL    HW1 2978   1.509   0.220   6.522
  844SOL    HW2 2979   1.595   0.304   6.412
  845SOL     OW 2980   0.039   1.077   5.886
  845SOL    HW1 2981   0.138   1.066   5.877
  845SOL    HW2 2982  -0.001   0.991   5.918
  846SOL     OW 2983   0.875   1.646   5.923
  846SOL    HW1 2984   0.798   1.611   5.869
  846SOL    HW2 2985   0.843   1.717   5.985
  847SOL     OW 2986   0.230   0.628   7.561
  847SOL    HW1 2987   0.137   0.626   7.598
  847SOL    HW2 2988   0.231   0.589   7.469
  848SOL     OW 2989   0.225   0.275   8.444
  848SOL    HW1 2990   0.260   0.258   8.536
  848SOL    HW2 2991   0.137   0.230   8.432
  849SOL     OW 2992   0.019   0.368   8.095
  849SOL    HW1 2993  -0.063   0.411   8.134
  849SOL    HW2 2994  -0.009   0.295   8.032
  850SOL     OW 2995   0.569   1.275   8.613
  850SOL    HW1 2996   0.476   1.268   8.576
  850SOL    HW2 2997   0.580   1.364   8.657
  851SOL     OW 2998   1.555   1.511   8.151
  851SOL    HW1 2999   1.498   1.495   8.232
  851SOL    HW2 3000   1.496   1.521   8.071
  852SOL     OW 3001   1.135   0.703   8.165
  852SOL    HW1 3002   1.192   0.781   8.140
  852SOL    HW2 3003   1.075   0.729   8.241
  853SOL     OW 3004   1.755   0.607   7.679
  853SOL    HW1 3005   1.743   0.594   7.580
  853SOL    HW2 3006   1.725   0.526   7.728
  854SOL     OW 3007   0.768   1.144   8.471
  854SOL    HW1 3008   0.690   1.161   8.531
  854SOL    HW2 3009   0.802   1.231   8.435
  855SOL     OW 3010   0.850   0.798   9.271
  855SOL    HW1 3011   0.846   0.874   9.336
  855SOL    HW2 3012   0.872   0.834   9.180
  856SOL     OW 3013   0.685   1.012   8.113
  856SOL    HW1 3014   0.754   0.996   8.183
  856SOL    HW2 3015   0.612   1.069   8.151
  857SOL     OW 3016   0.686   1.161   9.251
  857SOL    HW1 3017   0.746   1.240   9.265
  857SOL    HW2 3018   0.600   1.192   9.210
  858SOL     OW 3019   0.335   1.435   8.509
  858SOL    HW1 3020   0.257   1.404   8.456
  858SOL    HW2 3021   0.393   1.493   8.452
  859SOL     OW 3022   1.460   1.505   8.787
  859SOL    HW1 3023   1.484   1.599   8.813
  859SOL    HW2 3024   1.444   1.451   8.869
  860SOL     OW 3025   0.438   0.392   8.947
  860SOL    HW1 3026   0.520   0.336   8.956
  860SOL    HW2 3027   0.357   0.334   8.951
  861SOL     OW 3028   1.603   0.447   8.185
  861SOL    HW1 3029   1.529   0.493   8.135
  861SOL    HW2 3030   1.654   0.515   8.238
  862SOL     OW 3031   0.231   1.713   7.931
  862SOL    HW1 3032   0.265   1.790   7.985
  862SOL    HW2 3033   0.275   1.713   7.841
  863SOL     OW 3034   1.127   1.341   9.138
  863SOL    HW1 3035   1.174   1.341   9.226
  863SOL    HW2 3036   1.079   1.254   9.127
  864SOL     OW 3037   0.230   1.434   7.986
  864SOL    HW1 3038   0.204   1.530   7.986
  864SOL    HW2 3039   0.159   1.380   8.031
  865SOL     OW 3040   0.240   1.091   8.334
  865SOL    HW1 3041   0.254   1.007   8.386
  865SOL    HW2 3042   0.185   1.155   8.389
  866SOL     OW 3043   0.620   1.786   8.887
  866SOL    HW1 3044   0.528   1.769   8.922
  866SOL    HW2 3045   0.648   1.878   8.913
  867SOL     OW 3046   0.606   0.964   7.571
  867SOL    HW1 3047   0.613   1.048   7.517
  867SOL    HW2 3048   0.652   0.977   7.659
  868SOL     OW 3049   1.594   0.114   8.928
  868SOL    HW1 3050   1.576   0.181   8.856
  868SOL    HW2 3051   1.591   0.160   9.017
  869SOL     OW 3052   0.122   0.643   8.011
  869SOL    HW1 3053   0.077   0.555   8.028
  869SOL    HW2 3054   0.121   0.697   8.095
  870SOL     OW 3055   1.842   1.767   7.807
  870SOL    HW1 3056   1.896   1.738   7.887
  870SOL    HW2 3057   1.872   1.857   7.778
  871SOL     OW 3058   0.027   1.596   7.565
  871SOL    HW1 3059   0.008   1.500   7.586
  871SOL    HW2 3060  -0.006   1.654   7.640
  872SOL     OW 3061   1.689   0.922   8.060
  872SOL    HW1 3062   1.784   0.893   8.068
  872SOL    HW2 3063   1.681   0.987   7.985
  873SOL     OW 3064   1.641   1.108   7.880
  873SOL    HW1 3065   1.727   1.110   7.828
  873SOL    HW2 3066   1.655   1.155   7.968
  874SOL     OW 3067   0.113   0.737   9.045
  874SOL    HW1 3068   0.201   0.724   9.090
  874SOL    HW2 3069   0.100   0.834   9.023
  875SOL     OW 3070   0.613   1.365   8.174
  875SOL    HW1 3071   0.564   1.278   8.183
  875SOL    HW2 3072   0.590   1.408   8.087
  876SOL     OW 3073   1.293   1.228   8.871
  876SOL    HW1 3074   1.330   1.155   8.813
  876SOL    HW2 3075   1.345   1.233   8.956
  877SOL     OW 3076   0.809   0.004   7.950
  877SOL    HW1 3077   0.849   0.095   7.941
  877SOL    HW2 3078   0.709   0.012   7.956
  878SOL     OW 3079   0.197   0.976   8.712
  878SOL    HW1 3080   0.286   0.931   8.698
  878SOL    HW2 3081   0.124   0.911   8.693
  879SOL     OW 3082   1.525   0.999   7.638
  879SOL    HW1 3083   1.462   0.923   7.651
  879SOL    HW2 3084   1.573   1.017   7.724
  880SOL     OW 3085   1.187   1.792   9.064
  880SOL    HW1 3086   1.211   1.852   8.988
  880SOL    HW2 3087   1.194   1.697   9.034
  881SOL     OW 3088   0.317   0.251   9.249
  881SOL    HW1 3089   0.388   0.322   9.255
  881SOL    HW2 3090   0.229   0.290   9.277
  882SOL     OW 3091   1.466   1.417   8.401
  882SOL    HW1 3092   1.407   1.423   8.481
  882SOL    HW2 3093   1.451   1.329   8.355
  883SOL     OW 3094   1.667   1.714   8.020
  883SOL    HW1 3095   1.626   1.691   7.932
  883SOL    HW2 3096   1.649   1.640   8.085
  884SOL     OW 3097   0.598   0.729   7.718
  884SOL    HW1 3098   0.622   0.798   7.650
  884SOL    HW2 3099   0.520   0.762   7.772
  885SOL     OW 3100   1.281   0.345   8.392
  885SOL    HW1 3101   1.195   0.295   8.379
  885SOL    HW2 3102   1.343   0.291   8.448
  886SOL     OW 3103   1.576   1.662   7.755
  886SOL    HW1 3104   1.665   1.708   7.758
  886SOL    HW2 3105   1.555   1.638   7.660
  887SOL     OW 3106   0.807   0.605   8.913
  887SOL    HW1 3107   0.760   0.602   9.002
  887SOL    HW2 3108   0.756   0.550   8.847
  888SOL     OW 3109   1.394   0.469   9.122
  888SOL    HW1 3110   1.374   0.512   9.210
  888SOL    HW2 3111   1.472   0.407   9.131
  889SOL     OW 3112   0.973   0.890   9.020
  889SOL    HW1 3113   1.019   0.806   8.991
  889SOL    HW2 3114   0.917   0.924   8.945
  890SOL     OW 3115   0.991   0.410   8.690
  890SOL    HW1 3116   0.914   0.444   8.744
  890SOL    HW2 3117   0.957   0.359   8.611
  891SOL     OW 3118   1.041   0.701   7.877
  891SOL    HW1 3119   1.067   0.697   7.973
  891SOL    HW2 3120   0.956   0.650   7.863
  892SOL     OW 3121   0.076   0.811   8.237
  892SOL    HW1 3122   0.175   0.799   8.246
  892SOL    HW2 3123   0.052   0.906   8.258
  893SOL     OW 3124   0.130   1.821   9.019
  893SOL    HW1 3125   0.120   1.806   9.118
  893SOL    HW2 3126   0.044   1.857   8.983
  894SOL     OW 3127   0.865   0.348   7.643
  894SOL    HW1 3128   0.924   0.411   7.594
  894SOL    HW2 3129   0.884   0.254   7.614
  895SOL     OW 3130   1.719   0.585   9.279
  895SOL    HW1 3131   1.693   0.674   9.243
  895SOL    HW2 3132   1.717   0.517   9.206
  896SOL     OW 3133   1.362   1.144   7.993
  896SOL    HW1 3134   1.445   1.115   7.945
  896SOL    HW2 3135   1.313   1.211   7.937
  897SOL     OW 3136   0.550   0.196   8.333
  897SOL    HW1 3137   0.545   0.191   8.433
  897SOL    HW2 3138   0.552   0.292   8.304
  898SOL     OW 3139   1.008   1.456   7.925
  898SOL    HW1 3140   0.962   1.528   7.873
  898SOL    HW2 3141   1.004   1.476   8.023
  899SOL     OW 3142   0.351   1.801   8.301
  899SOL    HW1 3143   0.401   1.715   8.307
  899SOL    HW2 3144   0.416   1.878   8.298
  900SOL     OW 3145   1.795   1.066   8.321
  900SOL    HW1 3146   1.733   1.051   8.245
  900SOL    HW2 3147   1.743   1.077   8.406
  901SOL     OW 3148   1.227   1.550   8.954
  901SOL    HW1 3149   1.233   1.473   9.018
  901SOL    HW2 3150   1.175   1.524   8.874
  902SOL     OW 3151   0.321   0.943   7.690
  902SOL    HW1 3152   0.403   0.982   7.648
  902SOL    HW2 3153   0.294   0.861   7.641
  903SOL     OW 3154   1.458   0.735   8.176
  903SOL    HW1 3155   1.453   0.670   8.251
  903SOL    HW2 3156   1.538   0.794   8.189
  904SOL     OW 3157   0.461   1.266   9.175
  904SOL    HW1 3158   0.411   1.267   9.089
  904SOL    HW2 3159   0.398   1.248   9.251
  905SOL     OW 3160   1.111   1.776   7.685
  905SOL    HW1 3161   1.051   1.714   7.735
  905SOL    HW2 3162   1.142   1.732   7.600
  906SOL     OW 3163   0.202   0.285   8.946
  906SOL    HW1 3164   0.122   0.345   8.933
  906SOL    HW2 3165   0.192   0.236   9.032
  907SOL     OW 3166   1.632   1.377   7.529
  907SOL    HW1 3167   1.600   1.471   7.519
  907SOL    HW2 3168   1.556   1.314   7.517
  908SOL     OW 3169   0.464   1.743   7.771
  908SOL    HW1 3170   0.497   1.782   7.857
  908SOL    HW2 3171   0.540   1.736   7.706
  909SOL     OW 3172   1.400   0.107   7.874
  909SOL    HW1 3173   1.376   0.070   7.784
  909SOL    HW2 3174   1.499   0.123   7.878
  910SOL     OW 3175   0.249   1.785   8.689
  910SOL    HW1 3176   0.306   1.720   8.739
  910SOL    HW2 3177   0.233   1.752   8.596
  911SOL     OW 3178   0.940   1.698   8.352
  911SOL    HW1 3179   1.020   1.641   8.373
  911SOL    HW2 3180   0.891   1.658   8.275
  912SOL     OW 3181   0.382   0.700   7.928
  912SOL    HW1 3182   0.427   0.610   7.925
  912SOL    HW2 3183   0.288   0.689   7.961
  913SOL     OW 3184   1.547   0.222   9.177
  913SOL    HW1 3185   1.542   0.259   9.269
  913SOL    HW2 3186   1.475   0.153   9.165
  914SOL     OW 3187   0.614   0.122   7.565
  914SOL    HW1 3188   0.712   0.100   7.572
  914SOL    HW2 3189   0.583   0.105   7.472
  915SOL     OW 3190   0.781   0.264   9.197
  915SOL    HW1 3191   0.848   0.203   9.240
  915SOL    HW2 3192   0.708   0.283   9.262
  916SOL     OW 3193   0.888   1.514   8.643
  916SOL    HW1 3194   0.865   1.489   8.549
  916SOL    HW2 3195   0.949   1.445   8.682
  917SOL     OW 3196   1.351   0.590   8.881
  917SOL    HW1 3197   1.379   0.547   8.966
  917SOL    HW2 3198   1.376   0.686   8.882
  918SOL     OW 3199   0.803   1.402   8.372
  918SOL    HW1 3200   0.893   1.416   8.330
  918SOL    HW2 3201   0.732   1.404   8.301
  919SOL     OW 3202   0.922   0.503   8.347
  919SOL    HW1 3203   0.897   0.494   8.251
  919SOL    HW2 3204   0.970   0.421   8.378
  920SOL     OW 3205   0.539   0.064   7.960
  920SOL    HW1 3206   0.458   0.065   8.018
  920SOL    HW2 3207   0.542   0.147   7.905
  921SOL     OW 3208   1.434   1.188   7.489
  921SOL    HW1 3209   1.466   1.112   7.546
  921SOL    HW2 3210   1.342   1.215   7.519
  922SOL     OW 3211   0.297   0.035   7.619
  922SOL    HW1 3212   0.346   0.119   7.598
  922SOL    HW2 3213   0.359  -0.030   7.664
  923SOL     OW 3214   0.935   0.236   7.928
  923SOL    HW1 3215   0.887   0.277   7.850
  923SOL    HW2 3216   1.034   0.234   7.909
  924SOL     OW 3217   1.076   0.683   8.912
  924SOL    HW1 3218   0.996   0.622   8.915
  924SOL    HW2 3219   1.157   0.630   8.888
  925SOL     OW 3220   1.227   1.570   8.241
  925SOL    HW1 3221   1.248   1.644   8.176
  925SOL    HW2 3222   1.295   1.570   8.314
  926SOL     OW 3223   0.459   1.152   8.189
  926SOL    HW1 3224   0.388   1.125   8.254
  926SOL    HW2 3225   0.433   1.124   8.096
  927SOL     OW 3226   1.271   1.797   8.039
  927SOL    HW1 3227   1.315   1.861   7.975
  927SOL    HW2 3228   1.221   1.849   8.109
  928SOL     OW 3229   1.032   0.549   7.464
  928SOL    HW1 3230   0.991   0.631   7.425
  928SOL    HW2 3231   1.096   0.575   7.537
  929SOL     OW 3232   0.078   0.556   8.834
  929SOL    HW1 3233   0.170   0.555   8.793
  929SOL    HW2 3234   0.072   0.630   8.901
  930SOL     OW 3235   0.561   0.222   8.595
  930SOL    HW1 3236   0.599   0.138   8.632
  930SOL    HW2 3237   0.473   0.241   8.639
  931SOL     OW 3238   0.866   0.454   8.090
  931SOL    HW1 3239   0.834   0.526   8.028
  931SOL    HW2 3240   0.890   0.373   8.037
  932SOL     OW 3241   1.017   0.039   8.201
  932SOL    HW1 3242   0.945   0.044   8.132
  932SOL    HW2 3243   0.993  -0.030   8.270
  933SOL     OW 3244   1.429   1.173   8.315
  933SOL    HW1 3245   1.374   1.089   8.308
  933SOL    HW2 3246   1.455   1.202   8.223
  934SOL     OW 3247   1.466   0.590   8.440
  934SOL    HW1 3248   1.436   0.495   8.447
  934SOL    HW2 3249   1.539   0.606   8.506
  935SOL     OW 3250   1.857   0.833   7.825
  935SOL    HW1 3251   1.899   0.769   7.889
  935SOL    HW2 3252   1.819   0.782   7.747
  936SOL     OW 3253   0.488   1.385   7.622
  936SOL    HW1 3254   0.401   1.370   7.669
  936SOL    HW2 3255   0.471   1.411   7.527
  937SOL     OW 3256   1.664   1.280   8.105
  937SOL    HW1 3257   1.763   1.288   8.119
  937SOL    HW2 3258   1.619   1.364   8.136
  938SOL     OW 3259   1.390   0.575   7.526
  938SOL    HW1 3260   1.336   0.554   7.607
  938SOL    HW2 3261   1.481   0.534   7.535
  939SOL     OW 3262   0.527   0.256   7.776
  939SOL    HW1 3263   0.554   0.197   7.701
  939SOL    HW2 3264   0.527   0.351   7.745
  940SOL     OW 3265   1.754   1.223   9.036
  940SOL    HW1 3266   1.845   1.184   9.023
  940SOL    HW2 3267   1.762   1.319   9.060
  941SOL     OW 3268   1.064   1.347   8.788
  941SOL    HW1 3269   0.984   1.324   8.843
  941SOL    HW2 3270   1.147   1.321   8.837
  942SOL     OW 3271   1.592   1.629   9.073
  942SOL    HW1 3272   1.619   1.663   8.983
  942SOL    HW2 3273   1.671   1.591   9.119
  943SOL     OW 3274   1.111   1.195   8.548
  943SOL    HW1 3275   1.071   1.239   8.629
  943SOL    HW2 3276   1.070   1.232   8.465
  944SOL     OW 3277   1.638   1.099   8.527
  944SOL    HW1 3278   1.643   1.180   8.586
  944SOL    HW2 3279   1.552   1.101   8.476
  945SOL     OW 3280   0.915   0.089   8.850
  945SOL    HW1 3281   0.940   0.069   8.755
  945SOL    HW2 3282   0.987   0.145   8.892
  946SOL     OW 3283   0.980   1.116   9.167
  946SOL    HW1 3284   0.881   1.122   9.177
  946SOL    HW2 3285   1.003   1.036   9.111
  947SOL     OW 3286   0.705   1.050   7.816
  947SOL    HW1 3287   0.691   1.057   7.915
  947SOL    HW2 3288   0.789   0.999   7.798
  948SOL     OW 3289   0.410   0.813   8.699
  948SOL    HW1 3290   0.496   0.825   8.749
  948SOL    HW2 3291   0.368   0.726   8.726
  949SOL     OW 3292   1.274   0.386   8.710
  949SOL    HW1 3293   1.295   0.460   8.774
  949SOL    HW2 3294   1.185   0.403   8.667
  950SOL     OW 3295   0.064   1.564   8.779
  950SOL    HW1 3296   0.018   1.646   8.745
  950SOL    HW2 3297   0.162   1.583   8.788
  951SOL     OW 3298   0.367   1.100   7.949
  951SOL    HW1 3299   0.360   1.183   7.893
  951SOL    HW2 3300   0.371   1.020   7.889
  952SOL     OW 3301   0.566   0.537   8.313
  952SOL    HW1 3302   0.578   0.603   8.239
  952SOL    HW2 3303   0.612   0.571   8.396
  953SOL     OW 3304   1.252   1.348   7.836
  953SOL    HW1 3305   1.302   1.425   7.876
  953SOL    HW2 3306   1.157   1.350   7.868
  954SOL     OW 3307   1.272   1.445   8.590
  954SOL    HW1 3308   1.319   1.458   8.677
  954SOL    HW2 3309   1.206   1.371   8.599
  955SOL     OW 3310   1.582   0.639   7.920
  955SOL    HW1 3311   1.551   0.700   7.993
  955SOL    HW2 3312   1.632   0.691   7.851
  956SOL     OW 3313   0.354   1.510   8.777
  956SOL    HW1 3314   0.333   1.466   8.690
  956SOL    HW2 3315   0.451   1.536   8.780
  957SOL     OW 3316   0.402   0.751   9.046
  957SOL    HW1 3317   0.470   0.806   8.999
  957SOL    HW2 3318   0.442   0.663   9.073
  958SOL     OW 3319   1.587   0.779   9.118
  958SOL    HW1 3320   1.495   0.817   9.113
  958SOL    HW2 3321   1.647   0.826   9.053
  959SOL     OW 3322   1.013   0.105   9.218
  959SOL    HW1 3323   1.019   0.190   9.166
  959SOL    HW2 3324   1.045   0.029   9.161
  960SOL     OW 3325   0.504   0.050   9.188
  960SOL    HW1 3326   0.462  -0.007   9.118
  960SOL    HW2 3327   0.438   0.119   9.220
  961SOL     OW 3328   0.573   0.870   8.477
  961SOL    HW1 3329   0.617   0.959   8.468
  961SOL    HW2 3330   0.510   0.870   8.554
  962SOL     OW 3331   1.360   0.862   8.493
  962SOL    HW1 3332   1.285   0.862   8.427
  962SOL    HW2 3333   1.397   0.770   8.502
  963SOL     OW 3334   1.209   0.525   7.723
  963SOL    HW1 3335   1.222   0.441   7.777
  963SOL    HW2 3336   1.180   0.599   7.783
  964SOL     OW 3337   0.307   0.213   8.679
  964SOL    HW1 3338   0.284   0.250   8.769
  964SOL    HW2 3339   0.277   0.118   8.673
  965SOL     OW 3340   0.037   1.310   8.730
  965SOL    HW1 3341   0.090   1.261   8.798
  965SOL    HW2 3342   0.059   1.408   8.735
  966SOL     OW 3343   0.732   0.634   8.512
  966SOL    HW1 3344   0.791   0.608   8.436
  966SOL    HW2 3345   0.704   0.730   8.501
  967SOL     OW 3346   1.728   0.935   9.302
  967SOL    HW1 3347   1.682   0.928   9.213
  967SOL    HW2 3348   1.666   0.979   9.368
  968SOL     OW 3349   0.307   0.063   8.066
  968SOL    HW1 3350   0.296   0.157   8.099
  968SOL    HW2 3351   0.302   0.000   8.143
  969SOL     OW 3352   1.622   0.367   7.822
  969SOL    HW1 3353   1.624   0.291   7.886
  969SOL    HW2 3354   1.574   0.444   7.862
  970SOL     OW 3355   1.023   0.766   8.414
  970SOL    HW1 3356   1.038   0.787   8.510
  970SOL    HW2 3357   0.993   0.671   8.405
  971SOL     OW 3358   0.980   1.573   9.148
  971SOL    HW1 3359   0.960   1.617   9.060
  971SOL    HW2 3360   1.019   1.482   9.132
  972SOL     OW 3361   1.859   1.518   9.053
  972SOL    HW1 3362   1.873   1.545   8.958
  972SOL    HW2 3363   1.942   1.540   9.106
  973SOL     OW 3364   0.350   0.898   9.252
  973SOL    HW1 3365   0.426   0.942   9.300
  973SOL    HW2 3366   0.385   0.851   9.170
  974SOL     OW 3367   1.540   0.274   7.573
  974SOL    HW1 3368   1.479   0.199   7.596
  974SOL    HW2 3369   1.562   0.326   7.656
  975SOL     OW 3370   1.303   0.838   7.490
  975SOL    HW1 3371   1.337   0.745   7.505
  975SOL    HW2 3372   1.321   0.865   7.395
  976SOL     OW 3373   1.068   1.333   8.297
  976SOL    HW1 3374   1.075   1.249   8.242
  976SOL    HW2 3375   1.130   1.402   8.261
  977SOL     OW 3376   0.319   0.810   8.397
  977SOL    HW1 3377   0.412   0.846   8.402
  977SOL    HW2 3378   0.313   0.725   8.449
  978SOL     OW 3379   0.339   0.509   8.454
  978SOL    HW1 3380   0.287   0.426   8.437
  978SOL    HW2 3381   0.416   0.514   8.390
  979SOL     OW 3382   1.138   0.380   9.126
  979SOL    HW1 3383   1.093   0.443   9.190
  979SOL    HW2 3384   1.231   0.411   9.109
  980SOL     OW 3385   1.160   0.207   8.925
  980SOL    HW1 3386   1.160   0.271   9.002
  980SOL    HW2 3387   1.188   0.255   8.842
  981SOL     OW 3388   0.008   1.326   7.648
  981SOL    HW1 3389  -0.085   1.347   7.617
  981SOL    HW2 3390   0.018   1.227   7.661
  982SOL     OW 3391   0.088   1.801   8.375
  982SOL    HW1 3392   0.046   1.715   8.348
  982SOL    HW2 3393   0.182   1.804   8.341
  983SOL     OW 3394   0.504   1.568   8.358
  983SOL    HW1 3395   0.570   1.642   8.367
  983SOL    HW2 3396   0.548   1.489   8.316
  984SOL     OW 3397   1.002   0.796   8.686
  984SOL    HW1 3398   1.043   0.764   8.772
  984SOL    HW2 3399   0.906   0.769   8.683
  985SOL     OW 3400   0.040   0.544   8.562
  985SOL    HW1 3401   0.125   0.511   8.521
  985SOL    HW2 3402   0.053   0.559   8.660
  986SOL     OW 3403   0.189   0.520   9.170
  986SOL    HW1 3404   0.248   0.480   9.100
  986SOL    HW2 3405   0.131   0.591   9.129
  987SOL     OW 3406   1.369   0.950   9.108
  987SOL    HW1 3407   1.408   1.039   9.128
  987SOL    HW2 3408   1.379   0.930   9.011
  988SOL     OW 3409   0.815   0.572   7.773
  988SOL    HW1 3410   0.822   0.483   7.727
  988SOL    HW2 3411   0.721   0.606   7.765
  989SOL     OW 3412   1.657   0.604   8.654
  989SOL    HW1 3413   1.619   0.535   8.716
  989SOL    HW2 3414   1.739   0.568   8.610
  990SOL     OW 3415   0.252   1.564   9.192
  990SOL    HW1 3416   0.222   1.621   9.268
  990SOL    HW2 3417   0.245   1.467   9.218
  991SOL     OW 3418   0.671   0.464   8.717
  991SOL    HW1 3419   0.637   0.375   8.687
  991SOL    HW2 3420   0.697   0.518   8.637
  992SOL     OW 3421   0.930   1.678   8.913
  992SOL    HW1 3422   0.906   1.660   8.818
  992SOL    HW2 3423   0.960   1.772   8.923
  993SOL     OW 3424   0.473   0.500   7.639
  993SOL    HW1 3425   0.534   0.580   7.643
  993SOL    HW2 3426   0.378   0.531   7.646
  994SOL     OW 3427   0.159   1.137   8.914
  994SOL    HW1 3428   0.181   1.076   8.990
  994SOL    HW2 3429   0.169   1.088   8.828
  995SOL     OW 3430   1.347   1.059   8.682
  995SOL    HW1 3431   1.371   0.996   8.608
  995SOL    HW2 3432   1.257   1.099   8.664
  996SOL     OW 3433   1.302   0.855   7.757
  996SOL    HW1 3434   1.216   0.824   7.799
  996SOL    HW2 3435   1.298   0.841   7.658
  997SOL     OW 3436   1.759   1.747   8.602
  997SOL    HW1 3437   1.820   1.777   8.529
  997SOL    HW2 3438   1.721   1.658   8.580
  998SOL     OW 3439   1.252   1.731   8.576
  998SOL    HW1 3440   1.336   1.736   8.522
  998SOL    HW2 3441   1.229   1.635   8.594
  999SOL     OW 3442   0.083   1.258   8.470
  999SOL    HW1 3443   0.078   1.257   8.570
  999SOL    HW2 3444   0.000   1.217   8.432
 1000SOL     OW 3445   0.688   1.662   9.164
 1000SOL    HW1 3446   0.632   1.743   9.173
 1000SOL    HW2 3447   0.740   1.666   9.078
 1001SOL     OW 3448   1.726   0.135   7.971
 1001SOL    HW1 3449   1.799   0.118   7.904
 1001SOL    HW2 3450   1.695   0.048   8.009
 1002SOL     OW 3451   1.388   1.573   7.925
 1002SOL    HW1 3452   1.455   1.585   7.851
 1002SOL    HW2 3453   1.348   1.662   7.948
 1003SOL     OW 3454   0.130   1.794   9.299
 1003SOL    HW1 3455   0.089   1.720   9.352
 1003SOL    HW2 3456   0.194   1.845   9.357
 1004SOL     OW 3457   1.280   0.927   8.120
 1004SOL    HW1 3458   1.340   0.846   8.122
 1004SOL    HW2 3459   1.320   0.996   8.060
 1005SOL     OW 3460   0.830   1.273   8.870
 1005SOL    HW1 3461   0.825   1.306   8.965
 1005SOL    HW2 3462   0.744   1.292   8.824
 1006SOL     OW 3463   0.672   1.616   7.602
 1006SOL    HW1 3464   0.681   1.626   7.503
 1006SOL    HW2 3465   0.632   1.527   7.623
 1007SOL     OW 3466   1.650   1.720   8.842
 1007SOL    HW1 3467   1.703   1.730   8.758
 1007SOL    HW2 3468   1.623   1.810   8.876
 1008SOL     OW 3469   1.841   0.175   8.411
 1008SOL    HW1 3470   1.880   0.090   8.375
 1008SOL    HW2 3471   1.743   0.177   8.392
 1009SOL     OW 3472   0.263   0.326   8.168
 1009SOL    HW1 3473   0.184   0.377   8.134
 1009SOL    HW2 3474   0.254   0.311   8.266
 1010SOL     OW 3475   1.194   1.612   7.479
 1010SOL    HW1 3476   1.200   1.519   7.516
 1010SOL    HW2 3477   1.135   1.612   7.399
 1011SOL     OW 3478   0.822   1.002   8.820
 1011SOL    HW1 3479   0.862   1.001   8.728
 1011SOL    HW2 3480   0.832   1.094   8.860
 1012SOL     OW 3481   0.916   0.910   7.739
 1012SOL    HW1 3482   0.979   0.948   7.671
 1012SOL    HW2 3483   0.956   0.827   7.778
 1013SOL     OW 3484   1.504   1.607   7.492
 1013SOL    HW1 3485   1.412   1.644   7.499
 1013SOL    HW2 3486   1.542   1.627   7.402
 1014SOL     OW 3487   0.372   1.288   8.938
 1014SOL    HW1 3488   0.359   1.381   8.904
 1014SOL    HW2 3489   0.288   1.236   8.925
 1015SOL     OW 3490   1.614   1.292   8.737
 1015SOL    HW1 3491   1.674   1.295   8.817
 1015SOL    HW2 3492   1.539   1.356   8.750
 1016SOL     OW 3493   1.039   1.098   8.144
 1016SOL    HW1 3494   0.969   1.051   8.198
 1016SOL    HW2 3495   1.098   1.030   8.101
 1017SOL     OW 3496   1.014   0.236   8.419
 1017SOL    HW1 3497   1.006   0.200   8.326
 1017SOL    HW2 3498   1.012   0.160   8.484
 1018SOL     OW 3499   0.590   1.487   7.939
 1018SOL    HW1 3500   0.632   1.429   7.869
 1018SOL    HW2 3501   0.546   1.566   7.895
 1019SOL     OW 3502   1.709   0.385   8.829
 1019SOL    HW1 3503   1.782   0.454   8.833
 1019SOL    HW2 3504   1.737   0.310   8.770
 1020SOL     OW 3505   0.255   1.348   7.738
 1020SOL    HW1 3506   0.159   1.349   7.711
 1020SOL    HW2 3507   0.267   1.401   7.822
 1021SOL     OW 3508   0.105   1.013   9.174
 1021SOL    HW1 3509   0.028   0.980   9.228
 1021SOL    HW2 3510   0.190   0.983   9.216
 1022SOL     OW 3511   0.672   0.203   8.937
 1022SOL    HW1 3512   0.762   0.187   8.897
 1022SOL    HW2 3513   0.680   0.208   9.036
 1023SOL     OW 3514   0.075   0.345   7.481
 1023SOL    HW1 3515  -0.017   0.317   7.452
 1023SOL    HW2 3516   0.106   0.422   7.425
 1024SOL     OW 3517   1.440   0.856   8.846
 1024SOL    HW1 3518   1.383   0.908   8.783
 1024SOL    HW2 3519   1.536   0.868   8.822
 1025SOL     OW 3520   0.072   0.166   7.766
 1025SOL    HW1 3521   0.055   0.249   7.712
 1025SOL    HW2 3522   0.162   0.129   7.744
 1026SOL     OW 3523   1.183   1.335   7.567
 1026SOL    HW1 3524   1.084   1.324   7.569
 1026SOL    HW2 3525   1.217   1.350   7.660
 1027SOL     OW 3526   0.613   0.842   8.879
 1027SOL    HW1 3527   0.669   0.923   8.862
 1027SOL    HW2 3528   0.672   0.762   8.882
 1028SOL     OW 3529   1.493   1.767   8.407
 1028SOL    HW1 3530   1.526   1.831   8.338
 1028SOL    HW2 3531   1.559   1.761   8.482
 1029SOL     OW 3532   0.716   0.565   9.156
 1029SOL    HW1 3533   0.735   0.630   9.230
 1029SOL    HW2 3534   0.776   0.485   9.165
 1030SOL     OW 3535   1.450   1.220   9.081
 1030SOL    HW1 3536   1.441   1.210   9.180
 1030SOL    HW2 3537   1.546   1.213   9.055
 1031SOL     OW 3538   0.390   1.741   9.008
 1031SOL    HW1 3539   0.299   1.782   9.006
 1031SOL    HW2 3540   0.383   1.647   9.040
 1032SOL     OW 3541   1.674   0.883   8.702
 1032SOL    HW1 3542   1.647   0.794   8.665
 1032SOL    HW2 3543   1.675   0.951   8.629
 1033SOL     OW 3544   1.225   0.325   7.897
 1033SOL    HW1 3545   1.290   0.251   7.886
 1033SOL    HW2 3546   1.245   0.375   7.981
 1034SOL     OW 3547   0.594   0.745   8.100
 1034SOL    HW1 3548   0.644   0.830   8.081
 1034SOL    HW2 3549   0.506   0.747   8.052
 1035SOL     OW 3550   1.777   0.342   9.090
 1035SOL    HW1 3551   1.760   0.373   8.996
 1035SOL    HW2 3552   1.693   0.305   9.128
 1036SOL     OW 3553   1.730   0.934   8.965
 1036SOL    HW1 3554   1.768   1.025   8.980
 1036SOL    HW2 3555   1.722   0.917   8.866
 1037SOL     OW 3556   0.859   1.374   7.464
 1037SOL    HW1 3557   0.813   1.389   7.552
 1037SOL    HW2 3558   0.903   1.459   7.434
 1038SOL     OW 3559   0.661   1.790   8.401
 1038SOL    HW1 3560   0.615   1.878   8.388
 1038SOL    HW2 3561   0.760   1.802   8.394
 1039SOL     OW 3562   0.859   0.956   8.309
 1039SOL    HW1 3563   0.913   0.887   8.357
 1039SOL    HW2 3564   0.827   1.025   8.375
 1040SOL     OW 3565   1.083   0.984   7.535
 1040SOL    HW1 3566   1.060   1.037   7.453
 1040SOL    HW2 3567   1.164   0.928   7.516
 1041SOL     OW 3568   1.861   1.569   8.299
 1041SOL    HW1 3569   1.790   1.557   8.229
 1041SOL    HW2 3570   1.862   1.490   8.359
 1042SOL     OW 3571   0.221   1.314   9.292
 1042SOL    HW1 3572   0.156   1.241   9.271
 1042SOL    HW2 3573   0.225   1.328   9.390
 1043SOL     OW 3574   0.079   1.240   8.101
 1043SOL    HW1 3575   0.078   1.193   8.189
 1043SOL    HW2 3576   0.161   1.212   8.050
 1044SOL     OW 3577   0.672   1.391   9.072
 1044SOL    HW1 3578   0.594   1.341   9.110
 1044SOL    HW2 3579   0.669   1.486   9.103
 1045SOL     OW 3580   1.824   0.192   8.675
 1045SOL    HW1 3581   1.820   0.102   8.719
 1045SOL    HW2 3582   1.827   0.181   8.576
 1046SOL     OW 3583   0.428   0.424   7.968
 1046SOL    HW1 3584   0.458   0.352   7.906
 1046SOL    HW2 3585   0.389   0.384   8.051
 1047SOL     OW 3586   1.705   1.487   8.552
 1047SOL    HW1 3587   1.612   1.462   8.525
 1047SOL    HW2 3588   1.731   1.437   8.634
 1048SOL     OW 3589   0.317   0.547   8.728
 1048SOL    HW1 3590   0.355   0.488   8.800
 1048SOL    HW2 3591   0.357   0.521   8.640
 1049SOL     OW 3592   0.812   1.586   8.135
 1049SOL    HW1 3593   0.844   1.596   8.041
 1049SOL    HW2 3594   0.733   1.524   8.137
 1050SOL     OW 3595   1.424   0.214   8.560
 1050SOL    HW1 3596   1.476   0.149   8.615
 1050SOL    HW2 3597   1.375   0.277   8.621
 1051SOL     OW 3598   1.001   0.034   8.602
 1051SOL    HW1 3599   0.938  -0.038   8.571
 1051SOL    HW2 3600   1.094  -0.002   8.602
 1052SOL     OW 3601   0.770   1.330   7.749
 1052SOL    HW1 3602   0.724   1.243   7.766
 1052SOL    HW2 3603   0.861   1.327   7.790
 1053SOL     OW 3604   0.618   1.567   8.732
 1053SOL    HW1 3605   0.613   1.649   8.789
 1053SOL    HW2 3606   0.707   1.564   8.687
 1054SOL     OW 3607   1.352   0.052   7.616
 1054SOL    HW1 3608   1.387   0.011   7.532
 1054SOL    HW2 3609   1.262   0.014   7.636
 1055SOL     OW 3610   1.300   0.453   8.139
 1055SOL    HW1 3611   1.241   0.533   8.143
 1055SOL    HW2 3612   1.315   0.418   8.232
 1056SOL     OW 3613   1.593   0.221   8.330
 1056SOL    HW1 3614   1.509   0.220   8.384
 1056SOL    HW2 3615   1.595   0.304   8.274
 1057SOL     OW 3616   0.039   1.077   7.748
 1057SOL    HW1 3617   0.138   1.066   7.739
 1057SOL    HW2 3618  -0.001   0.991   7.780
 1058SOL     OW 3619   0.875   1.646   7.785
 1058SOL    HW1 3620   0.798   1.611   7.731
 1058SOL    HW2 3621   0.843   1.717   7.847
 1059SOL     OW 3622   0.230   0.628   9.423
 1059SOL    HW1 3623   0.137   0.626   9.460
 1059SOL    HW2 3624   0.231   0.589   9.331
 1060SOL     OW 3625   0.225   0.275  10.306
 1060SOL    HW1 3626   0.260   0.258  10.398
 1060SOL    HW2 3627   0.137   0.230  10.294
 1061SOL     OW 3628   0.019   0.368   9.957
 1061SOL    HW1 3629  -0.063   0.411   9.996
 1061SOL    HW2 3630  -0.009   0.295   9.894
 1062SOL     OW 3631   0.569   1.275  10.475
 1062SOL    HW1 3632   0.476   1.268  10.438
 1062SOL    HW2 3633   0.580   1.364  10.519
 1063SOL     OW 3634   1.555   1.511  10.013
 1063SOL    HW1 3635   1.498   1.495  10.094
 1063SOL    HW2 3636   1.496   1.521   9.933
 1064SOL     OW 3637   1.135   0.703  10.027
 1064SOL    HW1 3638   1.192   0.781  10.002
 1064SOL    HW2 3639   1.075   0.729  10.103
 1065SOL     OW 3640   1.755   0.607   9.541
 1065SOL    HW1 3641   1.743   0.594   9.442
 1065SOL    HW2 3642   1.725   0.526   9.590
 1066SOL     OW 3643   0.768   1.144  10.333
 1066SOL    HW1 3644   0.690   1.161  10.393
 1066SOL    HW2 3645   0.802   1.231  10.297
 1067SOL     OW 3646   0.850   0.798  11.133
 1067SOL    HW1 3647   0.846   0.874  11.198
 1067SOL    HW2 3648   0.872   0.834  11.042
 1068SOL     OW 3649   0.685   1.012   9.975
 1068SOL    HW1 3650   0.754   0.996  10.045
 1068SOL    HW2 3651   0.612   1.069  10.013
 1069SOL     OW 3652   0.335   1.435  10.371
 1069SOL    HW1 3653   0.257   1.404  10.318
 1069SOL    HW2 3654   0.393   1.493  10.314
 1070SOL     OW 3655   1.460   1.505  10.649
 1070SOL    HW1 3656   1.484   1.599  10.675
 1070SOL    HW2 3657   1.444   1.451  10.731
 1071SOL     OW 3658   0.438   0.392  10.809
 1071SOL    HW1 3659   0.520   0.336  10.818
 1071SOL    HW2 3660   0.357   0.334  10.813
 1072SOL     OW 3661   1.603   0.447  10.047
 1072SOL    HW1 3662   1.529   0.493   9.997
 1072SOL    HW2 3663   1.654   0.515  10.100
 1073SOL     OW 3664   0.231   1.713   9.793
 1073SOL    HW1 3665   0.265   1.790   9.847
 1073SOL    HW2 3666   0.275   1.713   9.703
 1074SOL     OW 3667   0.230   1.434   9.848
 1074SOL    HW1 3668   0.204   1.530   9.848
 1074SOL    HW2 3669   0.159   1.380   9.893
 1075SOL     OW 3670   0.240   1.091  10.196
 1075SOL    HW1 3671   0.254   1.007  10.248
 1075SOL    HW2 3672   0.185   1.155  10.251
 1076SOL     OW 3673   0.620   1.786  10.749
 1076SOL    HW1 3674   0.528   1.769  10.784
 1076SOL    HW2 3675   0.648   1.878  10.775
 1077SOL     OW 3676   0.606   0.964   9.433
 1077SOL    HW1 3677   0.613   1.048   9.379
 1077SOL    HW2 3678   0.652   0.977   9.521
 1078SOL     OW 3679   1.594   0.114  10.790
 1078SOL    HW1 3680   1.576   0.181  10.718
 1078SOL    HW2 3681   1.591   0.160  10.879
 1079SOL     OW 3682   0.122   0.643   9.873
 1079SOL    HW1 3683   0.077   0.555   9.890
 1079SOL    HW2 3684   0.121   0.697   9.957
 1080SOL     OW 3685   1.842   1.767   9.669
 1080SOL    HW1 3686   1.896   1.738   9.749
 1080SOL    HW2 3687   1.872   1.857   9.640
 1081SOL     OW 3688   0.027   1.596   9.427
 1081SOL    HW1 3689   0.008   1.500   9.448
 1081SOL    HW2 3690  -0.006   1.654   9.502
 1082SOL     OW 3691   1.689   0.922   9.922
 1082SOL    HW1 3692   1.784   0.893   9.930
 1082SOL    HW2 3693   1.681   0.987   9.847
 1083SOL     OW 3694   1.641   1.108   9.742
 1083SOL    HW1 3695   1.727   1.110   9.690
 1083SOL    HW2 3696   1.655   1.155   9.830
 1084SOL     OW 3697   0.113   0.737  10.907
 1084SOL    HW1 3698   0.201   0.724  10.952
 1084SOL    HW2 3699   0.100   0.834  10.885
 1085SOL     OW 3700   0.613   1.365  10.036
 1085SOL    HW1 3701   0.564   1.278  10.045
 1085SOL    HW2 3702   0.590   1.408   9.949
 1086SOL     OW 3703   1.293   1.228  10.733
 1086SOL    HW1 3704   1.330   1.155  10.675
 1086SOL    HW2 3705   1.345   1.233  10.818
 1087SOL     OW 3706   0.809   0.004   9.812
 1087SOL    HW1 3707   0.849   0.095   9.803
 1087SOL    HW2 3708   0.709   0.012   9.818
 1088SOL     OW 3709   0.197   0.976  10.574
 1088SOL    HW1 3710   0.286   0.931  10.560
 1088SOL    HW2 3711   0.124   0.911  10.555
 1089SOL     OW 3712   1.525   0.999   9.500
 1089SOL    HW1 3713   1.462   0.923   9.513
 1089SOL    HW2 3714   1.573   1.017   9.586
 1090SOL     OW 3715   1.187   1.792  10.926
 1090SOL    HW1 3716   1.211   1.852  10.850
 1090SOL    HW2 3717   1.194   1.697  10.896
 1091SOL     OW 3718   0.317   0.251  11.111
 1091SOL    HW1 3719   0.388   0.322  11.117
 1091SOL    HW2 3720   0.229   0.290  11.139
 1092SOL     OW 3721   1.466   1.417  10.263
 1092SOL    HW1 3722   1.407   1.423  10.343
 1092SOL    HW2 3723   1.451   1.329  10.217
 1093SOL     OW 3724   1.667   1.714   9.882
 1093SOL    HW1 3725   1.626   1.691   9.794
 1093SOL    HW2 3726   1.649   1.640   9.947
 1094SOL     OW 3727   0.598   0.729   9.580
 1094SOL    HW1 3728   0.622   0.798   9.512
 1094SOL    HW2 3729   0.520   0.762   9.634
 1095SOL     OW 3730   1.281   0.345  10.254
 1095SOL    HW1 3731   1.195   0.295  10.241
 1095SOL    HW2 3732   1.343   0.291  10.310
 1096SOL     OW 3733   1.576   1.662   9.617
 1096SOL    HW1 3734   1.665   1.708   9.620
 1096SOL    HW2 3735   1.555   1.638   9.522
 1097SOL     OW 3736   0.807   0.605  10.775
 1097SOL    HW1 3737   0.760   0.602  10.864
 1097SOL    HW2 3738   0.756   0.550  10.709
 1098SOL     OW 3739   0.973   0.890  10.882
 1098SOL    HW1 3740   1.019   0.806  10.853
 1098SOL    HW2 3741   0.917   0.924  10.807
 1099SOL     OW 3742   0.991   0.410  10.552
 1099SOL    HW1 3743   0.914   0.444  10.606
 1099SOL    HW2 3744   0.957   0.359  10.473
 1100SOL     OW 3745   1.041   0.701   9.739
 1100SOL    HW1 3746   1.067   0.697   9.835
 1100SOL    HW2 3747   0.956   0.650   9.725
 1101SOL     OW 3748   0.076   0.811  10.099
 1101SOL    HW1 3749   0.175   0.799  10.108
 1101SOL    HW2 3750   0.052   0.906  10.120
 1102SOL     OW 3751   0.130   1.821  10.881
 1102SOL    HW1 3752   0.120   1.806  10.980
 1102SOL    HW2 3753   0.044   1.857  10.845
 1103SOL     OW 3754   0.865   0.348   9.505
 1103SOL    HW1 3755   0.924   0.411   9.456
 1103SOL    HW2 3756   0.884   0.254   9.476
 1104SOL     OW 3757   1.362   1.144   9.855
 1104SOL    HW1 3758   1.445   1.115   9.807
 1104SOL    HW2 3759   1.313   1.211   9.799
 1105SOL     OW 3760   0.550   0.196  10.195
 1105SOL    HW1 3761   0.545   0.191  10.295
 1105SOL    HW2 3762   0.552   0.292  10.166
 1106SOL     OW 3763   1.008   1.456   9.787
 1106SOL    HW1 3764   0.962   1.528   9.735
 1106SOL    HW2 3765   1.004   1.476   9.885
 1107SOL     OW 3766   0.351   1.801  10.163
 1107SOL    HW1 3767   0.401   1.715  10.169
 1107SOL    HW2 3768   0.416   1.878  10.160
 1108SOL     OW 3769   1.795   1.066  10.183
 1108SOL    HW1 3770   1.733   1.051  10.107
 1108SOL    HW2 3771   1.743   1.077  10.268
 1109SOL     OW 3772   1.227   1.550  10.816
 1109SOL    HW1 3773   1.233   1.473  10.880
 1109SOL    HW2 3774   1.175   1.524  10.736
 1110SOL     OW 3775   0.321   0.943   9.552
 1110SOL    HW1 3776   0.403   0.982   9.510
 1110SOL    HW2 3777   0.294   0.861   9.503
 1111SOL     OW 3778   1.458   0.735  10.038
 1111SOL    HW1 3779   1.453   0.670  10.113
 1111SOL    HW2 3780   1.538   0.794  10.051
 1112SOL     OW 3781   0.461   1.266  11.037
 1112SOL    HW1 3782   0.411   1.267  10.951
 1112SOL    HW2 3783   0.398   1.248  11.113
 1113SOL     OW 3784   1.111   1.776   9.547
 1113SOL    HW1 3785   1.051   1.714   9.597
 1113SOL    HW2 3786   1.142   1.732   9.462
 1114SOL     OW 3787   0.202   0.285  10.808
 1114SOL    HW1 3788   0.122   0.345  10.795
 1114SOL    HW2 3789   0.192   0.236  10.894
 1115SOL     OW 3790   1.632   1.377   9.391
 1115SOL    HW1 3791   1.600   1.471   9.381
 1115SOL    HW2 3792   1.556   1.314   9.379
 1116SOL     OW 3793   0.464   1.743   9.633
 1116SOL    HW1 3794   0.497   1.782   9.719
 1116SOL    HW2 3795   0.540   1.736   9.568
 1117SOL     OW 3796   1.400   0.107   9.736
 1117SOL    HW1 3797   1.376   0.070   9.646
 1117SOL    HW2 3798   1.499   0.123   9.740
 1118SOL     OW 3799   0.249   1.785  10.551
 1118SOL    HW1 3800   0.306   1.720  10.601
 1118SOL    HW2 3801   0.233   1.752  10.458
 1119SOL     OW 3802   0.940   1.698  10.214
 1119SOL    HW1 3803   1.020   1.641  10.235
 1119SOL    HW2 3804   0.891   1.658  10.137
 1120SOL     OW 3805   0.382   0.700   9.790
 1120SOL    HW1 3806   0.427   0.610   9.787
 1120SOL    HW2 3807   0.288   0.689   9.823
 1121SOL     OW 3808   0.614   0.122   9.427
 1121SOL    HW1 3809   0.712   0.100   9.434
 1121SOL    HW2 3810   0.583   0.105   9.334
 1122SOL     OW 3811   0.781   0.264  11.059
 1122SOL    HW1 3812   0.848   0.203  11.102
 1122SOL    HW2 3813   0.708   0.283  11.124
 1123SOL     OW 3814   0.888   1.514  10.505
 1123SOL    HW1 3815   0.865   1.489  10.411
 1123SOL    HW2 3816   0.949   1.445  10.544
 1124SOL     OW 3817   1.351   0.590  10.743
 1124SOL    HW1 3818   1.379   0.547  10.828
 1124SOL    HW2 3819   1.376   0.686  10.744
 1125SOL     OW 3820   0.803   1.402  10.234
 1125SOL    HW1 3821   0.893   1.416  10.192
 1125SOL    HW2 3822   0.732   1.404  10.163
 1126SOL     OW 3823   0.922   0.503  10.209
 1126SOL    HW1 3824   0.897   0.494  10.113
 1126SOL    HW2 3825   0.970   0.421  10.240
 1127SOL     OW 3826   0.539   0.064   9.822
 1127SOL    HW1 3827   0.458   0.065   9.880
 1127SOL    HW2 3828   0.542   0.147   9.767
 1128SOL     OW 3829   1.434   1.188   9.351
 1128SOL    HW1 3830   1.466   1.112   9.408
 1128SOL    HW2 3831   1.342   1.215   9.381
 1129SOL     OW 3832   0.297   0.035   9.481
 1129SOL    HW1 3833   0.346   0.119   9.460
 1129SOL    HW2 3834   0.359  -0.030   9.526
 1130SOL     OW 3835   0.935   0.236   9.790
 1130SOL    HW1 3836   0.887   0.277   9.712
 1130SOL    HW2 3837   1.034   0.234   9.771
 1131SOL     OW 3838   1.076   0.683  10.774
 1131SOL    HW1 3839   0.996   0.622  10.777
 1131SOL    HW2 3840   1.157   0.630  10.750
 1132SOL     OW 3841   1.227   1.570  10.103
 1132SOL    HW1 3842   1.248   1.644  10.038
 1132SOL    HW2 3843   1.295   1.570  10.176
 1133SOL     OW 3844   0.459   1.152  10.051
 1133SOL    HW1 3845   0.388   1.125  10.116
 1133SOL    HW2 3846   0.433   1.124   9.958
 1134SOL     OW 3847   1.271   1.797   9.901
 1134SOL    HW1 3848   1.315   1.861   9.837
 1134SOL    HW2 3849   1.221   1.849   9.971
 1135SOL     OW 3850   1.032   0.549   9.326
 1135SOL    HW1 3851   0.991   0.631   9.287
 1135SOL    HW2 3852   1.096   0.575   9.399
 1136SOL     OW 3853   0.078   0.556  10.696
 1136SOL    HW1 3854   0.170   0.555  10.655
 1136SOL    HW2 3855   0.072   0.630  10.763
 1137SOL     OW 3856   0.561   0.222  10.457
 1137SOL    HW1 3857   0.599   0.138  10.494
 1137SOL    HW2 3858   0.473   0.241  10.501
 1138SOL     OW 3859   0.866   0.454   9.952
 1138SOL    HW1 3860   0.834   0.526   9.890
 1138SOL    HW2 3861   0.890   0.373   9.899
 1139SOL     OW 3862   1.017   0.039  10.063
 1139SOL    HW1 3863   0.945   0.044   9.994
 1139SOL    HW2 3864   0.993  -0.030  10.132
 1140SOL     OW 3865   1.429   1.173  10.177
 1140SOL    HW1 3866   1.374   1.089  10.170
 1140SOL    HW2 3867   1.455   1.202  10.085
 1141SOL     OW 3868   1.466   0.590  10.302
 1141SOL    HW1 3869   1.436   0.495  10.309
 1141SOL    HW2 3870   1.539   0.606  10.368
 1142SOL     OW 3871   1.857   0.833   9.687
 1142SOL    HW1 3872   1.899   0.769   9.751
 1142SOL    HW2 3873   1.819   0.782   9.609
 1143SOL     OW 3874   0.488   1.385   9.484
 1143SOL    HW1 3875   0.401   1.370   9.531
 1143SOL    HW2 3876   0.471   1.411   9.389
 1144SOL     OW 3877   1.664   1.280   9.967
 1144SOL    HW1 3878   1.763   1.288   9.981
 1144SOL    HW2 3879   1.619   1.364   9.998
 1145SOL     OW 3880   1.390   0.575   9.388
 1145SOL    HW1 3881   1.336   0.554   9.469
 1145SOL    HW2 3882   1.481   0.534   9.397
 1146SOL     OW 3883   0.527   0.256   9.638
 1146SOL    HW1 3884   0.554   0.197   9.563
 1146SOL    HW2 3885   0.527   0.351   9.607
 1147SOL     OW 3886   1.754   1.223  10.898
 1147SOL    HW1 3887   1.845   1.184  10.885
 1147SOL    HW2 3888   1.762   1.319  10.922
 1148SOL     OW 3889   1.064   1.347  10.650
 1148SOL    HW1 3890   0.984   1.324  10.705
 1148SOL    HW2 3891   1.147   1.321  10.699
 1149SOL     OW 3892   1.111   1.195  10.410
 1149SOL    HW1 3893   1.071   1.239  10.491
 1149SOL    HW2 3894   1.070   1.232  10.327
 1150SOL     OW 3895   1.638   1.099  10.389
 1150SOL    HW1 3896   1.643   1.180  10.448
 1150SOL    HW2 3897   1.552   1.101  10.338
 1151SOL     OW 3898   0.915   0.089  10.712
 1151SOL    HW1 3899   0.940   0.069  10.617
 1151SOL    HW2 3900   0.987   0.145  10.754
 1152SOL     OW 3901   0.705   1.050   9.678
 1152SOL    HW1 3902   0.691   1.057   9.777
 1152SOL    HW2 3903   0.789   0.999   9.660
 1153SOL     OW 3904   0.410   0.813  10.561
 1153SOL    HW1 3905   0.496   0.825  10.611
 1153SOL    HW2 3906   0.368   0.726  10.588
 1154SOL     OW 3907   1.274   0.386  10.572
 1154SOL    HW1 3908   1.295   0.460  10.636
 1154SOL    HW2 3909   1.185   0.403  10.529
 1155SOL     OW 3910   0.064   1.564  10.641
 1155SOL    HW1 3911   0.018   1.646  10.607
 1155SOL    HW2 3912   0.162   1.583  10.650
 1156SOL     OW 3913   0.367   1.100   9.811
 1156SOL    HW1 3914   0.360   1.183   9.755
 1156SOL    HW2 3915   0.371   1.020   9.751
 1157SOL     OW 3916   0.566   0.537  10.175
 1157SOL    HW1 3917   0.578   0.603  10.101
 1157SOL    HW2 3918   0.612   0.571  10.258
 1158SOL     OW 3919   1.252   1.348   9.698
 1158SOL    HW1 3920   1.302   1.425   9.738
 1158SOL    HW2 3921   1.157   1.350   9.730
 1159SOL     OW 3922   1.272   1.445  10.452
 1159SOL    HW1 3923   1.319   1.458  10.539
 1159SOL    HW2 3924   1.206   1.371  10.461
 1160SOL     OW 3925   1.582   0.639   9.782
 1160SOL    HW1 3926   1.551   0.700   9.855
 1160SOL    HW2 3927   1.632   0.691   9.713
 1161SOL     OW 3928   0.354   1.510  10.639
 1161SOL    HW1 3929   0.333   1.466  10.552
 1161SOL    HW2 3930   0.451   1.536  10.642
 1162SOL     OW 3931   0.402   0.751  10.908
 1162SOL    HW1 3932   0.470   0.806  10.861
 1162SOL    HW2 3933   0.442   0.663  10.935
 1163SOL     OW 3934   1.587   0.779  10.980
 1163SOL    HW1 3935   1.495   0.817  10.975
 1163SOL    HW2 3936   1.647   0.826  10.915
 1164SOL     OW 3937   0.573   0.870  10.339
 1164SOL    HW1 3938   0.617   0.959  10.330
 1164SOL    HW2 3939   0.510   0.870  10.416
 1165SOL     OW 3940   1.360   0.862  10.355
 1165SOL    HW1 3941   1.285   0.862  10.289
 1165SOL    HW2 3942   1.397   0.770  10.364
 1166SOL     OW 3943   1.209   0.525   9.585
 1166SOL    HW1 3944   1.222   0.441   9.639
 1166SOL    HW2 3945   1.180   0.599   9.645
 1167SOL     OW 3946   0.307   0.213  10.541
 1167SOL    HW1 3947   0.284   0.250  10.631
 1167SOL    HW2 3948   0.277   0.118  10.535
 1168SOL     OW 3949   0.037   1.310  10.592
 1168SOL    HW1 3950   0.090   1.261  10.660
 1168SOL    HW2 3951   0.059   1.408  10.597
 1169SOL     OW 3952   0.732   0.634  10.374
 1169SOL    HW1 3953   0.791   0.608  10.298
 1169SOL    HW2 3954   0.704   0.730  10.363
 1170SOL     OW 3955   0.307   0.063   9.928
 1170SOL    HW1 3956   0.296   0.157   9.961
 1170SOL    HW2 3957   0.302   0.000  10.005
 1171SOL     OW 3958   1.622   0.367   9.684
 1171SOL    HW1 3959   1.624   0.291   9.748
 1171SOL    HW2 3960   1.574   0.444   9.724
 1172SOL     OW 3961   1.023   0.766  10.276
 1172SOL    HW1 3962   1.038   0.787  10.372
 1172SOL    HW2 3963   0.993   0.671  10.267
 1173SOL     OW 3964   0.980   1.573  11.010
 1173SOL    HW1 3965   0.960   1.617  10.922
 1173SOL    HW2 3966   1.019   1.482  10.994
 1174SOL     OW 3967   1.859   1.518  10.915
 1174SOL    HW1 3968   1.873   1.545  10.820
 1174SOL    HW2 3969   1.942   1.540  10.968
 1175SOL     OW 3970   0.350   0.898  11.114
 1175SOL    HW1 3971   0.426   0.942  11.162
 1175SOL    HW2 3972   0.385   0.851  11.032
 1176SOL     OW 3973   1.540   0.274   9.435
 1176SOL    HW1 3974   1.479   0.199   9.458
 1176SOL    HW2 3975   1.562   0.326   9.518
 1177SOL     OW 3976   1.303   0.838   9.352
 1177SOL    HW1 3977   1.337   0.745   9.367
 1177SOL    HW2 3978   1.321   0.865   9.257
 1178SOL     OW 3979   1.068   1.333  10.159
 1178SOL    HW1 3980   1.075   1.249  10.104
 1178SOL    HW2 3981   1.130   1.402  10.123
 1179SOL     OW 3982   0.319   0.810  10.259
 1179SOL    HW1 3983   0.412   0.846  10.264
 1179SOL    HW2 3984   0.313   0.725  10.311
 1180SOL     OW 3985   0.339   0.509  10.316
 1180SOL    HW1 3986   0.287   0.426  10.299
 1180SOL    HW2 3987   0.416   0.514  10.252
 1181SOL     OW 3988   1.160   0.207  10.787
 1181SOL    HW1 3989   1.160   0.271  10.864
 1181SOL    HW2 3990   1.188   0.255  10.704
 1182SOL     OW 3991   0.008   1.326   9.510
 1182SOL    HW1 3992  -0.085   1.347   9.479
 1182SOL    HW2 3993   0.018   1.227   9.523
 1183SOL     OW 3994   0.088   1.801  10.237
 1183SOL    HW1 3995   0.046   1.715  10.210
 1183SOL    HW2 3996   0.182   1.804  10.203
 1184SOL     OW 3997   0.504   1.568  10.220
 1184SOL    HW1 3998   0.570   1.642  10.229
 1184SOL    HW2 3999   0.548   1.489  10.178
 1185SOL     OW 4000   1.002   0.796  10.548
 1185SOL    HW1 4001   1.043   0.764  10.634
 1185SOL    HW2 4002   0.906   0.769  10.545
 1186SOL     OW 4003   0.040   0.544  10.424
 1186SOL    HW1 4004   0.125   0.511  10.383
 1186SOL    HW2 4005   0.053   0.559  10.522
 1187SOL     OW 4006   0.815   0.572   9.635
 1187SOL    HW1 4007   0.822   0.483   9.589
 1187SOL    HW2 4008   0.721   0.606   9.627
 1188SOL     OW 4009   1.657   0.604  10.516
 1188SOL    HW1 4010   1.619   0.535  10.578
 1188SOL    HW2 4011   1.739   0.568  10.472
 1189SOL     OW 4012   0.252   1.564  11.054
 1189SOL    HW1 4013   0.222   1.621  11.130
 1189SOL    HW2 4014   0.245   1.467  11.080
 1190SOL     OW 4015   0.671   0.464  10.579
 1190SOL    HW1 4016   0.637   0.375  10.549
 1190SOL    HW2 4017   0.697   0.518  10.499
 1191SOL     OW 4018   0.930   1.678  10.775
 1191SOL    HW1 4019   0.906   1.660  10.680
 1191SOL    HW2 4020   0.960   1.772  10.785
 1192SOL     OW 4021   0.473   0.500   9.501
 1192SOL    HW1 4022   0.534   0.580   9.505
 1192SOL    HW2 4023   0.378   0.531   9.508
 1193SOL     OW 4024   0.159   1.137  10.776
 1193SOL    HW1 4025   0.181   1.076  10.852
 1193SOL    HW2 4026   0.169   1.088  10.690
 1194SOL     OW 4027   1.347   1.059  10.544
 1194SOL    HW1 4028   1.371   0.996  10.470
 1194SOL    HW2 4029   1.257   1.099  10.526
 1195SOL     OW 4030   1.302   0.855   9.619
 1195SOL    HW1 4031   1.216   0.824   9.661
 1195SOL    HW2 4032   1.298   0.841   9.520
 1196SOL     OW 4033   1.759   1.747  10.464
 1196SOL    HW1 4034   1.820   1.777  10.391
 1196SOL    HW2 4035   1.721   1.658  10.442
 1197SOL     OW 4036   1.252   1.731  10.438
 1197SOL    HW1 4037   1.336   1.736  10.384
 1197SOL    HW2 4038   1.229   1.635  10.456
 1198SOL     OW 4039   0.083   1.258  10.332
 1198SOL    HW1 4040   0.078   1.257  10.432
 1198SOL    HW2 4041   0.000   1.217  10.294
 1199SOL     OW 4042   1.726   0.135   9.833
 1199SOL    HW1 4043   1.799   0.118   9.766
 1199SOL    HW2 4044   1.695   0.048   9.871
 1200SOL     OW 4045   1.388   1.573   9.787
 1200SOL    HW1 4046   1.455   1.585   9.713
 1200SOL    HW2 4047   1.348   1.662   9.810
 1201SOL     OW 4048   1.280   0.927   9.982
 1201SOL    HW1 4049   1.340   0.846   9.984
 1201SOL    HW2 4050   1.320   0.996   9.922
 1202SOL     OW 4051   0.830   1.273  10.732
 1202SOL    HW1 4052   0.825   1.306  10.827
 1202SOL    HW2 4053   0.744   1.292  10.686
 1203SOL     OW 4054   0.672   1.616   9.464
 1203SOL    HW1 4055   0.681   1.626   9.365
 1203SOL    HW2 4056   0.632   1.527   9.485
 1204SOL     OW 4057   1.650   1.720  10.704
 1204SOL    HW1 4058   1.703   1.730  10.620
 1204SOL    HW2 4059   1.623   1.810  10.738
 1205SOL     OW 4060   1.841   0.175  10.273
 1205SOL    HW1 4061   1.880   0.090  10.237
 1205SOL    HW2 4062   1.743   0.177  10.254
 1206SOL     OW 4063   0.263   0.326  10.030
 1206SOL    HW1 4064   0.184   0.377   9.996
 1206SOL    HW2 4065   0.254   0.311  10.128
 1207SOL     OW 4066   1.194   1.612   9.341
 1207SOL    HW1 4067   1.200   1.519   9.378
 1207SOL    HW2 4068   1.135   1.612   9.261
 1208SOL     OW 4069   0.822   1.002  10.682
 1208SOL    HW1 4070   0.862   1.001  10.590
 1208SOL    HW2 4071   0.832   1.094  10.722
 1209SOL     OW 4072   0.916   0.910   9.601
 1209SOL    HW1 4073   0.979   0.948   9.533
 1209SOL    HW2 4074   0.956   0.827   9.640
 1210SOL     OW 4075   1.504   1.607   9.354
 1210SOL    HW1 4076   1.412   1.644   9.361
 1210SOL    HW2 4077   1.542   1.627   9.264
 1211SOL     OW 4078   0.372   1.288  10.800
 1211SOL    HW1 4079   0.359   1.381  10.766
 1211SOL    HW2 4080   0.288   1.236  10.787
 1212SOL     OW 4081   1.614   1.292  10.599
 1212SOL    HW1 4082   1.674   1.295  10.679
 1212SOL    HW2 4083   1.539   1.356  10.612
 1213SOL     OW 4084   1.039   1.098  10.006
 1213SOL    HW1 4085   0.969   1.051  10.060
 1213SOL    HW2 4086   1.098   1.030   9.963
 1214SOL     OW 4087   1.014   0.236  10.281
 1214SOL    HW1 4088   1.006   0.200  10.188
 1214SOL    HW2 4089   1.012   0.160  10.346
 1215SOL     OW 4090   0.590   1.487   9.801
 1215SOL    HW1 4091   0.632   1.429   9.731
 1215SOL    HW2 4092   0.546   1.566   9.757
 1216SOL     OW 4093   1.709   0.385  10.691
 1216SOL    HW1 4094   1.782   0.454  10.695
 1216SOL    HW2 4095   1.737   0.310  10.632
 1217SOL     OW 4096   0.255   1.348   9.600
 1217SOL    HW1 4097   0.159   1.349   9.573
 1217SOL    HW2 4098   0.267   1.401   9.684
 1218SOL     OW 4099   0.105   1.013  11.036
 1218SOL    HW1 4100   0.028   0.980  11.090
 1218SOL    HW2 4101   0.190   0.983  11.078
 1219SOL     OW 4102   0.672   0.203  10.799
 1219SOL    HW1 4103   0.762   0.187  10.759
 1219SOL    HW2 4104   0.680   0.208  10.898
 1220SOL     OW 4105   0.075   0.345   9.343
 1220SOL    HW1 4106  -0.017   0.317   9.314
 1220SOL    HW2 4107   0.106   0.422   9.287
 1221SOL     OW 4108   1.440   0.856  10.708
 1221SOL    HW1 4109   1.383   0.908  10.645
 1221SOL    HW2 4110   1.536   0.868  10.684
 1222SOL     OW 4111   0.072   0.166   9.628
 1222SOL    HW1 4112   0.055   0.249   9.574
 1222SOL    HW2 4113   0.162   0.129   9.606
 1223SOL     OW 4114   1.183   1.335   9.429
 1223SOL    HW1 4115   1.084   1.324   9.431
 1223SOL    HW2 4116   1.217   1.350   9.522
 1224SOL     OW 4117   0.613   0.842  10.741
 1224SOL    HW1 4118   0.669   0.923  10.724
 1224SOL    HW2 4119   0.672   0.762  10.744
 1225SOL     OW 4120   1.493   1.767  10.269
 1225SOL    HW1 4121   1.526   1.831  10.200
 1225SOL    HW2 4122   1.559   1.761  10.344
 1226SOL     OW 4123   0.716   0.565  11.018
 1226SOL    HW1 4124   0.735   0.630  11.092
 1226SOL    HW2 4125   0.776   0.485  11.027
 1227SOL     OW 4126   0.390   1.741  10.870
 1227SOL    HW1 4127   0.299   1.782  10.868
 1227SOL    HW2 4128   0.383   1.647  10.902
 1228SOL     OW 4129   1.674   0.883  10.564
 1228SOL    HW1 4130   1.647   0.794  10.527
 1228SOL    HW2 4131   1.675   0.951  10.491
 1229SOL     OW 4132   1.225   0.325   9.759
 1229SOL    HW1 4133   1.290   0.251   9.748
 1229SOL    HW2 4134   1.245   0.375   9.843
 1230SOL     OW 4135   0.594   0.745   9.962
 1230SOL    HW1 4136   0.644   0.830   9.943
 1230SOL    HW2 4137   0.506   0.747   9.914
 1231SOL     OW 4138   1.777   0.342  10.952
 1231SOL    HW1 4139   1.760   0.373  10.858
 1231SOL    HW2 4140   1.693   0.305  10.990
 1232SOL     OW 4141   1.730   0.934  10.827
 1232SOL    HW1 4142   1.768   1.025  10.842
 1232SOL    HW2 4143   1.722   0.917  10.728
 1233SOL     OW 4144   0.859   1.374   9.326
 1233SOL    HW1 4145   0.813   1.389   9.414
 1233SOL    HW2 4146   0.903   1.459   9.296
 1234SOL     OW 4147   0.661   1.790  10.263
 1234SOL    HW1 4148   0.615   1.878  10.250
 1234SOL    HW2 4149   0.760   1.802  10.256
 1235SOL     OW 4150   0.859   0.956  10.171
 1235SOL    HW1 4151   0.913   0.887  10.219
 1235SOL    HW2 4152   0.827   1.025  10.237
 1236SOL     OW 4153   1.083   0.984   9.397
 1236SOL    HW1 4154   1.060   1.037   9.315
 1236SOL    HW2 4155   1.164   0.928   9.378
 1237SOL     OW 4156   1.861   1.569  10.161
 1237SOL    HW1 4157   1.790   1.557  10.091
 1237SOL    HW2 4158   1.862   1.490  10.221
 1238SOL     OW 4159   0.079   1.240   9.963
 1238SOL    HW1 4160   0.078   1.193  10.051
 1238SOL    HW2 4161   0.161   1.212   9.912
 1239SOL     OW 4162   0.672   1.391  10.934
 1239SOL    HW1 4163   0.594   1.341  10.972
 1239SOL    HW2 4164   0.669   1.486  10.965
 1240SOL     OW 4165   1.824   0.192  10.537
 1240SOL    HW1 4166   1.820   0.102  10.581
 1240SOL    HW2 4167   1.827   0.181  10.438
 1241SOL     OW 4168   0.428   0.424   9.830
 1241SOL    HW1 4169   0.458   0.352   9.768
 1241SOL    HW2 4170   0.389   0.384   9.913
 1242SOL     OW 4171   1.705   1.487  10.414
 1242SOL    HW1 4172   1.612   1.462  10.387
 1242SOL    HW2 4173   1.731   1.437  10.496
 1243SOL     OW 4174   0.317   0.547  10.590
 1243SOL    HW1 4175   0.355   0.488  10.662
 1243SOL    HW2 4176   0.357   0.521  10.502
 1244SOL     OW 4177   0.812   1.586   9.997
 1244SOL    HW1 4178   0.844   1.596   9.903
 1244SOL    HW2 4179   0.733   1.524   9.999
 1245SOL     OW 4180   1.424   0.214  10.422
 1245SOL    HW1 4181   1.476   0.149  10.477
 1245SOL    HW2 4182   1.375   0.277  10.483
 1246SOL     OW 4183   1.001   0.034  10.464
 1246SOL    HW1 4184   0.938  -0.038  10.433
 1246SOL    HW2 4185   1.094  -0.002  10.464
 1247SOL     OW 4186   0.770   1.330   9.611
 1247SOL    HW1 4187   0.724   1.243   9.628
 1247SOL    HW2 4188   0.861   1.327   9.652
 1248SOL     OW 4189   0.618   1.567  10.594
 1248SOL    HW1 4190   0.613   1.649  10.651
 1248SOL    HW2 4191   0.707   1.564  10.549
 1249SOL     OW 4192   1.352   0.052   9.478
 1249SOL    HW1 4193   1.387   0.011   9.394
 1249SOL    HW2 4194   1.262   0.014   9.498
 1250SOL     OW 4195   1.300   0.453  10.001
 1250SOL    HW1 4196   1.241   0.533  10.005
 1250SOL    HW2 4197   1.315   0.418  10.094
 1251SOL     OW 4198   1.593   0.221  10.192
 1251SOL    HW1 4199   1.509   0.220  10.246
 1251SOL    HW2 4200   1.595   0.304  10.136
 1252SOL     OW 4201   0.039   1.077   9.610
 1252SOL    HW1 4202   0.138   1.066   9.601
 1252SOL    HW2 4203  -0.001   0.991   9.642
 1253SOL     OW 4204   0.875   1.646   9.647
 1253SOL    HW1 4205   0.798   1.611   9.593
 1253SOL    HW2 4206   0.843   1.717   9.709
 1254SOL     OW 4207   0.230   2.490   0.113
 1254SOL    HW1 4208   0.137   2.488   0.150
 1254SOL    HW2 4209   0.231   2.451   0.021
 1255SOL     OW 4210   0.225   2.137   0.996
 1255SOL    HW1 4211   0.260   2.120   1.088
 1255SOL    HW2 4212   0.137   2.092   0.984
 1256SOL     OW 4213   0.019   2.230   0.647
 1256SOL    HW1 4214  -0.063   2.273   0.686
 1256SOL    HW2 4215  -0.009   2.157   0.584
 1257SOL     OW 4216   0.569   3.137   1.165
 1257SOL    HW1 4217   0.476   3.130   1.128
 1257SOL    HW2 4218   0.580   3.226   1.209
 1258SOL     OW 4219   1.555   3.373   0.703
 1258SOL    HW1 4220   1.498   3.357   0.784
 1258SOL    HW2 4221   1.496   3.383   0.623
 1259SOL     OW 4222   1.135   2.565   0.717
 1259SOL    HW1 4223   1.192   2.643   0.692
 1259SOL    HW2 4224   1.075   2.591   0.793
 1260SOL     OW 4225   1.755   2.469   0.231
 1260SOL    HW1 4226   1.743   2.456   0.132
 1260SOL    HW2 4227   1.725   2.388   0.280
 1261SOL     OW 4228   0.768   3.006   1.023
 1261SOL    HW1 4229   0.690   3.023   1.083
 1261SOL    HW2 4230   0.802   3.093   0.987
 1262SOL     OW 4231   0.850   2.660   1.823
 1262SOL    HW1 4232   0.846   2.736   1.888
 1262SOL    HW2 4233   0.872   2.696   1.732
 1263SOL     OW 4234   0.685   2.874   0.665
 1263SOL    HW1 4235   0.754   2.858   0.735
 1263SOL    HW2 4236   0.612   2.931   0.703
 1264SOL     OW 4237   0.686   3.023   1.803
 1264SOL    HW1 4238   0.746   3.102   1.817
 1264SOL    HW2 4239   0.600   3.054   1.762
 1265SOL     OW 4240   0.335   3.297   1.061
 1265SOL    HW1 4241   0.257   3.266   1.008
 1265SOL    HW2 4242   0.393   3.355   1.004
 1266SOL     OW 4243   1.460   3.367   1.339
 1266SOL    HW1 4244   1.484   3.461   1.365
 1266SOL    HW2 4245   1.444   3.313   1.421
 1267SOL     OW 4246   0.438   2.254   1.499
 1267SOL    HW1 4247   0.520   2.198   1.508
 1267SOL    HW2 4248   0.357   2.196   1.503
 1268SOL     OW 4249   1.603   2.309   0.737
 1268SOL    HW1 4250   1.529   2.355   0.687
 1268SOL    HW2 4251   1.654   2.377   0.790
 1269SOL     OW 4252   0.231   3.575   0.483
 1269SOL    HW1 4253   0.265   3.652   0.537
 1269SOL    HW2 4254   0.275   3.575   0.393
 1270SOL     OW 4255   1.127   3.203   1.690
 1270SOL    HW1 4256   1.174   3.203   1.778
 1270SOL    HW2 4257   1.079   3.116   1.679
 1271SOL     OW 4258   0.230   3.296   0.538
 1271SOL    HW1 4259   0.204   3.392   0.538
 1271SOL    HW2 4260   0.159   3.242   0.583
 1272SOL     OW 4261   0.240   2.953   0.886
 1272SOL    HW1 4262   0.254   2.869   0.938
 1272SOL    HW2 4263   0.185   3.017   0.941
 1273SOL     OW 4264   0.620   3.648   1.439
 1273SOL    HW1 4265   0.528   3.631   1.474
 1273SOL    HW2 4266   0.648   3.740   1.465
 1274SOL     OW 4267   0.606   2.826   0.123
 1274SOL    HW1 4268   0.613   2.910   0.069
 1274SOL    HW2 4269   0.652   2.839   0.211
 1275SOL     OW 4270   1.594   1.976   1.480
 1275SOL    HW1 4271   1.576   2.043   1.408
 1275SOL    HW2 4272   1.591   2.022   1.569
 1276SOL     OW 4273   0.122   2.505   0.563
 1276SOL    HW1 4274   0.077   2.417   0.580
 1276SOL    HW2 4275   0.121   2.559   0.647
 1277SOL     OW 4276   1.842   3.629   0.359
 1277SOL    HW1 4277   1.896   3.600   0.439
 1277SOL    HW2 4278   1.872   3.719   0.330
 1278SOL     OW 4279   0.027   3.458   0.117
 1278SOL    HW1 4280   0.008   3.362   0.138
 1278SOL    HW2 4281  -0.006   3.516   0.192
 1279SOL     OW 4282   1.689   2.784   0.612
 1279SOL    HW1 4283   1.784   2.755   0.620
 1279SOL    HW2 4284   1.681   2.849   0.537
 1280SOL     OW 4285   1.641   2.970   0.432
 1280SOL    HW1 4286   1.727   2.972   0.380
 1280SOL    HW2 4287   1.655   3.017   0.520
 1281SOL     OW 4288   0.113   2.599   1.597
 1281SOL    HW1 4289   0.201   2.586   1.642
 1281SOL    HW2 4290   0.100   2.696   1.575
 1282SOL     OW 4291   0.613   3.227   0.726
 1282SOL    HW1 4292   0.564   3.140   0.735
 1282SOL    HW2 4293   0.590   3.270   0.639
 1283SOL     OW 4294   1.293   3.090   1.423
 1283SOL    HW1 4295   1.330   3.017   1.365
 1283SOL    HW2 4296   1.345   3.095   1.508
 1284SOL     OW 4297   0.809   1.866   0.502
 1284SOL    HW1 4298   0.849   1.957   0.493
 1284SOL    HW2 4299   0.709   1.874   0.508
 1285SOL     OW 4300   0.197   2.838   1.264
 1285SOL    HW1 4301   0.286   2.793   1.250
 1285SOL    HW2 4302   0.124   2.773   1.245
 1286SOL     OW 4303   1.525   2.861   0.190
 1286SOL    HW1 4304   1.462   2.785   0.203
 1286SOL    HW2 4305   1.573   2.879   0.276
 1287SOL     OW 4306   1.187   3.654   1.616
 1287SOL    HW1 4307   1.211   3.714   1.540
 1287SOL    HW2 4308   1.194   3.559   1.586
 1288SOL     OW 4309   0.317   2.113   1.801
 1288SOL    HW1 4310   0.388   2.184   1.807
 1288SOL    HW2 4311   0.229   2.152   1.829
 1289SOL     OW 4312   1.466   3.279   0.953
 1289SOL    HW1 4313   1.407   3.285   1.033
 1289SOL    HW2 4314   1.451   3.191   0.907
 1290SOL     OW 4315   1.667   3.576   0.572
 1290SOL    HW1 4316   1.626   3.553   0.484
 1290SOL    HW2 4317   1.649   3.502   0.637
 1291SOL     OW 4318   0.598   2.591   0.270
 1291SOL    HW1 4319   0.622   2.660   0.202
 1291SOL    HW2 4320   0.520   2.624   0.324
 1292SOL     OW 4321   1.281   2.207   0.944
 1292SOL    HW1 4322   1.195   2.157   0.931
 1292SOL    HW2 4323   1.343   2.153   1.000
 1293SOL     OW 4324   1.576   3.524   0.307
 1293SOL    HW1 4325   1.665   3.570   0.310
 1293SOL    HW2 4326   1.555   3.500   0.212
 1294SOL     OW 4327   0.807   2.467   1.465
 1294SOL    HW1 4328   0.760   2.464   1.554
 1294SOL    HW2 4329   0.756   2.412   1.399
 1295SOL     OW 4330   1.394   2.331   1.674
 1295SOL    HW1 4331   1.374   2.374   1.762
 1295SOL    HW2 4332   1.472   2.269   1.683
 1296SOL     OW 4333   0.973   2.752   1.572
 1296SOL    HW1 4334   1.019   2.668   1.543
 1296SOL    HW2 4335   0.917   2.786   1.497
 1297SOL     OW 4336   0.991   2.272   1.242
 1297SOL    HW1 4337   0.914   2.306   1.296
 1297SOL    HW2 4338   0.957   2.221   1.163
 1298SOL     OW 4339   1.041   2.563   0.429
 1298SOL    HW1 4340   1.067   2.559   0.525
 1298SOL    HW2 4341   0.956   2.512   0.415
 1299SOL     OW 4342   0.076   2.673   0.789
 1299SOL    HW1 4343   0.175   2.661   0.798
 1299SOL    HW2 4344   0.052   2.768   0.810
 1300SOL     OW 4345   0.130   3.683   1.571
 1300SOL    HW1 4346   0.120   3.668   1.670
 1300SOL    HW2 4347   0.044   3.719   1.535
 1301SOL     OW 4348   0.865   2.210   0.195
 1301SOL    HW1 4349   0.924   2.273   0.146
 1301SOL    HW2 4350   0.884   2.116   0.166
 1302SOL     OW 4351   1.719   2.447   1.831
 1302SOL    HW1 4352   1.693   2.536   1.795
 1302SOL    HW2 4353   1.717   2.379   1.758
 1303SOL     OW 4354   1.362   3.006   0.545
 1303SOL    HW1 4355   1.445   2.977   0.497
 1303SOL    HW2 4356   1.313   3.073   0.489
 1304SOL     OW 4357   0.550   2.058   0.885
 1304SOL    HW1 4358   0.545   2.053   0.985
 1304SOL    HW2 4359   0.552   2.154   0.856
 1305SOL     OW 4360   1.008   3.318   0.477
 1305SOL    HW1 4361   0.962   3.390   0.425
 1305SOL    HW2 4362   1.004   3.338   0.575
 1306SOL     OW 4363   0.351   3.663   0.853
 1306SOL    HW1 4364   0.401   3.577   0.859
 1306SOL    HW2 4365   0.416   3.740   0.850
 1307SOL     OW 4366   1.795   2.928   0.873
 1307SOL    HW1 4367   1.733   2.913   0.797
 1307SOL    HW2 4368   1.743   2.939   0.958
 1308SOL     OW 4369   1.227   3.412   1.506
 1308SOL    HW1 4370   1.233   3.335   1.570
 1308SOL    HW2 4371   1.175   3.386   1.426
 1309SOL     OW 4372   0.321   2.805   0.242
 1309SOL    HW1 4373   0.403   2.844   0.200
 1309SOL    HW2 4374   0.294   2.723   0.193
 1310SOL     OW 4375   1.458   2.597   0.728
 1310SOL    HW1 4376   1.453   2.532   0.803
 1310SOL    HW2 4377   1.538   2.656   0.741
 1311SOL     OW 4378   0.461   3.128   1.727
 1311SOL    HW1 4379   0.411   3.129   1.641
 1311SOL    HW2 4380   0.398   3.110   1.803
 1312SOL     OW 4381   1.111   3.638   0.237
 1312SOL    HW1 4382   1.051   3.576   0.287
 1312SOL    HW2 4383   1.142   3.594   0.152
 1313SOL     OW 4384   0.202   2.147   1.498
 1313SOL    HW1 4385   0.122   2.207   1.485
 1313SOL    HW2 4386   0.192   2.098   1.584
 1314SOL     OW 4387   1.632   3.239   0.081
 1314SOL    HW1 4388   1.600   3.333   0.071
 1314SOL    HW2 4389   1.556   3.176   0.069
 1315SOL     OW 4390   0.464   3.605   0.323
 1315SOL    HW1 4391   0.497   3.644   0.409
 1315SOL    HW2 4392   0.540   3.598   0.258
 1316SOL     OW 4393   1.400   1.969   0.426
 1316SOL    HW1 4394   1.376   1.932   0.336
 1316SOL    HW2 4395   1.499   1.985   0.430
 1317SOL     OW 4396   0.249   3.647   1.241
 1317SOL    HW1 4397   0.306   3.582   1.291
 1317SOL    HW2 4398   0.233   3.614   1.148
 1318SOL     OW 4399   0.940   3.560   0.904
 1318SOL    HW1 4400   1.020   3.503   0.925
 1318SOL    HW2 4401   0.891   3.520   0.827
 1319SOL     OW 4402   0.382   2.562   0.480
 1319SOL    HW1 4403   0.427   2.472   0.477
 1319SOL    HW2 4404   0.288   2.551   0.513
 1320SOL     OW 4405   1.547   2.084   1.729
 1320SOL    HW1 4406   1.542   2.121   1.821
 1320SOL    HW2 4407   1.475   2.015   1.717
 1321SOL     OW 4408   0.614   1.984   0.117
 1321SOL    HW1 4409   0.712   1.962   0.124
 1321SOL    HW2 4410   0.583   1.967   0.024
 1322SOL     OW 4411   0.781   2.126   1.749
 1322SOL    HW1 4412   0.848   2.065   1.792
 1322SOL    HW2 4413   0.708   2.145   1.814
 1323SOL     OW 4414   0.888   3.376   1.195
 1323SOL    HW1 4415   0.865   3.351   1.101
 1323SOL    HW2 4416   0.949   3.307   1.234
 1324SOL     OW 4417   1.351   2.452   1.433
 1324SOL    HW1 4418   1.379   2.409   1.518
 1324SOL    HW2 4419   1.376   2.548   1.434
 1325SOL     OW 4420   0.803   3.264   0.924
 1325SOL    HW1 4421   0.893   3.278   0.882
 1325SOL    HW2 4422   0.732   3.266   0.853
 1326SOL     OW 4423   0.922   2.365   0.899
 1326SOL    HW1 4424   0.897   2.356   0.803
 1326SOL    HW2 4425   0.970   2.283   0.930
 1327SOL     OW 4426   0.539   1.926   0.512
 1327SOL    HW1 4427   0.458   1.927   0.570
 1327SOL    HW2 4428   0.542   2.009   0.457
 1328SOL     OW 4429   1.434   3.050   0.041
 1328SOL    HW1 4430   1.466   2.974   0.098
 1328SOL    HW2 4431   1.342   3.077   0.071
 1329SOL     OW 4432   0.297   1.897   0.171
 1329SOL    HW1 4433   0.346   1.981   0.150
 1329SOL    HW2 4434   0.359   1.832   0.216
 1330SOL     OW 4435   0.935   2.098   0.480
 1330SOL    HW1 4436   0.887   2.139   0.402
 1330SOL    HW2 4437   1.034   2.096   0.461
 1331SOL     OW 4438   1.076   2.545   1.464
 1331SOL    HW1 4439   0.996   2.484   1.467
 1331SOL    HW2 4440   1.157   2.492   1.440
 1332SOL     OW 4441   1.227   3.432   0.793
 1332SOL    HW1 4442   1.248   3.506   0.728
 1332SOL    HW2 4443   1.295   3.432   0.866
 1333SOL     OW 4444   0.459   3.014   0.741
 1333SOL    HW1 4445   0.388   2.987   0.806
 1333SOL    HW2 4446   0.433   2.986   0.648
 1334SOL     OW 4447   1.271   3.659   0.591
 1334SOL    HW1 4448   1.315   3.723   0.527
 1334SOL    HW2 4449   1.221   3.711   0.661
 1335SOL     OW 4450   1.032   2.411   0.016
 1335SOL    HW1 4451   0.991   2.493  -0.023
 1335SOL    HW2 4452   1.096   2.437   0.089
 1336SOL     OW 4453   0.078   2.418   1.386
 1336SOL    HW1 4454   0.170   2.417   1.345
 1336SOL    HW2 4455   0.072   2.492   1.453
 1337SOL     OW 4456   0.561   2.084   1.147
 1337SOL    HW1 4457   0.599   2.000   1.184
 1337SOL    HW2 4458   0.473   2.103   1.191
 1338SOL     OW 4459   0.866   2.316   0.642
 1338SOL    HW1 4460   0.834   2.388   0.580
 1338SOL    HW2 4461   0.890   2.235   0.589
 1339SOL     OW 4462   1.017   1.901   0.753
 1339SOL    HW1 4463   0.945   1.906   0.684
 1339SOL    HW2 4464   0.993   1.832   0.822
 1340SOL     OW 4465   1.429   3.035   0.867
 1340SOL    HW1 4466   1.374   2.951   0.860
 1340SOL    HW2 4467   1.455   3.064   0.775
 1341SOL     OW 4468   1.466   2.452   0.992
 1341SOL    HW1 4469   1.436   2.357   0.999
 1341SOL    HW2 4470   1.539   2.468   1.058
 1342SOL     OW 4471   1.857   2.695   0.377
 1342SOL    HW1 4472   1.899   2.631   0.441
 1342SOL    HW2 4473   1.819   2.644   0.299
 1343SOL     OW 4474   0.488   3.247   0.174
 1343SOL    HW1 4475   0.401   3.232   0.221
 1343SOL    HW2 4476   0.471   3.273   0.079
 1344SOL     OW 4477   1.664   3.142   0.657
 1344SOL    HW1 4478   1.763   3.150   0.671
 1344SOL    HW2 4479   1.619   3.226   0.688
 1345SOL     OW 4480   1.390   2.437   0.078
 1345SOL    HW1 4481   1.336   2.416   0.159
 1345SOL    HW2 4482   1.481   2.396   0.087
 1346SOL     OW 4483   0.527   2.118   0.328
 1346SOL    HW1 4484   0.554   2.059   0.253
 1346SOL    HW2 4485   0.527   2.213   0.297
 1347SOL     OW 4486   1.754   3.085   1.588
 1347SOL    HW1 4487   1.845   3.046   1.575
 1347SOL    HW2 4488   1.762   3.181   1.612
 1348SOL     OW 4489   1.064   3.209   1.340
 1348SOL    HW1 4490   0.984   3.186   1.395
 1348SOL    HW2 4491   1.147   3.183   1.389
 1349SOL     OW 4492   1.592   3.491   1.625
 1349SOL    HW1 4493   1.619   3.525   1.535
 1349SOL    HW2 4494   1.671   3.453   1.671
 1350SOL     OW 4495   1.111   3.057   1.100
 1350SOL    HW1 4496   1.071   3.101   1.181
 1350SOL    HW2 4497   1.070   3.094   1.017
 1351SOL     OW 4498   1.638   2.961   1.079
 1351SOL    HW1 4499   1.643   3.042   1.138
 1351SOL    HW2 4500   1.552   2.963   1.028
 1352SOL     OW 4501   0.915   1.951   1.402
 1352SOL    HW1 4502   0.940   1.931   1.307
 1352SOL    HW2 4503   0.987   2.007   1.444
 1353SOL     OW 4504   0.980   2.978   1.719
 1353SOL    HW1 4505   0.881   2.984   1.729
 1353SOL    HW2 4506   1.003   2.898   1.663
 1354SOL     OW 4507   0.705   2.912   0.368
 1354SOL    HW1 4508   0.691   2.919   0.467
 1354SOL    HW2 4509   0.789   2.861   0.350
 1355SOL     OW 4510   0.410   2.675   1.251
 1355SOL    HW1 4511   0.496   2.687   1.301
 1355SOL    HW2 4512   0.368   2.588   1.278
 1356SOL     OW 4513   1.274   2.248   1.262
 1356SOL    HW1 4514   1.295   2.322   1.326
 1356SOL    HW2 4515   1.185   2.265   1.219
 1357SOL     OW 4516   0.064   3.426   1.331
 1357SOL    HW1 4517   0.018   3.508   1.297
 1357SOL    HW2 4518   0.162   3.445   1.340
 1358SOL     OW 4519   0.367   2.962   0.501
 1358SOL    HW1 4520   0.360   3.045   0.445
 1358SOL    HW2 4521   0.371   2.882   0.441
 1359SOL     OW 4522   0.566   2.399   0.865
 1359SOL    HW1 4523   0.578   2.465   0.791
 1359SOL    HW2 4524   0.612   2.433   0.948
 1360SOL     OW 4525   1.252   3.210   0.388
 1360SOL    HW1 4526   1.302   3.287   0.428
 1360SOL    HW2 4527   1.157   3.212   0.420
 1361SOL     OW 4528   1.272   3.307   1.142
 1361SOL    HW1 4529   1.319   3.320   1.229
 1361SOL    HW2 4530   1.206   3.233   1.151
 1362SOL     OW 4531   1.582   2.501   0.472
 1362SOL    HW1 4532   1.551   2.562   0.545
 1362SOL    HW2 4533   1.632   2.553   0.403
 1363SOL     OW 4534   0.354   3.372   1.329
 1363SOL    HW1 4535   0.333   3.328   1.242
 1363SOL    HW2 4536   0.451   3.398   1.332
 1364SOL     OW 4537   0.402   2.613   1.598
 1364SOL    HW1 4538   0.470   2.668   1.551
 1364SOL    HW2 4539   0.442   2.525   1.625
 1365SOL     OW 4540   1.587   2.641   1.670
 1365SOL    HW1 4541   1.495   2.679   1.665
 1365SOL    HW2 4542   1.647   2.688   1.605
 1366SOL     OW 4543   1.013   1.967   1.770
 1366SOL    HW1 4544   1.019   2.052   1.718
 1366SOL    HW2 4545   1.045   1.891   1.713
 1367SOL     OW 4546   0.504   1.912   1.740
 1367SOL    HW1 4547   0.462   1.855   1.670
 1367SOL    HW2 4548   0.438   1.981   1.772
 1368SOL     OW 4549   0.573   2.732   1.029
 1368SOL    HW1 4550   0.617   2.821   1.020
 1368SOL    HW2 4551   0.510   2.732   1.106
 1369SOL     OW 4552   1.360   2.724   1.045
 1369SOL    HW1 4553   1.285   2.724   0.979
 1369SOL    HW2 4554   1.397   2.632   1.054
 1370SOL     OW 4555   1.209   2.387   0.275
 1370SOL    HW1 4556   1.222   2.303   0.329
 1370SOL    HW2 4557   1.180   2.461   0.335
 1371SOL     OW 4558   0.307   2.075   1.231
 1371SOL    HW1 4559   0.284   2.112   1.321
 1371SOL    HW2 4560   0.277   1.980   1.225
 1372SOL     OW 4561   0.037   3.172   1.282
 1372SOL    HW1 4562   0.090   3.123   1.350
 1372SOL    HW2 4563   0.059   3.270   1.287
 1373SOL     OW 4564   0.732   2.496   1.064
 1373SOL    HW1 4565   0.791   2.470   0.988
 1373SOL    HW2 4566   0.704   2.592   1.053
 1374SOL     OW 4567   1.728   2.797   1.854
 1374SOL    HW1 4568   1.682   2.790   1.765
 1374SOL    HW2 4569   1.666   2.841   1.920
 1375SOL     OW 4570   0.307   1.925   0.618
 1375SOL    HW1 4571   0.296   2.019   0.651
 1375SOL    HW2 4572   0.302   1.862   0.695
 1376SOL     OW 4573   1.622   2.229   0.374
 1376SOL    HW1 4574   1.624   2.153   0.438
 1376SOL    HW2 4575   1.574   2.306   0.414
 1377SOL     OW 4576   1.023   2.628   0.966
 1377SOL    HW1 4577   1.038   2.649   1.062
 1377SOL    HW2 4578   0.993   2.533   0.957
 1378SOL     OW 4579   0.980   3.435   1.700
 1378SOL    HW1 4580   0.960   3.479   1.612
 1378SOL    HW2 4581   1.019   3.344   1.684
 1379SOL     OW 4582   1.859   3.380   1.605
 1379SOL    HW1 4583   1.873   3.407   1.510
 1379SOL    HW2 4584   1.942   3.402   1.658
 1380SOL     OW 4585   0.350   2.760   1.804
 1380SOL    HW1 4586   0.426   2.804   1.852
 1380SOL    HW2 4587   0.385   2.713   1.722
 1381SOL     OW 4588   1.540   2.136   0.125
 1381SOL    HW1 4589   1.479   2.061   0.148
 1381SOL    HW2 4590   1.562   2.188   0.208
 1382SOL     OW 4591   1.303   2.700   0.042
 1382SOL    HW1 4592   1.337   2.607   0.057
 1382SOL    HW2 4593   1.321   2.727  -0.053
 1383SOL     OW 4594   1.068   3.195   0.849
 1383SOL    HW1 4595   1.075   3.111   0.794
 1383SOL    HW2 4596   1.130   3.264   0.813
 1384SOL     OW 4597   0.319   2.672   0.949
 1384SOL    HW1 4598   0.412   2.708   0.954
 1384SOL    HW2 4599   0.313   2.587   1.001
 1385SOL     OW 4600   0.339   2.371   1.006
 1385SOL    HW1 4601   0.287   2.288   0.989
 1385SOL    HW2 4602   0.416   2.376   0.942
 1386SOL     OW 4603   1.138   2.242   1.678
 1386SOL    HW1 4604   1.093   2.305   1.742
 1386SOL    HW2 4605   1.231   2.273   1.661
 1387SOL     OW 4606   1.160   2.069   1.477
 1387SOL    HW1 4607   1.160   2.133   1.554
 1387SOL    HW2 4608   1.188   2.117   1.394
 1388SOL     OW 4609   0.008   3.188   0.200
 1388SOL    HW1 4610  -0.085   3.209   0.169
 1388SOL    HW2 4611   0.018   3.089   0.213
 1389SOL     OW 4612   0.088   3.663   0.927
 1389SOL    HW1 4613   0.046   3.577   0.900
 1389SOL    HW2 4614   0.182   3.666   0.893
 1390SOL     OW 4615   0.504   3.430   0.910
 1390SOL    HW1 4616   0.570   3.504   0.919
 1390SOL    HW2 4617   0.548   3.351   0.868
 1391SOL     OW 4618   1.002   2.658   1.238
 1391SOL    HW1 4619   1.043   2.626   1.324
 1391SOL    HW2 4620   0.906   2.631   1.235
 1392SOL     OW 4621   0.040   2.406   1.114
 1392SOL    HW1 4622   0.125   2.373   1.073
 1392SOL    HW2 4623   0.053   2.421   1.212
 1393SOL     OW 4624   0.189   2.382   1.722
 1393SOL    HW1 4625   0.248   2.342   1.652
 1393SOL    HW2 4626   0.131   2.453   1.681
 1394SOL     OW 4627   1.369   2.812   1.660
 1394SOL    HW1 4628   1.408   2.901   1.680
 1394SOL    HW2 4629   1.379   2.792   1.563
 1395SOL     OW 4630   0.815   2.434   0.325
 1395SOL    HW1 4631   0.822   2.345   0.279
 1395SOL    HW2 4632   0.721   2.468   0.317
 1396SOL     OW 4633   1.657   2.466   1.206
 1396SOL    HW1 4634   1.619   2.397   1.268
 1396SOL    HW2 4635   1.739   2.430   1.162
 1397SOL     OW 4636   0.252   3.426   1.744
 1397SOL    HW1 4637   0.222   3.483   1.820
 1397SOL    HW2 4638   0.245   3.329   1.770
 1398SOL     OW 4639   0.671   2.326   1.269
 1398SOL    HW1 4640   0.637   2.237   1.239
 1398SOL    HW2 4641   0.697   2.380   1.189
 1399SOL     OW 4642   0.930   3.540   1.465
 1399SOL    HW1 4643   0.906   3.522   1.370
 1399SOL    HW2 4644   0.960   3.634   1.475
 1400SOL     OW 4645   0.473   2.362   0.191
 1400SOL    HW1 4646   0.534   2.442   0.195
 1400SOL    HW2 4647   0.378   2.393   0.198
 1401SOL     OW 4648   0.159   2.999   1.466
 1401SOL    HW1 4649   0.181   2.938   1.542
 1401SOL    HW2 4650   0.169   2.950   1.380
 1402SOL     OW 4651   1.347   2.921   1.234
 1402SOL    HW1 4652   1.371   2.858   1.160
 1402SOL    HW2 4653   1.257   2.961   1.216
 1403SOL     OW 4654   1.302   2.717   0.309
 1403SOL    HW1 4655   1.216   2.686   0.351
 1403SOL    HW2 4656   1.298   2.703   0.210
 1404SOL     OW 4657   1.759   3.609   1.154
 1404SOL    HW1 4658   1.820   3.639   1.081
 1404SOL    HW2 4659   1.721   3.520   1.132
 1405SOL     OW 4660   1.252   3.593   1.128
 1405SOL    HW1 4661   1.336   3.598   1.074
 1405SOL    HW2 4662   1.229   3.497   1.146
 1406SOL     OW 4663   0.083   3.120   1.022
 1406SOL    HW1 4664   0.078   3.119   1.122
 1406SOL    HW2 4665   0.000   3.079   0.984
 1407SOL     OW 4666   0.688   3.524   1.716
 1407SOL    HW1 4667   0.632   3.605   1.725
 1407SOL    HW2 4668   0.740   3.528   1.630
 1408SOL     OW 4669   0.903   1.948   0.133
 1408SOL    HW1 4670   0.954   1.949   0.047
 1408SOL    HW2 4671   0.959   1.906   0.204
 1409SOL     OW 4672   1.726   1.997   0.523
 1409SOL    HW1 4673   1.799   1.980   0.456
 1409SOL    HW2 4674   1.695   1.910   0.561
 1410SOL     OW 4675   1.388   3.435   0.477
 1410SOL    HW1 4676   1.455   3.447   0.403
 1410SOL    HW2 4677   1.348   3.524   0.500
 1411SOL     OW 4678   0.130   3.656   1.851
 1411SOL    HW1 4679   0.089   3.582   1.904
 1411SOL    HW2 4680   0.194   3.707   1.909
 1412SOL     OW 4681   1.280   2.789   0.672
 1412SOL    HW1 4682   1.340   2.708   0.674
 1412SOL    HW2 4683   1.320   2.858   0.612
 1413SOL     OW 4684   0.830   3.135   1.422
 1413SOL    HW1 4685   0.825   3.168   1.517
 1413SOL    HW2 4686   0.744   3.154   1.376
 1414SOL     OW 4687   0.672   3.478   0.154
 1414SOL    HW1 4688   0.681   3.488   0.055
 1414SOL    HW2 4689   0.632   3.389   0.175
 1415SOL     OW 4690   1.650   3.582   1.394
 1415SOL    HW1 4691   1.703   3.592   1.310
 1415SOL    HW2 4692   1.623   3.672   1.428
 1416SOL     OW 4693   1.841   2.037   0.963
 1416SOL    HW1 4694   1.880   1.952   0.927
 1416SOL    HW2 4695   1.743   2.039   0.944
 1417SOL     OW 4696   0.263   2.188   0.720
 1417SOL    HW1 4697   0.184   2.239   0.686
 1417SOL    HW2 4698   0.254   2.173   0.818
 1418SOL     OW 4699   1.194   3.474   0.031
 1418SOL    HW1 4700   1.200   3.381   0.068
 1418SOL    HW2 4701   1.135   3.474  -0.049
 1419SOL     OW 4702   0.822   2.864   1.372
 1419SOL    HW1 4703   0.862   2.863   1.280
 1419SOL    HW2 4704   0.832   2.956   1.412
 1420SOL     OW 4705   0.916   2.772   0.291
 1420SOL    HW1 4706   0.979   2.810   0.223
 1420SOL    HW2 4707   0.956   2.689   0.330
 1421SOL     OW 4708   1.504   3.469   0.044
 1421SOL    HW1 4709   1.412   3.506   0.051
 1421SOL    HW2 4710   1.542   3.489  -0.046
 1422SOL     OW 4711   0.372   3.150   1.490
 1422SOL    HW1 4712   0.359   3.243   1.456
 1422SOL    HW2 4713   0.288   3.098   1.477
 1423SOL     OW 4714   1.614   3.154   1.289
 1423SOL    HW1 4715   1.674   3.157   1.369
 1423SOL    HW2 4716   1.539   3.218   1.302
 1424SOL     OW 4717   1.039   2.960   0.696
 1424SOL    HW1 4718   0.969   2.913   0.750
 1424SOL    HW2 4719   1.098   2.892   0.653
 1425SOL     OW 4720   1.014   2.098   0.971
 1425SOL    HW1 4721   1.006   2.062   0.878
 1425SOL    HW2 4722   1.012   2.022   1.036
 1426SOL     OW 4723   0.590   3.349   0.491
 1426SOL    HW1 4724   0.632   3.291   0.421
 1426SOL    HW2 4725   0.546   3.428   0.447
 1427SOL     OW 4726   1.709   2.247   1.381
 1427SOL    HW1 4727   1.782   2.316   1.385
 1427SOL    HW2 4728   1.737   2.172   1.322
 1428SOL     OW 4729   0.255   3.210   0.290
 1428SOL    HW1 4730   0.159   3.211   0.263
 1428SOL    HW2 4731   0.267   3.263   0.374
 1429SOL     OW 4732   0.105   2.875   1.726
 1429SOL    HW1 4733   0.028   2.842   1.780
 1429SOL    HW2 4734   0.190   2.845   1.768
 1430SOL     OW 4735   0.672   2.065   1.489
 1430SOL    HW1 4736   0.762   2.049   1.449
 1430SOL    HW2 4737   0.680   2.070   1.588
 1431SOL     OW 4738   0.075   2.207   0.033
 1431SOL    HW1 4739  -0.017   2.179   0.004
 1431SOL    HW2 4740   0.106   2.284  -0.023
 1432SOL     OW 4741   1.440   2.718   1.398
 1432SOL    HW1 4742   1.383   2.770   1.335
 1432SOL    HW2 4743   1.536   2.730   1.374
 1433SOL     OW 4744   0.072   2.028   0.318
 1433SOL    HW1 4745   0.055   2.111   0.264
 1433SOL    HW2 4746   0.162   1.991   0.296
 1434SOL     OW 4747   1.183   3.197   0.119
 1434SOL    HW1 4748   1.084   3.186   0.121
 1434SOL    HW2 4749   1.217   3.212   0.212
 1435SOL     OW 4750   0.613   2.704   1.431
 1435SOL    HW1 4751   0.669   2.785   1.414
 1435SOL    HW2 4752   0.672   2.624   1.434
 1436SOL     OW 4753   1.493   3.629   0.959
 1436SOL    HW1 4754   1.526   3.693   0.890
 1436SOL    HW2 4755   1.559   3.623   1.034
 1437SOL     OW 4756   0.716   2.427   1.708
 1437SOL    HW1 4757   0.735   2.492   1.782
 1437SOL    HW2 4758   0.776   2.347   1.717
 1438SOL     OW 4759   1.450   3.082   1.633
 1438SOL    HW1 4760   1.441   3.072   1.732
 1438SOL    HW2 4761   1.546   3.075   1.607
 1439SOL     OW 4762   0.390   3.603   1.560
 1439SOL    HW1 4763   0.299   3.644   1.558
 1439SOL    HW2 4764   0.383   3.509   1.592
 1440SOL     OW 4765   1.674   2.745   1.254
 1440SOL    HW1 4766   1.647   2.656   1.217
 1440SOL    HW2 4767   1.675   2.813   1.181
 1441SOL     OW 4768   1.225   2.187   0.449
 1441SOL    HW1 4769   1.290   2.113   0.438
 1441SOL    HW2 4770   1.245   2.237   0.533
 1442SOL     OW 4771   0.594   2.607   0.652
 1442SOL    HW1 4772   0.644   2.692   0.633
 1442SOL    HW2 4773   0.506   2.609   0.604
 1443SOL     OW 4774   1.777   2.204   1.642
 1443SOL    HW1 4775   1.760   2.235   1.548
 1443SOL    HW2 4776   1.693   2.167   1.680
 1444SOL     OW 4777   1.730   2.796   1.517
 1444SOL    HW1 4778   1.768   2.887   1.532
 1444SOL    HW2 4779   1.722   2.779   1.418
 1445SOL     OW 4780   0.859   3.236   0.016
 1445SOL    HW1 4781   0.813   3.251   0.104
 1445SOL    HW2 4782   0.903   3.321  -0.014
 1446SOL     OW 4783   0.661   3.652   0.953
 1446SOL    HW1 4784   0.615   3.740   0.940
 1446SOL    HW2 4785   0.760   3.664   0.946
 1447SOL     OW 4786   0.859   2.818   0.861
 1447SOL    HW1 4787   0.913   2.749   0.909
 1447SOL    HW2 4788   0.827   2.887   0.927
 1448SOL     OW 4789   1.083   2.846   0.087
 1448SOL    HW1 4790   1.060   2.899   0.005
 1448SOL    HW2 4791   1.164   2.790   0.068
 1449SOL     OW 4792   1.861   3.431   0.851
 1449SOL    HW1 4793   1.790   3.419   0.781
 1449SOL    HW2 4794   1.862   3.352   0.911
 1450SOL     OW 4795   0.221   3.176   1.844
 1450SOL    HW1 4796   0.156   3.103   1.823
 1450SOL    HW2 4797   0.225   3.190   1.942
 1451SOL     OW 4798   0.079   3.102   0.653
 1451SOL    HW1 4799   0.078   3.055   0.741
 1451SOL    HW2 4800   0.161   3.074   0.602
 1452SOL     OW 4801   0.672   3.253   1.624
 1452SOL    HW1 4802   0.594   3.203   1.662
 1452SOL    HW2 4803   0.669   3.348   1.655
 1453SOL     OW 4804   1.824   2.054   1.227
 1453SOL    HW1 4805   1.820   1.964   1.271
 1453SOL    HW2 4806   1.827   2.043   1.128
 1454SOL     OW 4807   0.428   2.286   0.520
 1454SOL    HW1 4808   0.458   2.214   0.458
 1454SOL    HW2 4809   0.389   2.246   0.603
 1455SOL     OW 4810   1.705   3.349   1.104
 1455SOL    HW1 4811   1.612   3.324   1.077
 1455SOL    HW2 4812   1.731   3.299   1.186
 1456SOL     OW 4813   0.317   2.409   1.280
 1456SOL    HW1 4814   0.355   2.350   1.352
 1456SOL    HW2 4815   0.357   2.383   1.192
 1457SOL     OW 4816   0.812   3.448   0.687
 1457SOL    HW1 4817   0.844   3.458   0.593
 1457SOL    HW2 4818   0.733   3.386   0.689
 1458SOL     OW 4819   1.424   2.076   1.112
 1458SOL    HW1 4820   1.476   2.011   1.167
 1458SOL    HW2 4821   1.375   2.139   1.173
 1459SOL     OW 4822   1.001   1.896   1.154
 1459SOL    HW1 4823   0.938   1.824   1.123
 1459SOL    HW2 4824   1.094   1.860   1.154
 1460SOL     OW 4825   0.770   3.192   0.301
 1460SOL    HW1 4826   0.724   3.105   0.318
 1460SOL    HW2 4827   0.861   3.189   0.342
 1461SOL     OW 4828   0.618   3.429   1.284
 1461SOL    HW1 4829   0.613   3.511   1.341
 1461SOL    HW2 4830   0.707   3.426   1.239
 1462SOL     OW 4831   1.352   1.914   0.168
 1462SOL    HW1 4832   1.387   1.873   0.084
 1462SOL    HW2 4833   1.262   1.876   0.188
 1463SOL     OW 4834   1.300   2.315   0.691
 1463SOL    HW1 4835   1.241   2.395   0.695
 1463SOL    HW2 4836   1.315   2.280   0.784
 1464SOL     OW 4837   1.593   2.083   0.882
 1464SOL    HW1 4838   1.509   2.082   0.936
 1464SOL    HW2 4839   1.595   2.166   0.826
 1465SOL     OW 4840   0.039   2.939   0.300
 1465SOL    HW1 4841   0.138   2.928   0.291
 1465SOL    HW2 4842  -0.001   2.853   0.332
 1466SOL     OW 4843   0.875   3.508   0.337
 1466SOL    HW1 4844   0.798   3.473   0.283
 1466SOL    HW2 4845   0.843   3.579   0.399
 1467SOL     OW 4846   0.230   2.490   1.975
 1467SOL    HW1 4847   0.137   2.488   2.012
 1467SOL    HW2 4848   0.231   2.451   1.883
 1468SOL     OW 4849   0.225   2.137   2.858
 1468SOL    HW1 4850   0.260   2.120   2.950
 1468SOL    HW2 4851   0.137   2.092   2.846
 1469SOL     OW 4852   0.019   2.230   2.509
 1469SOL    HW1 4853  -0.063   2.273   2.548
 1469SOL    HW2 4854  -0.009   2.157   2.446
 1470SOL     OW 4855   0.569   3.137   3.027
 1470SOL    HW1 4856   0.476   3.130   2.990
 1470SOL    HW2 4857   0.580   3.226   3.071
 1471SOL     OW 4858   1.555   3.373   2.565
 1471SOL    HW1 4859   1.498   3.357   2.646
 1471SOL    HW2 4860   1.496   3.383   2.485
 1472SOL     OW 4861   1.135   2.565   2.579
 1472SOL    HW1 4862   1.192   2.643   2.554
 1472SOL    HW2 4863   1.075   2.591   2.655
 1473SOL     OW 4864   1.755   2.469   2.093
 1473SOL    HW1 4865   1.743   2.456   1.994
 1473SOL    HW2 4866   1.725   2.388   2.142
 1474SOL     OW 4867   0.768   3.006   2.885
 1474SOL    HW1 4868   0.690   3.023   2.945
 1474SOL    HW2 4869   0.802   3.093   2.849
 1475SOL     OW 4870   0.850   2.660   3.685
 1475SOL    HW1 4871   0.846   2.736   3.750
 1475SOL    HW2 4872   0.872   2.696   3.594
 1476SOL     OW 4873   0.685   2.874   2.527
 1476SOL    HW1 4874   0.754   2.858   2.597
 1476SOL    HW2 4875   0.612   2.931   2.565
 1477SOL     OW 4876   0.686   3.023   3.665
 1477SOL    HW1 4877   0.746   3.102   3.679
 1477SOL    HW2 4878   0.600   3.054   3.624
 1478SOL     OW 4879   0.335   3.297   2.923
 1478SOL    HW1 4880   0.257   3.266   2.870
 1478SOL    HW2 4881   0.393   3.355   2.866
 1479SOL     OW 4882   1.460   3.367   3.201
 1479SOL    HW1 4883   1.484   3.461   3.227
 1479SOL    HW2 4884   1.444   3.313   3.283
 1480SOL     OW 4885   0.438   2.254   3.361
 1480SOL    HW1 4886   0.520   2.198   3.370
 1480SOL    HW2 4887   0.357   2.196   3.365
 1481SOL     OW 4888   1.603   2.309   2.599
 1481SOL    HW1 4889   1.529   2.355   2.549
 1481SOL    HW2 4890   1.654   2.377   2.652
 1482SOL     OW 4891   0.231   3.575   2.345
 1482SOL    HW1 4892   0.265   3.652   2.399
 1482SOL    HW2 4893   0.275   3.575   2.255
 1483SOL     OW 4894   1.127   3.203   3.552
 1483SOL    HW1 4895   1.174   3.203   3.640
 1483SOL    HW2 4896   1.079   3.116   3.541
 1484SOL     OW 4897   0.230   3.296   2.400
 1484SOL    HW1 4898   0.204   3.392   2.400
 1484SOL    HW2 4899   0.159   3.242   2.445
 1485SOL     OW 4900   0.240   2.953   2.748
 1485SOL    HW1 4901   0.254   2.869   2.800
 1485SOL    HW2 4902   0.185   3.017   2.803
 1486SOL     OW 4903   0.620   3.648   3.301
 1486SOL    HW1 4904   0.528   3.631   3.336
 1486SOL    HW2 4905   0.648   3.740   3.327
 1487SOL     OW 4906   0.606   2.826   1.985
 1487SOL    HW1 4907   0.613   2.910   1.931
 1487SOL    HW2 4908   0.652   2.839   2.073
 1488SOL     OW 4909   1.594   1.976   3.342
 1488SOL    HW1 4910   1.576   2.043   3.270
 1488SOL    HW2 4911   1.591   2.022   3.431
 1489SOL     OW 4912   0.122   2.505   2.425
 1489SOL    HW1 4913   0.077   2.417   2.442
 1489SOL    HW2 4914   0.121   2.559   2.509
 1490SOL     OW 4915   1.842   3.629   2.221
 1490SOL    HW1 4916   1.896   3.600   2.301
 1490SOL    HW2 4917   1.872   3.719   2.192
 1491SOL     OW 4918   0.027   3.458   1.979
 1491SOL    HW1 4919   0.008   3.362   2.000
 1491SOL    HW2 4920  -0.006   3.516   2.054
 1492SOL     OW 4921   1.689   2.784   2.474
 1492SOL    HW1 4922   1.784   2.755   2.482
 1492SOL    HW2 4923   1.681   2.849   2.399
 1493SOL     OW 4924   1.641   2.970   2.294
 1493SOL    HW1 4925   1.727   2.972   2.242
 1493SOL    HW2 4926   1.655   3.017   2.382
 1494SOL     OW 4927   0.113   2.599   3.459
 1494SOL    HW1 4928   0.201   2.586   3.504
 1494SOL    HW2 4929   0.100   2.696   3.437
 1495SOL     OW 4930   0.613   3.227   2.588
 1495SOL    HW1 4931   0.564   3.140   2.597
 1495SOL    HW2 4932   0.590   3.270   2.501
 1496SOL     OW 4933   1.293   3.090   3.285
 1496SOL    HW1 4934   1.330   3.017   3.227
 1496SOL    HW2 4935   1.345   3.095   3.370
 1497SOL     OW 4936   0.809   1.866   2.364
 1497SOL    HW1 4937   0.849   1.957   2.355
 1497SOL    HW2 4938   0.709   1.874   2.370
 1498SOL     OW 4939   0.197   2.838   3.126
 1498SOL    HW1 4940   0.286   2.793   3.112
 1498SOL    HW2 4941   0.124   2.773   3.107
 1499SOL     OW 4942   1.525   2.861   2.052
 1499SOL    HW1 4943   1.462   2.785   2.065
 1499SOL    HW2 4944   1.573   2.879   2.138
 1500SOL     OW 4945   1.187   3.654   3.478
 1500SOL    HW1 4946   1.211   3.714   3.402
 1500SOL    HW2 4947   1.194   3.559   3.448
 1501SOL     OW 4948   0.317   2.113   3.663
 1501SOL    HW1 4949   0.388   2.184   3.669
 1501SOL    HW2 4950   0.229   2.152   3.691
 1502SOL     OW 4951   1.466   3.279   2.815
 1502SOL    HW1 4952   1.407   3.285   2.895
 1502SOL    HW2 4953   1.451   3.191   2.769
 1503SOL     OW 4954   1.667   3.576   2.434
 1503SOL    HW1 4955   1.626   3.553   2.346
 1503SOL    HW2 4956   1.649   3.502   2.499
 1504SOL     OW 4957   0.598   2.591   2.132
 1504SOL    HW1 4958   0.622   2.660   2.064
 1504SOL    HW2 4959   0.520   2.624   2.186
 1505SOL     OW 4960   1.281   2.207   2.806
 1505SOL    HW1 4961   1.195   2.157   2.793
 1505SOL    HW2 4962   1.343   2.153   2.862
 1506SOL     OW 4963   1.576   3.524   2.169
 1506SOL    HW1 4964   1.665   3.570   2.172
 1506SOL    HW2 4965   1.555   3.500   2.074
 1507SOL     OW 4966   0.807   2.467   3.327
 1507SOL    HW1 4967   0.760   2.464   3.416
 1507SOL    HW2 4968   0.756   2.412   3.261
 1508SOL     OW 4969   1.394   2.331   3.536
 1508SOL    HW1 4970   1.374   2.374   3.624
 1508SOL    HW2 4971   1.472   2.269   3.545
 1509SOL     OW 4972   0.973   2.752   3.434
 1509SOL    HW1 4973   1.019   2.668   3.405
 1509SOL    HW2 4974   0.917   2.786   3.359
 1510SOL     OW 4975   0.991   2.272   3.104
 1510SOL    HW1 4976   0.914   2.306   3.158
 1510SOL    HW2 4977   0.957   2.221   3.025
 1511SOL     OW 4978   1.041   2.563   2.291
 1511SOL    HW1 4979   1.067   2.559   2.387
 1511SOL    HW2 4980   0.956   2.512   2.277
 1512SOL     OW 4981   0.076   2.673   2.651
 1512SOL    HW1 4982   0.175   2.661   2.660
 1512SOL    HW2 4983   0.052   2.768   2.672
 1513SOL     OW 4984   0.130   3.683   3.433
 1513SOL    HW1 4985   0.120   3.668   3.532
 1513SOL    HW2 4986   0.044   3.719   3.397
 1514SOL     OW 4987   0.865   2.210   2.057
 1514SOL    HW1 4988   0.924   2.273   2.008
 1514SOL    HW2 4989   0.884   2.116   2.028
 1515SOL     OW 4990   1.719   2.447   3.693
 1515SOL    HW1 4991   1.693   2.536   3.657
 1515SOL    HW2 4992   1.717   2.379   3.620
 1516SOL     OW 4993   1.362   3.006   2.407
 1516SOL    HW1 4994   1.445   2.977   2.359
 1516SOL    HW2 4995   1.313   3.073   2.351
 1517SOL     OW 4996   0.550   2.058   2.747
 1517SOL    HW1 4997   0.545   2.053   2.847
 1517SOL    HW2 4998   0.552   2.154   2.718
 1518SOL     OW 4999   1.008   3.318   2.339
 1518SOL    HW1 5000   0.962   3.390   2.287
 1518SOL    HW2 5001   1.004   3.338   2.437
 1519SOL     OW 5002   0.351   3.663   2.715
 1519SOL    HW1 5003   0.401   3.577   2.721
 1519SOL    HW2 5004   0.416   3.740   2.712
 1520SOL     OW 5005   1.795   2.928   2.735
 1520SOL    HW1 5006   1.733   2.913   2.659
 1520SOL    HW2 5007   1.743   2.939   2.820
 1521SOL     OW 5008   1.227   3.412   3.368
 1521SOL    HW1 5009   1.233   3.335   3.432
 1521SOL    HW2 5010   1.175   3.386   3.288
 1522SOL     OW 5011   0.321   2.805   2.104
 1522SOL    HW1 5012   0.403   2.844   2.062
 1522SOL    HW2 5013   0.294   2.723   2.055
 1523SOL     OW 5014   1.458   2.597   2.590
 1523SOL    HW1 5015   1.453   2.532   2.665
 1523SOL    HW2 5016   1.538   2.656   2.603
 1524SOL     OW 5017   0.461   3.128   3.589
 1524SOL    HW1 5018   0.411   3.129   3.503
 1524SOL    HW2 5019   0.398   3.110   3.665
 1525SOL     OW 5020   1.111   3.638   2.099
 1525SOL    HW1 5021   1.051   3.576   2.149
 1525SOL    HW2 5022   1.142   3.594   2.014
 1526SOL     OW 5023   0.202   2.147   3.360
 1526SOL    HW1 5024   0.122   2.207   3.347
 1526SOL    HW2 5025   0.192   2.098   3.446
 1527SOL     OW 5026   1.632   3.239   1.943
 1527SOL    HW1 5027   1.600   3.333   1.933
 1527SOL    HW2 5028   1.556   3.176   1.931
 1528SOL     OW 5029   0.464   3.605   2.185
 1528SOL    HW1 5030   0.497   3.644   2.271
 1528SOL    HW2 5031   0.540   3.598   2.120
 1529SOL     OW 5032   1.400   1.969   2.288
 1529SOL    HW1 5033   1.376   1.932   2.198
 1529SOL    HW2 5034   1.499   1.985   2.292
 1530SOL     OW 5035   0.249   3.647   3.103
 1530SOL    HW1 5036   0.306   3.582   3.153
 1530SOL    HW2 5037   0.233   3.614   3.010
 1531SOL     OW 5038   0.940   3.560   2.766
 1531SOL    HW1 5039   1.020   3.503   2.787
 1531SOL    HW2 5040   0.891   3.520   2.689
 1532SOL     OW 5041   0.382   2.562   2.342
 1532SOL    HW1 5042   0.427   2.472   2.339
 1532SOL    HW2 5043   0.288   2.551   2.375
 1533SOL     OW 5044   1.547   2.084   3.591
 1533SOL    HW1 5045   1.542   2.121   3.683
 1533SOL    HW2 5046   1.475   2.015   3.579
 1534SOL     OW 5047   0.614   1.984   1.979
 1534SOL    HW1 5048   0.712   1.962   1.986
 1534SOL    HW2 5049   0.583   1.967   1.886
 1535SOL     OW 5050   0.781   2.126   3.611
 1535SOL    HW1 5051   0.848   2.065   3.654
 1535SOL    HW2 5052   0.708   2.145   3.676
 1536SOL     OW 5053   0.888   3.376   3.057
 1536SOL    HW1 5054   0.865   3.351   2.963
 1536SOL    HW2 5055   0.949   3.307   3.096
 1537SOL     OW 5056   1.351   2.452   3.295
 1537SOL    HW1 5057   1.379   2.409   3.380
 1537SOL    HW2 5058   1.376   2.548   3.296
 1538SOL     OW 5059   0.803   3.264   2.786
 1538SOL    HW1 5060   0.893   3.278   2.744
 1538SOL    HW2 5061   0.732   3.266   2.715
 1539SOL     OW 5062   0.922   2.365   2.761
 1539SOL    HW1 5063   0.897   2.356   2.665
 1539SOL    HW2 5064   0.970   2.283   2.792
 1540SOL     OW 5065   0.539   1.926   2.374
 1540SOL    HW1 5066   0.458   1.927   2.432
 1540SOL    HW2 5067   0.542   2.009   2.319
 1541SOL     OW 5068   1.434   3.050   1.903
 1541SOL    HW1 5069   1.466   2.974   1.960
 1541SOL    HW2 5070   1.342   3.077   1.933
 1542SOL     OW 5071   0.297   1.897   2.033
 1542SOL    HW1 5072   0.346   1.981   2.012
 1542SOL    HW2 5073   0.359   1.832   2.078
 1543SOL     OW 5074   0.935   2.098   2.342
 1543SOL    HW1 5075   0.887   2.139   2.264
 1543SOL    HW2 5076   1.034   2.096   2.323
 1544SOL     OW 5077   1.076   2.545   3.326
 1544SOL    HW1 5078   0.996   2.484   3.329
 1544SOL    HW2 5079   1.157   2.492   3.302
 1545SOL     OW 5080   1.227   3.432   2.655
 1545SOL    HW1 5081   1.248   3.506   2.590
 1545SOL    HW2 5082   1.295   3.432   2.728
 1546SOL     OW 5083   0.459   3.014   2.603
 1546SOL    HW1 5084   0.388   2.987   2.668
 1546SOL    HW2 5085   0.433   2.986   2.510
 1547SOL     OW 5086   1.271   3.659   2.453
 1547SOL    HW1 5087   1.315   3.723   2.389
 1547SOL    HW2 5088   1.221   3.711   2.523
 1548SOL     OW 5089   1.032   2.411   1.878
 1548SOL    HW1 5090   0.991   2.493   1.839
 1548SOL    HW2 5091   1.096   2.437   1.951
 1549SOL     OW 5092   0.078   2.418   3.248
 1549SOL    HW1 5093   0.170   2.417   3.207
 1549SOL    HW2 5094   0.072   2.492   3.315
 1550SOL     OW 5095   0.561   2.084   3.009
 1550SOL    HW1 5096   0.599   2.000   3.046
 1550SOL    HW2 5097   0.473   2.103   3.053
 1551SOL     OW 5098   0.866   2.316   2.504
 1551SOL    HW1 5099   0.834   2.388   2.442
 1551SOL    HW2 5100   0.890   2.235   2.451
 1552SOL     OW 5101   1.017   1.901   2.615
 1552SOL    HW1 5102   0.945   1.906   2.546
 1552SOL    HW2 5103   0.993   1.832   2.684
 1553SOL     OW 5104   1.429   3.035   2.729
 1553SOL    HW1 5105   1.374   2.951   2.722
 1553SOL    HW2 5106   1.455   3.064   2.637
 1554SOL     OW 5107   1.466   2.452   2.854
 1554SOL    HW1 5108   1.436   2.357   2.861
 1554SOL    HW2 5109   1.539   2.468   2.920
 1555SOL     OW 5110   1.857   2.695   2.239
 1555SOL    HW1 5111   1.899   2.631   2.303
 1555SOL    HW2 5112   1.819   2.644   2.161
 1556SOL     OW 5113   0.488   3.247   2.036
 1556SOL    HW1 5114   0.401   3.232   2.083
 1556SOL    HW2 5115   0.471   3.273   1.941
 1557SOL     OW 5116   1.664   3.142   2.519
 1557SOL    HW1 5117   1.763   3.150   2.533
 1557SOL    HW2 5118   1.619   3.226   2.550
 1558SOL     OW 5119   1.390   2.437   1.940
 1558SOL    HW1 5120   1.336   2.416   2.021
 1558SOL    HW2 5121   1.481   2.396   1.949
 1559SOL     OW 5122   0.527   2.118   2.190
 1559SOL    HW1 5123   0.554   2.059   2.115
 1559SOL    HW2 5124   0.527   2.213   2.159
 1560SOL     OW 5125   1.754   3.085   3.450
 1560SOL    HW1 5126   1.845   3.046   3.437
 1560SOL    HW2 5127   1.762   3.181   3.474
 1561SOL     OW 5128   1.064   3.209   3.202
 1561SOL    HW1 5129   0.984   3.186   3.257
 1561SOL    HW2 5130   1.147   3.183   3.251
 1562SOL     OW 5131   1.592   3.491   3.487
 1562SOL    HW1 5132   1.619   3.525   3.397
 1562SOL    HW2 5133   1.671   3.453   3.533
 1563SOL     OW 5134   1.111   3.057   2.962
 1563SOL    HW1 5135   1.071   3.101   3.043
 1563SOL    HW2 5136   1.070   3.094   2.879
 1564SOL     OW 5137   1.638   2.961   2.941
 1564SOL    HW1 5138   1.643   3.042   3.000
 1564SOL    HW2 5139   1.552   2.963   2.890
 1565SOL     OW 5140   0.915   1.951   3.264
 1565SOL    HW1 5141   0.940   1.931   3.169
 1565SOL    HW2 5142   0.987   2.007   3.306
 1566SOL     OW 5143   0.980   2.978   3.581
 1566SOL    HW1 5144   0.881   2.984   3.591
 1566SOL    HW2 5145   1.003   2.898   3.525
 1567SOL     OW 5146   0.705   2.912   2.230
 1567SOL    HW1 5147   0.691   2.919   2.329
 1567SOL    HW2 5148   0.789   2.861   2.212
 1568SOL     OW 5149   0.410   2.675   3.113
 1568SOL    HW1 5150   0.496   2.687   3.163
 1568SOL    HW2 5151   0.368   2.588   3.140
 1569SOL     OW 5152   1.274   2.248   3.124
 1569SOL    HW1 5153   1.295   2.322   3.188
 1569SOL    HW2 5154   1.185   2.265   3.081
 1570SOL     OW 5155   0.064   3.426   3.193
 1570SOL    HW1 5156   0.018   3.508   3.159
 1570SOL    HW2 5157   0.162   3.445   3.202
 1571SOL     OW 5158   0.367   2.962   2.363
 1571SOL    HW1 5159   0.360   3.045   2.307
 1571SOL    HW2 5160   0.371   2.882   2.303
 1572SOL     OW 5161   0.566   2.399   2.727
 1572SOL    HW1 5162   0.578   2.465   2.653
 1572SOL    HW2 5163   0.612   2.433   2.810
 1573SOL     OW 5164   1.252   3.210   2.250
 1573SOL    HW1 5165   1.302   3.287   2.290
 1573SOL    HW2 5166   1.157   3.212   2.282
 1574SOL     OW 5167   1.272   3.307   3.004
 1574SOL    HW1 5168   1.319   3.320   3.091
 1574SOL    HW2 5169   1.206   3.233   3.013
 1575SOL     OW 5170   1.582   2.501   2.334
 1575SOL    HW1 5171   1.551   2.562   2.407
 1575SOL    HW2 5172   1.632   2.553   2.265
 1576SOL     OW 5173   0.354   3.372   3.191
 1576SOL    HW1 5174   0.333   3.328   3.104
 1576SOL    HW2 5175   0.451   3.398   3.194
 1577SOL     OW 5176   0.402   2.613   3.460
 1577SOL    HW1 5177   0.470   2.668   3.413
 1577SOL    HW2 5178   0.442   2.525   3.487
 1578SOL     OW 5179   1.587   2.641   3.532
 1578SOL    HW1 5180   1.495   2.679   3.527
 1578SOL    HW2 5181   1.647   2.688   3.467
 1579SOL     OW 5182   1.013   1.967   3.632
 1579SOL    HW1 5183   1.019   2.052   3.580
 1579SOL    HW2 5184   1.045   1.891   3.575
 1580SOL     OW 5185   0.504   1.912   3.602
 1580SOL    HW1 5186   0.462   1.855   3.532
 1580SOL    HW2 5187   0.438   1.981   3.634
 1581SOL     OW 5188   0.573   2.732   2.891
 1581SOL    HW1 5189   0.617   2.821   2.882
 1581SOL    HW2 5190   0.510   2.732   2.968
 1582SOL     OW 5191   1.360   2.724   2.907
 1582SOL    HW1 5192   1.285   2.724   2.841
 1582SOL    HW2 5193   1.397   2.632   2.916
 1583SOL     OW 5194   1.209   2.387   2.137
 1583SOL    HW1 5195   1.222   2.303   2.191
 1583SOL    HW2 5196   1.180   2.461   2.197
 1584SOL     OW 5197   0.307   2.075   3.093
 1584SOL    HW1 5198   0.284   2.112   3.183
 1584SOL    HW2 5199   0.277   1.980   3.087
 1585SOL     OW 5200   0.037   3.172   3.144
 1585SOL    HW1 5201   0.090   3.123   3.212
 1585SOL    HW2 5202   0.059   3.270   3.149
 1586SOL     OW 5203   0.732   2.496   2.926
 1586SOL    HW1 5204   0.791   2.470   2.850
 1586SOL    HW2 5205   0.704   2.592   2.915
 1587SOL     OW 5206   1.728   2.797   3.716
 1587SOL    HW1 5207   1.682   2.790   3.627
 1587SOL    HW2 5208   1.666   2.841   3.782
 1588SOL     OW 5209   0.307   1.925   2.480
 1588SOL    HW1 5210   0.296   2.019   2.513
 1588SOL    HW2 5211   0.302   1.862   2.557
 1589SOL     OW 5212   1.622   2.229   2.236
 1589SOL    HW1 5213   1.624   2.153   2.300
 1589SOL    HW2 5214   1.574   2.306   2.276
 1590SOL     OW 5215   1.023   2.628   2.828
 1590SOL    HW1 5216   1.038   2.649   2.924
 1590SOL    HW2 5217   0.993   2.533   2.819
 1591SOL     OW 5218   0.980   3.435   3.562
 1591SOL    HW1 5219   0.960   3.479   3.474
 1591SOL    HW2 5220   1.019   3.344   3.546
 1592SOL     OW 5221   1.859   3.380   3.467
 1592SOL    HW1 5222   1.873   3.407   3.372
 1592SOL    HW2 5223   1.942   3.402   3.520
 1593SOL     OW 5224   0.350   2.760   3.666
 1593SOL    HW1 5225   0.426   2.804   3.714
 1593SOL    HW2 5226   0.385   2.713   3.584
 1594SOL     OW 5227   1.540   2.136   1.987
 1594SOL    HW1 5228   1.479   2.061   2.010
 1594SOL    HW2 5229   1.562   2.188   2.070
 1595SOL     OW 5230   1.303   2.700   1.904
 1595SOL    HW1 5231   1.337   2.607   1.919
 1595SOL    HW2 5232   1.321   2.727   1.809
 1596SOL     OW 5233   1.068   3.195   2.711
 1596SOL    HW1 5234   1.075   3.111   2.656
 1596SOL    HW2 5235   1.130   3.264   2.675
 1597SOL     OW 5236   0.319   2.672   2.811
 1597SOL    HW1 5237   0.412   2.708   2.816
 1597SOL    HW2 5238   0.313   2.587   2.863
 1598SOL     OW 5239   0.339   2.371   2.868
 1598SOL    HW1 5240   0.287   2.288   2.851
 1598SOL    HW2 5241   0.416   2.376   2.804
 1599SOL     OW 5242   1.138   2.242   3.540
 1599SOL    HW1 5243   1.093   2.305   3.604
 1599SOL    HW2 5244   1.231   2.273   3.523
 1600SOL     OW 5245   1.160   2.069   3.339
 1600SOL    HW1 5246   1.160   2.133   3.416
 1600SOL    HW2 5247   1.188   2.117   3.256
 1601SOL     OW 5248   0.008   3.188   2.062
 1601SOL    HW1 5249  -0.085   3.209   2.031
 1601SOL    HW2 5250   0.018   3.089   2.075
 1602SOL     OW 5251   0.088   3.663   2.789
 1602SOL    HW1 5252   0.046   3.577   2.762
 1602SOL    HW2 5253   0.182   3.666   2.755
 1603SOL     OW 5254   0.504   3.430   2.772
 1603SOL    HW1 5255   0.570   3.504   2.781
 1603SOL    HW2 5256   0.548   3.351   2.730
 1604SOL     OW 5257   1.002   2.658   3.100
 1604SOL    HW1 5258   1.043   2.626   3.186
 1604SOL    HW2 5259   0.906   2.631   3.097
 1605SOL     OW 5260   0.040   2.406   2.976
 1605SOL    HW1 5261   0.125   2.373   2.935
 1605SOL    HW2 5262   0.053   2.421   3.074
 1606SOL     OW 5263   0.189   2.382   3.584
 1606SOL    HW1 5264   0.248   2.342   3.514
 1606SOL    HW2 5265   0.131   2.453   3.543
 1607SOL     OW 5266   1.369   2.812   3.522
 1607SOL    HW1 5267   1.408   2.901   3.542
 1607SOL    HW2 5268   1.379   2.792   3.425
 1608SOL     OW 5269   0.815   2.434   2.187
 1608SOL    HW1 5270   0.822   2.345   2.141
 1608SOL    HW2 5271   0.721   2.468   2.179
 1609SOL     OW 5272   1.657   2.466   3.068
 1609SOL    HW1 5273   1.619   2.397   3.130
 1609SOL    HW2 5274   1.739   2.430   3.024
 1610SOL     OW 5275   0.252   3.426   3.606
 1610SOL    HW1 5276   0.222   3.483   3.682
 1610SOL    HW2 5277   0.245   3.329   3.632
 1611SOL     OW 5278   0.671   2.326   3.131
 1611SOL    HW1 5279   0.637   2.237   3.101
 1611SOL    HW2 5280   0.697   2.380   3.051
 1612SOL     OW 5281   0.930   3.540   3.327
 1612SOL    HW1 5282   0.906   3.522   3.232
 1612SOL    HW2 5283   0.960   3.634   3.337
 1613SOL     OW 5284   0.473   2.362   2.053
 1613SOL    HW1 5285   0.534   2.442   2.057
 1613SOL    HW2 5286   0.378   2.393   2.060
 1614SOL     OW 5287   0.159   2.999   3.328
 1614SOL    HW1 5288   0.181   2.938   3.404
 1614SOL    HW2 5289   0.169   2.950   3.242
 1615SOL     OW 5290   1.347   2.921   3.096
 1615SOL    HW1 5291   1.371   2.858   3.022
 1615SOL    HW2 5292   1.257   2.961   3.078
 1616SOL     OW 5293   1.302   2.717   2.171
 1616SOL    HW1 5294   1.216   2.686   2.213
 1616SOL    HW2 5295   1.298   2.703   2.072
 1617SOL     OW 5296   1.759   3.609   3.016
 1617SOL    HW1 5297   1.820   3.639   2.943
 1617SOL    HW2 5298   1.721   3.520   2.994
 1618SOL     OW 5299   1.252   3.593   2.990
 1618SOL    HW1 5300   1.336   3.598   2.936
 1618SOL    HW2 5301   1.229   3.497   3.008
 1619SOL     OW 5302   0.083   3.120   2.884
 1619SOL    HW1 5303   0.078   3.119   2.984
 1619SOL    HW2 5304   0.000   3.079   2.846
 1620SOL     OW 5305   0.688   3.524   3.578
 1620SOL    HW1 5306   0.632   3.605   3.587
 1620SOL    HW2 5307   0.740   3.528   3.492
 1621SOL     OW 5308   1.726   1.997   2.385
 1621SOL    HW1 5309   1.799   1.980   2.318
 1621SOL    HW2 5310   1.695   1.910   2.423
 1622SOL     OW 5311   1.388   3.435   2.339
 1622SOL    HW1 5312   1.455   3.447   2.265
 1622SOL    HW2 5313   1.348   3.524   2.362
 1623SOL     OW 5314   0.130   3.656   3.713
 1623SOL    HW1 5315   0.089   3.582   3.766
 1623SOL    HW2 5316   0.194   3.707   3.771
 1624SOL     OW 5317   1.280   2.789   2.534
 1624SOL    HW1 5318   1.340   2.708   2.536
 1624SOL    HW2 5319   1.320   2.858   2.474
 1625SOL     OW 5320   0.830   3.135   3.284
 1625SOL    HW1 5321   0.825   3.168   3.379
 1625SOL    HW2 5322   0.744   3.154   3.238
 1626SOL     OW 5323   0.672   3.478   2.016
 1626SOL    HW1 5324   0.681   3.488   1.917
 1626SOL    HW2 5325   0.632   3.389   2.037
 1627SOL     OW 5326   1.650   3.582   3.256
 1627SOL    HW1 5327   1.703   3.592   3.172
 1627SOL    HW2 5328   1.623   3.672   3.290
 1628SOL     OW 5329   1.841   2.037   2.825
 1628SOL    HW1 5330   1.880   1.952   2.789
 1628SOL    HW2 5331   1.743   2.039   2.806
 1629SOL     OW 5332   0.263   2.188   2.582
 1629SOL    HW1 5333   0.184   2.239   2.548
 1629SOL    HW2 5334   0.254   2.173   2.680
 1630SOL     OW 5335   1.194   3.474   1.893
 1630SOL    HW1 5336   1.200   3.381   1.930
 1630SOL    HW2 5337   1.135   3.474   1.813
 1631SOL     OW 5338   0.822   2.864   3.234
 1631SOL    HW1 5339   0.862   2.863   3.142
 1631SOL    HW2 5340   0.832   2.956   3.274
 1632SOL     OW 5341   0.916   2.772   2.153
 1632SOL    HW1 5342   0.979   2.810   2.085
 1632SOL    HW2 5343   0.956   2.689   2.192
 1633SOL     OW 5344   1.504   3.469   1.906
 1633SOL    HW1 5345   1.412   3.506   1.913
 1633SOL    HW2 5346   1.542   3.489   1.816
 1634SOL     OW 5347   0.372   3.150   3.352
 1634SOL    HW1 5348   0.359   3.243   3.318
 1634SOL    HW2 5349   0.288   3.098   3.339
 1635SOL     OW 5350   1.614   3.154   3.151
 1635SOL    HW1 5351   1.674   3.157   3.231
 1635SOL    HW2 5352   1.539   3.218   3.164
 1636SOL     OW 5353   1.039   2.960   2.558
 1636SOL    HW1 5354   0.969   2.913   2.612
 1636SOL    HW2 5355   1.098   2.892   2.515
 1637SOL     OW 5356   1.014   2.098   2.833
 1637SOL    HW1 5357   1.006   2.062   2.740
 1637SOL    HW2 5358   1.012   2.022   2.898
 1638SOL     OW 5359   0.590   3.349   2.353
 1638SOL    HW1 5360   0.632   3.291   2.283
 1638SOL    HW2 5361   0.546   3.428   2.309
 1639SOL     OW 5362   1.709   2.247   3.243
 1639SOL    HW1 5363   1.782   2.316   3.247
 1639SOL    HW2 5364   1.737   2.172   3.184
 1640SOL     OW 5365   0.255   3.210   2.152
 1640SOL    HW1 5366   0.159   3.211   2.125
 1640SOL    HW2 5367   0.267   3.263   2.236
 1641SOL     OW 5368   0.105   2.875   3.588
 1641SOL    HW1 5369   0.028   2.842   3.642
 1641SOL    HW2 5370   0.190   2.845   3.630
 1642SOL     OW 5371   0.672   2.065   3.351
 1642SOL    HW1 5372   0.762   2.049   3.311
 1642SOL    HW2 5373   0.680   2.070   3.450
 1643SOL     OW 5374   0.075   2.207   1.895
 1643SOL    HW1 5375  -0.017   2.179   1.866
 1643SOL    HW2 5376   0.106   2.284   1.839
 1644SOL     OW 5377   1.440   2.718   3.260
 1644SOL    HW1 5378   1.383   2.770   3.197
 1644SOL    HW2 5379   1.536   2.730   3.236
 1645SOL     OW 5380   0.072   2.028   2.180
 1645SOL    HW1 5381   0.055   2.111   2.126
 1645SOL    HW2 5382   0.162   1.991   2.158
 1646SOL     OW 5383   1.183   3.197   1.981
 1646SOL    HW1 5384   1.084   3.186   1.983
 1646SOL    HW2 5385   1.217   3.212   2.074
 1647SOL     OW 5386   0.613   2.704   3.293
 1647SOL    HW1 5387   0.669   2.785   3.276
 1647SOL    HW2 5388   0.672   2.624   3.296
 1648SOL     OW 5389   1.493   3.629   2.821
 1648SOL    HW1 5390   1.526   3.693   2.752
 1648SOL    HW2 5391   1.559   3.623   2.896
 1649SOL     OW 5392   0.716   2.427   3.570
 1649SOL    HW1 5393   0.735   2.492   3.644
 1649SOL    HW2 5394   0.776   2.347   3.579
 1650SOL     OW 5395   1.450   3.082   3.495
 1650SOL    HW1 5396   1.441   3.072   3.594
 1650SOL    HW2 5397   1.546   3.075   3.469
 1651SOL     OW 5398   0.390   3.603   3.422
 1651SOL    HW1 5399   0.299   3.644   3.420
 1651SOL    HW2 5400   0.383   3.509   3.454
 1652SOL     OW 5401   1.674   2.745   3.116
 1652SOL    HW1 5402   1.647   2.656   3.079
 1652SOL    HW2 5403   1.675   2.813   3.043
 1653SOL     OW 5404   1.225   2.187   2.311
 1653SOL    HW1 5405   1.290   2.113   2.300
 1653SOL    HW2 5406   1.245   2.237   2.395
 1654SOL     OW 5407   0.594   2.607   2.514
 1654SOL    HW1 5408   0.644   2.692   2.495
 1654SOL    HW2 5409   0.506   2.609   2.466
 1655SOL     OW 5410   1.777   2.204   3.504
 1655SOL    HW1 5411   1.760   2.235   3.410
 1655SOL    HW2 5412   1.693   2.167   3.542
 1656SOL     OW 5413   1.730   2.796   3.379
 1656SOL    HW1 5414   1.768   2.887   3.394
 1656SOL    HW2 5415   1.722   2.779   3.280
 1657SOL     OW 5416   0.859   3.236   1.878
 1657SOL    HW1 5417   0.813   3.251   1.966
 1657SOL    HW2 5418   0.903   3.321   1.848
 1658SOL     OW 5419   0.661   3.652   2.815
 1658SOL    HW1 5420   0.615   3.740   2.802
 1658SOL    HW2 5421   0.760   3.664   2.808
 1659SOL     OW 5422   0.859   2.818   2.723
 1659SOL    HW1 5423   0.913   2.749   2.771
 1659SOL    HW2 5424   0.827   2.887   2.789
 1660SOL     OW 5425   1.083   2.846   1.949
 1660SOL    HW1 5426   1.060   2.899   1.867
 1660SOL    HW2 5427   1.164   2.790   1.930
 1661SOL     OW 5428   1.861   3.431   2.713
 1661SOL    HW1 5429   1.790   3.419   2.643
 1661SOL    HW2 5430   1.862   3.352   2.773
 1662SOL     OW 5431   0.221   3.176   3.706
 1662SOL    HW1 5432   0.156   3.103   3.685
 1662SOL    HW2 5433   0.225   3.190   3.804
 1663SOL     OW 5434   0.079   3.102   2.515
 1663SOL    HW1 5435   0.078   3.055   2.603
 1663SOL    HW2 5436   0.161   3.074   2.464
 1664SOL     OW 5437   0.672   3.253   3.486
 1664SOL    HW1 5438   0.594   3.203   3.524
 1664SOL    HW2 5439   0.669   3.348   3.517
 1665SOL     OW 5440   1.824   2.054   3.089
 1665SOL    HW1 5441   1.820   1.964   3.133
 1665SOL    HW2 5442   1.827   2.043   2.990
 1666SOL     OW 5443   0.428   2.286   2.382
 1666SOL    HW1 5444   0.458   2.214   2.320
 1666SOL    HW2 5445   0.389   2.246   2.465
 1667SOL     OW 5446   1.705   3.349   2.966
 1667SOL    HW1 5447   1.612   3.324   2.939
 1667SOL    HW2 5448   1.731   3.299   3.048
 1668SOL     OW 5449   0.317   2.409   3.142
 1668SOL    HW1 5450   0.355   2.350   3.214
 1668SOL    HW2 5451   0.357   2.383   3.054
 1669SOL     OW 5452   0.812   3.448   2.549
 1669SOL    HW1 5453   0.844   3.458   2.455
 1669SOL    HW2 5454   0.733   3.386   2.551
 1670SOL     OW 5455   1.424   2.076   2.974
 1670SOL    HW1 5456   1.476   2.011   3.029
 1670SOL    HW2 5457   1.375   2.139   3.035
 1671SOL     OW 5458   1.001   1.896   3.016
 1671SOL    HW1 5459   0.938   1.824   2.985
 1671SOL    HW2 5460   1.094   1.860   3.016
 1672SOL     OW 5461   0.770   3.192   2.163
 1672SOL    HW1 5462   0.724   3.105   2.180
 1672SOL    HW2 5463   0.861   3.189   2.204
 1673SOL     OW 5464   0.618   3.429   3.146
 1673SOL    HW1 5465   0.613   3.511   3.203
 1673SOL    HW2 5466   0.707   3.426   3.101
 1674SOL     OW 5467   1.352   1.914   2.030
 1674SOL    HW1 5468   1.387   1.873   1.946
 1674SOL    HW2 5469   1.262   1.876   2.050
 1675SOL     OW 5470   1.300   2.315   2.553
 1675SOL    HW1 5471   1.241   2.395   2.557
 1675SOL    HW2 5472   1.315   2.280   2.646
 1676SOL     OW 5473   1.593   2.083   2.744
 1676SOL    HW1 5474   1.509   2.082   2.798
 1676SOL    HW2 5475   1.595   2.166   2.688
 1677SOL     OW 5476   0.039   2.939   2.162
 1677SOL    HW1 5477   0.138   2.928   2.153
 1677SOL    HW2 5478  -0.001   2.853   2.194
 1678SOL     OW 5479   0.875   3.508   2.199
 1678SOL    HW1 5480   0.798   3.473   2.145
 1678SOL    HW2 5481   0.843   3.579   2.261
 1679SOL     OW 5482   0.230   2.490   3.837
 1679SOL    HW1 5483   0.137   2.488   3.874
 1679SOL    HW2 5484   0.231   2.451   3.745
 1680SOL     OW 5485   0.225   2.137   4.720
 1680SOL    HW1 5486   0.260   2.120   4.812
 1680SOL    HW2 5487   0.137   2.092   4.708
 1681SOL     OW 5488   0.019   2.230   4.371
 1681SOL    HW1 5489  -0.063   2.273   4.410
 1681SOL    HW2 5490  -0.009   2.157   4.308
 1682SOL     OW 5491   0.569   3.137   4.889
 1682SOL    HW1 5492   0.476   3.130   4.852
 1682SOL    HW2 5493   0.580   3.226   4.933
 1683SOL     OW 5494   1.555   3.373   4.427
 1683SOL    HW1 5495   1.498   3.357   4.508
 1683SOL    HW2 5496   1.496   3.383   4.347
 1684SOL     OW 5497   1.135   2.565   4.441
 1684SOL    HW1 5498   1.192   2.643   4.416
 1684SOL    HW2 5499   1.075   2.591   4.517
 1685SOL     OW 5500   1.755   2.469   3.955
 1685SOL    HW1 5501   1.743   2.456   3.856
 1685SOL    HW2 5502   1.725   2.388   4.004
 1686SOL     OW 5503   0.768   3.006   4.747
 1686SOL    HW1 5504   0.690   3.023   4.807
 1686SOL    HW2 5505   0.802   3.093   4.711
 1687SOL     OW 5506   0.850   2.660   5.547
 1687SOL    HW1 5507   0.846   2.736   5.612
 1687SOL    HW2 5508   0.872   2.696   5.456
 1688SOL     OW 5509   0.685   2.874   4.389
 1688SOL    HW1 5510   0.754   2.858   4.459
 1688SOL    HW2 5511   0.612   2.931   4.427
 1689SOL     OW 5512   0.686   3.023   5.527
 1689SOL    HW1 5513   0.746   3.102   5.541
 1689SOL    HW2 5514   0.600   3.054   5.486
 1690SOL     OW 5515   0.335   3.297   4.785
 1690SOL    HW1 5516   0.257   3.266   4.732
 1690SOL    HW2 5517   0.393   3.355   4.728
 1691SOL     OW 5518   1.460   3.367   5.063
 1691SOL    HW1 5519   1.484   3.461   5.089
 1691SOL    HW2 5520   1.444   3.313   5.145
 1692SOL     OW 5521   0.438   2.254   5.223
 1692SOL    HW1 5522   0.520   2.198   5.232
 1692SOL    HW2 5523   0.357   2.196   5.227
 1693SOL     OW 5524   1.603   2.309   4.461
 1693SOL    HW1 5525   1.529   2.355   4.411
 1693SOL    HW2 5526   1.654   2.377   4.514
 1694SOL     OW 5527   0.231   3.575   4.207
 1694SOL    HW1 5528   0.265   3.652   4.261
 1694SOL    HW2 5529   0.275   3.575   4.117
 1695SOL     OW 5530   1.127   3.203   5.414
 1695SOL    HW1 5531   1.174   3.203   5.502
 1695SOL    HW2 5532   1.079   3.116   5.403
 1696SOL     OW 5533   0.230   3.296   4.262
 1696SOL    HW1 5534   0.204   3.392   4.262
 1696SOL    HW2 5535   0.159   3.242   4.307
 1697SOL     OW 5536   0.240   2.953   4.610
 1697SOL    HW1 5537   0.254   2.869   4.662
 1697SOL    HW2 5538   0.185   3.017   4.665
 1698SOL     OW 5539   0.620   3.648   5.163
 1698SOL    HW1 5540   0.528   3.631   5.198
 1698SOL    HW2 5541   0.648   3.740   5.189
 1699SOL     OW 5542   0.606   2.826   3.847
 1699SOL    HW1 5543   0.613   2.910   3.793
 1699SOL    HW2 5544   0.652   2.839   3.935
 1700SOL     OW 5545   0.122   2.505   4.287
 1700SOL    HW1 5546   0.077   2.417   4.304
 1700SOL    HW2 5547   0.121   2.559   4.371
 1701SOL     OW 5548   1.842   3.629   4.083
 1701SOL    HW1 5549   1.896   3.600   4.163
 1701SOL    HW2 5550   1.872   3.719   4.054
 1702SOL     OW 5551   0.027   3.458   3.841
 1702SOL    HW1 5552   0.008   3.362   3.862
 1702SOL    HW2 5553  -0.006   3.516   3.916
 1703SOL     OW 5554   1.689   2.784   4.336
 1703SOL    HW1 5555   1.784   2.755   4.344
 1703SOL    HW2 5556   1.681   2.849   4.261
 1704SOL     OW 5557   1.641   2.970   4.156
 1704SOL    HW1 5558   1.727   2.972   4.104
 1704SOL    HW2 5559   1.655   3.017   4.244
 1705SOL     OW 5560   0.113   2.599   5.321
 1705SOL    HW1 5561   0.201   2.586   5.366
 1705SOL    HW2 5562   0.100   2.696   5.299
 1706SOL     OW 5563   0.613   3.227   4.450
 1706SOL    HW1 5564   0.564   3.140   4.459
 1706SOL    HW2 5565   0.590   3.270   4.363
 1707SOL     OW 5566   1.293   3.090   5.147
 1707SOL    HW1 5567   1.330   3.017   5.089
 1707SOL    HW2 5568   1.345   3.095   5.232
 1708SOL     OW 5569   0.809   1.866   4.226
 1708SOL    HW1 5570   0.849   1.957   4.217
 1708SOL    HW2 5571   0.709   1.874   4.232
 1709SOL     OW 5572   0.197   2.838   4.988
 1709SOL    HW1 5573   0.286   2.793   4.974
 1709SOL    HW2 5574   0.124   2.773   4.969
 1710SOL     OW 5575   1.525   2.861   3.914
 1710SOL    HW1 5576   1.462   2.785   3.927
 1710SOL    HW2 5577   1.573   2.879   4.000
 1711SOL     OW 5578   1.187   3.654   5.340
 1711SOL    HW1 5579   1.211   3.714   5.264
 1711SOL    HW2 5580   1.194   3.559   5.310
 1712SOL     OW 5581   0.317   2.113   5.525
 1712SOL    HW1 5582   0.388   2.184   5.531
 1712SOL    HW2 5583   0.229   2.152   5.553
 1713SOL     OW 5584   1.466   3.279   4.677
 1713SOL    HW1 5585   1.407   3.285   4.757
 1713SOL    HW2 5586   1.451   3.191   4.631
 1714SOL     OW 5587   1.667   3.576   4.296
 1714SOL    HW1 5588   1.626   3.553   4.208
 1714SOL    HW2 5589   1.649   3.502   4.361
 1715SOL     OW 5590   0.598   2.591   3.994
 1715SOL    HW1 5591   0.622   2.660   3.926
 1715SOL    HW2 5592   0.520   2.624   4.048
 1716SOL     OW 5593   1.281   2.207   4.668
 1716SOL    HW1 5594   1.195   2.157   4.655
 1716SOL    HW2 5595   1.343   2.153   4.724
 1717SOL     OW 5596   1.576   3.524   4.031
 1717SOL    HW1 5597   1.665   3.570   4.034
 1717SOL    HW2 5598   1.555   3.500   3.936
 1718SOL     OW 5599   0.807   2.467   5.189
 1718SOL    HW1 5600   0.760   2.464   5.278
 1718SOL    HW2 5601   0.756   2.412   5.123
 1719SOL     OW 5602   0.973   2.752   5.296
 1719SOL    HW1 5603   1.019   2.668   5.267
 1719SOL    HW2 5604   0.917   2.786   5.221
 1720SOL     OW 5605   0.991   2.272   4.966
 1720SOL    HW1 5606   0.914   2.306   5.020
 1720SOL    HW2 5607   0.957   2.221   4.887
 1721SOL     OW 5608   1.041   2.563   4.153
 1721SOL    HW1 5609   1.067   2.559   4.249
 1721SOL    HW2 5610   0.956   2.512   4.139
 1722SOL     OW 5611   0.076   2.673   4.513
 1722SOL    HW1 5612   0.175   2.661   4.522
 1722SOL    HW2 5613   0.052   2.768   4.534
 1723SOL     OW 5614   0.130   3.683   5.295
 1723SOL    HW1 5615   0.120   3.668   5.394
 1723SOL    HW2 5616   0.044   3.719   5.259
 1724SOL     OW 5617   0.865   2.210   3.919
 1724SOL    HW1 5618   0.924   2.273   3.870
 1724SOL    HW2 5619   0.884   2.116   3.890
 1725SOL     OW 5620   1.362   3.006   4.269
 1725SOL    HW1 5621   1.445   2.977   4.221
 1725SOL    HW2 5622   1.313   3.073   4.213
 1726SOL     OW 5623   0.550   2.058   4.609
 1726SOL    HW1 5624   0.545   2.053   4.709
 1726SOL    HW2 5625   0.552   2.154   4.580
 1727SOL     OW 5626   1.008   3.318   4.201
 1727SOL    HW1 5627   0.962   3.390   4.149
 1727SOL    HW2 5628   1.004   3.338   4.299
 1728SOL     OW 5629   0.351   3.663   4.577
 1728SOL    HW1 5630   0.401   3.577   4.583
 1728SOL    HW2 5631   0.416   3.740   4.574
 1729SOL     OW 5632   1.795   2.928   4.597
 1729SOL    HW1 5633   1.733   2.913   4.521
 1729SOL    HW2 5634   1.743   2.939   4.682
 1730SOL     OW 5635   1.227   3.412   5.230
 1730SOL    HW1 5636   1.233   3.335   5.294
 1730SOL    HW2 5637   1.175   3.386   5.150
 1731SOL     OW 5638   0.321   2.805   3.966
 1731SOL    HW1 5639   0.403   2.844   3.924
 1731SOL    HW2 5640   0.294   2.723   3.917
 1732SOL     OW 5641   1.458   2.597   4.452
 1732SOL    HW1 5642   1.453   2.532   4.527
 1732SOL    HW2 5643   1.538   2.656   4.465
 1733SOL     OW 5644   0.461   3.128   5.451
 1733SOL    HW1 5645   0.411   3.129   5.365
 1733SOL    HW2 5646   0.398   3.110   5.527
 1734SOL     OW 5647   1.111   3.638   3.961
 1734SOL    HW1 5648   1.051   3.576   4.011
 1734SOL    HW2 5649   1.142   3.594   3.876
 1735SOL     OW 5650   0.202   2.147   5.222
 1735SOL    HW1 5651   0.122   2.207   5.209
 1735SOL    HW2 5652   0.192   2.098   5.308
 1736SOL     OW 5653   1.632   3.239   3.805
 1736SOL    HW1 5654   1.600   3.333   3.795
 1736SOL    HW2 5655   1.556   3.176   3.793
 1737SOL     OW 5656   0.464   3.605   4.047
 1737SOL    HW1 5657   0.497   3.644   4.133
 1737SOL    HW2 5658   0.540   3.598   3.982
 1738SOL     OW 5659   1.400   1.969   4.150
 1738SOL    HW1 5660   1.376   1.932   4.060
 1738SOL    HW2 5661   1.499   1.985   4.154
 1739SOL     OW 5662   0.249   3.647   4.965
 1739SOL    HW1 5663   0.306   3.582   5.015
 1739SOL    HW2 5664   0.233   3.614   4.872
 1740SOL     OW 5665   0.940   3.560   4.628
 1740SOL    HW1 5666   1.020   3.503   4.649
 1740SOL    HW2 5667   0.891   3.520   4.551
 1741SOL     OW 5668   0.382   2.562   4.204
 1741SOL    HW1 5669   0.427   2.472   4.201
 1741SOL    HW2 5670   0.288   2.551   4.237
 1742SOL     OW 5671   0.614   1.984   3.841
 1742SOL    HW1 5672   0.712   1.962   3.848
 1742SOL    HW2 5673   0.583   1.967   3.748
 1743SOL     OW 5674   0.781   2.126   5.473
 1743SOL    HW1 5675   0.848   2.065   5.516
 1743SOL    HW2 5676   0.708   2.145   5.538
 1744SOL     OW 5677   0.888   3.376   4.919
 1744SOL    HW1 5678   0.865   3.351   4.825
 1744SOL    HW2 5679   0.949   3.307   4.958
 1745SOL     OW 5680   1.351   2.452   5.157
 1745SOL    HW1 5681   1.379   2.409   5.242
 1745SOL    HW2 5682   1.376   2.548   5.158
 1746SOL     OW 5683   0.803   3.264   4.648
 1746SOL    HW1 5684   0.893   3.278   4.606
 1746SOL    HW2 5685   0.732   3.266   4.577
 1747SOL     OW 5686   0.922   2.365   4.623
 1747SOL    HW1 5687   0.897   2.356   4.527
 1747SOL    HW2 5688   0.970   2.283   4.654
 1748SOL     OW 5689   0.539   1.926   4.236
 1748SOL    HW1 5690   0.458   1.927   4.294
 1748SOL    HW2 5691   0.542   2.009   4.181
 1749SOL     OW 5692   1.434   3.050   3.765
 1749SOL    HW1 5693   1.466   2.974   3.822
 1749SOL    HW2 5694   1.342   3.077   3.795
 1750SOL     OW 5695   0.297   1.897   3.895
 1750SOL    HW1 5696   0.346   1.981   3.874
 1750SOL    HW2 5697   0.359   1.832   3.940
 1751SOL     OW 5698   0.935   2.098   4.204
 1751SOL    HW1 5699   0.887   2.139   4.126
 1751SOL    HW2 5700   1.034   2.096   4.185
 1752SOL     OW 5701   1.076   2.545   5.188
 1752SOL    HW1 5702   0.996   2.484   5.191
 1752SOL    HW2 5703   1.157   2.492   5.164
 1753SOL     OW 5704   1.227   3.432   4.517
 1753SOL    HW1 5705   1.248   3.506   4.452
 1753SOL    HW2 5706   1.295   3.432   4.590
 1754SOL     OW 5707   0.459   3.014   4.465
 1754SOL    HW1 5708   0.388   2.987   4.530
 1754SOL    HW2 5709   0.433   2.986   4.372
 1755SOL     OW 5710   1.271   3.659   4.315
 1755SOL    HW1 5711   1.315   3.723   4.251
 1755SOL    HW2 5712   1.221   3.711   4.385
 1756SOL     OW 5713   1.032   2.411   3.740
 1756SOL    HW1 5714   0.991   2.493   3.701
 1756SOL    HW2 5715   1.096   2.437   3.813
 1757SOL     OW 5716   0.078   2.418   5.110
 1757SOL    HW1 5717   0.170   2.417   5.069
 1757SOL    HW2 5718   0.072   2.492   5.177
 1758SOL     OW 5719   0.561   2.084   4.871
 1758SOL    HW1 5720   0.599   2.000   4.908
 1758SOL    HW2 5721   0.473   2.103   4.915
 1759SOL     OW 5722   0.866   2.316   4.366
 1759SOL    HW1 5723   0.834   2.388   4.304
 1759SOL    HW2 5724   0.890   2.235   4.313
 1760SOL     OW 5725   1.017   1.901   4.477
 1760SOL    HW1 5726   0.945   1.906   4.408
 1760SOL    HW2 5727   0.993   1.832   4.546
 1761SOL     OW 5728   1.429   3.035   4.591
 1761SOL    HW1 5729   1.374   2.951   4.584
 1761SOL    HW2 5730   1.455   3.064   4.499
 1762SOL     OW 5731   1.466   2.452   4.716
 1762SOL    HW1 5732   1.436   2.357   4.723
 1762SOL    HW2 5733   1.539   2.468   4.782
 1763SOL     OW 5734   1.857   2.695   4.101
 1763SOL    HW1 5735   1.899   2.631   4.165
 1763SOL    HW2 5736   1.819   2.644   4.023
 1764SOL     OW 5737   0.488   3.247   3.898
 1764SOL    HW1 5738   0.401   3.232   3.945
 1764SOL    HW2 5739   0.471   3.273   3.803
 1765SOL     OW 5740   1.664   3.142   4.381
 1765SOL    HW1 5741   1.763   3.150   4.395
 1765SOL    HW2 5742   1.619   3.226   4.412
 1766SOL     OW 5743   1.390   2.437   3.802
 1766SOL    HW1 5744   1.336   2.416   3.883
 1766SOL    HW2 5745   1.481   2.396   3.811
 1767SOL     OW 5746   0.527   2.118   4.052
 1767SOL    HW1 5747   0.554   2.059   3.977
 1767SOL    HW2 5748   0.527   2.213   4.021
 1768SOL     OW 5749   1.064   3.209   5.064
 1768SOL    HW1 5750   0.984   3.186   5.119
 1768SOL    HW2 5751   1.147   3.183   5.113
 1769SOL     OW 5752   1.592   3.491   5.349
 1769SOL    HW1 5753   1.619   3.525   5.259
 1769SOL    HW2 5754   1.671   3.453   5.395
 1770SOL     OW 5755   1.111   3.057   4.824
 1770SOL    HW1 5756   1.071   3.101   4.905
 1770SOL    HW2 5757   1.070   3.094   4.741
 1771SOL     OW 5758   1.638   2.961   4.803
 1771SOL    HW1 5759   1.643   3.042   4.862
 1771SOL    HW2 5760   1.552   2.963   4.752
 1772SOL     OW 5761   0.915   1.951   5.126
 1772SOL    HW1 5762   0.940   1.931   5.031
 1772SOL    HW2 5763   0.987   2.007   5.168
 1773SOL     OW 5764   0.980   2.978   5.443
 1773SOL    HW1 5765   0.881   2.984   5.453
 1773SOL    HW2 5766   1.003   2.898   5.387
 1774SOL     OW 5767   0.705   2.912   4.092
 1774SOL    HW1 5768   0.691   2.919   4.191
 1774SOL    HW2 5769   0.789   2.861   4.074
 1775SOL     OW 5770   0.410   2.675   4.975
 1775SOL    HW1 5771   0.496   2.687   5.025
 1775SOL    HW2 5772   0.368   2.588   5.002
 1776SOL     OW 5773   1.274   2.248   4.986
 1776SOL    HW1 5774   1.295   2.322   5.050
 1776SOL    HW2 5775   1.185   2.265   4.943
 1777SOL     OW 5776   0.064   3.426   5.055
 1777SOL    HW1 5777   0.018   3.508   5.021
 1777SOL    HW2 5778   0.162   3.445   5.064
 1778SOL     OW 5779   0.367   2.962   4.225
 1778SOL    HW1 5780   0.360   3.045   4.169
 1778SOL    HW2 5781   0.371   2.882   4.165
 1779SOL     OW 5782   0.566   2.399   4.589
 1779SOL    HW1 5783   0.578   2.465   4.515
 1779SOL    HW2 5784   0.612   2.433   4.672
 1780SOL     OW 5785   1.252   3.210   4.112
 1780SOL    HW1 5786   1.302   3.287   4.152
 1780SOL    HW2 5787   1.157   3.212   4.144
 1781SOL     OW 5788   1.272   3.307   4.866
 1781SOL    HW1 5789   1.319   3.320   4.953
 1781SOL    HW2 5790   1.206   3.233   4.875
 1782SOL     OW 5791   1.582   2.501   4.196
 1782SOL    HW1 5792   1.551   2.562   4.269
 1782SOL    HW2 5793   1.632   2.553   4.127
 1783SOL     OW 5794   0.354   3.372   5.053
 1783SOL    HW1 5795   0.333   3.328   4.966
 1783SOL    HW2 5796   0.451   3.398   5.056
 1784SOL     OW 5797   0.402   2.613   5.322
 1784SOL    HW1 5798   0.470   2.668   5.275
 1784SOL    HW2 5799   0.442   2.525   5.349
 1785SOL     OW 5800   1.013   1.967   5.494
 1785SOL    HW1 5801   1.019   2.052   5.442
 1785SOL    HW2 5802   1.045   1.891   5.437
 1786SOL     OW 5803   0.504   1.912   5.464
 1786SOL    HW1 5804   0.462   1.855   5.394
 1786SOL    HW2 5805   0.438   1.981   5.496
 1787SOL     OW 5806   0.573   2.732   4.753
 1787SOL    HW1 5807   0.617   2.821   4.744
 1787SOL    HW2 5808   0.510   2.732   4.830
 1788SOL     OW 5809   1.360   2.724   4.769
 1788SOL    HW1 5810   1.285   2.724   4.703
 1788SOL    HW2 5811   1.397   2.632   4.778
 1789SOL     OW 5812   1.209   2.387   3.999
 1789SOL    HW1 5813   1.222   2.303   4.053
 1789SOL    HW2 5814   1.180   2.461   4.059
 1790SOL     OW 5815   0.307   2.075   4.955
 1790SOL    HW1 5816   0.284   2.112   5.045
 1790SOL    HW2 5817   0.277   1.980   4.949
 1791SOL     OW 5818   0.037   3.172   5.006
 1791SOL    HW1 5819   0.090   3.123   5.074
 1791SOL    HW2 5820   0.059   3.270   5.011
 1792SOL     OW 5821   0.732   2.496   4.788
 1792SOL    HW1 5822   0.791   2.470   4.712
 1792SOL    HW2 5823   0.704   2.592   4.777
 1793SOL     OW 5824   0.307   1.925   4.342
 1793SOL    HW1 5825   0.296   2.019   4.375
 1793SOL    HW2 5826   0.302   1.862   4.419
 1794SOL     OW 5827   1.622   2.229   4.098
 1794SOL    HW1 5828   1.624   2.153   4.162
 1794SOL    HW2 5829   1.574   2.306   4.138
 1795SOL     OW 5830   1.023   2.628   4.690
 1795SOL    HW1 5831   1.038   2.649   4.786
 1795SOL    HW2 5832   0.993   2.533   4.681
 1796SOL     OW 5833   0.980   3.435   5.424
 1796SOL    HW1 5834   0.960   3.479   5.336
 1796SOL    HW2 5835   1.019   3.344   5.408
 1797SOL     OW 5836   1.859   3.380   5.329
 1797SOL    HW1 5837   1.873   3.407   5.234
 1797SOL    HW2 5838   1.942   3.402   5.382
 1798SOL     OW 5839   0.350   2.760   5.528
 1798SOL    HW1 5840   0.426   2.804   5.576
 1798SOL    HW2 5841   0.385   2.713   5.446
 1799SOL     OW 5842   1.540   2.136   3.849
 1799SOL    HW1 5843   1.479   2.061   3.872
 1799SOL    HW2 5844   1.562   2.188   3.932
 1800SOL     OW 5845   1.303   2.700   3.766
 1800SOL    HW1 5846   1.337   2.607   3.781
 1800SOL    HW2 5847   1.321   2.727   3.671
 1801SOL     OW 5848   1.068   3.195   4.573
 1801SOL    HW1 5849   1.075   3.111   4.518
 1801SOL    HW2 5850   1.130   3.264   4.537
 1802SOL     OW 5851   0.319   2.672   4.673
 1802SOL    HW1 5852   0.412   2.708   4.678
 1802SOL    HW2 5853   0.313   2.587   4.725
 1803SOL     OW 5854   0.339   2.371   4.730
 1803SOL    HW1 5855   0.287   2.288   4.713
 1803SOL    HW2 5856   0.416   2.376   4.666
 1804SOL     OW 5857   1.160   2.069   5.201
 1804SOL    HW1 5858   1.160   2.133   5.278
 1804SOL    HW2 5859   1.188   2.117   5.118
 1805SOL     OW 5860   0.008   3.188   3.924
 1805SOL    HW1 5861  -0.085   3.209   3.893
 1805SOL    HW2 5862   0.018   3.089   3.937
 1806SOL     OW 5863   0.088   3.663   4.651
 1806SOL    HW1 5864   0.046   3.577   4.624
 1806SOL    HW2 5865   0.182   3.666   4.617
 1807SOL     OW 5866   0.504   3.430   4.634
 1807SOL    HW1 5867   0.570   3.504   4.643
 1807SOL    HW2 5868   0.548   3.351   4.592
 1808SOL     OW 5869   1.002   2.658   4.962
 1808SOL    HW1 5870   1.043   2.626   5.048
 1808SOL    HW2 5871   0.906   2.631   4.959
 1809SOL     OW 5872   0.040   2.406   4.838
 1809SOL    HW1 5873   0.125   2.373   4.797
 1809SOL    HW2 5874   0.053   2.421   4.936
 1810SOL     OW 5875   0.189   2.382   5.446
 1810SOL    HW1 5876   0.248   2.342   5.376
 1810SOL    HW2 5877   0.131   2.453   5.405
 1811SOL     OW 5878   0.815   2.434   4.049
 1811SOL    HW1 5879   0.822   2.345   4.003
 1811SOL    HW2 5880   0.721   2.468   4.041
 1812SOL     OW 5881   1.657   2.466   4.930
 1812SOL    HW1 5882   1.619   2.397   4.992
 1812SOL    HW2 5883   1.739   2.430   4.886
 1813SOL     OW 5884   0.252   3.426   5.468
 1813SOL    HW1 5885   0.222   3.483   5.544
 1813SOL    HW2 5886   0.245   3.329   5.494
 1814SOL     OW 5887   0.671   2.326   4.993
 1814SOL    HW1 5888   0.637   2.237   4.963
 1814SOL    HW2 5889   0.697   2.380   4.913
 1815SOL     OW 5890   0.930   3.540   5.189
 1815SOL    HW1 5891   0.906   3.522   5.094
 1815SOL    HW2 5892   0.960   3.634   5.199
 1816SOL     OW 5893   0.473   2.362   3.915
 1816SOL    HW1 5894   0.534   2.442   3.919
 1816SOL    HW2 5895   0.378   2.393   3.922
 1817SOL     OW 5896   0.159   2.999   5.190
 1817SOL    HW1 5897   0.181   2.938   5.266
 1817SOL    HW2 5898   0.169   2.950   5.104
 1818SOL     OW 5899   1.347   2.921   4.958
 1818SOL    HW1 5900   1.371   2.858   4.884
 1818SOL    HW2 5901   1.257   2.961   4.940
 1819SOL     OW 5902   1.302   2.717   4.033
 1819SOL    HW1 5903   1.216   2.686   4.075
 1819SOL    HW2 5904   1.298   2.703   3.934
 1820SOL     OW 5905   1.759   3.609   4.878
 1820SOL    HW1 5906   1.820   3.639   4.805
 1820SOL    HW2 5907   1.721   3.520   4.856
 1821SOL     OW 5908   1.252   3.593   4.852
 1821SOL    HW1 5909   1.336   3.598   4.798
 1821SOL    HW2 5910   1.229   3.497   4.870
 1822SOL     OW 5911   0.083   3.120   4.746
 1822SOL    HW1 5912   0.078   3.119   4.846
 1822SOL    HW2 5913   0.000   3.079   4.708
 1823SOL     OW 5914   0.688   3.524   5.440
 1823SOL    HW1 5915   0.632   3.605   5.449
 1823SOL    HW2 5916   0.740   3.528   5.354
 1824SOL     OW 5917   1.726   1.997   4.247
 1824SOL    HW1 5918   1.799   1.980   4.180
 1824SOL    HW2 5919   1.695   1.910   4.285
 1825SOL     OW 5920   1.388   3.435   4.201
 1825SOL    HW1 5921   1.455   3.447   4.127
 1825SOL    HW2 5922   1.348   3.524   4.224
 1826SOL     OW 5923   0.130   3.656   5.575
 1826SOL    HW1 5924   0.089   3.582   5.628
 1826SOL    HW2 5925   0.194   3.707   5.633
 1827SOL     OW 5926   1.280   2.789   4.396
 1827SOL    HW1 5927   1.340   2.708   4.398
 1827SOL    HW2 5928   1.320   2.858   4.336
 1828SOL     OW 5929   0.830   3.135   5.146
 1828SOL    HW1 5930   0.825   3.168   5.241
 1828SOL    HW2 5931   0.744   3.154   5.100
 1829SOL     OW 5932   0.672   3.478   3.878
 1829SOL    HW1 5933   0.681   3.488   3.779
 1829SOL    HW2 5934   0.632   3.389   3.899
 1830SOL     OW 5935   1.650   3.582   5.118
 1830SOL    HW1 5936   1.703   3.592   5.034
 1830SOL    HW2 5937   1.623   3.672   5.152
 1831SOL     OW 5938   1.841   2.037   4.687
 1831SOL    HW1 5939   1.880   1.952   4.651
 1831SOL    HW2 5940   1.743   2.039   4.668
 1832SOL     OW 5941   0.263   2.188   4.444
 1832SOL    HW1 5942   0.184   2.239   4.410
 1832SOL    HW2 5943   0.254   2.173   4.542
 1833SOL     OW 5944   1.194   3.474   3.755
 1833SOL    HW1 5945   1.200   3.381   3.792
 1833SOL    HW2 5946   1.135   3.474   3.675
 1834SOL     OW 5947   0.822   2.864   5.096
 1834SOL    HW1 5948   0.862   2.863   5.004
 1834SOL    HW2 5949   0.832   2.956   5.136
 1835SOL     OW 5950   0.916   2.772   4.015
 1835SOL    HW1 5951   0.979   2.810   3.947
 1835SOL    HW2 5952   0.956   2.689   4.054
 1836SOL     OW 5953   1.504   3.469   3.768
 1836SOL    HW1 5954   1.412   3.506   3.775
 1836SOL    HW2 5955   1.542   3.489   3.678
 1837SOL     OW 5956   0.372   3.150   5.214
 1837SOL    HW1 5957   0.359   3.243   5.180
 1837SOL    HW2 5958   0.288   3.098   5.201
 1838SOL     OW 5959   1.614   3.154   5.013
 1838SOL    HW1 5960   1.674   3.157   5.093
 1838SOL    HW2 5961   1.539   3.218   5.026
 1839SOL     OW 5962   1.039   2.960   4.420
 1839SOL    HW1 5963   0.969   2.913   4.474
 1839SOL    HW2 5964   1.098   2.892   4.377
 1840SOL     OW 5965   1.014   2.098   4.695
 1840SOL    HW1 5966   1.006   2.062   4.602
 1840SOL    HW2 5967   1.012   2.022   4.760
 1841SOL     OW 5968   0.590   3.349   4.215
 1841SOL    HW1 5969   0.632   3.291   4.145
 1841SOL    HW2 5970   0.546   3.428   4.171
 1842SOL     OW 5971   0.255   3.210   4.014
 1842SOL    HW1 5972   0.159   3.211   3.987
 1842SOL    HW2 5973   0.267   3.263   4.098
 1843SOL     OW 5974   0.105   2.875   5.450
 1843SOL    HW1 5975   0.028   2.842   5.504
 1843SOL    HW2 5976   0.190   2.845   5.492
 1844SOL     OW 5977   0.672   2.065   5.213
 1844SOL    HW1 5978   0.762   2.049   5.173
 1844SOL    HW2 5979   0.680   2.070   5.312
 1845SOL     OW 5980   0.075   2.207   3.757
 1845SOL    HW1 5981  -0.017   2.179   3.728
 1845SOL    HW2 5982   0.106   2.284   3.701
 1846SOL     OW 5983   1.440   2.718   5.122
 1846SOL    HW1 5984   1.383   2.770   5.059
 1846SOL    HW2 5985   1.536   2.730   5.098
 1847SOL     OW 5986   0.072   2.028   4.042
 1847SOL    HW1 5987   0.055   2.111   3.988
 1847SOL    HW2 5988   0.162   1.991   4.020
 1848SOL     OW 5989   1.183   3.197   3.843
 1848SOL    HW1 5990   1.084   3.186   3.845
 1848SOL    HW2 5991   1.217   3.212   3.936
 1849SOL     OW 5992   0.613   2.704   5.155
 1849SOL    HW1 5993   0.669   2.785   5.138
 1849SOL    HW2 5994   0.672   2.624   5.158
 1850SOL     OW 5995   1.493   3.629   4.683
 1850SOL    HW1 5996   1.526   3.693   4.614
 1850SOL    HW2 5997   1.559   3.623   4.758
 1851SOL     OW 5998   0.716   2.427   5.432
 1851SOL    HW1 5999   0.735   2.492   5.506
 1851SOL    HW2 6000   0.776   2.347   5.441
 1852SOL     OW 6001   1.450   3.082   5.357
 1852SOL    HW1 6002   1.441   3.072   5.456
 1852SOL    HW2 6003   1.546   3.075   5.331
 1853SOL     OW 6004   0.390   3.603   5.284
 1853SOL    HW1 6005   0.299   3.644   5.282
 1853SOL    HW2 6006   0.383   3.509   5.316
 1854SOL     OW 6007   1.674   2.745   4.978
 1854SOL    HW1 6008   1.647   2.656   4.941
 1854SOL    HW2 6009   1.675   2.813   4.905
 1855SOL     OW 6010   1.225   2.187   4.173
 1855SOL    HW1 6011   1.290   2.113   4.162
 1855SOL    HW2 6012   1.245   2.237   4.257
 1856SOL     OW 6013   0.594   2.607   4.376
 1856SOL    HW1 6014   0.644   2.692   4.357
 1856SOL    HW2 6015   0.506   2.609   4.328
 1857SOL     OW 6016   0.859   3.236   3.740
 1857SOL    HW1 6017   0.813   3.251   3.828
 1857SOL    HW2 6018   0.903   3.321   3.710
 1858SOL     OW 6019   0.661   3.652   4.677
 1858SOL    HW1 6020   0.615   3.740   4.664
 1858SOL    HW2 6021   0.760   3.664   4.670
 1859SOL     OW 6022   0.859   2.818   4.585
 1859SOL    HW1 6023   0.913   2.749   4.633
 1859SOL    HW2 6024   0.827   2.887   4.651
 1860SOL     OW 6025   1.083   2.846   3.811
 1860SOL    HW1 6026   1.060   2.899   3.729
 1860SOL    HW2 6027   1.164   2.790   3.792
 1861SOL     OW 6028   1.861   3.431   4.575
 1861SOL    HW1 6029   1.790   3.419   4.505
 1861SOL    HW2 6030   1.862   3.352   4.635
 1862SOL     OW 6031   0.221   3.176   5.568
 1862SOL    HW1 6032   0.156   3.103   5.547
 1862SOL    HW2 6033   0.225   3.190   5.666
 1863SOL     OW 6034   0.079   3.102   4.377
 1863SOL    HW1 6035   0.078   3.055   4.465
 1863SOL    HW2 6036   0.161   3.074   4.326
 1864SOL     OW 6037   0.672   3.253   5.348
 1864SOL    HW1 6038   0.594   3.203   5.386
 1864SOL    HW2 6039   0.669   3.348   5.379
 1865SOL     OW 6040   1.824   2.054   4.951
 1865SOL    HW1 6041   1.820   1.964   4.995
 1865SOL    HW2 6042   1.827   2.043   4.852
 1866SOL     OW 6043   0.428   2.286   4.244
 1866SOL    HW1 6044   0.458   2.214   4.182
 1866SOL    HW2 6045   0.389   2.246   4.327
 1867SOL     OW 6046   1.705   3.349   4.828
 1867SOL    HW1 6047   1.612   3.324   4.801
 1867SOL    HW2 6048   1.731   3.299   4.910
 1868SOL     OW 6049   0.317   2.409   5.004
 1868SOL    HW1 6050   0.355   2.350   5.076
 1868SOL    HW2 6051   0.357   2.383   4.916
 1869SOL     OW 6052   0.812   3.448   4.411
 1869SOL    HW1 6053   0.844   3.458   4.317
 1869SOL    HW2 6054   0.733   3.386   4.413
 1870SOL     OW 6055   1.424   2.076   4.836
 1870SOL    HW1 6056   1.476   2.011   4.891
 1870SOL    HW2 6057   1.375   2.139   4.897
 1871SOL     OW 6058   1.001   1.896   4.878
 1871SOL    HW1 6059   0.938   1.824   4.847
 1871SOL    HW2 6060   1.094   1.860   4.878
 1872SOL     OW 6061   0.770   3.192   4.025
 1872SOL    HW1 6062   0.724   3.105   4.042
 1872SOL    HW2 6063   0.861   3.189   4.066
 1873SOL     OW 6064   0.618   3.429   5.008
 1873SOL    HW1 6065   0.613   3.511   5.065
 1873SOL    HW2 6066   0.707   3.426   4.963
 1874SOL     OW 6067   1.352   1.914   3.892
 1874SOL    HW1 6068   1.387   1.873   3.808
 1874SOL    HW2 6069   1.262   1.876   3.912
 1875SOL     OW 6070   1.300   2.315   4.415
 1875SOL    HW1 6071   1.241   2.395   4.419
 1875SOL    HW2 6072   1.315   2.280   4.508
 1876SOL     OW 6073   1.593   2.083   4.606
 1876SOL    HW1 6074   1.509   2.082   4.660
 1876SOL    HW2 6075   1.595   2.166   4.550
 1877SOL     OW 6076   0.039   2.939   4.024
 1877SOL    HW1 6077   0.138   2.928   4.015
 1877SOL    HW2 6078  -0.001   2.853   4.056
 1878SOL     OW 6079   0.875   3.508   4.061
 1878SOL    HW1 6080   0.798   3.473   4.007
 1878SOL    HW2 6081   0.843   3.579   4.123
 1879SOL     OW 6082   0.230   2.490   5.699
 1879SOL    HW1 6083   0.137   2.488   5.736
 1879SOL    HW2 6084   0.231   2.451   5.607
 1880SOL     OW 6085   0.225   2.137   6.582
 1880SOL    HW1 6086   0.260   2.120   6.674
 1880SOL    HW2 6087   0.137   2.092   6.570
 1881SOL     OW 6088   0.019   2.230   6.233
 1881SOL    HW1 6089  -0.063   2.273   6.272
 1881SOL    HW2 6090  -0.009   2.157   6.170
 1882SOL     OW 6091   0.569   3.137   6.751
 1882SOL    HW1 6092   0.476   3.130   6.714
 1882SOL    HW2 6093   0.580   3.226   6.795
 1883SOL     OW 6094   1.555   3.373   6.289
 1883SOL    HW1 6095   1.498   3.357   6.370
 1883SOL    HW2 6096   1.496   3.383   6.209
 1884SOL     OW 6097   1.135   2.565   6.303
 1884SOL    HW1 6098   1.192   2.643   6.278
 1884SOL    HW2 6099   1.075   2.591   6.379
 1885SOL     OW 6100   0.768   3.006   6.609
 1885SOL    HW1 6101   0.690   3.023   6.669
 1885SOL    HW2 6102   0.802   3.093   6.573
 1886SOL     OW 6103   0.850   2.660   7.409
 1886SOL    HW1 6104   0.846   2.736   7.474
 1886SOL    HW2 6105   0.872   2.696   7.318
 1887SOL     OW 6106   0.685   2.874   6.251
 1887SOL    HW1 6107   0.754   2.858   6.321
 1887SOL    HW2 6108   0.612   2.931   6.289
 1888SOL     OW 6109   0.686   3.023   7.389
 1888SOL    HW1 6110   0.746   3.102   7.403
 1888SOL    HW2 6111   0.600   3.054   7.348
 1889SOL     OW 6112   0.335   3.297   6.647
 1889SOL    HW1 6113   0.257   3.266   6.594
 1889SOL    HW2 6114   0.393   3.355   6.590
 1890SOL     OW 6115   1.460   3.367   6.925
 1890SOL    HW1 6116   1.484   3.461   6.951
 1890SOL    HW2 6117   1.444   3.313   7.007
 1891SOL     OW 6118   0.438   2.254   7.085
 1891SOL    HW1 6119   0.520   2.198   7.094
 1891SOL    HW2 6120   0.357   2.196   7.089
 1892SOL     OW 6121   1.603   2.309   6.323
 1892SOL    HW1 6122   1.529   2.355   6.273
 1892SOL    HW2 6123   1.654   2.377   6.376
 1893SOL     OW 6124   0.231   3.575   6.069
 1893SOL    HW1 6125   0.265   3.652   6.123
 1893SOL    HW2 6126   0.275   3.575   5.979
 1894SOL     OW 6127   1.127   3.203   7.276
 1894SOL    HW1 6128   1.174   3.203   7.364
 1894SOL    HW2 6129   1.079   3.116   7.265
 1895SOL     OW 6130   0.230   3.296   6.124
 1895SOL    HW1 6131   0.204   3.392   6.124
 1895SOL    HW2 6132   0.159   3.242   6.169
 1896SOL     OW 6133   0.240   2.953   6.472
 1896SOL    HW1 6134   0.254   2.869   6.524
 1896SOL    HW2 6135   0.185   3.017   6.527
 1897SOL     OW 6136   0.620   3.648   7.025
 1897SOL    HW1 6137   0.528   3.631   7.060
 1897SOL    HW2 6138   0.648   3.740   7.051
 1898SOL     OW 6139   0.606   2.826   5.709
 1898SOL    HW1 6140   0.613   2.910   5.655
 1898SOL    HW2 6141   0.652   2.839   5.797
 1899SOL     OW 6142   1.594   1.976   7.066
 1899SOL    HW1 6143   1.576   2.043   6.994
 1899SOL    HW2 6144   1.591   2.022   7.155
 1900SOL     OW 6145   0.122   2.505   6.149
 1900SOL    HW1 6146   0.077   2.417   6.166
 1900SOL    HW2 6147   0.121   2.559   6.233
 1901SOL     OW 6148   1.842   3.629   5.945
 1901SOL    HW1 6149   1.896   3.600   6.025
 1901SOL    HW2 6150   1.872   3.719   5.916
 1902SOL     OW 6151   0.027   3.458   5.703
 1902SOL    HW1 6152   0.008   3.362   5.724
 1902SOL    HW2 6153  -0.006   3.516   5.778
 1903SOL     OW 6154   1.689   2.784   6.198
 1903SOL    HW1 6155   1.784   2.755   6.206
 1903SOL    HW2 6156   1.681   2.849   6.123
 1904SOL     OW 6157   1.641   2.970   6.018
 1904SOL    HW1 6158   1.727   2.972   5.966
 1904SOL    HW2 6159   1.655   3.017   6.106
 1905SOL     OW 6160   0.113   2.599   7.183
 1905SOL    HW1 6161   0.201   2.586   7.228
 1905SOL    HW2 6162   0.100   2.696   7.161
 1906SOL     OW 6163   0.613   3.227   6.312
 1906SOL    HW1 6164   0.564   3.140   6.321
 1906SOL    HW2 6165   0.590   3.270   6.225
 1907SOL     OW 6166   1.293   3.090   7.009
 1907SOL    HW1 6167   1.330   3.017   6.951
 1907SOL    HW2 6168   1.345   3.095   7.094
 1908SOL     OW 6169   0.809   1.866   6.088
 1908SOL    HW1 6170   0.849   1.957   6.079
 1908SOL    HW2 6171   0.709   1.874   6.094
 1909SOL     OW 6172   0.197   2.838   6.850
 1909SOL    HW1 6173   0.286   2.793   6.836
 1909SOL    HW2 6174   0.124   2.773   6.831
 1910SOL     OW 6175   1.187   3.654   7.202
 1910SOL    HW1 6176   1.211   3.714   7.126
 1910SOL    HW2 6177   1.194   3.559   7.172
 1911SOL     OW 6178   0.317   2.113   7.387
 1911SOL    HW1 6179   0.388   2.184   7.393
 1911SOL    HW2 6180   0.229   2.152   7.415
 1912SOL     OW 6181   1.466   3.279   6.539
 1912SOL    HW1 6182   1.407   3.285   6.619
 1912SOL    HW2 6183   1.451   3.191   6.493
 1913SOL     OW 6184   1.667   3.576   6.158
 1913SOL    HW1 6185   1.626   3.553   6.070
 1913SOL    HW2 6186   1.649   3.502   6.223
 1914SOL     OW 6187   0.598   2.591   5.856
 1914SOL    HW1 6188   0.622   2.660   5.788
 1914SOL    HW2 6189   0.520   2.624   5.910
 1915SOL     OW 6190   1.281   2.207   6.530
 1915SOL    HW1 6191   1.195   2.157   6.517
 1915SOL    HW2 6192   1.343   2.153   6.586
 1916SOL     OW 6193   1.576   3.524   5.893
 1916SOL    HW1 6194   1.665   3.570   5.896
 1916SOL    HW2 6195   1.555   3.500   5.798
 1917SOL     OW 6196   0.807   2.467   7.051
 1917SOL    HW1 6197   0.760   2.464   7.140
 1917SOL    HW2 6198   0.756   2.412   6.985
 1918SOL     OW 6199   1.394   2.331   7.260
 1918SOL    HW1 6200   1.374   2.374   7.348
 1918SOL    HW2 6201   1.472   2.269   7.269
 1919SOL     OW 6202   0.973   2.752   7.158
 1919SOL    HW1 6203   1.019   2.668   7.129
 1919SOL    HW2 6204   0.917   2.786   7.083
 1920SOL     OW 6205   0.991   2.272   6.828
 1920SOL    HW1 6206   0.914   2.306   6.882
 1920SOL    HW2 6207   0.957   2.221   6.749
 1921SOL     OW 6208   1.041   2.563   6.015
 1921SOL    HW1 6209   1.067   2.559   6.111
 1921SOL    HW2 6210   0.956   2.512   6.001
 1922SOL     OW 6211   0.076   2.673   6.375
 1922SOL    HW1 6212   0.175   2.661   6.384
 1922SOL    HW2 6213   0.052   2.768   6.396
 1923SOL     OW 6214   0.130   3.683   7.157
 1923SOL    HW1 6215   0.120   3.668   7.256
 1923SOL    HW2 6216   0.044   3.719   7.121
 1924SOL     OW 6217   0.865   2.210   5.781
 1924SOL    HW1 6218   0.924   2.273   5.732
 1924SOL    HW2 6219   0.884   2.116   5.752
 1925SOL     OW 6220   1.719   2.447   7.417
 1925SOL    HW1 6221   1.693   2.536   7.381
 1925SOL    HW2 6222   1.717   2.379   7.344
 1926SOL     OW 6223   1.362   3.006   6.131
 1926SOL    HW1 6224   1.445   2.977   6.083
 1926SOL    HW2 6225   1.313   3.073   6.075
 1927SOL     OW 6226   0.550   2.058   6.471
 1927SOL    HW1 6227   0.545   2.053   6.571
 1927SOL    HW2 6228   0.552   2.154   6.442
 1928SOL     OW 6229   1.008   3.318   6.063
 1928SOL    HW1 6230   0.962   3.390   6.011
 1928SOL    HW2 6231   1.004   3.338   6.161
 1929SOL     OW 6232   0.351   3.663   6.439
 1929SOL    HW1 6233   0.401   3.577   6.445
 1929SOL    HW2 6234   0.416   3.740   6.436
 1930SOL     OW 6235   1.795   2.928   6.459
 1930SOL    HW1 6236   1.733   2.913   6.383
 1930SOL    HW2 6237   1.743   2.939   6.544
 1931SOL     OW 6238   1.227   3.412   7.092
 1931SOL    HW1 6239   1.233   3.335   7.156
 1931SOL    HW2 6240   1.175   3.386   7.012
 1932SOL     OW 6241   0.321   2.805   5.828
 1932SOL    HW1 6242   0.403   2.844   5.786
 1932SOL    HW2 6243   0.294   2.723   5.779
 1933SOL     OW 6244   1.458   2.597   6.314
 1933SOL    HW1 6245   1.453   2.532   6.389
 1933SOL    HW2 6246   1.538   2.656   6.327
 1934SOL     OW 6247   0.461   3.128   7.313
 1934SOL    HW1 6248   0.411   3.129   7.227
 1934SOL    HW2 6249   0.398   3.110   7.389
 1935SOL     OW 6250   1.111   3.638   5.823
 1935SOL    HW1 6251   1.051   3.576   5.873
 1935SOL    HW2 6252   1.142   3.594   5.738
 1936SOL     OW 6253   0.202   2.147   7.084
 1936SOL    HW1 6254   0.122   2.207   7.071
 1936SOL    HW2 6255   0.192   2.098   7.170
 1937SOL     OW 6256   1.632   3.239   5.667
 1937SOL    HW1 6257   1.600   3.333   5.657
 1937SOL    HW2 6258   1.556   3.176   5.655
 1938SOL     OW 6259   0.464   3.605   5.909
 1938SOL    HW1 6260   0.497   3.644   5.995
 1938SOL    HW2 6261   0.540   3.598   5.844
 1939SOL     OW 6262   0.249   3.647   6.827
 1939SOL    HW1 6263   0.306   3.582   6.877
 1939SOL    HW2 6264   0.233   3.614   6.734
 1940SOL     OW 6265   0.940   3.560   6.490
 1940SOL    HW1 6266   1.020   3.503   6.511
 1940SOL    HW2 6267   0.891   3.520   6.413
 1941SOL     OW 6268   0.382   2.562   6.066
 1941SOL    HW1 6269   0.427   2.472   6.063
 1941SOL    HW2 6270   0.288   2.551   6.099
 1942SOL     OW 6271   1.547   2.084   7.315
 1942SOL    HW1 6272   1.542   2.121   7.407
 1942SOL    HW2 6273   1.475   2.015   7.303
 1943SOL     OW 6274   0.614   1.984   5.703
 1943SOL    HW1 6275   0.712   1.962   5.710
 1943SOL    HW2 6276   0.583   1.967   5.610
 1944SOL     OW 6277   0.781   2.126   7.335
 1944SOL    HW1 6278   0.848   2.065   7.378
 1944SOL    HW2 6279   0.708   2.145   7.400
 1945SOL     OW 6280   0.888   3.376   6.781
 1945SOL    HW1 6281   0.865   3.351   6.687
 1945SOL    HW2 6282   0.949   3.307   6.820
 1946SOL     OW 6283   1.351   2.452   7.019
 1946SOL    HW1 6284   1.379   2.409   7.104
 1946SOL    HW2 6285   1.376   2.548   7.020
 1947SOL     OW 6286   0.803   3.264   6.510
 1947SOL    HW1 6287   0.893   3.278   6.468
 1947SOL    HW2 6288   0.732   3.266   6.439
 1948SOL     OW 6289   0.922   2.365   6.485
 1948SOL    HW1 6290   0.897   2.356   6.389
 1948SOL    HW2 6291   0.970   2.283   6.516
 1949SOL     OW 6292   0.539   1.926   6.098
 1949SOL    HW1 6293   0.458   1.927   6.156
 1949SOL    HW2 6294   0.542   2.009   6.043
 1950SOL     OW 6295   0.297   1.897   5.757
 1950SOL    HW1 6296   0.346   1.981   5.736
 1950SOL    HW2 6297   0.359   1.832   5.802
 1951SOL     OW 6298   0.935   2.098   6.066
 1951SOL    HW1 6299   0.887   2.139   5.988
 1951SOL    HW2 6300   1.034   2.096   6.047
 1952SOL     OW 6301   1.076   2.545   7.050
 1952SOL    HW1 6302   0.996   2.484   7.053
 1952SOL    HW2 6303   1.157   2.492   7.026
 1953SOL     OW 6304   1.227   3.432   6.379
 1953SOL    HW1 6305   1.248   3.506   6.314
 1953SOL    HW2 6306   1.295   3.432   6.452
 1954SOL     OW 6307   0.459   3.014   6.327
 1954SOL    HW1 6308   0.388   2.987   6.392
 1954SOL    HW2 6309   0.433   2.986   6.234
 1955SOL     OW 6310   1.271   3.659   6.177
 1955SOL    HW1 6311   1.315   3.723   6.113
 1955SOL    HW2 6312   1.221   3.711   6.247
 1956SOL     OW 6313   1.032   2.411   5.602
 1956SOL    HW1 6314   0.991   2.493   5.563
 1956SOL    HW2 6315   1.096   2.437   5.675
 1957SOL     OW 6316   0.078   2.418   6.972
 1957SOL    HW1 6317   0.170   2.417   6.931
 1957SOL    HW2 6318   0.072   2.492   7.039
 1958SOL     OW 6319   0.561   2.084   6.733
 1958SOL    HW1 6320   0.599   2.000   6.770
 1958SOL    HW2 6321   0.473   2.103   6.777
 1959SOL     OW 6322   0.866   2.316   6.228
 1959SOL    HW1 6323   0.834   2.388   6.166
 1959SOL    HW2 6324   0.890   2.235   6.175
 1960SOL     OW 6325   1.017   1.901   6.339
 1960SOL    HW1 6326   0.945   1.906   6.270
 1960SOL    HW2 6327   0.993   1.832   6.408
 1961SOL     OW 6328   1.429   3.035   6.453
 1961SOL    HW1 6329   1.374   2.951   6.446
 1961SOL    HW2 6330   1.455   3.064   6.361
 1962SOL     OW 6331   1.466   2.452   6.578
 1962SOL    HW1 6332   1.436   2.357   6.585
 1962SOL    HW2 6333   1.539   2.468   6.644
 1963SOL     OW 6334   0.488   3.247   5.760
 1963SOL    HW1 6335   0.401   3.232   5.807
 1963SOL    HW2 6336   0.471   3.273   5.665
 1964SOL     OW 6337   1.664   3.142   6.243
 1964SOL    HW1 6338   1.763   3.150   6.257
 1964SOL    HW2 6339   1.619   3.226   6.274
 1965SOL     OW 6340   0.527   2.118   5.914
 1965SOL    HW1 6341   0.554   2.059   5.839
 1965SOL    HW2 6342   0.527   2.213   5.883
 1966SOL     OW 6343   1.754   3.085   7.174
 1966SOL    HW1 6344   1.845   3.046   7.161
 1966SOL    HW2 6345   1.762   3.181   7.198
 1967SOL     OW 6346   1.064   3.209   6.926
 1967SOL    HW1 6347   0.984   3.186   6.981
 1967SOL    HW2 6348   1.147   3.183   6.975
 1968SOL     OW 6349   1.592   3.491   7.211
 1968SOL    HW1 6350   1.619   3.525   7.121
 1968SOL    HW2 6351   1.671   3.453   7.257
 1969SOL     OW 6352   1.111   3.057   6.686
 1969SOL    HW1 6353   1.071   3.101   6.767
 1969SOL    HW2 6354   1.070   3.094   6.603
 1970SOL     OW 6355   1.638   2.961   6.665
 1970SOL    HW1 6356   1.643   3.042   6.724
 1970SOL    HW2 6357   1.552   2.963   6.614
 1971SOL     OW 6358   0.915   1.951   6.988
 1971SOL    HW1 6359   0.940   1.931   6.893
 1971SOL    HW2 6360   0.987   2.007   7.030
 1972SOL     OW 6361   0.980   2.978   7.305
 1972SOL    HW1 6362   0.881   2.984   7.315
 1972SOL    HW2 6363   1.003   2.898   7.249
 1973SOL     OW 6364   0.705   2.912   5.954
 1973SOL    HW1 6365   0.691   2.919   6.053
 1973SOL    HW2 6366   0.789   2.861   5.936
 1974SOL     OW 6367   0.410   2.675   6.837
 1974SOL    HW1 6368   0.496   2.687   6.887
 1974SOL    HW2 6369   0.368   2.588   6.864
 1975SOL     OW 6370   1.274   2.248   6.848
 1975SOL    HW1 6371   1.295   2.322   6.912
 1975SOL    HW2 6372   1.185   2.265   6.805
 1976SOL     OW 6373   0.064   3.426   6.917
 1976SOL    HW1 6374   0.018   3.508   6.883
 1976SOL    HW2 6375   0.162   3.445   6.926
 1977SOL     OW 6376   0.367   2.962   6.087
 1977SOL    HW1 6377   0.360   3.045   6.031
 1977SOL    HW2 6378   0.371   2.882   6.027
 1978SOL     OW 6379   0.566   2.399   6.451
 1978SOL    HW1 6380   0.578   2.465   6.377
 1978SOL    HW2 6381   0.612   2.433   6.534
 1979SOL     OW 6382   1.252   3.210   5.974
 1979SOL    HW1 6383   1.302   3.287   6.014
 1979SOL    HW2 6384   1.157   3.212   6.006
 1980SOL     OW 6385   1.272   3.307   6.728
 1980SOL    HW1 6386   1.319   3.320   6.815
 1980SOL    HW2 6387   1.206   3.233   6.737
 1981SOL     OW 6388   0.354   3.372   6.915
 1981SOL    HW1 6389   0.333   3.328   6.828
 1981SOL    HW2 6390   0.451   3.398   6.918
 1982SOL     OW 6391   0.402   2.613   7.184
 1982SOL    HW1 6392   0.470   2.668   7.137
 1982SOL    HW2 6393   0.442   2.525   7.211
 1983SOL     OW 6394   1.587   2.641   7.256
 1983SOL    HW1 6395   1.495   2.679   7.251
 1983SOL    HW2 6396   1.647   2.688   7.191
 1984SOL     OW 6397   1.013   1.967   7.356
 1984SOL    HW1 6398   1.019   2.052   7.304
 1984SOL    HW2 6399   1.045   1.891   7.299
 1985SOL     OW 6400   0.504   1.912   7.326
 1985SOL    HW1 6401   0.462   1.855   7.256
 1985SOL    HW2 6402   0.438   1.981   7.358
 1986SOL     OW 6403   0.573   2.732   6.615
 1986SOL    HW1 6404   0.617   2.821   6.606
 1986SOL    HW2 6405   0.510   2.732   6.692
 1987SOL     OW 6406   1.360   2.724   6.631
 1987SOL    HW1 6407   1.285   2.724   6.565
 1987SOL    HW2 6408   1.397   2.632   6.640
 1988SOL     OW 6409   1.209   2.387   5.861
 1988SOL    HW1 6410   1.222   2.303   5.915
 1988SOL    HW2 6411   1.180   2.461   5.921
 1989SOL     OW 6412   0.307   2.075   6.817
 1989SOL    HW1 6413   0.284   2.112   6.907
 1989SOL    HW2 6414   0.277   1.980   6.811
 1990SOL     OW 6415   0.037   3.172   6.868
 1990SOL    HW1 6416   0.090   3.123   6.936
 1990SOL    HW2 6417   0.059   3.270   6.873
 1991SOL     OW 6418   0.732   2.496   6.650
 1991SOL    HW1 6419   0.791   2.470   6.574
 1991SOL    HW2 6420   0.704   2.592   6.639
 1992SOL     OW 6421   1.728   2.797   7.440
 1992SOL    HW1 6422   1.682   2.790   7.351
 1992SOL    HW2 6423   1.666   2.841   7.506
 1993SOL     OW 6424   0.307   1.925   6.204
 1993SOL    HW1 6425   0.296   2.019   6.237
 1993SOL    HW2 6426   0.302   1.862   6.281
 1994SOL     OW 6427   1.622   2.229   5.960
 1994SOL    HW1 6428   1.624   2.153   6.024
 1994SOL    HW2 6429   1.574   2.306   6.000
 1995SOL     OW 6430   1.023   2.628   6.552
 1995SOL    HW1 6431   1.038   2.649   6.648
 1995SOL    HW2 6432   0.993   2.533   6.543
 1996SOL     OW 6433   0.980   3.435   7.286
 1996SOL    HW1 6434   0.960   3.479   7.198
 1996SOL    HW2 6435   1.019   3.344   7.270
 1997SOL     OW 6436   1.859   3.380   7.191
 1997SOL    HW1 6437   1.873   3.407   7.096
 1997SOL    HW2 6438   1.942   3.402   7.244
 1998SOL     OW 6439   0.350   2.760   7.390
 1998SOL    HW1 6440   0.426   2.804   7.438
 1998SOL    HW2 6441   0.385   2.713   7.308
 1999SOL     OW 6442   1.303   2.700   5.628
 1999SOL    HW1 6443   1.337   2.607   5.643
 1999SOL    HW2 6444   1.321   2.727   5.533
 2000SOL     OW 6445   1.068   3.195   6.435
 2000SOL    HW1 6446   1.075   3.111   6.380
 2000SOL    HW2 6447   1.130   3.264   6.399
 2001SOL     OW 6448   0.319   2.672   6.535
 2001SOL    HW1 6449   0.412   2.708   6.540
 2001SOL    HW2 6450   0.313   2.587   6.587
 2002SOL     OW 6451   0.339   2.371   6.592
 2002SOL    HW1 6452   0.287   2.288   6.575
 2002SOL    HW2 6453   0.416   2.376   6.528
 2003SOL     OW 6454   1.138   2.242   7.264
 2003SOL    HW1 6455   1.093   2.305   7.328
 2003SOL    HW2 6456   1.231   2.273   7.247
 2004SOL     OW 6457   1.160   2.069   7.063
 2004SOL    HW1 6458   1.160   2.133   7.140
 2004SOL    HW2 6459   1.188   2.117   6.980
 2005SOL     OW 6460   0.008   3.188   5.786
 2005SOL    HW1 6461  -0.085   3.209   5.755
 2005SOL    HW2 6462   0.018   3.089   5.799
 2006SOL     OW 6463   0.088   3.663   6.513
 2006SOL    HW1 6464   0.046   3.577   6.486
 2006SOL    HW2 6465   0.182   3.666   6.479
 2007SOL     OW 6466   0.504   3.430   6.496
 2007SOL    HW1 6467   0.570   3.504   6.505
 2007SOL    HW2 6468   0.548   3.351   6.454
 2008SOL     OW 6469   1.002   2.658   6.824
 2008SOL    HW1 6470   1.043   2.626   6.910
 2008SOL    HW2 6471   0.906   2.631   6.821
 2009SOL     OW 6472   0.040   2.406   6.700
 2009SOL    HW1 6473   0.125   2.373   6.659
 2009SOL    HW2 6474   0.053   2.421   6.798
 2010SOL     OW 6475   0.189   2.382   7.308
 2010SOL    HW1 6476   0.248   2.342   7.238
 2010SOL    HW2 6477   0.131   2.453   7.267
 2011SOL     OW 6478   1.369   2.812   7.246
 2011SOL    HW1 6479   1.408   2.901   7.266
 2011SOL    HW2 6480   1.379   2.792   7.149
 2012SOL     OW 6481   0.815   2.434   5.911
 2012SOL    HW1 6482   0.822   2.345   5.865
 2012SOL    HW2 6483   0.721   2.468   5.903
 2013SOL     OW 6484   1.657   2.466   6.792
 2013SOL    HW1 6485   1.619   2.397   6.854
 2013SOL    HW2 6486   1.739   2.430   6.748
 2014SOL     OW 6487   0.252   3.426   7.330
 2014SOL    HW1 6488   0.222   3.483   7.406
 2014SOL    HW2 6489   0.245   3.329   7.356
 2015SOL     OW 6490   0.671   2.326   6.855
 2015SOL    HW1 6491   0.637   2.237   6.825
 2015SOL    HW2 6492   0.697   2.380   6.775
 2016SOL     OW 6493   0.930   3.540   7.051
 2016SOL    HW1 6494   0.906   3.522   6.956
 2016SOL    HW2 6495   0.960   3.634   7.061
 2017SOL     OW 6496   0.473   2.362   5.777
 2017SOL    HW1 6497   0.534   2.442   5.781
 2017SOL    HW2 6498   0.378   2.393   5.784
 2018SOL     OW 6499   0.159   2.999   7.052
 2018SOL    HW1 6500   0.181   2.938   7.128
 2018SOL    HW2 6501   0.169   2.950   6.966
 2019SOL     OW 6502   1.347   2.921   6.820
 2019SOL    HW1 6503   1.371   2.858   6.746
 2019SOL    HW2 6504   1.257   2.961   6.802
 2020SOL     OW 6505   1.302   2.717   5.895
 2020SOL    HW1 6506   1.216   2.686   5.937
 2020SOL    HW2 6507   1.298   2.703   5.796
 2021SOL     OW 6508   1.759   3.609   6.740
 2021SOL    HW1 6509   1.820   3.639   6.667
 2021SOL    HW2 6510   1.721   3.520   6.718
 2022SOL     OW 6511   1.252   3.593   6.714
 2022SOL    HW1 6512   1.336   3.598   6.660
 2022SOL    HW2 6513   1.229   3.497   6.732
 2023SOL     OW 6514   0.083   3.120   6.608
 2023SOL    HW1 6515   0.078   3.119   6.708
 2023SOL    HW2 6516   0.000   3.079   6.570
 2024SOL     OW 6517   0.688   3.524   7.302
 2024SOL    HW1 6518   0.632   3.605   7.311
 2024SOL    HW2 6519   0.740   3.528   7.216
 2025SOL     OW 6520   1.726   1.997   6.109
 2025SOL    HW1 6521   1.799   1.980   6.042
 2025SOL    HW2 6522   1.695   1.910   6.147
 2026SOL     OW 6523   1.388   3.435   6.063
 2026SOL    HW1 6524   1.455   3.447   5.989
 2026SOL    HW2 6525   1.348   3.524   6.086
 2027SOL     OW 6526   0.130   3.656   7.437
 2027SOL    HW1 6527   0.089   3.582   7.490
 2027SOL    HW2 6528   0.194   3.707   7.495
 2028SOL     OW 6529   1.280   2.789   6.258
 2028SOL    HW1 6530   1.340   2.708   6.260
 2028SOL    HW2 6531   1.320   2.858   6.198
 2029SOL     OW 6532   0.830   3.135   7.008
 2029SOL    HW1 6533   0.825   3.168   7.103
 2029SOL    HW2 6534   0.744   3.154   6.962
 2030SOL     OW 6535   0.672   3.478   5.740
 2030SOL    HW1 6536   0.681   3.488   5.641
 2030SOL    HW2 6537   0.632   3.389   5.761
 2031SOL     OW 6538   1.650   3.582   6.980
 2031SOL    HW1 6539   1.703   3.592   6.896
 2031SOL    HW2 6540   1.623   3.672   7.014
 2032SOL     OW 6541   1.841   2.037   6.549
 2032SOL    HW1 6542   1.880   1.952   6.513
 2032SOL    HW2 6543   1.743   2.039   6.530
 2033SOL     OW 6544   0.263   2.188   6.306
 2033SOL    HW1 6545   0.184   2.239   6.272
 2033SOL    HW2 6546   0.254   2.173   6.404
 2034SOL     OW 6547   1.194   3.474   5.617
 2034SOL    HW1 6548   1.200   3.381   5.654
 2034SOL    HW2 6549   1.135   3.474   5.537
 2035SOL     OW 6550   0.822   2.864   6.958
 2035SOL    HW1 6551   0.862   2.863   6.866
 2035SOL    HW2 6552   0.832   2.956   6.998
 2036SOL     OW 6553   0.916   2.772   5.877
 2036SOL    HW1 6554   0.979   2.810   5.809
 2036SOL    HW2 6555   0.956   2.689   5.916
 2037SOL     OW 6556   1.504   3.469   5.630
 2037SOL    HW1 6557   1.412   3.506   5.637
 2037SOL    HW2 6558   1.542   3.489   5.540
 2038SOL     OW 6559   0.372   3.150   7.076
 2038SOL    HW1 6560   0.359   3.243   7.042
 2038SOL    HW2 6561   0.288   3.098   7.063
 2039SOL     OW 6562   1.614   3.154   6.875
 2039SOL    HW1 6563   1.674   3.157   6.955
 2039SOL    HW2 6564   1.539   3.218   6.888
 2040SOL     OW 6565   1.039   2.960   6.282
 2040SOL    HW1 6566   0.969   2.913   6.336
 2040SOL    HW2 6567   1.098   2.892   6.239
 2041SOL     OW 6568   1.014   2.098   6.557
 2041SOL    HW1 6569   1.006   2.062   6.464
 2041SOL    HW2 6570   1.012   2.022   6.622
 2042SOL     OW 6571   0.590   3.349   6.077
 2042SOL    HW1 6572   0.632   3.291   6.007
 2042SOL    HW2 6573   0.546   3.428   6.033
 2043SOL     OW 6574   1.709   2.247   6.967
 2043SOL    HW1 6575   1.782   2.316   6.971
 2043SOL    HW2 6576   1.737   2.172   6.908
 2044SOL     OW 6577   0.255   3.210   5.876
 2044SOL    HW1 6578   0.159   3.211   5.849
 2044SOL    HW2 6579   0.267   3.263   5.960
 2045SOL     OW 6580   0.105   2.875   7.312
 2045SOL    HW1 6581   0.028   2.842   7.366
 2045SOL    HW2 6582   0.190   2.845   7.354
 2046SOL     OW 6583   0.672   2.065   7.075
 2046SOL    HW1 6584   0.762   2.049   7.035
 2046SOL    HW2 6585   0.680   2.070   7.174
 2047SOL     OW 6586   0.075   2.207   5.619
 2047SOL    HW1 6587  -0.017   2.179   5.590
 2047SOL    HW2 6588   0.106   2.284   5.563
 2048SOL     OW 6589   1.440   2.718   6.984
 2048SOL    HW1 6590   1.383   2.770   6.921
 2048SOL    HW2 6591   1.536   2.730   6.960
 2049SOL     OW 6592   0.072   2.028   5.904
 2049SOL    HW1 6593   0.055   2.111   5.850
 2049SOL    HW2 6594   0.162   1.991   5.882
 2050SOL     OW 6595   1.183   3.197   5.705
 2050SOL    HW1 6596   1.084   3.186   5.707
 2050SOL    HW2 6597   1.217   3.212   5.798
 2051SOL     OW 6598   0.613   2.704   7.017
 2051SOL    HW1 6599   0.669   2.785   7.000
 2051SOL    HW2 6600   0.672   2.624   7.020
 2052SOL     OW 6601   1.493   3.629   6.545
 2052SOL    HW1 6602   1.526   3.693   6.476
 2052SOL    HW2 6603   1.559   3.623   6.620
 2053SOL     OW 6604   0.716   2.427   7.294
 2053SOL    HW1 6605   0.735   2.492   7.368
 2053SOL    HW2 6606   0.776   2.347   7.303
 2054SOL     OW 6607   1.450   3.082   7.219
 2054SOL    HW1 6608   1.441   3.072   7.318
 2054SOL    HW2 6609   1.546   3.075   7.193
 2055SOL     OW 6610   0.390   3.603   7.146
 2055SOL    HW1 6611   0.299   3.644   7.144
 2055SOL    HW2 6612   0.383   3.509   7.178
 2056SOL     OW 6613   1.674   2.745   6.840
 2056SOL    HW1 6614   1.647   2.656   6.803
 2056SOL    HW2 6615   1.675   2.813   6.767
 2057SOL     OW 6616   1.225   2.187   6.035
 2057SOL    HW1 6617   1.290   2.113   6.024
 2057SOL    HW2 6618   1.245   2.237   6.119
 2058SOL     OW 6619   0.594   2.607   6.238
 2058SOL    HW1 6620   0.644   2.692   6.219
 2058SOL    HW2 6621   0.506   2.609   6.190
 2059SOL     OW 6622   1.777   2.204   7.228
 2059SOL    HW1 6623   1.760   2.235   7.134
 2059SOL    HW2 6624   1.693   2.167   7.266
 2060SOL     OW 6625   1.730   2.796   7.103
 2060SOL    HW1 6626   1.768   2.887   7.118
 2060SOL    HW2 6627   1.722   2.779   7.004
 2061SOL     OW 6628   0.859   3.236   5.602
 2061SOL    HW1 6629   0.813   3.251   5.690
 2061SOL    HW2 6630   0.903   3.321   5.572
 2062SOL     OW 6631   0.661   3.652   6.539
 2062SOL    HW1 6632   0.615   3.740   6.526
 2062SOL    HW2 6633   0.760   3.664   6.532
 2063SOL     OW 6634   0.859   2.818   6.447
 2063SOL    HW1 6635   0.913   2.749   6.495
 2063SOL    HW2 6636   0.827   2.887   6.513
 2064SOL     OW 6637   1.083   2.846   5.673
 2064SOL    HW1 6638   1.060   2.899   5.591
 2064SOL    HW2 6639   1.164   2.790   5.654
 2065SOL     OW 6640   1.861   3.431   6.437
 2065SOL    HW1 6641   1.790   3.419   6.367
 2065SOL    HW2 6642   1.862   3.352   6.497
 2066SOL     OW 6643   0.221   3.176   7.430
 2066SOL    HW1 6644   0.156   3.103   7.409
 2066SOL    HW2 6645   0.225   3.190   7.528
 2067SOL     OW 6646   0.079   3.102   6.239
 2067SOL    HW1 6647   0.078   3.055   6.327
 2067SOL    HW2 6648   0.161   3.074   6.188
 2068SOL     OW 6649   0.672   3.253   7.210
 2068SOL    HW1 6650   0.594   3.203   7.248
 2068SOL    HW2 6651   0.669   3.348   7.241
 2069SOL     OW 6652   1.824   2.054   6.813
 2069SOL    HW1 6653   1.820   1.964   6.857
 2069SOL    HW2 6654   1.827   2.043   6.714
 2070SOL     OW 6655   0.428   2.286   6.106
 2070SOL    HW1 6656   0.458   2.214   6.044
 2070SOL    HW2 6657   0.389   2.246   6.189
 2071SOL     OW 6658   1.705   3.349   6.690
 2071SOL    HW1 6659   1.612   3.324   6.663
 2071SOL    HW2 6660   1.731   3.299   6.772
 2072SOL     OW 6661   0.317   2.409   6.866
 2072SOL    HW1 6662   0.355   2.350   6.938
 2072SOL    HW2 6663   0.357   2.383   6.778
 2073SOL     OW 6664   0.812   3.448   6.273
 2073SOL    HW1 6665   0.844   3.458   6.179
 2073SOL    HW2 6666   0.733   3.386   6.275
 2074SOL     OW 6667   1.424   2.076   6.698
 2074SOL    HW1 6668   1.476   2.011   6.753
 2074SOL    HW2 6669   1.375   2.139   6.759
 2075SOL     OW 6670   1.001   1.896   6.740
 2075SOL    HW1 6671   0.938   1.824   6.709
 2075SOL    HW2 6672   1.094   1.860   6.740
 2076SOL     OW 6673   0.770   3.192   5.887
 2076SOL    HW1 6674   0.724   3.105   5.904
 2076SOL    HW2 6675   0.861   3.189   5.928
 2077SOL     OW 6676   0.618   3.429   6.870
 2077SOL    HW1 6677   0.613   3.511   6.927
 2077SOL    HW2 6678   0.707   3.426   6.825
 2078SOL     OW 6679   1.352   1.914   5.754
 2078SOL    HW1 6680   1.387   1.873   5.670
 2078SOL    HW2 6681   1.262   1.876   5.774
 2079SOL     OW 6682   1.300   2.315   6.277
 2079SOL    HW1 6683   1.241   2.395   6.281
 2079SOL    HW2 6684   1.315   2.280   6.370
 2080SOL     OW 6685   1.593   2.083   6.468
 2080SOL    HW1 6686   1.509   2.082   6.522
 2080SOL    HW2 6687   1.595   2.166   6.412
 2081SOL     OW 6688   0.039   2.939   5.886
 2081SOL    HW1 6689   0.138   2.928   5.877
 2081SOL    HW2 6690  -0.001   2.853   5.918
 2082SOL     OW 6691   0.875   3.508   5.923
 2082SOL    HW1 6692   0.798   3.473   5.869
 2082SOL    HW2 6693   0.843   3.579   5.985
 2083SOL     OW 6694   0.230   2.490   7.561
 2083SOL    HW1 6695   0.137   2.488   7.598
 2083SOL    HW2 6696   0.231   2.451   7.469
 2084SOL     OW 6697   0.225   2.137   8.444
 2084SOL    HW1 6698   0.260   2.120   8.536
 2084SOL    HW2 6699   0.137   2.092   8.432
 2085SOL     OW 6700   0.019   2.230   8.095
 2085SOL    HW1 6701  -0.063   2.273   8.134
 2085SOL    HW2 6702  -0.009   2.157   8.032
 2086SOL     OW 6703   0.569   3.137   8.613
 2086SOL    HW1 6704   0.476   3.130   8.576
 2086SOL    HW2 6705   0.580   3.226   8.657
 2087SOL     OW 6706   1.555   3.373   8.151
 2087SOL    HW1 6707   1.498   3.357   8.232
 2087SOL    HW2 6708   1.496   3.383   8.071
 2088SOL     OW 6709   1.135   2.565   8.165
 2088SOL    HW1 6710   1.192   2.643   8.140
 2088SOL    HW2 6711   1.075   2.591   8.241
 2089SOL     OW 6712   1.755   2.469   7.679
 2089SOL    HW1 6713   1.743   2.456   7.580
 2089SOL    HW2 6714   1.725   2.388   7.728
 2090SOL     OW 6715   0.768   3.006   8.471
 2090SOL    HW1 6716   0.690   3.023   8.531
 2090SOL    HW2 6717   0.802   3.093   8.435
 2091SOL     OW 6718   0.850   2.660   9.271
 2091SOL    HW1 6719   0.846   2.736   9.336
 2091SOL    HW2 6720   0.872   2.696   9.180
 2092SOL     OW 6721   0.685   2.874   8.113
 2092SOL    HW1 6722   0.754   2.858   8.183
 2092SOL    HW2 6723   0.612   2.931   8.151
 2093SOL     OW 6724   0.686   3.023   9.251
 2093SOL    HW1 6725   0.746   3.102   9.265
 2093SOL    HW2 6726   0.600   3.054   9.210
 2094SOL     OW 6727   0.335   3.297   8.509
 2094SOL    HW1 6728   0.257   3.266   8.456
 2094SOL    HW2 6729   0.393   3.355   8.452
 2095SOL     OW 6730   1.460   3.367   8.787
 2095SOL    HW1 6731   1.484   3.461   8.813
 2095SOL    HW2 6732   1.444   3.313   8.869
 2096SOL     OW 6733   0.438   2.254   8.947
 2096SOL    HW1 6734   0.520   2.198   8.956
 2096SOL    HW2 6735   0.357   2.196   8.951
 2097SOL     OW 6736   1.603   2.309   8.185
 2097SOL    HW1 6737   1.529   2.355   8.135
 2097SOL    HW2 6738   1.654   2.377   8.238
 2098SOL     OW 6739   0.231   3.575   7.931
 2098SOL    HW1 6740   0.265   3.652   7.985
 2098SOL    HW2 6741   0.275   3.575   7.841
 2099SOL     OW 6742   1.127   3.203   9.138
 2099SOL    HW1 6743   1.174   3.203   9.226
 2099SOL    HW2 6744   1.079   3.116   9.127
 2100SOL     OW 6745   0.230   3.296   7.986
 2100SOL    HW1 6746   0.204   3.392   7.986
 2100SOL    HW2 6747   0.159   3.242   8.031
 2101SOL     OW 6748   0.240   2.953   8.334
 2101SOL    HW1 6749   0.254   2.869   8.386
 2101SOL    HW2 6750   0.185   3.017   8.389
 2102SOL     OW 6751   0.620   3.648   8.887
 2102SOL    HW1 6752   0.528   3.631   8.922
 2102SOL    HW2 6753   0.648   3.740   8.913
 2103SOL     OW 6754   0.606   2.826   7.571
 2103SOL    HW1 6755   0.613   2.910   7.517
 2103SOL    HW2 6756   0.652   2.839   7.659
 2104SOL     OW 6757   1.594   1.976   8.928
 2104SOL    HW1 6758   1.576   2.043   8.856
 2104SOL    HW2 6759   1.591   2.022   9.017
 2105SOL     OW 6760   0.122   2.505   8.011
 2105SOL    HW1 6761   0.077   2.417   8.028
 2105SOL    HW2 6762   0.121   2.559   8.095
 2106SOL     OW 6763   1.842   3.629   7.807
 2106SOL    HW1 6764   1.896   3.600   7.887
 2106SOL    HW2 6765   1.872   3.719   7.778
 2107SOL     OW 6766   0.027   3.458   7.565
 2107SOL    HW1 6767   0.008   3.362   7.586
 2107SOL    HW2 6768  -0.006   3.516   7.640
 2108SOL     OW 6769   1.689   2.784   8.060
 2108SOL    HW1 6770   1.784   2.755   8.068
 2108SOL    HW2 6771   1.681   2.849   7.985
 2109SOL     OW 6772   1.641   2.970   7.880
 2109SOL    HW1 6773   1.727   2.972   7.828
 2109SOL    HW2 6774   1.655   3.017   7.968
 2110SOL     OW 6775   0.113   2.599   9.045
 2110SOL    HW1 6776   0.201   2.586   9.090
 2110SOL    HW2 6777   0.100   2.696   9.023
 2111SOL     OW 6778   0.613   3.227   8.174
 2111SOL    HW1 6779   0.564   3.140   8.183
 2111SOL    HW2 6780   0.590   3.270   8.087
 2112SOL     OW 6781   1.293   3.090   8.871
 2112SOL    HW1 6782   1.330   3.017   8.813
 2112SOL    HW2 6783   1.345   3.095   8.956
 2113SOL     OW 6784   0.809   1.866   7.950
 2113SOL    HW1 6785   0.849   1.957   7.941
 2113SOL    HW2 6786   0.709   1.874   7.956
 2114SOL     OW 6787   0.197   2.838   8.712
 2114SOL    HW1 6788   0.286   2.793   8.698
 2114SOL    HW2 6789   0.124   2.773   8.693
 2115SOL     OW 6790   1.525   2.861   7.638
 2115SOL    HW1 6791   1.462   2.785   7.651
 2115SOL    HW2 6792   1.573   2.879   7.724
 2116SOL     OW 6793   1.187   3.654   9.064
 2116SOL    HW1 6794   1.211   3.714   8.988
 2116SOL    HW2 6795   1.194   3.559   9.034
 2117SOL     OW 6796   0.317   2.113   9.249
 2117SOL    HW1 6797   0.388   2.184   9.255
 2117SOL    HW2 6798   0.229   2.152   9.277
 2118SOL     OW 6799   1.466   3.279   8.401
 2118SOL    HW1 6800   1.407   3.285   8.481
 2118SOL    HW2 6801   1.451   3.191   8.355
 2119SOL     OW 6802   1.667   3.576   8.020
 2119SOL    HW1 6803   1.626   3.553   7.932
 2119SOL    HW2 6804   1.649   3.502   8.085
 2120SOL     OW 6805   0.598   2.591   7.718
 2120SOL    HW1 6806   0.622   2.660   7.650
 2120SOL    HW2 6807   0.520   2.624   7.772
 2121SOL     OW 6808   1.281   2.207   8.392
 2121SOL    HW1 6809   1.195   2.157   8.379
 2121SOL    HW2 6810   1.343   2.153   8.448
 2122SOL     OW 6811   1.576   3.524   7.755
 2122SOL    HW1 6812   1.665   3.570   7.758
 2122SOL    HW2 6813   1.555   3.500   7.660
 2123SOL     OW 6814   0.807   2.467   8.913
 2123SOL    HW1 6815   0.760   2.464   9.002
 2123SOL    HW2 6816   0.756   2.412   8.847
 2124SOL     OW 6817   1.394   2.331   9.122
 2124SOL    HW1 6818   1.374   2.374   9.210
 2124SOL    HW2 6819   1.472   2.269   9.131
 2125SOL     OW 6820   0.973   2.752   9.020
 2125SOL    HW1 6821   1.019   2.668   8.991
 2125SOL    HW2 6822   0.917   2.786   8.945
 2126SOL     OW 6823   0.991   2.272   8.690
 2126SOL    HW1 6824   0.914   2.306   8.744
 2126SOL    HW2 6825   0.957   2.221   8.611
 2127SOL     OW 6826   1.041   2.563   7.877
 2127SOL    HW1 6827   1.067   2.559   7.973
 2127SOL    HW2 6828   0.956   2.512   7.863
 2128SOL     OW 6829   0.076   2.673   8.237
 2128SOL    HW1 6830   0.175   2.661   8.246
 2128SOL    HW2 6831   0.052   2.768   8.258
 2129SOL     OW 6832   0.130   3.683   9.019
 2129SOL    HW1 6833   0.120   3.668   9.118
 2129SOL    HW2 6834   0.044   3.719   8.983
 2130SOL     OW 6835   0.865   2.210   7.643
 2130SOL    HW1 6836   0.924   2.273   7.594
 2130SOL    HW2 6837   0.884   2.116   7.614
 2131SOL     OW 6838   1.719   2.447   9.279
 2131SOL    HW1 6839   1.693   2.536   9.243
 2131SOL    HW2 6840   1.717   2.379   9.206
 2132SOL     OW 6841   1.362   3.006   7.993
 2132SOL    HW1 6842   1.445   2.977   7.945
 2132SOL    HW2 6843   1.313   3.073   7.937
 2133SOL     OW 6844   0.550   2.058   8.333
 2133SOL    HW1 6845   0.545   2.053   8.433
 2133SOL    HW2 6846   0.552   2.154   8.304
 2134SOL     OW 6847   1.008   3.318   7.925
 2134SOL    HW1 6848   0.962   3.390   7.873
 2134SOL    HW2 6849   1.004   3.338   8.023
 2135SOL     OW 6850   0.351   3.663   8.301
 2135SOL    HW1 6851   0.401   3.577   8.307
 2135SOL    HW2 6852   0.416   3.740   8.298
 2136SOL     OW 6853   1.795   2.928   8.321
 2136SOL    HW1 6854   1.733   2.913   8.245
 2136SOL    HW2 6855   1.743   2.939   8.406
 2137SOL     OW 6856   1.227   3.412   8.954
 2137SOL    HW1 6857   1.233   3.335   9.018
 2137SOL    HW2 6858   1.175   3.386   8.874
 2138SOL     OW 6859   0.321   2.805   7.690
 2138SOL    HW1 6860   0.403   2.844   7.648
 2138SOL    HW2 6861   0.294   2.723   7.641
 2139SOL     OW 6862   1.458   2.597   8.176
 2139SOL    HW1 6863   1.453   2.532   8.251
 2139SOL    HW2 6864   1.538   2.656   8.189
 2140SOL     OW 6865   0.461   3.128   9.175
 2140SOL    HW1 6866   0.411   3.129   9.089
 2140SOL    HW2 6867   0.398   3.110   9.251
 2141SOL     OW 6868   1.111   3.638   7.685
 2141SOL    HW1 6869   1.051   3.576   7.735
 2141SOL    HW2 6870   1.142   3.594   7.600
 2142SOL     OW 6871   0.202   2.147   8.946
 2142SOL    HW1 6872   0.122   2.207   8.933
 2142SOL    HW2 6873   0.192   2.098   9.032
 2143SOL     OW 6874   1.632   3.239   7.529
 2143SOL    HW1 6875   1.600   3.333   7.519
 2143SOL    HW2 6876   1.556   3.176   7.517
 2144SOL     OW 6877   0.464   3.605   7.771
 2144SOL    HW1 6878   0.497   3.644   7.857
 2144SOL    HW2 6879   0.540   3.598   7.706
 2145SOL     OW 6880   1.400   1.969   7.874
 2145SOL    HW1 6881   1.376   1.932   7.784
 2145SOL    HW2 6882   1.499   1.985   7.878
 2146SOL     OW 6883   0.249   3.647   8.689
 2146SOL    HW1 6884   0.306   3.582   8.739
 2146SOL    HW2 6885   0.233   3.614   8.596
 2147SOL     OW 6886   0.940   3.560   8.352
 2147SOL    HW1 6887   1.020   3.503   8.373
 2147SOL    HW2 6888   0.891   3.520   8.275
 2148SOL     OW 6889   0.382   2.562   7.928
 2148SOL    HW1 6890   0.427   2.472   7.925
 2148SOL    HW2 6891   0.288   2.551   7.961
 2149SOL     OW 6892   1.547   2.084   9.177
 2149SOL    HW1 6893   1.542   2.121   9.269
 2149SOL    HW2 6894   1.475   2.015   9.165
 2150SOL     OW 6895   0.614   1.984   7.565
 2150SOL    HW1 6896   0.712   1.962   7.572
 2150SOL    HW2 6897   0.583   1.967   7.472
 2151SOL     OW 6898   0.781   2.126   9.197
 2151SOL    HW1 6899   0.848   2.065   9.240
 2151SOL    HW2 6900   0.708   2.145   9.262
 2152SOL     OW 6901   0.888   3.376   8.643
 2152SOL    HW1 6902   0.865   3.351   8.549
 2152SOL    HW2 6903   0.949   3.307   8.682
 2153SOL     OW 6904   1.351   2.452   8.881
 2153SOL    HW1 6905   1.379   2.409   8.966
 2153SOL    HW2 6906   1.376   2.548   8.882
 2154SOL     OW 6907   0.803   3.264   8.372
 2154SOL    HW1 6908   0.893   3.278   8.330
 2154SOL    HW2 6909   0.732   3.266   8.301
 2155SOL     OW 6910   0.922   2.365   8.347
 2155SOL    HW1 6911   0.897   2.356   8.251
 2155SOL    HW2 6912   0.970   2.283   8.378
 2156SOL     OW 6913   0.539   1.926   7.960
 2156SOL    HW1 6914   0.458   1.927   8.018
 2156SOL    HW2 6915   0.542   2.009   7.905
 2157SOL     OW 6916   1.434   3.050   7.489
 2157SOL    HW1 6917   1.466   2.974   7.546
 2157SOL    HW2 6918   1.342   3.077   7.519
 2158SOL     OW 6919   0.297   1.897   7.619
 2158SOL    HW1 6920   0.346   1.981   7.598
 2158SOL    HW2 6921   0.359   1.832   7.664
 2159SOL     OW 6922   0.935   2.098   7.928
 2159SOL    HW1 6923   0.887   2.139   7.850
 2159SOL    HW2 6924   1.034   2.096   7.909
 2160SOL     OW 6925   1.076   2.545   8.912
 2160SOL    HW1 6926   0.996   2.484   8.915
 2160SOL    HW2 6927   1.157   2.492   8.888
 2161SOL     OW 6928   1.227   3.432   8.241
 2161SOL    HW1 6929   1.248   3.506   8.176
 2161SOL    HW2 6930   1.295   3.432   8.314
 2162SOL     OW 6931   0.459   3.014   8.189
 2162SOL    HW1 6932   0.388   2.987   8.254
 2162SOL    HW2 6933   0.433   2.986   8.096
 2163SOL     OW 6934   1.271   3.659   8.039
 2163SOL    HW1 6935   1.315   3.723   7.975
 2163SOL    HW2 6936   1.221   3.711   8.109
 2164SOL     OW 6937   1.032   2.411   7.464
 2164SOL    HW1 6938   0.991   2.493   7.425
 2164SOL    HW2 6939   1.096   2.437   7.537
 2165SOL     OW 6940   0.078   2.418   8.834
 2165SOL    HW1 6941   0.170   2.417   8.793
 2165SOL    HW2 6942   0.072   2.492   8.901
 2166SOL     OW 6943   0.561   2.084   8.595
 2166SOL    HW1 6944   0.599   2.000   8.632
 2166SOL    HW2 6945   0.473   2.103   8.639
 2167SOL     OW 6946   0.866   2.316   8.090
 2167SOL    HW1 6947   0.834   2.388   8.028
 2167SOL    HW2 6948   0.890   2.235   8.037
 2168SOL     OW 6949   1.017   1.901   8.201
 2168SOL    HW1 6950   0.945   1.906   8.132
 2168SOL    HW2 6951   0.993   1.832   8.270
 2169SOL     OW 6952   1.429   3.035   8.315
 2169SOL    HW1 6953   1.374   2.951   8.308
 2169SOL    HW2 6954   1.455   3.064   8.223
 2170SOL     OW 6955   1.466   2.452   8.440
 2170SOL    HW1 6956   1.436   2.357   8.447
 2170SOL    HW2 6957   1.539   2.468   8.506
 2171SOL     OW 6958   1.857   2.695   7.825
 2171SOL    HW1 6959   1.899   2.631   7.889
 2171SOL    HW2 6960   1.819   2.644   7.747
 2172SOL     OW 6961   0.488   3.247   7.622
 2172SOL    HW1 6962   0.401   3.232   7.669
 2172SOL    HW2 6963   0.471   3.273   7.527
 2173SOL     OW 6964   1.664   3.142   8.105
 2173SOL    HW1 6965   1.763   3.150   8.119
 2173SOL    HW2 6966   1.619   3.226   8.136
 2174SOL     OW 6967   1.390   2.437   7.526
 2174SOL    HW1 6968   1.336   2.416   7.607
 2174SOL    HW2 6969   1.481   2.396   7.535
 2175SOL     OW 6970   0.527   2.118   7.776
 2175SOL    HW1 6971   0.554   2.059   7.701
 2175SOL    HW2 6972   0.527   2.213   7.745
 2176SOL     OW 6973   1.754   3.085   9.036
 2176SOL    HW1 6974   1.845   3.046   9.023
 2176SOL    HW2 6975   1.762   3.181   9.060
 2177SOL     OW 6976   1.064   3.209   8.788
 2177SOL    HW1 6977   0.984   3.186   8.843
 2177SOL    HW2 6978   1.147   3.183   8.837
 2178SOL     OW 6979   1.592   3.491   9.073
 2178SOL    HW1 6980   1.619   3.525   8.983
 2178SOL    HW2 6981   1.671   3.453   9.119
 2179SOL     OW 6982   1.111   3.057   8.548
 2179SOL    HW1 6983   1.071   3.101   8.629
 2179SOL    HW2 6984   1.070   3.094   8.465
 2180SOL     OW 6985   1.638   2.961   8.527
 2180SOL    HW1 6986   1.643   3.042   8.586
 2180SOL    HW2 6987   1.552   2.963   8.476
 2181SOL     OW 6988   0.915   1.951   8.850
 2181SOL    HW1 6989   0.940   1.931   8.755
 2181SOL    HW2 6990   0.987   2.007   8.892
 2182SOL     OW 6991   0.980   2.978   9.167
 2182SOL    HW1 6992   0.881   2.984   9.177
 2182SOL    HW2 6993   1.003   2.898   9.111
 2183SOL     OW 6994   0.705   2.912   7.816
 2183SOL    HW1 6995   0.691   2.919   7.915
 2183SOL    HW2 6996   0.789   2.861   7.798
 2184SOL     OW 6997   0.410   2.675   8.699
 2184SOL    HW1 6998   0.496   2.687   8.749
 2184SOL    HW2 6999   0.368   2.588   8.726
 2185SOL     OW 7000   1.274   2.248   8.710
 2185SOL    HW1 7001   1.295   2.322   8.774
 2185SOL    HW2 7002   1.185   2.265   8.667
 2186SOL     OW 7003   0.064   3.426   8.779
 2186SOL    HW1 7004   0.018   3.508   8.745
 2186SOL    HW2 7005   0.162   3.445   8.788
 2187SOL     OW 7006   0.367   2.962   7.949
 2187SOL    HW1 7007   0.360   3.045   7.893
 2187SOL    HW2 7008   0.371   2.882   7.889
 2188SOL     OW 7009   0.566   2.399   8.313
 2188SOL    HW1 7010   0.578   2.465   8.239
 2188SOL    HW2 7011   0.612   2.433   8.396
 2189SOL     OW 7012   1.252   3.210   7.836
 2189SOL    HW1 7013   1.302   3.287   7.876
 2189SOL    HW2 7014   1.157   3.212   7.868
 2190SOL     OW 7015   1.272   3.307   8.590
 2190SOL    HW1 7016   1.319   3.320   8.677
 2190SOL    HW2 7017   1.206   3.233   8.599
 2191SOL     OW 7018   1.582   2.501   7.920
 2191SOL    HW1 7019   1.551   2.562   7.993
 2191SOL    HW2 7020   1.632   2.553   7.851
 2192SOL     OW 7021   0.354   3.372   8.777
 2192SOL    HW1 7022   0.333   3.328   8.690
 2192SOL    HW2 7023   0.451   3.398   8.780
 2193SOL     OW 7024   0.402   2.613   9.046
 2193SOL    HW1 7025   0.470   2.668   8.999
 2193SOL    HW2 7026   0.442   2.525   9.073
 2194SOL     OW 7027   1.587   2.641   9.118
 2194SOL    HW1 7028   1.495   2.679   9.113
 2194SOL    HW2 7029   1.647   2.688   9.053
 2195SOL     OW 7030   1.013   1.967   9.218
 2195SOL    HW1 7031   1.019   2.052   9.166
 2195SOL    HW2 7032   1.045   1.891   9.161
 2196SOL     OW 7033   0.504   1.912   9.188
 2196SOL    HW1 7034   0.462   1.855   9.118
 2196SOL    HW2 7035   0.438   1.981   9.220
 2197SOL     OW 7036   0.573   2.732   8.477
 2197SOL    HW1 7037   0.617   2.821   8.468
 2197SOL    HW2 7038   0.510   2.732   8.554
 2198SOL     OW 7039   1.360   2.724   8.493
 2198SOL    HW1 7040   1.285   2.724   8.427
 2198SOL    HW2 7041   1.397   2.632   8.502
 2199SOL     OW 7042   1.209   2.387   7.723
 2199SOL    HW1 7043   1.222   2.303   7.777
 2199SOL    HW2 7044   1.180   2.461   7.783
 2200SOL     OW 7045   0.307   2.075   8.679
 2200SOL    HW1 7046   0.284   2.112   8.769
 2200SOL    HW2 7047   0.277   1.980   8.673
 2201SOL     OW 7048   0.037   3.172   8.730
 2201SOL    HW1 7049   0.090   3.123   8.798
 2201SOL    HW2 7050   0.059   3.270   8.735
 2202SOL     OW 7051   0.732   2.496   8.512
 2202SOL    HW1 7052   0.791   2.470   8.436
 2202SOL    HW2 7053   0.704   2.592   8.501
 2203SOL     OW 7054   1.728   2.797   9.302
 2203SOL    HW1 7055   1.682   2.790   9.213
 2203SOL    HW2 7056   1.666   2.841   9.368
 2204SOL     OW 7057   0.307   1.925   8.066
 2204SOL    HW1 7058   0.296   2.019   8.099
 2204SOL    HW2 7059   0.302   1.862   8.143
 2205SOL     OW 7060   1.622   2.229   7.822
 2205SOL    HW1 7061   1.624   2.153   7.886
 2205SOL    HW2 7062   1.574   2.306   7.862
 2206SOL     OW 7063   1.023   2.628   8.414
 2206SOL    HW1 7064   1.038   2.649   8.510
 2206SOL    HW2 7065   0.993   2.533   8.405
 2207SOL     OW 7066   0.980   3.435   9.148
 2207SOL    HW1 7067   0.960   3.479   9.060
 2207SOL    HW2 7068   1.019   3.344   9.132
 2208SOL     OW 7069   1.859   3.380   9.053
 2208SOL    HW1 7070   1.873   3.407   8.958
 2208SOL    HW2 7071   1.942   3.402   9.106
 2209SOL     OW 7072   0.350   2.760   9.252
 2209SOL    HW1 7073   0.426   2.804   9.300
 2209SOL    HW2 7074   0.385   2.713   9.170
 2210SOL     OW 7075   1.540   2.136   7.573
 2210SOL    HW1 7076   1.479   2.061   7.596
 2210SOL    HW2 7077   1.562   2.188   7.656
 2211SOL     OW 7078   1.303   2.700   7.490
 2211SOL    HW1 7079   1.337   2.607   7.505
 2211SOL    HW2 7080   1.321   2.727   7.395
 2212SOL     OW 7081   1.068   3.195   8.297
 2212SOL    HW1 7082   1.075   3.111   8.242
 2212SOL    HW2 7083   1.130   3.264   8.261
 2213SOL     OW 7084   0.319   2.672   8.397
 2213SOL    HW1 7085   0.412   2.708   8.402
 2213SOL    HW2 7086   0.313   2.587   8.449
 2214SOL     OW 7087   0.339   2.371   8.454
 2214SOL    HW1 7088   0.287   2.288   8.437
 2214SOL    HW2 7089   0.416   2.376   8.390
 2215SOL     OW 7090   1.138   2.242   9.126
 2215SOL    HW1 7091   1.093   2.305   9.190
 2215SOL    HW2 7092   1.231   2.273   9.109
 2216SOL     OW 7093   1.160   2.069   8.925
 2216SOL    HW1 7094   1.160   2.133   9.002
 2216SOL    HW2 7095   1.188   2.117   8.842
 2217SOL     OW 7096   0.008   3.188   7.648
 2217SOL    HW1 7097  -0.085   3.209   7.617
 2217SOL    HW2 7098   0.018   3.089   7.661
 2218SOL     OW 7099   0.088   3.663   8.375
 2218SOL    HW1 7100   0.046   3.577   8.348
 2218SOL    HW2 7101   0.182   3.666   8.341
 2219SOL     OW 7102   0.504   3.430   8.358
 2219SOL    HW1 7103   0.570   3.504   8.367
 2219SOL    HW2 7104   0.548   3.351   8.316
 2220SOL     OW 7105   1.002   2.658   8.686
 2220SOL    HW1 7106   1.043   2.626   8.772
 2220SOL    HW2 7107   0.906   2.631   8.683
 2221SOL     OW 7108   0.040   2.406   8.562
 2221SOL    HW1 7109   0.125   2.373   8.521
 2221SOL    HW2 7110   0.053   2.421   8.660
 2222SOL     OW 7111   0.189   2.382   9.170
 2222SOL    HW1 7112   0.248   2.342   9.100
 2222SOL    HW2 7113   0.131   2.453   9.129
 2223SOL     OW 7114   1.369   2.812   9.108
 2223SOL    HW1 7115   1.408   2.901   9.128
 2223SOL    HW2 7116   1.379   2.792   9.011
 2224SOL     OW 7117   0.815   2.434   7.773
 2224SOL    HW1 7118   0.822   2.345   7.727
 2224SOL    HW2 7119   0.721   2.468   7.765
 2225SOL     OW 7120   1.657   2.466   8.654
 2225SOL    HW1 7121   1.619   2.397   8.716
 2225SOL    HW2 7122   1.739   2.430   8.610
 2226SOL     OW 7123   0.252   3.426   9.192
 2226SOL    HW1 7124   0.222   3.483   9.268
 2226SOL    HW2 7125   0.245   3.329   9.218
 2227SOL     OW 7126   0.671   2.326   8.717
 2227SOL    HW1 7127   0.637   2.237   8.687
 2227SOL    HW2 7128   0.697   2.380   8.637
 2228SOL     OW 7129   0.930   3.540   8.913
 2228SOL    HW1 7130   0.906   3.522   8.818
 2228SOL    HW2 7131   0.960   3.634   8.923
 2229SOL     OW 7132   0.473   2.362   7.639
 2229SOL    HW1 7133   0.534   2.442   7.643
 2229SOL    HW2 7134   0.378   2.393   7.646
 2230SOL     OW 7135   0.159   2.999   8.914
 2230SOL    HW1 7136   0.181   2.938   8.990
 2230SOL    HW2 7137   0.169   2.950   8.828
 2231SOL     OW 7138   1.347   2.921   8.682
 2231SOL    HW1 7139   1.371   2.858   8.608
 2231SOL    HW2 7140   1.257   2.961   8.664
 2232SOL     OW 7141   1.302   2.717   7.757
 2232SOL    HW1 7142   1.216   2.686   7.799
 2232SOL    HW2 7143   1.298   2.703   7.658
 2233SOL     OW 7144   1.759   3.609   8.602
 2233SOL    HW1 7145   1.820   3.639   8.529
 2233SOL    HW2 7146   1.721   3.520   8.580
 2234SOL     OW 7147   1.252   3.593   8.576
 2234SOL    HW1 7148   1.336   3.598   8.522
 2234SOL    HW2 7149   1.229   3.497   8.594
 2235SOL     OW 7150   0.083   3.120   8.470
 2235SOL    HW1 7151   0.078   3.119   8.570
 2235SOL    HW2 7152   0.000   3.079   8.432
 2236SOL     OW 7153   0.688   3.524   9.164
 2236SOL    HW1 7154   0.632   3.605   9.173
 2236SOL    HW2 7155   0.740   3.528   9.078
 2237SOL     OW 7156   1.726   1.997   7.971
 2237SOL    HW1 7157   1.799   1.980   7.904
 2237SOL    HW2 7158   1.695   1.910   8.009
 2238SOL     OW 7159   1.388   3.435   7.925
 2238SOL    HW1 7160   1.455   3.447   7.851
 2238SOL    HW2 7161   1.348   3.524   7.948
 2239SOL     OW 7162   0.130   3.656   9.299
 2239SOL    HW1 7163   0.089   3.582   9.352
 2239SOL    HW2 7164   0.194   3.707   9.357
 2240SOL     OW 7165   1.280   2.789   8.120
 2240SOL    HW1 7166   1.340   2.708   8.122
 2240SOL    HW2 7167   1.320   2.858   8.060
 2241SOL     OW 7168   0.830   3.135   8.870
 2241SOL    HW1 7169   0.825   3.168   8.965
 2241SOL    HW2 7170   0.744   3.154   8.824
 2242SOL     OW 7171   0.672   3.478   7.602
 2242SOL    HW1 7172   0.681   3.488   7.503
 2242SOL    HW2 7173   0.632   3.389   7.623
 2243SOL     OW 7174   1.650   3.582   8.842
 2243SOL    HW1 7175   1.703   3.592   8.758
 2243SOL    HW2 7176   1.623   3.672   8.876
 2244SOL     OW 7177   1.841   2.037   8.411
 2244SOL    HW1 7178   1.880   1.952   8.375
 2244SOL    HW2 7179   1.743   2.039   8.392
 2245SOL     OW 7180   0.263   2.188   8.168
 2245SOL    HW1 7181   0.184   2.239   8.134
 2245SOL    HW2 7182   0.254   2.173   8.266
 2246SOL     OW 7183   1.194   3.474   7.479
 2246SOL    HW1 7184   1.200   3.381   7.516
 2246SOL    HW2 7185   1.135   3.474   7.399
 2247SOL     OW 7186   0.822   2.864   8.820
 2247SOL    HW1 7187   0.862   2.863   8.728
 2247SOL    HW2 7188   0.832   2.956   8.860
 2248SOL     OW 7189   0.916   2.772   7.739
 2248SOL    HW1 7190   0.979   2.810   7.671
 2248SOL    HW2 7191   0.956   2.689   7.778
 2249SOL     OW 7192   1.504   3.469   7.492
 2249SOL    HW1 7193   1.412   3.506   7.499
 2249SOL    HW2 7194   1.542   3.489   7.402
 2250SOL     OW 7195   0.372   3.150   8.938
 2250SOL    HW1 7196   0.359   3.243   8.904
 2250SOL    HW2 7197   0.288   3.098   8.925
 2251SOL     OW 7198   1.614   3.154   8.737
 2251SOL    HW1 7199   1.674   3.157   8.817
 2251SOL    HW2 7200   1.539   3.218   8.750
 2252SOL     OW 7201   1.039   2.960   8.144
 2252SOL    HW1 7202   0.969   2.913   8.198
 2252SOL    HW2 7203   1.098   2.892   8.101
 2253SOL     OW 7204   1.014   2.098   8.419
 2253SOL    HW1 7205   1.006   2.062   8.326
 2253SOL    HW2 7206   1.012   2.022   8.484
 2254SOL     OW 7207   0.590   3.349   7.939
 2254SOL    HW1 7208   0.632   3.291   7.869
 2254SOL    HW2 7209   0.546   3.428   7.895
 2255SOL     OW 7210   1.709   2.247   8.829
 2255SOL    HW1 7211   1.782   2.316   8.833
 2255SOL    HW2 7212   1.737   2.172   8.770
 2256SOL     OW 7213   0.255   3.210   7.738
 2256SOL    HW1 7214   0.159   3.211   7.711
 2256SOL    HW2 7215   0.267   3.263   7.822
 2257SOL     OW 7216   0.105   2.875   9.174
 2257SOL    HW1 7217   0.028   2.842   9.228
 2257SOL    HW2 7218   0.190   2.845   9.216
 2258SOL     OW 7219   0.672   2.065   8.937
 2258SOL    HW1 7220   0.762   2.049   8.897
 2258SOL    HW2 7221   0.680   2.070   9.036
 2259SOL     OW 7222   0.075   2.207   7.481
 2259SOL    HW1 7223  -0.017   2.179   7.452
 2259SOL    HW2 7224   0.106   2.284   7.425
 2260SOL     OW 7225   1.440   2.718   8.846
 2260SOL    HW1 7226   1.383   2.770   8.783
 2260SOL    HW2 7227   1.536   2.730   8.822
 2261SOL     OW 7228   0.072   2.028   7.766
 2261SOL    HW1 7229   0.055   2.111   7.712
 2261SOL    HW2 7230   0.162   1.991   7.744
 2262SOL     OW 7231   1.183   3.197   7.567
 2262SOL    HW1 7232   1.084   3.186   7.569
 2262SOL    HW2 7233   1.217   3.212   7.660
 2263SOL     OW 7234   0.613   2.704   8.879
 2263SOL    HW1 7235   0.669   2.785   8.862
 2263SOL    HW2 7236   0.672   2.624   8.882
 2264SOL     OW 7237   1.493   3.629   8.407
 2264SOL    HW1 7238   1.526   3.693   8.338
 2264SOL    HW2 7239   1.559   3.623   8.482
 2265SOL     OW 7240   0.716   2.427   9.156
 2265SOL    HW1 7241   0.735   2.492   9.230
 2265SOL    HW2 7242   0.776   2.347   9.165
 2266SOL     OW 7243   1.450   3.082   9.081
 2266SOL    HW1 7244   1.441   3.072   9.180
 2266SOL    HW2 7245   1.546   3.075   9.055
 2267SOL     OW 7246   0.390   3.603   9.008
 2267SOL    HW1 7247   0.299   3.644   9.006
 2267SOL    HW2 7248   0.383   3.509   9.040
 2268SOL     OW 7249   1.674   2.745   8.702
 2268SOL    HW1 7250   1.647   2.656   8.665
 2268SOL    HW2 7251   1.675   2.813   8.629
 2269SOL     OW 7252   1.225   2.187   7.897
 2269SOL    HW1 7253   1.290   2.113   7.886
 2269SOL    HW2 7254   1.245   2.237   7.981
 2270SOL     OW 7255   0.594   2.607   8.100
 2270SOL    HW1 7256   0.644   2.692   8.081
 2270SOL    HW2 7257   0.506   2.609   8.052
 2271SOL     OW 7258   1.777   2.204   9.090
 2271SOL    HW1 7259   1.760   2.235   8.996
 2271SOL    HW2 7260   1.693   2.167   9.128
 2272SOL     OW 7261   1.730   2.796   8.965
 2272SOL    HW1 7262   1.768   2.887   8.980
 2272SOL    HW2 7263   1.722   2.779   8.866
 2273SOL     OW 7264   0.859   3.236   7.464
 2273SOL    HW1 7265   0.813   3.251   7.552
 2273SOL    HW2 7266   0.903   3.321   7.434
 2274SOL     OW 7267   0.661   3.652   8.401
 2274SOL    HW1 7268   0.615   3.740   8.388
 2274SOL    HW2 7269   0.760   3.664   8.394
 2275SOL     OW 7270   0.859   2.818   8.309
 2275SOL    HW1 7271   0.913   2.749   8.357
 2275SOL    HW2 7272   0.827   2.887   8.375
 2276SOL     OW 7273   1.083   2.846   7.535
 2276SOL    HW1 7274   1.060   2.899   7.453
 2276SOL    HW2 7275   1.164   2.790   7.516
 2277SOL     OW 7276   1.861   3.431   8.299
 2277SOL    HW1 7277   1.790   3.419   8.229
 2277SOL    HW2 7278   1.862   3.352   8.359
 2278SOL     OW 7279   0.221   3.176   9.292
 2278SOL    HW1 7280   0.156   3.103   9.271
 2278SOL    HW2 7281   0.225   3.190   9.390
 2279SOL     OW 7282   0.079   3.102   8.101
 2279SOL    HW1 7283   0.078   3.055   8.189
 2279SOL    HW2 7284   0.161   3.074   8.050
 2280SOL     OW 7285   0.672   3.253   9.072
 2280SOL    HW1 7286   0.594   3.203   9.110
 2280SOL    HW2 7287   0.669   3.348   9.103
 2281SOL     OW 7288   1.824   2.054   8.675
 2281SOL    HW1 7289   1.820   1.964   8.719
 2281SOL    HW2 7290   1.827   2.043   8.576
 2282SOL     OW 7291   0.428   2.286   7.968
 2282SOL    HW1 7292   0.458   2.214   7.906
 2282SOL    HW2 7293   0.389   2.246   8.051
 2283SOL     OW 7294   1.705   3.349   8.552
 2283SOL    HW1 7295   1.612   3.324   8.525
 2283SOL    HW2 7296   1.731   3.299   8.634
 2284SOL     OW 7297   0.317   2.409   8.728
 2284SOL    HW1 7298   0.355   2.350   8.800
 2284SOL    HW2 7299   0.357   2.383   8.640
 2285SOL     OW 7300   0.812   3.448   8.135
 2285SOL    HW1 7301   0.844   3.458   8.041
 2285SOL    HW2 7302   0.733   3.386   8.137
 2286SOL     OW 7303   1.424   2.076   8.560
 2286SOL    HW1 7304   1.476   2.011   8.615
 2286SOL    HW2 7305   1.375   2.139   8.621
 2287SOL     OW 7306   1.001   1.896   8.602
 2287SOL    HW1 7307   0.938   1.824   8.571
 2287SOL    HW2 7308   1.094   1.860   8.602
 2288SOL     OW 7309   0.770   3.192   7.749
 2288SOL    HW1 7310   0.724   3.105   7.766
 2288SOL    HW2 7311   0.861   3.189   7.790
 2289SOL     OW 7312   0.618   3.429   8.732
 2289SOL    HW1 7313   0.613   3.511   8.789
 2289SOL    HW2 7314   0.707   3.426   8.687
 2290SOL     OW 7315   1.352   1.914   7.616
 2290SOL    HW1 7316   1.387   1.873   7.532
 2290SOL    HW2 7317   1.262   1.876   7.636
 2291SOL     OW 7318   1.300   2.315   8.139
 2291SOL    HW1 7319   1.241   2.395   8.143
 2291SOL    HW2 7320   1.315   2.280   8.232
 2292SOL     OW 7321   1.593   2.083   8.330
 2292SOL    HW1 7322   1.509   2.082   8.384
 2292SOL    HW2 7323   1.595   2.166   8.274
 2293SOL     OW 7324   0.039   2.939   7.748
 2293SOL    HW1 7325   0.138   2.928   7.739
 2293SOL    HW2 7326  -0.001   2.853   7.780
 2294SOL     OW 7327   0.875   3.508   7.785
 2294SOL    HW1 7328   0.798   3.473   7.731
 2294SOL    HW2 7329   0.843   3.579   7.847
 2295SOL     OW 7330   0.230   2.490   9.423
 2295SOL    HW1 7331   0.137   2.488   9.460
 2295SOL    HW2 7332   0.231   2.451   9.331
 2296SOL     OW 7333   0.225   2.137  10.306
 2296SOL    HW1 7334   0.260   2.120  10.398
 2296SOL    HW2 7335   0.137   2.092  10.294
 2297SOL     OW 7336   0.019   2.230   9.957
 2297SOL    HW1 7337  -0.063   2.273   9.996
 2297SOL    HW2 7338  -0.009   2.157   9.894
 2298SOL     OW 7339   0.569   3.137  10.475
 2298SOL    HW1 7340   0.476   3.130  10.438
 2298SOL    HW2 7341   0.580   3.226  10.519
 2299SOL     OW 7342   1.555   3.373  10.013
 2299SOL    HW1 7343   1.498   3.357  10.094
 2299SOL    HW2 7344   1.496   3.383   9.933
 2300SOL     OW 7345   1.135   2.565  10.027
 2300SOL    HW1 7346   1.192   2.643  10.002
 2300SOL    HW2 7347   1.075   2.591  10.103
 2301SOL     OW 7348   1.755   2.469   9.541
 2301SOL    HW1 7349   1.743   2.456   9.442
 2301SOL    HW2 7350   1.725   2.388   9.590
 2302SOL     OW 7351   0.768   3.006  10.333
 2302SOL    HW1 7352   0.690   3.023  10.393
 2302SOL    HW2 7353   0.802   3.093  10.297
 2303SOL     OW 7354   0.850   2.660  11.133
 2303SOL    HW1 7355   0.846   2.736  11.198
 2303SOL    HW2 7356   0.872   2.696  11.042
 2304SOL     OW 7357   0.685   2.874   9.975
 2304SOL    HW1 7358   0.754   2.858  10.045
 2304SOL    HW2 7359   0.612   2.931  10.013
 2305SOL     OW 7360   0.335   3.297  10.371
 2305SOL    HW1 7361   0.257   3.266  10.318
 2305SOL    HW2 7362   0.393   3.355  10.314
 2306SOL     OW 7363   1.460   3.367  10.649
 2306SOL    HW1 7364   1.484   3.461  10.675
 2306SOL    HW2 7365   1.444   3.313  10.731
 2307SOL     OW 7366   0.438   2.254  10.809
 2307SOL    HW1 7367   0.520   2.198  10.818
 2307SOL    HW2 7368   0.357   2.196  10.813
 2308SOL     OW 7369   1.603   2.309  10.047
 2308SOL    HW1 7370   1.529   2.355   9.997
 2308SOL    HW2 7371   1.654   2.377  10.100
 2309SOL     OW 7372   0.231   3.575   9.793
 2309SOL    HW1 7373   0.265   3.652   9.847
 2309SOL    HW2 7374   0.275   3.575   9.703
 2310SOL     OW 7375   0.230   3.296   9.848
 2310SOL    HW1 7376   0.204   3.392   9.848
 2310SOL    HW2 7377   0.159   3.242   9.893
 2311SOL     OW 7378   0.240   2.953  10.196
 2311SOL    HW1 7379   0.254   2.869  10.248
 2311SOL    HW2 7380   0.185   3.017  10.251
 2312SOL     OW 7381   0.620   3.648  10.749
 2312SOL    HW1 7382   0.528   3.631  10.784
 2312SOL    HW2 7383   0.648   3.740  10.775
 2313SOL     OW 7384   0.606   2.826   9.433
 2313SOL    HW1 7385   0.613   2.910   9.379
 2313SOL    HW2 7386   0.652   2.839   9.521
 2314SOL     OW 7387   1.594   1.976  10.790
 2314SOL    HW1 7388   1.576   2.043  10.718
 2314SOL    HW2 7389   1.591   2.022  10.879
 2315SOL     OW 7390   0.122   2.505   9.873
 2315SOL    HW1 7391   0.077   2.417   9.890
 2315SOL    HW2 7392   0.121   2.559   9.957
 2316SOL     OW 7393   1.842   3.629   9.669
 2316SOL    HW1 7394   1.896   3.600   9.749
 2316SOL    HW2 7395   1.872   3.719   9.640
 2317SOL     OW 7396   0.027   3.458   9.427
 2317SOL    HW1 7397   0.008   3.362   9.448
 2317SOL    HW2 7398  -0.006   3.516   9.502
 2318SOL     OW 7399   1.689   2.784   9.922
 2318SOL    HW1 7400   1.784   2.755   9.930
 2318SOL    HW2 7401   1.681   2.849   9.847
 2319SOL     OW 7402   1.641   2.970   9.742
 2319SOL    HW1 7403   1.727   2.972   9.690
 2319SOL    HW2 7404   1.655   3.017   9.830
 2320SOL     OW 7405   0.113   2.599  10.907
 2320SOL    HW1 7406   0.201   2.586  10.952
 2320SOL    HW2 7407   0.100   2.696  10.885
 2321SOL     OW 7408   0.613   3.227  10.036
 2321SOL    HW1 7409   0.564   3.140  10.045
 2321SOL    HW2 7410   0.590   3.270   9.949
 2322SOL     OW 7411   1.293   3.090  10.733
 2322SOL    HW1 7412   1.330   3.017  10.675
 2322SOL    HW2 7413   1.345   3.095  10.818
 2323SOL     OW 7414   0.809   1.866   9.812
 2323SOL    HW1 7415   0.849   1.957   9.803
 2323SOL    HW2 7416   0.709   1.874   9.818
 2324SOL     OW 7417   0.197   2.838  10.574
 2324SOL    HW1 7418   0.286   2.793  10.560
 2324SOL    HW2 7419   0.124   2.773  10.555
 2325SOL     OW 7420   1.525   2.861   9.500
 2325SOL    HW1 7421   1.462   2.785   9.513
 2325SOL    HW2 7422   1.573   2.879   9.586
 2326SOL     OW 7423   1.187   3.654  10.926
 2326SOL    HW1 7424   1.211   3.714  10.850
 2326SOL    HW2 7425   1.194   3.559  10.896
 2327SOL     OW 7426   0.317   2.113  11.111
 2327SOL    HW1 7427   0.388   2.184  11.117
 2327SOL    HW2 7428   0.229   2.152  11.139
 2328SOL     OW 7429   1.466   3.279  10.263
 2328SOL    HW1 7430   1.407   3.285  10.343
 2328SOL    HW2 7431   1.451   3.191  10.217
 2329SOL     OW 7432   1.667   3.576   9.882
 2329SOL    HW1 7433   1.626   3.553   9.794
 2329SOL    HW2 7434   1.649   3.502   9.947
 2330SOL     OW 7435   0.598   2.591   9.580
 2330SOL    HW1 7436   0.622   2.660   9.512
 2330SOL    HW2 7437   0.520   2.624   9.634
 2331SOL     OW 7438   1.281   2.207  10.254
 2331SOL    HW1 7439   1.195   2.157  10.241
 2331SOL    HW2 7440   1.343   2.153  10.310
 2332SOL     OW 7441   1.576   3.524   9.617
 2332SOL    HW1 7442   1.665   3.570   9.620
 2332SOL    HW2 7443   1.555   3.500   9.522
 2333SOL     OW 7444   0.807   2.467  10.775
 2333SOL    HW1 7445   0.760   2.464  10.864
 2333SOL    HW2 7446   0.756   2.412  10.709
 2334SOL     OW 7447   0.973   2.752  10.882
 2334SOL    HW1 7448   1.019   2.668  10.853
 2334SOL    HW2 7449   0.917   2.786  10.807
 2335SOL     OW 7450   0.991   2.272  10.552
 2335SOL    HW1 7451   0.914   2.306  10.606
 2335SOL    HW2 7452   0.957   2.221  10.473
 2336SOL     OW 7453   1.041   2.563   9.739
 2336SOL    HW1 7454   1.067   2.559   9.835
 2336SOL    HW2 7455   0.956   2.512   9.725
 2337SOL     OW 7456   0.076   2.673  10.099
 2337SOL    HW1 7457   0.175   2.661  10.108
 2337SOL    HW2 7458   0.052   2.768  10.120
 2338SOL     OW 7459   0.130   3.683  10.881
 2338SOL    HW1 7460   0.120   3.668  10.980
 2338SOL    HW2 7461   0.044   3.719  10.845
 2339SOL     OW 7462   0.865   2.210   9.505
 2339SOL    HW1 7463   0.924   2.273   9.456
 2339SOL    HW2 7464   0.884   2.116   9.476
 2340SOL     OW 7465   1.362   3.006   9.855
 2340SOL    HW1 7466   1.445   2.977   9.807
 2340SOL    HW2 7467   1.313   3.073   9.799
 2341SOL     OW 7468   0.550   2.058  10.195
 2341SOL    HW1 7469   0.545   2.053  10.295
 2341SOL    HW2 7470   0.552   2.154  10.166
 2342SOL     OW 7471   1.008   3.318   9.787
 2342SOL    HW1 7472   0.962   3.390   9.735
 2342SOL    HW2 7473   1.004   3.338   9.885
 2343SOL     OW 7474   0.351   3.663  10.163
 2343SOL    HW1 7475   0.401   3.577  10.169
 2343SOL    HW2 7476   0.416   3.740  10.160
 2344SOL     OW 7477   1.795   2.928  10.183
 2344SOL    HW1 7478   1.733   2.913  10.107
 2344SOL    HW2 7479   1.743   2.939  10.268
 2345SOL     OW 7480   1.227   3.412  10.816
 2345SOL    HW1 7481   1.233   3.335  10.880
 2345SOL    HW2 7482   1.175   3.386  10.736
 2346SOL     OW 7483   0.321   2.805   9.552
 2346SOL    HW1 7484   0.403   2.844   9.510
 2346SOL    HW2 7485   0.294   2.723   9.503
 2347SOL     OW 7486   1.458   2.597  10.038
 2347SOL    HW1 7487   1.453   2.532  10.113
 2347SOL    HW2 7488   1.538   2.656  10.051
 2348SOL     OW 7489   0.461   3.128  11.037
 2348SOL    HW1 7490   0.411   3.129  10.951
 2348SOL    HW2 7491   0.398   3.110  11.113
 2349SOL     OW 7492   1.111   3.638   9.547
 2349SOL    HW1 7493   1.051   3.576   9.597
 2349SOL    HW2 7494   1.142   3.594   9.462
 2350SOL     OW 7495   0.202   2.147  10.808
 2350SOL    HW1 7496   0.122   2.207  10.795
 2350SOL    HW2 7497   0.192   2.098  10.894
 2351SOL     OW 7498   1.632   3.239   9.391
 2351SOL    HW1 7499   1.600   3.333   9.381
 2351SOL    HW2 7500   1.556   3.176   9.379
 2352SOL     OW 7501   0.464   3.605   9.633
 2352SOL    HW1 7502   0.497   3.644   9.719
 2352SOL    HW2 7503   0.540   3.598   9.568
 2353SOL     OW 7504   1.400   1.969   9.736
 2353SOL    HW1 7505   1.376   1.932   9.646
 2353SOL    HW2 7506   1.499   1.985   9.740
 2354SOL     OW 7507   0.249   3.647  10.551
 2354SOL    HW1 7508   0.306   3.582  10.601
 2354SOL    HW2 7509   0.233   3.614  10.458
 2355SOL     OW 7510   0.940   3.560  10.214
 2355SOL    HW1 7511   1.020   3.503  10.235
 2355SOL    HW2 7512   0.891   3.520  10.137
 2356SOL     OW 7513   0.382   2.562   9.790
 2356SOL    HW1 7514   0.427   2.472   9.787
 2356SOL    HW2 7515   0.288   2.551   9.823
 2357SOL     OW 7516   0.614   1.984   9.427
 2357SOL    HW1 7517   0.712   1.962   9.434
 2357SOL    HW2 7518   0.583   1.967   9.334
 2358SOL     OW 7519   0.781   2.126  11.059
 2358SOL    HW1 7520   0.848   2.065  11.102
 2358SOL    HW2 7521   0.708   2.145  11.124
 2359SOL     OW 7522   0.888   3.376  10.505
 2359SOL    HW1 7523   0.865   3.351  10.411
 2359SOL    HW2 7524   0.949   3.307  10.544
 2360SOL     OW 7525   1.351   2.452  10.743
 2360SOL    HW1 7526   1.379   2.409  10.828
 2360SOL    HW2 7527   1.376   2.548  10.744
 2361SOL     OW 7528   0.803   3.264  10.234
 2361SOL    HW1 7529   0.893   3.278  10.192
 2361SOL    HW2 7530   0.732   3.266  10.163
 2362SOL     OW 7531   0.922   2.365  10.209
 2362SOL    HW1 7532   0.897   2.356  10.113
 2362SOL    HW2 7533   0.970   2.283  10.240
 2363SOL     OW 7534   0.539   1.926   9.822
 2363SOL    HW1 7535   0.458   1.927   9.880
 2363SOL    HW2 7536   0.542   2.009   9.767
 2364SOL     OW 7537   1.434   3.050   9.351
 2364SOL    HW1 7538   1.466   2.974   9.408
 2364SOL    HW2 7539   1.342   3.077   9.381
 2365SOL     OW 7540   0.297   1.897   9.481
 2365SOL    HW1 7541   0.346   1.981   9.460
 2365SOL    HW2 7542   0.359   1.832   9.526
 2366SOL     OW 7543   0.935   2.098   9.790
 2366SOL    HW1 7544   0.887   2.139   9.712
 2366SOL    HW2 7545   1.034   2.096   9.771
 2367SOL     OW 7546   1.076   2.545  10.774
 2367SOL    HW1 7547   0.996   2.484  10.777
 2367SOL    HW2 7548   1.157   2.492  10.750
 2368SOL     OW 7549   1.227   3.432  10.103
 2368SOL    HW1 7550   1.248   3.506  10.038
 2368SOL    HW2 7551   1.295   3.432  10.176
 2369SOL     OW 7552   0.459   3.014  10.051
 2369SOL    HW1 7553   0.388   2.987  10.116
 2369SOL    HW2 7554   0.433   2.986   9.958
 2370SOL     OW 7555   1.271   3.659   9.901
 2370SOL    HW1 7556   1.315   3.723   9.837
 2370SOL    HW2 7557   1.221   3.711   9.971
 2371SOL     OW 7558   1.032   2.411   9.326
 2371SOL    HW1 7559   0.991   2.493   9.287
 2371SOL    HW2 7560   1.096   2.437   9.399
 2372SOL     OW 7561   0.078   2.418  10.696
 2372SOL    HW1 7562   0.170   2.417  10.655
 2372SOL    HW2 7563   0.072   2.492  10.763
 2373SOL     OW 7564   0.561   2.084  10.457
 2373SOL    HW1 7565   0.599   2.000  10.494
 2373SOL    HW2 7566   0.473   2.103  10.501
 2374SOL     OW 7567   0.866   2.316   9.952
 2374SOL    HW1 7568   0.834   2.388   9.890
 2374SOL    HW2 7569   0.890   2.235   9.899
 2375SOL     OW 7570   1.017   1.901  10.063
 2375SOL    HW1 7571   0.945   1.906   9.994
 2375SOL    HW2 7572   0.993   1.832  10.132
 2376SOL     OW 7573   1.429   3.035  10.177
 2376SOL    HW1 7574   1.374   2.951  10.170
 2376SOL    HW2 7575   1.455   3.064  10.085
 2377SOL     OW 7576   1.466   2.452  10.302
 2377SOL    HW1 7577   1.436   2.357  10.309
 2377SOL    HW2 7578   1.539   2.468  10.368
 2378SOL     OW 7579   1.857   2.695   9.687
 2378SOL    HW1 7580   1.899   2.631   9.751
 2378SOL    HW2 7581   1.819   2.644   9.609
 2379SOL     OW 7582   0.488   3.247   9.484
 2379SOL    HW1 7583   0.401   3.232   9.531
 2379SOL    HW2 7584   0.471   3.273   9.389
 2380SOL     OW 7585   1.664   3.142   9.967
 2380SOL    HW1 7586   1.763   3.150   9.981
 2380SOL    HW2 7587   1.619   3.226   9.998
 2381SOL     OW 7588   1.390   2.437   9.388
 2381SOL    HW1 7589   1.336   2.416   9.469
 2381SOL    HW2 7590   1.481   2.396   9.397
 2382SOL     OW 7591   0.527   2.118   9.638
 2382SOL    HW1 7592   0.554   2.059   9.563
 2382SOL    HW2 7593   0.527   2.213   9.607
 2383SOL     OW 7594   1.754   3.085  10.898
 2383SOL    HW1 7595   1.845   3.046  10.885
 2383SOL    HW2 7596   1.762   3.181  10.922
 2384SOL     OW 7597   1.064   3.209  10.650
 2384SOL    HW1 7598   0.984   3.186  10.705
 2384SOL    HW2 7599   1.147   3.183  10.699
 2385SOL     OW 7600   1.111   3.057  10.410
 2385SOL    HW1 7601   1.071   3.101  10.491
 2385SOL    HW2 7602   1.070   3.094  10.327
 2386SOL     OW 7603   1.638   2.961  10.389
 2386SOL    HW1 7604   1.643   3.042  10.448
 2386SOL    HW2 7605   1.552   2.963  10.338
 2387SOL     OW 7606   0.915   1.951  10.712
 2387SOL    HW1 7607   0.940   1.931  10.617
 2387SOL    HW2 7608   0.987   2.007  10.754
 2388SOL     OW 7609   0.705   2.912   9.678
 2388SOL    HW1 7610   0.691   2.919   9.777
 2388SOL    HW2 7611   0.789   2.861   9.660
 2389SOL     OW 7612   0.410   2.675  10.561
 2389SOL    HW1 7613   0.496   2.687  10.611
 2389SOL    HW2 7614   0.368   2.588  10.588
 2390SOL     OW 7615   1.274   2.248  10.572
 2390SOL    HW1 7616   1.295   2.322  10.636
 2390SOL    HW2 7617   1.185   2.265  10.529
 2391SOL     OW 7618   0.064   3.426  10.641
 2391SOL    HW1 7619   0.018   3.508  10.607
 2391SOL    HW2 7620   0.162   3.445  10.650
 2392SOL     OW 7621   0.367   2.962   9.811
 2392SOL    HW1 7622   0.360   3.045   9.755
 2392SOL    HW2 7623   0.371   2.882   9.751
 2393SOL     OW 7624   0.566   2.399  10.175
 2393SOL    HW1 7625   0.578   2.465  10.101
 2393SOL    HW2 7626   0.612   2.433  10.258
 2394SOL     OW 7627   1.252   3.210   9.698
 2394SOL    HW1 7628   1.302   3.287   9.738
 2394SOL    HW2 7629   1.157   3.212   9.730
 2395SOL     OW 7630   1.272   3.307  10.452
 2395SOL    HW1 7631   1.319   3.320  10.539
 2395SOL    HW2 7632   1.206   3.233  10.461
 2396SOL     OW 7633   1.582   2.501   9.782
 2396SOL    HW1 7634   1.551   2.562   9.855
 2396SOL    HW2 7635   1.632   2.553   9.713
 2397SOL     OW 7636   0.354   3.372  10.639
 2397SOL    HW1 7637   0.333   3.328  10.552
 2397SOL    HW2 7638   0.451   3.398  10.642
 2398SOL     OW 7639   0.402   2.613  10.908
 2398SOL    HW1 7640   0.470   2.668  10.861
 2398SOL    HW2 7641   0.442   2.525  10.935
 2399SOL     OW 7642   1.587   2.641  10.980
 2399SOL    HW1 7643   1.495   2.679  10.975
 2399SOL    HW2 7644   1.647   2.688  10.915
 2400SOL     OW 7645   0.573   2.732  10.339
 2400SOL    HW1 7646   0.617   2.821  10.330
 2400SOL    HW2 7647   0.510   2.732  10.416
 2401SOL     OW 7648   1.360   2.724  10.355
 2401SOL    HW1 7649   1.285   2.724  10.289
 2401SOL    HW2 7650   1.397   2.632  10.364
 2402SOL     OW 7651   1.209   2.387   9.585
 2402SOL    HW1 7652   1.222   2.303   9.639
 2402SOL    HW2 7653   1.180   2.461   9.645
 2403SOL     OW 7654   0.307   2.075  10.541
 2403SOL    HW1 7655   0.284   2.112  10.631
 2403SOL    HW2 7656   0.277   1.980  10.535
 2404SOL     OW 7657   0.037   3.172  10.592
 2404SOL    HW1 7658   0.090   3.123  10.660
 2404SOL    HW2 7659   0.059   3.270  10.597
 2405SOL     OW 7660   0.732   2.496  10.374
 2405SOL    HW1 7661   0.791   2.470  10.298
 2405SOL    HW2 7662   0.704   2.592  10.363
 2406SOL     OW 7663   0.307   1.925   9.928
 2406SOL    HW1 7664   0.296   2.019   9.961
 2406SOL    HW2 7665   0.302   1.862  10.005
 2407SOL     OW 7666   1.622   2.229   9.684
 2407SOL    HW1 7667   1.624   2.153   9.748
 2407SOL    HW2 7668   1.574   2.306   9.724
 2408SOL     OW 7669   1.023   2.628  10.276
 2408SOL    HW1 7670   1.038   2.649  10.372
 2408SOL    HW2 7671   0.993   2.533  10.267
 2409SOL     OW 7672   0.980   3.435  11.010
 2409SOL    HW1 7673   0.960   3.479  10.922
 2409SOL    HW2 7674   1.019   3.344  10.994
 2410SOL     OW 7675   1.859   3.380  10.915
 2410SOL    HW1 7676   1.873   3.407  10.820
 2410SOL    HW2 7677   1.942   3.402  10.968
 2411SOL     OW 7678   0.350   2.760  11.114
 2411SOL    HW1 7679   0.426   2.804  11.162
 2411SOL    HW2 7680   0.385   2.713  11.032
 2412SOL     OW 7681   1.540   2.136   9.435
 2412SOL    HW1 7682   1.479   2.061   9.458
 2412SOL    HW2 7683   1.562   2.188   9.518
 2413SOL     OW 7684   1.303   2.700   9.352
 2413SOL    HW1 7685   1.337   2.607   9.367
 2413SOL    HW2 7686   1.321   2.727   9.257
 2414SOL     OW 7687   1.068   3.195  10.159
 2414SOL    HW1 7688   1.075   3.111  10.104
 2414SOL    HW2 7689   1.130   3.264  10.123
 2415SOL     OW 7690   0.319   2.672  10.259
 2415SOL    HW1 7691   0.412   2.708  10.264
 2415SOL    HW2 7692   0.313   2.587  10.311
 2416SOL     OW 7693   0.339   2.371  10.316
 2416SOL    HW1 7694   0.287   2.288  10.299
 2416SOL    HW2 7695   0.416   2.376  10.252
 2417SOL     OW 7696   1.160   2.069  10.787
 2417SOL    HW1 7697   1.160   2.133  10.864
 2417SOL    HW2 7698   1.188   2.117  10.704
 2418SOL     OW 7699   0.008   3.188   9.510
 2418SOL    HW1 7700  -0.085   3.209   9.479
 2418SOL    HW2 7701   0.018   3.089   9.523
 2419SOL     OW 7702   0.088   3.663  10.237
 2419SOL    HW1 7703   0.046   3.577  10.210
 2419SOL    HW2 7704   0.182   3.666  10.203
 2420SOL     OW 7705   0.504   3.430  10.220
 2420SOL    HW1 7706   0.570   3.504  10.229
 2420SOL    HW2 7707   0.548   3.351  10.178
 2421SOL     OW 7708   1.002   2.658  10.548
 2421SOL    HW1 7709   1.043   2.626  10.634
 2421SOL    HW2 7710   0.906   2.631  10.545
 2422SOL     OW 7711   0.040   2.406  10.424
 2422SOL    HW1 7712   0.125   2.373  10.383
 2422SOL    HW2 7713   0.053   2.421  10.522
 2423SOL     OW 7714   0.815   2.434   9.635
 2423SOL    HW1 7715   0.822   2.345   9.589
 2423SOL    HW2 7716   0.721   2.468   9.627
 2424SOL     OW 7717   1.657   2.466  10.516
 2424SOL    HW1 7718   1.619   2.397  10.578
 2424SOL    HW2 7719   1.739   2.430  10.472
 2425SOL     OW 7720   0.252   3.426  11.054
 2425SOL    HW1 7721   0.222   3.483  11.130
 2425SOL    HW2 7722   0.245   3.329  11.080
 2426SOL     OW 7723   0.671   2.326  10.579
 2426SOL    HW1 7724   0.637   2.237  10.549
 2426SOL    HW2 7725   0.697   2.380  10.499
 2427SOL     OW 7726   0.930   3.540  10.775
 2427SOL    HW1 7727   0.906   3.522  10.680
 2427SOL    HW2 7728   0.960   3.634  10.785
 2428SOL     OW 7729   0.473   2.362   9.501
 2428SOL    HW1 7730   0.534   2.442   9.505
 2428SOL    HW2 7731   0.378   2.393   9.508
 2429SOL     OW 7732   0.159   2.999  10.776
 2429SOL    HW1 7733   0.181   2.938  10.852
 2429SOL    HW2 7734   0.169   2.950  10.690
 2430SOL     OW 7735   1.347   2.921  10.544
 2430SOL    HW1 7736   1.371   2.858  10.470
 2430SOL    HW2 7737   1.257   2.961  10.526
 2431SOL     OW 7738   1.302   2.717   9.619
 2431SOL    HW1 7739   1.216   2.686   9.661
 2431SOL    HW2 7740   1.298   2.703   9.520
 2432SOL     OW 7741   1.759   3.609  10.464
 2432SOL    HW1 7742   1.820   3.639  10.391
 2432SOL    HW2 7743   1.721   3.520  10.442
 2433SOL     OW 7744   1.252   3.593  10.438
 2433SOL    HW1 7745   1.336   3.598  10.384
 2433SOL    HW2 7746   1.229   3.497  10.456
 2434SOL     OW 7747   0.083   3.120  10.332
 2434SOL    HW1 7748   0.078   3.119  10.432
 2434SOL    HW2 7749   0.000   3.079  10.294
 2435SOL     OW 7750   1.726   1.997   9.833
 2435SOL    HW1 7751   1.799   1.980   9.766
 2435SOL    HW2 7752   1.695   1.910   9.871
 2436SOL     OW 7753   1.388   3.435   9.787
 2436SOL    HW1 7754   1.455   3.447   9.713
 2436SOL    HW2 7755   1.348   3.524   9.810
 2437SOL     OW 7756   1.280   2.789   9.982
 2437SOL    HW1 7757   1.340   2.708   9.984
 2437SOL    HW2 7758   1.320   2.858   9.922
 2438SOL     OW 7759   0.830   3.135  10.732
 2438SOL    HW1 7760   0.825   3.168  10.827
 2438SOL    HW2 7761   0.744   3.154  10.686
 2439SOL     OW 7762   0.672   3.478   9.464
 2439SOL    HW1 7763   0.681   3.488   9.365
 2439SOL    HW2 7764   0.632   3.389   9.485
 2440SOL     OW 7765   1.650   3.582  10.704
 2440SOL    HW1 7766   1.703   3.592  10.620
 2440SOL    HW2 7767   1.623   3.672  10.738
 2441SOL     OW 7768   1.841   2.037  10.273
 2441SOL    HW1 7769   1.880   1.952  10.237
 2441SOL    HW2 7770   1.743   2.039  10.254
 2442SOL     OW 7771   0.263   2.188  10.030
 2442SOL    HW1 7772   0.184   2.239   9.996
 2442SOL    HW2 7773   0.254   2.173  10.128
 2443SOL     OW 7774   1.194   3.474   9.341
 2443SOL    HW1 7775   1.200   3.381   9.378
 2443SOL    HW2 7776   1.135   3.474   9.261
 2444SOL     OW 7777   0.822   2.864  10.682
 2444SOL    HW1 7778   0.862   2.863  10.590
 2444SOL    HW2 7779   0.832   2.956  10.722
 2445SOL     OW 7780   0.916   2.772   9.601
 2445SOL    HW1 7781   0.979   2.810   9.533
 2445SOL    HW2 7782   0.956   2.689   9.640
 2446SOL     OW 7783   1.504   3.469   9.354
 2446SOL    HW1 7784   1.412   3.506   9.361
 2446SOL    HW2 7785   1.542   3.489   9.264
 2447SOL     OW 7786   0.372   3.150  10.800
 2447SOL    HW1 7787   0.359   3.243  10.766
 2447SOL    HW2 7788   0.288   3.098  10.787
 2448SOL     OW 7789   1.614   3.154  10.599
 2448SOL    HW1 7790   1.674   3.157  10.679
 2448SOL    HW2 7791   1.539   3.218  10.612
 2449SOL     OW 7792   1.039   2.960  10.006
 2449SOL    HW1 7793   0.969   2.913  10.060
 2449SOL    HW2 7794   1.098   2.892   9.963
 2450SOL     OW 7795   1.014   2.098  10.281
 2450SOL    HW1 7796   1.006   2.062  10.188
 2450SOL    HW2 7797   1.012   2.022  10.346
 2451SOL     OW 7798   0.590   3.349   9.801
 2451SOL    HW1 7799   0.632   3.291   9.731
 2451SOL    HW2 7800   0.546   3.428   9.757
 2452SOL     OW 7801   1.709   2.247  10.691
 2452SOL    HW1 7802   1.782   2.316  10.695
 2452SOL    HW2 7803   1.737   2.172  10.632
 2453SOL     OW 7804   0.255   3.210   9.600
 2453SOL    HW1 7805   0.159   3.211   9.573
 2453SOL    HW2 7806   0.267   3.263   9.684
 2454SOL     OW 7807   0.105   2.875  11.036
 2454SOL    HW1 7808   0.028   2.842  11.090
 2454SOL    HW2 7809   0.190   2.845  11.078
 2455SOL     OW 7810   0.672   2.065  10.799
 2455SOL    HW1 7811   0.762   2.049  10.759
 2455SOL    HW2 7812   0.680   2.070  10.898
 2456SOL     OW 7813   0.075   2.207   9.343
 2456SOL    HW1 7814  -0.017   2.179   9.314
 2456SOL    HW2 7815   0.106   2.284   9.287
 2457SOL     OW 7816   1.440   2.718  10.708
 2457SOL    HW1 7817   1.383   2.770  10.645
 2457SOL    HW2 7818   1.536   2.730  10.684
 2458SOL     OW 7819   0.072   2.028   9.628
 2458SOL    HW1 7820   0.055   2.111   9.574
 2458SOL    HW2 7821   0.162   1.991   9.606
 2459SOL     OW 7822   1.183   3.197   9.429
 2459SOL    HW1 7823   1.084   3.186   9.431
 2459SOL    HW2 7824   1.217   3.212   9.522
 2460SOL     OW 7825   0.613   2.704  10.741
 2460SOL    HW1 7826   0.669   2.785  10.724
 2460SOL    HW2 7827   0.672   2.624  10.744
 2461SOL     OW 7828   1.493   3.629  10.269
 2461SOL    HW1 7829   1.526   3.693  10.200
 2461SOL    HW2 7830   1.559   3.623  10.344
 2462SOL     OW 7831   0.716   2.427  11.018
 2462SOL    HW1 7832   0.735   2.492  11.092
 2462SOL    HW2 7833   0.776   2.347  11.027
 2463SOL     OW 7834   0.390   3.603  10.870
 2463SOL    HW1 7835   0.299   3.644  10.868
 2463SOL    HW2 7836   0.383   3.509  10.902
 2464SOL     OW 7837   1.674   2.745  10.564
 2464SOL    HW1 7838   1.647   2.656  10.527
 2464SOL    HW2 7839   1.675   2.813  10.491
 2465SOL     OW 7840   1.225   2.187   9.759
 2465SOL    HW1 7841   1.290   2.113   9.748
 2465SOL    HW2 7842   1.245   2.237   9.843
 2466SOL     OW 7843   0.594   2.607   9.962
 2466SOL    HW1 7844   0.644   2.692   9.943
 2466SOL    HW2 7845   0.506   2.609   9.914
 2467SOL     OW 7846   1.777   2.204  10.952
 2467SOL    HW1 7847   1.760   2.235  10.858
 2467SOL    HW2 7848   1.693   2.167  10.990
 2468SOL     OW 7849   1.730   2.796  10.827
 2468SOL    HW1 7850   1.768   2.887  10.842
 2468SOL    HW2 7851   1.722   2.779  10.728
 2469SOL     OW 7852   0.859   3.236   9.326
 2469SOL    HW1 7853   0.813   3.251   9.414
 2469SOL    HW2 7854   0.903   3.321   9.296
 2470SOL     OW 7855   0.661   3.652  10.263
 2470SOL    HW1 7856   0.615   3.740  10.250
 2470SOL    HW2 7857   0.760   3.664  10.256
 2471SOL     OW 7858   0.859   2.818  10.171
 2471SOL    HW1 7859   0.913   2.749  10.219
 2471SOL    HW2 7860   0.827   2.887  10.237
 2472SOL     OW 7861   1.083   2.846   9.397
 2472SOL    HW1 7862   1.060   2.899   9.315
 2472SOL    HW2 7863   1.164   2.790   9.378
 2473SOL     OW 7864   1.861   3.431  10.161
 2473SOL    HW1 7865   1.790   3.419  10.091
 2473SOL    HW2 7866   1.862   3.352  10.221
 2474SOL     OW 7867   0.079   3.102   9.963
 2474SOL    HW1 7868   0.078   3.055  10.051
 2474SOL    HW2 7869   0.161   3.074   9.912
 2475SOL     OW 7870   0.672   3.253  10.934
 2475SOL    HW1 7871   0.594   3.203  10.972
 2475SOL    HW2 7872   0.669   3.348  10.965
 2476SOL     OW 7873   1.824   2.054  10.537
 2476SOL    HW1 7874   1.820   1.964  10.581
 2476SOL    HW2 7875   1.827   2.043  10.438
 2477SOL     OW 7876   0.428   2.286   9.830
 2477SOL    HW1 7877   0.458   2.214   9.768
 2477SOL    HW2 7878   0.389   2.246   9.913
 2478SOL     OW 7879   1.705   3.349  10.414
 2478SOL    HW1 7880   1.612   3.324  10.387
 2478SOL    HW2 7881   1.731   3.299  10.496
 2479SOL     OW 7882   0.317   2.409  10.590
 2479SOL    HW1 7883   0.355   2.350  10.662
 2479SOL    HW2 7884   0.357   2.383  10.502
 2480SOL     OW 7885   0.812   3.448   9.997
 2480SOL    HW1 7886   0.844   3.458   9.903
 2480SOL    HW2 7887   0.733   3.386   9.999
 2481SOL     OW 7888   1.424   2.076  10.422
 2481SOL    HW1 7889   1.476   2.011  10.477
 2481SOL    HW2 7890   1.375   2.139  10.483
 2482SOL     OW 7891   1.001   1.896  10.464
 2482SOL    HW1 7892   0.938   1.824  10.433
 2482SOL    HW2 7893   1.094   1.860  10.464
 2483SOL     OW 7894   0.770   3.192   9.611
 2483SOL    HW1 7895   0.724   3.105   9.628
 2483SOL    HW2 7896   0.861   3.189   9.652
 2484SOL     OW 7897   0.618   3.429  10.594
 2484SOL    HW1 7898   0.613   3.511  10.651
 2484SOL    HW2 7899   0.707   3.426  10.549
 2485SOL     OW 7900   1.352   1.914   9.478
 2485SOL    HW1 7901   1.387   1.873   9.394
 2485SOL    HW2 7902   1.262   1.876   9.498
 2486SOL     OW 7903   1.300   2.315  10.001
 2486SOL    HW1 7904   1.241   2.395  10.005
 2486SOL    HW2 7905   1.315   2.280  10.094
 2487SOL     OW 7906   1.593   2.083  10.192
 2487SOL    HW1 7907   1.509   2.082  10.246
 2487SOL    HW2 7908   1.595   2.166  10.136
 2488SOL     OW 7909   0.039   2.939   9.610
 2488SOL    HW1 7910   0.138   2.928   9.601
 2488SOL    HW2 7911  -0.001   2.853   9.642
 2489SOL     OW 7912   0.875   3.508   9.647
 2489SOL    HW1 7913   0.798   3.473   9.593
 2489SOL    HW2 7914   0.843   3.579   9.709
 2490SOL     OW 7915   0.230   4.352   0.113
 2490SOL    HW1 7916   0.137   4.350   0.150
 2490SOL    HW2 7917   0.231   4.313   0.021
 2491SOL     OW 7918   0.225   3.999   0.996
 2491SOL    HW1 7919   0.260   3.982   1.088
 2491SOL    HW2 7920   0.137   3.954   0.984
 2492SOL     OW 7921   0.019   4.092   0.647
 2492SOL    HW1 7922  -0.063   4.135   0.686
 2492SOL    HW2 7923  -0.009   4.019   0.584
 2493SOL     OW 7924   1.755   4.331   0.231
 2493SOL    HW1 7925   1.743   4.318   0.132
 2493SOL    HW2 7926   1.725   4.250   0.280
 2494SOL     OW 7927   0.685   4.736   0.665
 2494SOL    HW1 7928   0.754   4.720   0.735
 2494SOL    HW2 7929   0.612   4.793   0.703
 2495SOL     OW 7930   0.438   4.116   1.499
 2495SOL    HW1 7931   0.520   4.060   1.508
 2495SOL    HW2 7932   0.357   4.058   1.503
 2496SOL     OW 7933   1.603   4.171   0.737
 2496SOL    HW1 7934   1.529   4.217   0.687
 2496SOL    HW2 7935   1.654   4.239   0.790
 2497SOL     OW 7936   1.594   3.838   1.480
 2497SOL    HW1 7937   1.576   3.905   1.408
 2497SOL    HW2 7938   1.591   3.884   1.569
 2498SOL     OW 7939   0.122   4.367   0.563
 2498SOL    HW1 7940   0.077   4.279   0.580
 2498SOL    HW2 7941   0.121   4.421   0.647
 2499SOL     OW 7942   0.113   4.461   1.597
 2499SOL    HW1 7943   0.201   4.448   1.642
 2499SOL    HW2 7944   0.100   4.558   1.575
 2500SOL     OW 7945   0.809   3.728   0.502
 2500SOL    HW1 7946   0.849   3.819   0.493
 2500SOL    HW2 7947   0.709   3.736   0.508
 2501SOL     OW 7948   0.317   3.975   1.801
 2501SOL    HW1 7949   0.388   4.046   1.807
 2501SOL    HW2 7950   0.229   4.014   1.829
 2502SOL     OW 7951   1.281   4.069   0.944
 2502SOL    HW1 7952   1.195   4.019   0.931
 2502SOL    HW2 7953   1.343   4.015   1.000
 2503SOL     OW 7954   0.807   4.329   1.465
 2503SOL    HW1 7955   0.760   4.326   1.554
 2503SOL    HW2 7956   0.756   4.274   1.399
 2504SOL     OW 7957   1.394   4.193   1.674
 2504SOL    HW1 7958   1.374   4.236   1.762
 2504SOL    HW2 7959   1.472   4.131   1.683
 2505SOL     OW 7960   0.991   4.134   1.242
 2505SOL    HW1 7961   0.914   4.168   1.296
 2505SOL    HW2 7962   0.957   4.083   1.163
 2506SOL     OW 7963   1.041   4.425   0.429
 2506SOL    HW1 7964   1.067   4.421   0.525
 2506SOL    HW2 7965   0.956   4.374   0.415
 2507SOL     OW 7966   0.076   4.535   0.789
 2507SOL    HW1 7967   0.175   4.523   0.798
 2507SOL    HW2 7968   0.052   4.630   0.810
 2508SOL     OW 7969   0.865   4.072   0.195
 2508SOL    HW1 7970   0.924   4.135   0.146
 2508SOL    HW2 7971   0.884   3.978   0.166
 2509SOL     OW 7972   1.719   4.309   1.831
 2509SOL    HW1 7973   1.693   4.398   1.795
 2509SOL    HW2 7974   1.717   4.241   1.758
 2510SOL     OW 7975   0.550   3.920   0.885
 2510SOL    HW1 7976   0.545   3.915   0.985
 2510SOL    HW2 7977   0.552   4.016   0.856
 2511SOL     OW 7978   1.458   4.459   0.728
 2511SOL    HW1 7979   1.453   4.394   0.803
 2511SOL    HW2 7980   1.538   4.518   0.741
 2512SOL     OW 7981   0.202   4.009   1.498
 2512SOL    HW1 7982   0.122   4.069   1.485
 2512SOL    HW2 7983   0.192   3.960   1.584
 2513SOL     OW 7984   1.400   3.831   0.426
 2513SOL    HW1 7985   1.376   3.794   0.336
 2513SOL    HW2 7986   1.499   3.847   0.430
 2514SOL     OW 7987   0.382   4.424   0.480
 2514SOL    HW1 7988   0.427   4.334   0.477
 2514SOL    HW2 7989   0.288   4.413   0.513
 2515SOL     OW 7990   1.547   3.946   1.729
 2515SOL    HW1 7991   1.542   3.983   1.821
 2515SOL    HW2 7992   1.475   3.877   1.717
 2516SOL     OW 7993   0.614   3.846   0.117
 2516SOL    HW1 7994   0.712   3.824   0.124
 2516SOL    HW2 7995   0.583   3.829   0.024
 2517SOL     OW 7996   0.781   3.988   1.749
 2517SOL    HW1 7997   0.848   3.927   1.792
 2517SOL    HW2 7998   0.708   4.007   1.814
 2518SOL     OW 7999   1.351   4.314   1.433
 2518SOL    HW1 8000   1.379   4.271   1.518
 2518SOL    HW2 8001   1.376   4.410   1.434
 2519SOL     OW 8002   0.922   4.227   0.899
 2519SOL    HW1 8003   0.897   4.218   0.803
 2519SOL    HW2 8004   0.970   4.145   0.930
 2520SOL     OW 8005   0.539   3.788   0.512
 2520SOL    HW1 8006   0.458   3.789   0.570
 2520SOL    HW2 8007   0.542   3.871   0.457
 2521SOL     OW 8008   0.297   3.759   0.171
 2521SOL    HW1 8009   0.346   3.843   0.150
 2521SOL    HW2 8010   0.359   3.694   0.216
 2522SOL     OW 8011   0.935   3.960   0.480
 2522SOL    HW1 8012   0.887   4.001   0.402
 2522SOL    HW2 8013   1.034   3.958   0.461
 2523SOL     OW 8014   1.076   4.407   1.464
 2523SOL    HW1 8015   0.996   4.346   1.467
 2523SOL    HW2 8016   1.157   4.354   1.440
 2524SOL     OW 8017   1.032   4.273   0.016
 2524SOL    HW1 8018   0.991   4.355  -0.023
 2524SOL    HW2 8019   1.096   4.299   0.089
 2525SOL     OW 8020   0.078   4.280   1.386
 2525SOL    HW1 8021   0.170   4.279   1.345
 2525SOL    HW2 8022   0.072   4.354   1.453
 2526SOL     OW 8023   0.561   3.946   1.147
 2526SOL    HW1 8024   0.599   3.862   1.184
 2526SOL    HW2 8025   0.473   3.965   1.191
 2527SOL     OW 8026   0.866   4.178   0.642
 2527SOL    HW1 8027   0.834   4.250   0.580
 2527SOL    HW2 8028   0.890   4.097   0.589
 2528SOL     OW 8029   1.017   3.763   0.753
 2528SOL    HW1 8030   0.945   3.768   0.684
 2528SOL    HW2 8031   0.993   3.694   0.822
 2529SOL     OW 8032   1.466   4.314   0.992
 2529SOL    HW1 8033   1.436   4.219   0.999
 2529SOL    HW2 8034   1.539   4.330   1.058
 2530SOL     OW 8035   1.390   4.299   0.078
 2530SOL    HW1 8036   1.336   4.278   0.159
 2530SOL    HW2 8037   1.481   4.258   0.087
 2531SOL     OW 8038   0.527   3.980   0.328
 2531SOL    HW1 8039   0.554   3.921   0.253
 2531SOL    HW2 8040   0.527   4.075   0.297
 2532SOL     OW 8041   0.915   3.813   1.402
 2532SOL    HW1 8042   0.940   3.793   1.307
 2532SOL    HW2 8043   0.987   3.869   1.444
 2533SOL     OW 8044   0.410   4.537   1.251
 2533SOL    HW1 8045   0.496   4.549   1.301
 2533SOL    HW2 8046   0.368   4.450   1.278
 2534SOL     OW 8047   1.274   4.110   1.262
 2534SOL    HW1 8048   1.295   4.184   1.326
 2534SOL    HW2 8049   1.185   4.127   1.219
 2535SOL     OW 8050   0.566   4.261   0.865
 2535SOL    HW1 8051   0.578   4.327   0.791
 2535SOL    HW2 8052   0.612   4.295   0.948
 2536SOL     OW 8053   1.582   4.363   0.472
 2536SOL    HW1 8054   1.551   4.424   0.545
 2536SOL    HW2 8055   1.632   4.415   0.403
 2537SOL     OW 8056   1.013   3.829   1.770
 2537SOL    HW1 8057   1.019   3.914   1.718
 2537SOL    HW2 8058   1.045   3.753   1.713
 2538SOL     OW 8059   0.504   3.774   1.740
 2538SOL    HW1 8060   0.462   3.717   1.670
 2538SOL    HW2 8061   0.438   3.843   1.772
 2539SOL     OW 8062   1.209   4.249   0.275
 2539SOL    HW1 8063   1.222   4.165   0.329
 2539SOL    HW2 8064   1.180   4.323   0.335
 2540SOL     OW 8065   0.307   3.937   1.231
 2540SOL    HW1 8066   0.284   3.974   1.321
 2540SOL    HW2 8067   0.277   3.842   1.225
 2541SOL     OW 8068   0.732   4.358   1.064
 2541SOL    HW1 8069   0.791   4.332   0.988
 2541SOL    HW2 8070   0.704   4.454   1.053
 2542SOL     OW 8071   1.728   4.659   1.854
 2542SOL    HW1 8072   1.682   4.652   1.765
 2542SOL    HW2 8073   1.666   4.703   1.920
 2543SOL     OW 8074   0.307   3.787   0.618
 2543SOL    HW1 8075   0.296   3.881   0.651
 2543SOL    HW2 8076   0.302   3.724   0.695
 2544SOL     OW 8077   1.622   4.091   0.374
 2544SOL    HW1 8078   1.624   4.015   0.438
 2544SOL    HW2 8079   1.574   4.168   0.414
 2545SOL     OW 8080   1.540   3.998   0.125
 2545SOL    HW1 8081   1.479   3.923   0.148
 2545SOL    HW2 8082   1.562   4.050   0.208
 2546SOL     OW 8083   0.319   4.534   0.949
 2546SOL    HW1 8084   0.412   4.570   0.954
 2546SOL    HW2 8085   0.313   4.449   1.001
 2547SOL     OW 8086   0.339   4.233   1.006
 2547SOL    HW1 8087   0.287   4.150   0.989
 2547SOL    HW2 8088   0.416   4.238   0.942
 2548SOL     OW 8089   1.138   4.104   1.678
 2548SOL    HW1 8090   1.093   4.167   1.742
 2548SOL    HW2 8091   1.231   4.135   1.661
 2549SOL     OW 8092   1.160   3.931   1.477
 2549SOL    HW1 8093   1.160   3.995   1.554
 2549SOL    HW2 8094   1.188   3.979   1.394
 2550SOL     OW 8095   0.040   4.268   1.114
 2550SOL    HW1 8096   0.125   4.235   1.073
 2550SOL    HW2 8097   0.053   4.283   1.212
 2551SOL     OW 8098   0.189   4.244   1.722
 2551SOL    HW1 8099   0.248   4.204   1.652
 2551SOL    HW2 8100   0.131   4.315   1.681
 2552SOL     OW 8101   0.815   4.296   0.325
 2552SOL    HW1 8102   0.822   4.207   0.279
 2552SOL    HW2 8103   0.721   4.330   0.317
 2553SOL     OW 8104   1.657   4.328   1.206
 2553SOL    HW1 8105   1.619   4.259   1.268
 2553SOL    HW2 8106   1.739   4.292   1.162
 2554SOL     OW 8107   0.671   4.188   1.269
 2554SOL    HW1 8108   0.637   4.099   1.239
 2554SOL    HW2 8109   0.697   4.242   1.189
 2555SOL     OW 8110   0.473   4.224   0.191
 2555SOL    HW1 8111   0.534   4.304   0.195
 2555SOL    HW2 8112   0.378   4.255   0.198
 2556SOL     OW 8113   0.903   3.810   0.133
 2556SOL    HW1 8114   0.954   3.811   0.047
 2556SOL    HW2 8115   0.959   3.768   0.204
 2557SOL     OW 8116   1.726   3.859   0.523
 2557SOL    HW1 8117   1.799   3.842   0.456
 2557SOL    HW2 8118   1.695   3.772   0.561
 2558SOL     OW 8119   1.280   4.651   0.672
 2558SOL    HW1 8120   1.340   4.570   0.674
 2558SOL    HW2 8121   1.320   4.720   0.612
 2559SOL     OW 8122   1.841   3.899   0.963
 2559SOL    HW1 8123   1.880   3.814   0.927
 2559SOL    HW2 8124   1.743   3.901   0.944
 2560SOL     OW 8125   0.263   4.050   0.720
 2560SOL    HW1 8126   0.184   4.101   0.686
 2560SOL    HW2 8127   0.254   4.035   0.818
 2561SOL     OW 8128   1.039   4.822   0.696
 2561SOL    HW1 8129   0.969   4.775   0.750
 2561SOL    HW2 8130   1.098   4.754   0.653
 2562SOL     OW 8131   1.014   3.960   0.971
 2562SOL    HW1 8132   1.006   3.924   0.878
 2562SOL    HW2 8133   1.012   3.884   1.036
 2563SOL     OW 8134   1.709   4.109   1.381
 2563SOL    HW1 8135   1.782   4.178   1.385
 2563SOL    HW2 8136   1.737   4.034   1.322
 2564SOL     OW 8137   0.672   3.927   1.489
 2564SOL    HW1 8138   0.762   3.911   1.449
 2564SOL    HW2 8139   0.680   3.932   1.588
 2565SOL     OW 8140   0.075   4.069   0.033
 2565SOL    HW1 8141  -0.017   4.041   0.004
 2565SOL    HW2 8142   0.106   4.146  -0.023
 2566SOL     OW 8143   0.072   3.890   0.318
 2566SOL    HW1 8144   0.055   3.973   0.264
 2566SOL    HW2 8145   0.162   3.853   0.296
 2567SOL     OW 8146   0.716   4.289   1.708
 2567SOL    HW1 8147   0.735   4.354   1.782
 2567SOL    HW2 8148   0.776   4.209   1.717
 2568SOL     OW 8149   1.225   4.049   0.449
 2568SOL    HW1 8150   1.290   3.975   0.438
 2568SOL    HW2 8151   1.245   4.099   0.533
 2569SOL     OW 8152   1.777   4.066   1.642
 2569SOL    HW1 8153   1.760   4.097   1.548
 2569SOL    HW2 8154   1.693   4.029   1.680
 2570SOL     OW 8155   1.083   4.708   0.087
 2570SOL    HW1 8156   1.060   4.761   0.005
 2570SOL    HW2 8157   1.164   4.652   0.068
 2571SOL     OW 8158   1.824   3.916   1.227
 2571SOL    HW1 8159   1.820   3.826   1.271
 2571SOL    HW2 8160   1.827   3.905   1.128
 2572SOL     OW 8161   0.428   4.148   0.520
 2572SOL    HW1 8162   0.458   4.076   0.458
 2572SOL    HW2 8163   0.389   4.108   0.603
 2573SOL     OW 8164   0.317   4.271   1.280
 2573SOL    HW1 8165   0.355   4.212   1.352
 2573SOL    HW2 8166   0.357   4.245   1.192
 2574SOL     OW 8167   1.424   3.938   1.112
 2574SOL    HW1 8168   1.476   3.873   1.167
 2574SOL    HW2 8169   1.375   4.001   1.173
 2575SOL     OW 8170   1.001   3.758   1.154
 2575SOL    HW1 8171   0.938   3.686   1.123
 2575SOL    HW2 8172   1.094   3.722   1.154
 2576SOL     OW 8173   1.352   3.776   0.168
 2576SOL    HW1 8174   1.387   3.735   0.084
 2576SOL    HW2 8175   1.262   3.738   0.188
 2577SOL     OW 8176   1.300   4.177   0.691
 2577SOL    HW1 8177   1.241   4.257   0.695
 2577SOL    HW2 8178   1.315   4.142   0.784
 2578SOL     OW 8179   1.593   3.945   0.882
 2578SOL    HW1 8180   1.509   3.944   0.936
 2578SOL    HW2 8181   1.595   4.028   0.826
 2579SOL     OW 8182   0.230   4.352   1.975
 2579SOL    HW1 8183   0.137   4.350   2.012
 2579SOL    HW2 8184   0.231   4.313   1.883
 2580SOL     OW 8185   0.225   3.999   2.858
 2580SOL    HW1 8186   0.260   3.982   2.950
 2580SOL    HW2 8187   0.137   3.954   2.846
 2581SOL     OW 8188   0.019   4.092   2.509
 2581SOL    HW1 8189  -0.063   4.135   2.548
 2581SOL    HW2 8190  -0.009   4.019   2.446
 2582SOL     OW 8191   1.755   4.331   2.093
 2582SOL    HW1 8192   1.743   4.318   1.994
 2582SOL    HW2 8193   1.725   4.250   2.142
 2583SOL     OW 8194   0.685   4.736   2.527
 2583SOL    HW1 8195   0.754   4.720   2.597
 2583SOL    HW2 8196   0.612   4.793   2.565
 2584SOL     OW 8197   0.438   4.116   3.361
 2584SOL    HW1 8198   0.520   4.060   3.370
 2584SOL    HW2 8199   0.357   4.058   3.365
 2585SOL     OW 8200   1.603   4.171   2.599
 2585SOL    HW1 8201   1.529   4.217   2.549
 2585SOL    HW2 8202   1.654   4.239   2.652
 2586SOL     OW 8203   1.594   3.838   3.342
 2586SOL    HW1 8204   1.576   3.905   3.270
 2586SOL    HW2 8205   1.591   3.884   3.431
 2587SOL     OW 8206   0.122   4.367   2.425
 2587SOL    HW1 8207   0.077   4.279   2.442
 2587SOL    HW2 8208   0.121   4.421   2.509
 2588SOL     OW 8209   0.113   4.461   3.459
 2588SOL    HW1 8210   0.201   4.448   3.504
 2588SOL    HW2 8211   0.100   4.558   3.437
 2589SOL     OW 8212   0.809   3.728   2.364
 2589SOL    HW1 8213   0.849   3.819   2.355
 2589SOL    HW2 8214   0.709   3.736   2.370
 2590SOL     OW 8215   0.317   3.975   3.663
 2590SOL    HW1 8216   0.388   4.046   3.669
 2590SOL    HW2 8217   0.229   4.014   3.691
 2591SOL     OW 8218   1.281   4.069   2.806
 2591SOL    HW1 8219   1.195   4.019   2.793
 2591SOL    HW2 8220   1.343   4.015   2.862
 2592SOL     OW 8221   0.807   4.329   3.327
 2592SOL    HW1 8222   0.760   4.326   3.416
 2592SOL    HW2 8223   0.756   4.274   3.261
 2593SOL     OW 8224   1.394   4.193   3.536
 2593SOL    HW1 8225   1.374   4.236   3.624
 2593SOL    HW2 8226   1.472   4.131   3.545
 2594SOL     OW 8227   0.991   4.134   3.104
 2594SOL    HW1 8228   0.914   4.168   3.158
 2594SOL    HW2 8229   0.957   4.083   3.025
 2595SOL     OW 8230   1.041   4.425   2.291
 2595SOL    HW1 8231   1.067   4.421   2.387
 2595SOL    HW2 8232   0.956   4.374   2.277
 2596SOL     OW 8233   0.076   4.535   2.651
 2596SOL    HW1 8234   0.175   4.523   2.660
 2596SOL    HW2 8235   0.052   4.630   2.672
 2597SOL     OW 8236   0.865   4.072   2.057
 2597SOL    HW1 8237   0.924   4.135   2.008
 2597SOL    HW2 8238   0.884   3.978   2.028
 2598SOL     OW 8239   1.719   4.309   3.693
 2598SOL    HW1 8240   1.693   4.398   3.657
 2598SOL    HW2 8241   1.717   4.241   3.620
 2599SOL     OW 8242   0.550   3.920   2.747
 2599SOL    HW1 8243   0.545   3.915   2.847
 2599SOL    HW2 8244   0.552   4.016   2.718
 2600SOL     OW 8245   1.458   4.459   2.590
 2600SOL    HW1 8246   1.453   4.394   2.665
 2600SOL    HW2 8247   1.538   4.518   2.603
 2601SOL     OW 8248   0.202   4.009   3.360
 2601SOL    HW1 8249   0.122   4.069   3.347
 2601SOL    HW2 8250   0.192   3.960   3.446
 2602SOL     OW 8251   1.400   3.831   2.288
 2602SOL    HW1 8252   1.376   3.794   2.198
 2602SOL    HW2 8253   1.499   3.847   2.292
 2603SOL     OW 8254   0.382   4.424   2.342
 2603SOL    HW1 8255   0.427   4.334   2.339
 2603SOL    HW2 8256   0.288   4.413   2.375
 2604SOL     OW 8257   1.547   3.946   3.591
 2604SOL    HW1 8258   1.542   3.983   3.683
 2604SOL    HW2 8259   1.475   3.877   3.579
 2605SOL     OW 8260   0.614   3.846   1.979
 2605SOL    HW1 8261   0.712   3.824   1.986
 2605SOL    HW2 8262   0.583   3.829   1.886
 2606SOL     OW 8263   0.781   3.988   3.611
 2606SOL    HW1 8264   0.848   3.927   3.654
 2606SOL    HW2 8265   0.708   4.007   3.676
 2607SOL     OW 8266   1.351   4.314   3.295
 2607SOL    HW1 8267   1.379   4.271   3.380
 2607SOL    HW2 8268   1.376   4.410   3.296
 2608SOL     OW 8269   0.922   4.227   2.761
 2608SOL    HW1 8270   0.897   4.218   2.665
 2608SOL    HW2 8271   0.970   4.145   2.792
 2609SOL     OW 8272   0.539   3.788   2.374
 2609SOL    HW1 8273   0.458   3.789   2.432
 2609SOL    HW2 8274   0.542   3.871   2.319
 2610SOL     OW 8275   0.297   3.759   2.033
 2610SOL    HW1 8276   0.346   3.843   2.012
 2610SOL    HW2 8277   0.359   3.694   2.078
 2611SOL     OW 8278   0.935   3.960   2.342
 2611SOL    HW1 8279   0.887   4.001   2.264
 2611SOL    HW2 8280   1.034   3.958   2.323
 2612SOL     OW 8281   1.076   4.407   3.326
 2612SOL    HW1 8282   0.996   4.346   3.329
 2612SOL    HW2 8283   1.157   4.354   3.302
 2613SOL     OW 8284   1.032   4.273   1.878
 2613SOL    HW1 8285   0.991   4.355   1.839
 2613SOL    HW2 8286   1.096   4.299   1.951
 2614SOL     OW 8287   0.078   4.280   3.248
 2614SOL    HW1 8288   0.170   4.279   3.207
 2614SOL    HW2 8289   0.072   4.354   3.315
 2615SOL     OW 8290   0.561   3.946   3.009
 2615SOL    HW1 8291   0.599   3.862   3.046
 2615SOL    HW2 8292   0.473   3.965   3.053
 2616SOL     OW 8293   0.866   4.178   2.504
 2616SOL    HW1 8294   0.834   4.250   2.442
 2616SOL    HW2 8295   0.890   4.097   2.451
 2617SOL     OW 8296   1.017   3.763   2.615
 2617SOL    HW1 8297   0.945   3.768   2.546
 2617SOL    HW2 8298   0.993   3.694   2.684
 2618SOL     OW 8299   1.466   4.314   2.854
 2618SOL    HW1 8300   1.436   4.219   2.861
 2618SOL    HW2 8301   1.539   4.330   2.920
 2619SOL     OW 8302   1.390   4.299   1.940
 2619SOL    HW1 8303   1.336   4.278   2.021
 2619SOL    HW2 8304   1.481   4.258   1.949
 2620SOL     OW 8305   0.527   3.980   2.190
 2620SOL    HW1 8306   0.554   3.921   2.115
 2620SOL    HW2 8307   0.527   4.075   2.159
 2621SOL     OW 8308   0.915   3.813   3.264
 2621SOL    HW1 8309   0.940   3.793   3.169
 2621SOL    HW2 8310   0.987   3.869   3.306
 2622SOL     OW 8311   0.410   4.537   3.113
 2622SOL    HW1 8312   0.496   4.549   3.163
 2622SOL    HW2 8313   0.368   4.450   3.140
 2623SOL     OW 8314   1.274   4.110   3.124
 2623SOL    HW1 8315   1.295   4.184   3.188
 2623SOL    HW2 8316   1.185   4.127   3.081
 2624SOL     OW 8317   0.566   4.261   2.727
 2624SOL    HW1 8318   0.578   4.327   2.653
 2624SOL    HW2 8319   0.612   4.295   2.810
 2625SOL     OW 8320   1.582   4.363   2.334
 2625SOL    HW1 8321   1.551   4.424   2.407
 2625SOL    HW2 8322   1.632   4.415   2.265
 2626SOL     OW 8323   1.013   3.829   3.632
 2626SOL    HW1 8324   1.019   3.914   3.580
 2626SOL    HW2 8325   1.045   3.753   3.575
 2627SOL     OW 8326   0.504   3.774   3.602
 2627SOL    HW1 8327   0.462   3.717   3.532
 2627SOL    HW2 8328   0.438   3.843   3.634
 2628SOL     OW 8329   1.209   4.249   2.137
 2628SOL    HW1 8330   1.222   4.165   2.191
 2628SOL    HW2 8331   1.180   4.323   2.197
 2629SOL     OW 8332   0.307   3.937   3.093
 2629SOL    HW1 8333   0.284   3.974   3.183
 2629SOL    HW2 8334   0.277   3.842   3.087
 2630SOL     OW 8335   0.732   4.358   2.926
 2630SOL    HW1 8336   0.791   4.332   2.850
 2630SOL    HW2 8337   0.704   4.454   2.915
 2631SOL     OW 8338   1.728   4.659   3.716
 2631SOL    HW1 8339   1.682   4.652   3.627
 2631SOL    HW2 8340   1.666   4.703   3.782
 2632SOL     OW 8341   0.307   3.787   2.480
 2632SOL    HW1 8342   0.296   3.881   2.513
 2632SOL    HW2 8343   0.302   3.724   2.557
 2633SOL     OW 8344   1.622   4.091   2.236
 2633SOL    HW1 8345   1.624   4.015   2.300
 2633SOL    HW2 8346   1.574   4.168   2.276
 2634SOL     OW 8347   1.540   3.998   1.987
 2634SOL    HW1 8348   1.479   3.923   2.010
 2634SOL    HW2 8349   1.562   4.050   2.070
 2635SOL     OW 8350   0.319   4.534   2.811
 2635SOL    HW1 8351   0.412   4.570   2.816
 2635SOL    HW2 8352   0.313   4.449   2.863
 2636SOL     OW 8353   0.339   4.233   2.868
 2636SOL    HW1 8354   0.287   4.150   2.851
 2636SOL    HW2 8355   0.416   4.238   2.804
 2637SOL     OW 8356   1.138   4.104   3.540
 2637SOL    HW1 8357   1.093   4.167   3.604
 2637SOL    HW2 8358   1.231   4.135   3.523
 2638SOL     OW 8359   1.160   3.931   3.339
 2638SOL    HW1 8360   1.160   3.995   3.416
 2638SOL    HW2 8361   1.188   3.979   3.256
 2639SOL     OW 8362   0.040   4.268   2.976
 2639SOL    HW1 8363   0.125   4.235   2.935
 2639SOL    HW2 8364   0.053   4.283   3.074
 2640SOL     OW 8365   0.189   4.244   3.584
 2640SOL    HW1 8366   0.248   4.204   3.514
 2640SOL    HW2 8367   0.131   4.315   3.543
 2641SOL     OW 8368   0.815   4.296   2.187
 2641SOL    HW1 8369   0.822   4.207   2.141
 2641SOL    HW2 8370   0.721   4.330   2.179
 2642SOL     OW 8371   1.657   4.328   3.068
 2642SOL    HW1 8372   1.619   4.259   3.130
 2642SOL    HW2 8373   1.739   4.292   3.024
 2643SOL     OW 8374   0.671   4.188   3.131
 2643SOL    HW1 8375   0.637   4.099   3.101
 2643SOL    HW2 8376   0.697   4.242   3.051
 2644SOL     OW 8377   0.473   4.224   2.053
 2644SOL    HW1 8378   0.534   4.304   2.057
 2644SOL    HW2 8379   0.378   4.255   2.060
 2645SOL     OW 8380   1.726   3.859   2.385
 2645SOL    HW1 8381   1.799   3.842   2.318
 2645SOL    HW2 8382   1.695   3.772   2.423
 2646SOL     OW 8383   1.280   4.651   2.534
 2646SOL    HW1 8384   1.340   4.570   2.536
 2646SOL    HW2 8385   1.320   4.720   2.474
 2647SOL     OW 8386   1.841   3.899   2.825
 2647SOL    HW1 8387   1.880   3.814   2.789
 2647SOL    HW2 8388   1.743   3.901   2.806
 2648SOL     OW 8389   0.263   4.050   2.582
 2648SOL    HW1 8390   0.184   4.101   2.548
 2648SOL    HW2 8391   0.254   4.035   2.680
 2649SOL     OW 8392   0.916   4.634   2.153
 2649SOL    HW1 8393   0.979   4.672   2.085
 2649SOL    HW2 8394   0.956   4.551   2.192
 2650SOL     OW 8395   1.039   4.822   2.558
 2650SOL    HW1 8396   0.969   4.775   2.612
 2650SOL    HW2 8397   1.098   4.754   2.515
 2651SOL     OW 8398   1.014   3.960   2.833
 2651SOL    HW1 8399   1.006   3.924   2.740
 2651SOL    HW2 8400   1.012   3.884   2.898
 2652SOL     OW 8401   1.709   4.109   3.243
 2652SOL    HW1 8402   1.782   4.178   3.247
 2652SOL    HW2 8403   1.737   4.034   3.184
 2653SOL     OW 8404   0.672   3.927   3.351
 2653SOL    HW1 8405   0.762   3.911   3.311
 2653SOL    HW2 8406   0.680   3.932   3.450
 2654SOL     OW 8407   0.075   4.069   1.895
 2654SOL    HW1 8408  -0.017   4.041   1.866
 2654SOL    HW2 8409   0.106   4.146   1.839
 2655SOL     OW 8410   0.072   3.890   2.180
 2655SOL    HW1 8411   0.055   3.973   2.126
 2655SOL    HW2 8412   0.162   3.853   2.158
 2656SOL     OW 8413   0.716   4.289   3.570
 2656SOL    HW1 8414   0.735   4.354   3.644
 2656SOL    HW2 8415   0.776   4.209   3.579
 2657SOL     OW 8416   1.225   4.049   2.311
 2657SOL    HW1 8417   1.290   3.975   2.300
 2657SOL    HW2 8418   1.245   4.099   2.395
 2658SOL     OW 8419   1.777   4.066   3.504
 2658SOL    HW1 8420   1.760   4.097   3.410
 2658SOL    HW2 8421   1.693   4.029   3.542
 2659SOL     OW 8422   1.083   4.708   1.949
 2659SOL    HW1 8423   1.060   4.761   1.867
 2659SOL    HW2 8424   1.164   4.652   1.930
 2660SOL     OW 8425   1.824   3.916   3.089
 2660SOL    HW1 8426   1.820   3.826   3.133
 2660SOL    HW2 8427   1.827   3.905   2.990
 2661SOL     OW 8428   0.428   4.148   2.382
 2661SOL    HW1 8429   0.458   4.076   2.320
 2661SOL    HW2 8430   0.389   4.108   2.465
 2662SOL     OW 8431   0.317   4.271   3.142
 2662SOL    HW1 8432   0.355   4.212   3.214
 2662SOL    HW2 8433   0.357   4.245   3.054
 2663SOL     OW 8434   1.424   3.938   2.974
 2663SOL    HW1 8435   1.476   3.873   3.029
 2663SOL    HW2 8436   1.375   4.001   3.035
 2664SOL     OW 8437   1.001   3.758   3.016
 2664SOL    HW1 8438   0.938   3.686   2.985
 2664SOL    HW2 8439   1.094   3.722   3.016
 2665SOL     OW 8440   1.352   3.776   2.030
 2665SOL    HW1 8441   1.387   3.735   1.946
 2665SOL    HW2 8442   1.262   3.738   2.050
 2666SOL     OW 8443   1.300   4.177   2.553
 2666SOL    HW1 8444   1.241   4.257   2.557
 2666SOL    HW2 8445   1.315   4.142   2.646
 2667SOL     OW 8446   1.593   3.945   2.744
 2667SOL    HW1 8447   1.509   3.944   2.798
 2667SOL    HW2 8448   1.595   4.028   2.688
 2668SOL     OW 8449   0.230   4.352   3.837
 2668SOL    HW1 8450   0.137   4.350   3.874
 2668SOL    HW2 8451   0.231   4.313   3.745
 2669SOL     OW 8452   0.225   3.999   4.720
 2669SOL    HW1 8453   0.260   3.982   4.812
 2669SOL    HW2 8454   0.137   3.954   4.708
 2670SOL     OW 8455   0.019   4.092   4.371
 2670SOL    HW1 8456  -0.063   4.135   4.410
 2670SOL    HW2 8457  -0.009   4.019   4.308
 2671SOL     OW 8458   1.755   4.331   3.955
 2671SOL    HW1 8459   1.743   4.318   3.856
 2671SOL    HW2 8460   1.725   4.250   4.004
 2672SOL     OW 8461   0.685   4.736   4.389
 2672SOL    HW1 8462   0.754   4.720   4.459
 2672SOL    HW2 8463   0.612   4.793   4.427
 2673SOL     OW 8464   0.438   4.116   5.223
 2673SOL    HW1 8465   0.520   4.060   5.232
 2673SOL    HW2 8466   0.357   4.058   5.227
 2674SOL     OW 8467   1.603   4.171   4.461
 2674SOL    HW1 8468   1.529   4.217   4.411
 2674SOL    HW2 8469   1.654   4.239   4.514
 2675SOL     OW 8470   1.594   3.838   5.204
 2675SOL    HW1 8471   1.576   3.905   5.132
 2675SOL    HW2 8472   1.591   3.884   5.293
 2676SOL     OW 8473   0.122   4.367   4.287
 2676SOL    HW1 8474   0.077   4.279   4.304
 2676SOL    HW2 8475   0.121   4.421   4.371
 2677SOL     OW 8476   0.113   4.461   5.321
 2677SOL    HW1 8477   0.201   4.448   5.366
 2677SOL    HW2 8478   0.100   4.558   5.299
 2678SOL     OW 8479   0.809   3.728   4.226
 2678SOL    HW1 8480   0.849   3.819   4.217
 2678SOL    HW2 8481   0.709   3.736   4.232
 2679SOL     OW 8482   0.317   3.975   5.525
 2679SOL    HW1 8483   0.388   4.046   5.531
 2679SOL    HW2 8484   0.229   4.014   5.553
 2680SOL     OW 8485   1.281   4.069   4.668
 2680SOL    HW1 8486   1.195   4.019   4.655
 2680SOL    HW2 8487   1.343   4.015   4.724
 2681SOL     OW 8488   0.807   4.329   5.189
 2681SOL    HW1 8489   0.760   4.326   5.278
 2681SOL    HW2 8490   0.756   4.274   5.123
 2682SOL     OW 8491   1.394   4.193   5.398
 2682SOL    HW1 8492   1.374   4.236   5.486
 2682SOL    HW2 8493   1.472   4.131   5.407
 2683SOL     OW 8494   0.991   4.134   4.966
 2683SOL    HW1 8495   0.914   4.168   5.020
 2683SOL    HW2 8496   0.957   4.083   4.887
 2684SOL     OW 8497   1.041   4.425   4.153
 2684SOL    HW1 8498   1.067   4.421   4.249
 2684SOL    HW2 8499   0.956   4.374   4.139
 2685SOL     OW 8500   0.076   4.535   4.513
 2685SOL    HW1 8501   0.175   4.523   4.522
 2685SOL    HW2 8502   0.052   4.630   4.534
 2686SOL     OW 8503   0.865   4.072   3.919
 2686SOL    HW1 8504   0.924   4.135   3.870
 2686SOL    HW2 8505   0.884   3.978   3.890
 2687SOL     OW 8506   1.719   4.309   5.555
 2687SOL    HW1 8507   1.693   4.398   5.519
 2687SOL    HW2 8508   1.717   4.241   5.482
 2688SOL     OW 8509   0.550   3.920   4.609
 2688SOL    HW1 8510   0.545   3.915   4.709
 2688SOL    HW2 8511   0.552   4.016   4.580
 2689SOL     OW 8512   1.458   4.459   4.452
 2689SOL    HW1 8513   1.453   4.394   4.527
 2689SOL    HW2 8514   1.538   4.518   4.465
 2690SOL     OW 8515   0.202   4.009   5.222
 2690SOL    HW1 8516   0.122   4.069   5.209
 2690SOL    HW2 8517   0.192   3.960   5.308
 2691SOL     OW 8518   1.400   3.831   4.150
 2691SOL    HW1 8519   1.376   3.794   4.060
 2691SOL    HW2 8520   1.499   3.847   4.154
 2692SOL     OW 8521   0.382   4.424   4.204
 2692SOL    HW1 8522   0.427   4.334   4.201
 2692SOL    HW2 8523   0.288   4.413   4.237
 2693SOL     OW 8524   1.547   3.946   5.453
 2693SOL    HW1 8525   1.542   3.983   5.545
 2693SOL    HW2 8526   1.475   3.877   5.441
 2694SOL     OW 8527   0.614   3.846   3.841
 2694SOL    HW1 8528   0.712   3.824   3.848
 2694SOL    HW2 8529   0.583   3.829   3.748
 2695SOL     OW 8530   0.781   3.988   5.473
 2695SOL    HW1 8531   0.848   3.927   5.516
 2695SOL    HW2 8532   0.708   4.007   5.538
 2696SOL     OW 8533   1.351   4.314   5.157
 2696SOL    HW1 8534   1.379   4.271   5.242
 2696SOL    HW2 8535   1.376   4.410   5.158
 2697SOL     OW 8536   0.922   4.227   4.623
 2697SOL    HW1 8537   0.897   4.218   4.527
 2697SOL    HW2 8538   0.970   4.145   4.654
 2698SOL     OW 8539   0.539   3.788   4.236
 2698SOL    HW1 8540   0.458   3.789   4.294
 2698SOL    HW2 8541   0.542   3.871   4.181
 2699SOL     OW 8542   0.297   3.759   3.895
 2699SOL    HW1 8543   0.346   3.843   3.874
 2699SOL    HW2 8544   0.359   3.694   3.940
 2700SOL     OW 8545   0.935   3.960   4.204
 2700SOL    HW1 8546   0.887   4.001   4.126
 2700SOL    HW2 8547   1.034   3.958   4.185
 2701SOL     OW 8548   1.076   4.407   5.188
 2701SOL    HW1 8549   0.996   4.346   5.191
 2701SOL    HW2 8550   1.157   4.354   5.164
 2702SOL     OW 8551   1.032   4.273   3.740
 2702SOL    HW1 8552   0.991   4.355   3.701
 2702SOL    HW2 8553   1.096   4.299   3.813
 2703SOL     OW 8554   0.078   4.280   5.110
 2703SOL    HW1 8555   0.170   4.279   5.069
 2703SOL    HW2 8556   0.072   4.354   5.177
 2704SOL     OW 8557   0.561   3.946   4.871
 2704SOL    HW1 8558   0.599   3.862   4.908
 2704SOL    HW2 8559   0.473   3.965   4.915
 2705SOL     OW 8560   0.866   4.178   4.366
 2705SOL    HW1 8561   0.834   4.250   4.304
 2705SOL    HW2 8562   0.890   4.097   4.313
 2706SOL     OW 8563   1.017   3.763   4.477
 2706SOL    HW1 8564   0.945   3.768   4.408
 2706SOL    HW2 8565   0.993   3.694   4.546
 2707SOL     OW 8566   1.466   4.314   4.716
 2707SOL    HW1 8567   1.436   4.219   4.723
 2707SOL    HW2 8568   1.539   4.330   4.782
 2708SOL     OW 8569   1.390   4.299   3.802
 2708SOL    HW1 8570   1.336   4.278   3.883
 2708SOL    HW2 8571   1.481   4.258   3.811
 2709SOL     OW 8572   0.527   3.980   4.052
 2709SOL    HW1 8573   0.554   3.921   3.977
 2709SOL    HW2 8574   0.527   4.075   4.021
 2710SOL     OW 8575   0.915   3.813   5.126
 2710SOL    HW1 8576   0.940   3.793   5.031
 2710SOL    HW2 8577   0.987   3.869   5.168
 2711SOL     OW 8578   0.410   4.537   4.975
 2711SOL    HW1 8579   0.496   4.549   5.025
 2711SOL    HW2 8580   0.368   4.450   5.002
 2712SOL     OW 8581   1.274   4.110   4.986
 2712SOL    HW1 8582   1.295   4.184   5.050
 2712SOL    HW2 8583   1.185   4.127   4.943
 2713SOL     OW 8584   0.566   4.261   4.589
 2713SOL    HW1 8585   0.578   4.327   4.515
 2713SOL    HW2 8586   0.612   4.295   4.672
 2714SOL     OW 8587   1.582   4.363   4.196
 2714SOL    HW1 8588   1.551   4.424   4.269
 2714SOL    HW2 8589   1.632   4.415   4.127
 2715SOL     OW 8590   1.013   3.829   5.494
 2715SOL    HW1 8591   1.019   3.914   5.442
 2715SOL    HW2 8592   1.045   3.753   5.437
 2716SOL     OW 8593   0.504   3.774   5.464
 2716SOL    HW1 8594   0.462   3.717   5.394
 2716SOL    HW2 8595   0.438   3.843   5.496
 2717SOL     OW 8596   1.209   4.249   3.999
 2717SOL    HW1 8597   1.222   4.165   4.053
 2717SOL    HW2 8598   1.180   4.323   4.059
 2718SOL     OW 8599   0.307   3.937   4.955
 2718SOL    HW1 8600   0.284   3.974   5.045
 2718SOL    HW2 8601   0.277   3.842   4.949
 2719SOL     OW 8602   0.732   4.358   4.788
 2719SOL    HW1 8603   0.791   4.332   4.712
 2719SOL    HW2 8604   0.704   4.454   4.777
 2720SOL     OW 8605   1.728   4.659   5.578
 2720SOL    HW1 8606   1.682   4.652   5.489
 2720SOL    HW2 8607   1.666   4.703   5.644
 2721SOL     OW 8608   0.307   3.787   4.342
 2721SOL    HW1 8609   0.296   3.881   4.375
 2721SOL    HW2 8610   0.302   3.724   4.419
 2722SOL     OW 8611   1.622   4.091   4.098
 2722SOL    HW1 8612   1.624   4.015   4.162
 2722SOL    HW2 8613   1.574   4.168   4.138
 2723SOL     OW 8614   1.540   3.998   3.849
 2723SOL    HW1 8615   1.479   3.923   3.872
 2723SOL    HW2 8616   1.562   4.050   3.932
 2724SOL     OW 8617   0.319   4.534   4.673
 2724SOL    HW1 8618   0.412   4.570   4.678
 2724SOL    HW2 8619   0.313   4.449   4.725
 2725SOL     OW 8620   0.339   4.233   4.730
 2725SOL    HW1 8621   0.287   4.150   4.713
 2725SOL    HW2 8622   0.416   4.238   4.666
 2726SOL     OW 8623   1.138   4.104   5.402
 2726SOL    HW1 8624   1.093   4.167   5.466
 2726SOL    HW2 8625   1.231   4.135   5.385
 2727SOL     OW 8626   1.160   3.931   5.201
 2727SOL    HW1 8627   1.160   3.995   5.278
 2727SOL    HW2 8628   1.188   3.979   5.118
 2728SOL     OW 8629   0.040   4.268   4.838
 2728SOL    HW1 8630   0.125   4.235   4.797
 2728SOL    HW2 8631   0.053   4.283   4.936
 2729SOL     OW 8632   0.189   4.244   5.446
 2729SOL    HW1 8633   0.248   4.204   5.376
 2729SOL    HW2 8634   0.131   4.315   5.405
 2730SOL     OW 8635   0.815   4.296   4.049
 2730SOL    HW1 8636   0.822   4.207   4.003
 2730SOL    HW2 8637   0.721   4.330   4.041
 2731SOL     OW 8638   1.657   4.328   4.930
 2731SOL    HW1 8639   1.619   4.259   4.992
 2731SOL    HW2 8640   1.739   4.292   4.886
 2732SOL     OW 8641   0.671   4.188   4.993
 2732SOL    HW1 8642   0.637   4.099   4.963
 2732SOL    HW2 8643   0.697   4.242   4.913
 2733SOL     OW 8644   0.473   4.224   3.915
 2733SOL    HW1 8645   0.534   4.304   3.919
 2733SOL    HW2 8646   0.378   4.255   3.922
 2734SOL     OW 8647   1.726   3.859   4.247
 2734SOL    HW1 8648   1.799   3.842   4.180
 2734SOL    HW2 8649   1.695   3.772   4.285
 2735SOL     OW 8650   1.280   4.651   4.396
 2735SOL    HW1 8651   1.340   4.570   4.398
 2735SOL    HW2 8652   1.320   4.720   4.336
 2736SOL     OW 8653   1.841   3.899   4.687
 2736SOL    HW1 8654   1.880   3.814   4.651
 2736SOL    HW2 8655   1.743   3.901   4.668
 2737SOL     OW 8656   0.263   4.050   4.444
 2737SOL    HW1 8657   0.184   4.101   4.410
 2737SOL    HW2 8658   0.254   4.035   4.542
 2738SOL     OW 8659   0.916   4.634   4.015
 2738SOL    HW1 8660   0.979   4.672   3.947
 2738SOL    HW2 8661   0.956   4.551   4.054
 2739SOL     OW 8662   1.039   4.822   4.420
 2739SOL    HW1 8663   0.969   4.775   4.474
 2739SOL    HW2 8664   1.098   4.754   4.377
 2740SOL     OW 8665   1.014   3.960   4.695
 2740SOL    HW1 8666   1.006   3.924   4.602
 2740SOL    HW2 8667   1.012   3.884   4.760
 2741SOL     OW 8668   1.709   4.109   5.105
 2741SOL    HW1 8669   1.782   4.178   5.109
 2741SOL    HW2 8670   1.737   4.034   5.046
 2742SOL     OW 8671   0.672   3.927   5.213
 2742SOL    HW1 8672   0.762   3.911   5.173
 2742SOL    HW2 8673   0.680   3.932   5.312
 2743SOL     OW 8674   0.075   4.069   3.757
 2743SOL    HW1 8675  -0.017   4.041   3.728
 2743SOL    HW2 8676   0.106   4.146   3.701
 2744SOL     OW 8677   0.072   3.890   4.042
 2744SOL    HW1 8678   0.055   3.973   3.988
 2744SOL    HW2 8679   0.162   3.853   4.020
 2745SOL     OW 8680   0.716   4.289   5.432
 2745SOL    HW1 8681   0.735   4.354   5.506
 2745SOL    HW2 8682   0.776   4.209   5.441
 2746SOL     OW 8683   1.225   4.049   4.173
 2746SOL    HW1 8684   1.290   3.975   4.162
 2746SOL    HW2 8685   1.245   4.099   4.257
 2747SOL     OW 8686   1.777   4.066   5.366
 2747SOL    HW1 8687   1.760   4.097   5.272
 2747SOL    HW2 8688   1.693   4.029   5.404
 2748SOL     OW 8689   1.083   4.708   3.811
 2748SOL    HW1 8690   1.060   4.761   3.729
 2748SOL    HW2 8691   1.164   4.652   3.792
 2749SOL     OW 8692   1.824   3.916   4.951
 2749SOL    HW1 8693   1.820   3.826   4.995
 2749SOL    HW2 8694   1.827   3.905   4.852
 2750SOL     OW 8695   0.428   4.148   4.244
 2750SOL    HW1 8696   0.458   4.076   4.182
 2750SOL    HW2 8697   0.389   4.108   4.327
 2751SOL     OW 8698   0.317   4.271   5.004
 2751SOL    HW1 8699   0.355   4.212   5.076
 2751SOL    HW2 8700   0.357   4.245   4.916
 2752SOL     OW 8701   1.424   3.938   4.836
 2752SOL    HW1 8702   1.476   3.873   4.891
 2752SOL    HW2 8703   1.375   4.001   4.897
 2753SOL     OW 8704   1.001   3.758   4.878
 2753SOL    HW1 8705   0.938   3.686   4.847
 2753SOL    HW2 8706   1.094   3.722   4.878
 2754SOL     OW 8707   1.352   3.776   3.892
 2754SOL    HW1 8708   1.387   3.735   3.808
 2754SOL    HW2 8709   1.262   3.738   3.912
 2755SOL     OW 8710   1.300   4.177   4.415
 2755SOL    HW1 8711   1.241   4.257   4.419
 2755SOL    HW2 8712   1.315   4.142   4.508
 2756SOL     OW 8713   1.593   3.945   4.606
 2756SOL    HW1 8714   1.509   3.944   4.660
 2756SOL    HW2 8715   1.595   4.028   4.550
 2757SOL     OW 8716   0.230   4.352   5.699
 2757SOL    HW1 8717   0.137   4.350   5.736
 2757SOL    HW2 8718   0.231   4.313   5.607
 2758SOL     OW 8719   0.225   3.999   6.582
 2758SOL    HW1 8720   0.260   3.982   6.674
 2758SOL    HW2 8721   0.137   3.954   6.570
 2759SOL     OW 8722   0.019   4.092   6.233
 2759SOL    HW1 8723  -0.063   4.135   6.272
 2759SOL    HW2 8724  -0.009   4.019   6.170
 2760SOL     OW 8725   1.755   4.331   5.817
 2760SOL    HW1 8726   1.743   4.318   5.718
 2760SOL    HW2 8727   1.725   4.250   5.866
 2761SOL     OW 8728   0.685   4.736   6.251
 2761SOL    HW1 8729   0.754   4.720   6.321
 2761SOL    HW2 8730   0.612   4.793   6.289
 2762SOL     OW 8731   0.438   4.116   7.085
 2762SOL    HW1 8732   0.520   4.060   7.094
 2762SOL    HW2 8733   0.357   4.058   7.089
 2763SOL     OW 8734   1.603   4.171   6.323
 2763SOL    HW1 8735   1.529   4.217   6.273
 2763SOL    HW2 8736   1.654   4.239   6.376
 2764SOL     OW 8737   1.594   3.838   7.066
 2764SOL    HW1 8738   1.576   3.905   6.994
 2764SOL    HW2 8739   1.591   3.884   7.155
 2765SOL     OW 8740   0.122   4.367   6.149
 2765SOL    HW1 8741   0.077   4.279   6.166
 2765SOL    HW2 8742   0.121   4.421   6.233
 2766SOL     OW 8743   0.113   4.461   7.183
 2766SOL    HW1 8744   0.201   4.448   7.228
 2766SOL    HW2 8745   0.100   4.558   7.161
 2767SOL     OW 8746   0.809   3.728   6.088
 2767SOL    HW1 8747   0.849   3.819   6.079
 2767SOL    HW2 8748   0.709   3.736   6.094
 2768SOL     OW 8749   0.317   3.975   7.387
 2768SOL    HW1 8750   0.388   4.046   7.393
 2768SOL    HW2 8751   0.229   4.014   7.415
 2769SOL     OW 8752   1.281   4.069   6.530
 2769SOL    HW1 8753   1.195   4.019   6.517
 2769SOL    HW2 8754   1.343   4.015   6.586
 2770SOL     OW 8755   0.807   4.329   7.051
 2770SOL    HW1 8756   0.760   4.326   7.140
 2770SOL    HW2 8757   0.756   4.274   6.985
 2771SOL     OW 8758   1.394   4.193   7.260
 2771SOL    HW1 8759   1.374   4.236   7.348
 2771SOL    HW2 8760   1.472   4.131   7.269
 2772SOL     OW 8761   0.991   4.134   6.828
 2772SOL    HW1 8762   0.914   4.168   6.882
 2772SOL    HW2 8763   0.957   4.083   6.749
 2773SOL     OW 8764   1.041   4.425   6.015
 2773SOL    HW1 8765   1.067   4.421   6.111
 2773SOL    HW2 8766   0.956   4.374   6.001
 2774SOL     OW 8767   0.076   4.535   6.375
 2774SOL    HW1 8768   0.175   4.523   6.384
 2774SOL    HW2 8769   0.052   4.630   6.396
 2775SOL     OW 8770   0.865   4.072   5.781
 2775SOL    HW1 8771   0.924   4.135   5.732
 2775SOL    HW2 8772   0.884   3.978   5.752
 2776SOL     OW 8773   1.719   4.309   7.417
 2776SOL    HW1 8774   1.693   4.398   7.381
 2776SOL    HW2 8775   1.717   4.241   7.344
 2777SOL     OW 8776   0.550   3.920   6.471
 2777SOL    HW1 8777   0.545   3.915   6.571
 2777SOL    HW2 8778   0.552   4.016   6.442
 2778SOL     OW 8779   1.458   4.459   6.314
 2778SOL    HW1 8780   1.453   4.394   6.389
 2778SOL    HW2 8781   1.538   4.518   6.327
 2779SOL     OW 8782   0.202   4.009   7.084
 2779SOL    HW1 8783   0.122   4.069   7.071
 2779SOL    HW2 8784   0.192   3.960   7.170
 2780SOL     OW 8785   1.400   3.831   6.012
 2780SOL    HW1 8786   1.376   3.794   5.922
 2780SOL    HW2 8787   1.499   3.847   6.016
 2781SOL     OW 8788   0.382   4.424   6.066
 2781SOL    HW1 8789   0.427   4.334   6.063
 2781SOL    HW2 8790   0.288   4.413   6.099
 2782SOL     OW 8791   1.547   3.946   7.315
 2782SOL    HW1 8792   1.542   3.983   7.407
 2782SOL    HW2 8793   1.475   3.877   7.303
 2783SOL     OW 8794   0.614   3.846   5.703
 2783SOL    HW1 8795   0.712   3.824   5.710
 2783SOL    HW2 8796   0.583   3.829   5.610
 2784SOL     OW 8797   0.781   3.988   7.335
 2784SOL    HW1 8798   0.848   3.927   7.378
 2784SOL    HW2 8799   0.708   4.007   7.400
 2785SOL     OW 8800   1.351   4.314   7.019
 2785SOL    HW1 8801   1.379   4.271   7.104
 2785SOL    HW2 8802   1.376   4.410   7.020
 2786SOL     OW 8803   0.922   4.227   6.485
 2786SOL    HW1 8804   0.897   4.218   6.389
 2786SOL    HW2 8805   0.970   4.145   6.516
 2787SOL     OW 8806   0.539   3.788   6.098
 2787SOL    HW1 8807   0.458   3.789   6.156
 2787SOL    HW2 8808   0.542   3.871   6.043
 2788SOL     OW 8809   0.297   3.759   5.757
 2788SOL    HW1 8810   0.346   3.843   5.736
 2788SOL    HW2 8811   0.359   3.694   5.802
 2789SOL     OW 8812   0.935   3.960   6.066
 2789SOL    HW1 8813   0.887   4.001   5.988
 2789SOL    HW2 8814   1.034   3.958   6.047
 2790SOL     OW 8815   1.076   4.407   7.050
 2790SOL    HW1 8816   0.996   4.346   7.053
 2790SOL    HW2 8817   1.157   4.354   7.026
 2791SOL     OW 8818   1.032   4.273   5.602
 2791SOL    HW1 8819   0.991   4.355   5.563
 2791SOL    HW2 8820   1.096   4.299   5.675
 2792SOL     OW 8821   0.078   4.280   6.972
 2792SOL    HW1 8822   0.170   4.279   6.931
 2792SOL    HW2 8823   0.072   4.354   7.039
 2793SOL     OW 8824   0.561   3.946   6.733
 2793SOL    HW1 8825   0.599   3.862   6.770
 2793SOL    HW2 8826   0.473   3.965   6.777
 2794SOL     OW 8827   0.866   4.178   6.228
 2794SOL    HW1 8828   0.834   4.250   6.166
 2794SOL    HW2 8829   0.890   4.097   6.175
 2795SOL     OW 8830   1.017   3.763   6.339
 2795SOL    HW1 8831   0.945   3.768   6.270
 2795SOL    HW2 8832   0.993   3.694   6.408
 2796SOL     OW 8833   1.466   4.314   6.578
 2796SOL    HW1 8834   1.436   4.219   6.585
 2796SOL    HW2 8835   1.539   4.330   6.644
 2797SOL     OW 8836   1.390   4.299   5.664
 2797SOL    HW1 8837   1.336   4.278   5.745
 2797SOL    HW2 8838   1.481   4.258   5.673
 2798SOL     OW 8839   0.527   3.980   5.914
 2798SOL    HW1 8840   0.554   3.921   5.839
 2798SOL    HW2 8841   0.527   4.075   5.883
 2799SOL     OW 8842   0.915   3.813   6.988
 2799SOL    HW1 8843   0.940   3.793   6.893
 2799SOL    HW2 8844   0.987   3.869   7.030
 2800SOL     OW 8845   0.410   4.537   6.837
 2800SOL    HW1 8846   0.496   4.549   6.887
 2800SOL    HW2 8847   0.368   4.450   6.864
 2801SOL     OW 8848   1.274   4.110   6.848
 2801SOL    HW1 8849   1.295   4.184   6.912
 2801SOL    HW2 8850   1.185   4.127   6.805
 2802SOL     OW 8851   0.566   4.261   6.451
 2802SOL    HW1 8852   0.578   4.327   6.377
 2802SOL    HW2 8853   0.612   4.295   6.534
 2803SOL     OW 8854   1.582   4.363   6.058
 2803SOL    HW1 8855   1.551   4.424   6.131
 2803SOL    HW2 8856   1.632   4.415   5.989
 2804SOL     OW 8857   1.013   3.829   7.356
 2804SOL    HW1 8858   1.019   3.914   7.304
 2804SOL    HW2 8859   1.045   3.753   7.299
 2805SOL     OW 8860   0.504   3.774   7.326
 2805SOL    HW1 8861   0.462   3.717   7.256
 2805SOL    HW2 8862   0.438   3.843   7.358
 2806SOL     OW 8863   1.209   4.249   5.861
 2806SOL    HW1 8864   1.222   4.165   5.915
 2806SOL    HW2 8865   1.180   4.323   5.921
 2807SOL     OW 8866   0.307   3.937   6.817
 2807SOL    HW1 8867   0.284   3.974   6.907
 2807SOL    HW2 8868   0.277   3.842   6.811
 2808SOL     OW 8869   0.732   4.358   6.650
 2808SOL    HW1 8870   0.791   4.332   6.574
 2808SOL    HW2 8871   0.704   4.454   6.639
 2809SOL     OW 8872   1.728   4.659   7.440
 2809SOL    HW1 8873   1.682   4.652   7.351
 2809SOL    HW2 8874   1.666   4.703   7.506
 2810SOL     OW 8875   0.307   3.787   6.204
 2810SOL    HW1 8876   0.296   3.881   6.237
 2810SOL    HW2 8877   0.302   3.724   6.281
 2811SOL     OW 8878   1.622   4.091   5.960
 2811SOL    HW1 8879   1.624   4.015   6.024
 2811SOL    HW2 8880   1.574   4.168   6.000
 2812SOL     OW 8881   1.540   3.998   5.711
 2812SOL    HW1 8882   1.479   3.923   5.734
 2812SOL    HW2 8883   1.562   4.050   5.794
 2813SOL     OW 8884   0.319   4.534   6.535
 2813SOL    HW1 8885   0.412   4.570   6.540
 2813SOL    HW2 8886   0.313   4.449   6.587
 2814SOL     OW 8887   0.339   4.233   6.592
 2814SOL    HW1 8888   0.287   4.150   6.575
 2814SOL    HW2 8889   0.416   4.238   6.528
 2815SOL     OW 8890   1.138   4.104   7.264
 2815SOL    HW1 8891   1.093   4.167   7.328
 2815SOL    HW2 8892   1.231   4.135   7.247
 2816SOL     OW 8893   1.160   3.931   7.063
 2816SOL    HW1 8894   1.160   3.995   7.140
 2816SOL    HW2 8895   1.188   3.979   6.980
 2817SOL     OW 8896   0.040   4.268   6.700
 2817SOL    HW1 8897   0.125   4.235   6.659
 2817SOL    HW2 8898   0.053   4.283   6.798
 2818SOL     OW 8899   0.189   4.244   7.308
 2818SOL    HW1 8900   0.248   4.204   7.238
 2818SOL    HW2 8901   0.131   4.315   7.267
 2819SOL     OW 8902   0.815   4.296   5.911
 2819SOL    HW1 8903   0.822   4.207   5.865
 2819SOL    HW2 8904   0.721   4.330   5.903
 2820SOL     OW 8905   1.657   4.328   6.792
 2820SOL    HW1 8906   1.619   4.259   6.854
 2820SOL    HW2 8907   1.739   4.292   6.748
 2821SOL     OW 8908   0.671   4.188   6.855
 2821SOL    HW1 8909   0.637   4.099   6.825
 2821SOL    HW2 8910   0.697   4.242   6.775
 2822SOL     OW 8911   0.473   4.224   5.777
 2822SOL    HW1 8912   0.534   4.304   5.781
 2822SOL    HW2 8913   0.378   4.255   5.784
 2823SOL     OW 8914   1.726   3.859   6.109
 2823SOL    HW1 8915   1.799   3.842   6.042
 2823SOL    HW2 8916   1.695   3.772   6.147
 2824SOL     OW 8917   1.280   4.651   6.258
 2824SOL    HW1 8918   1.340   4.570   6.260
 2824SOL    HW2 8919   1.320   4.720   6.198
 2825SOL     OW 8920   1.841   3.899   6.549
 2825SOL    HW1 8921   1.880   3.814   6.513
 2825SOL    HW2 8922   1.743   3.901   6.530
 2826SOL     OW 8923   0.263   4.050   6.306
 2826SOL    HW1 8924   0.184   4.101   6.272
 2826SOL    HW2 8925   0.254   4.035   6.404
 2827SOL     OW 8926   0.916   4.634   5.877
 2827SOL    HW1 8927   0.979   4.672   5.809
 2827SOL    HW2 8928   0.956   4.551   5.916
 2828SOL     OW 8929   1.039   4.822   6.282
 2828SOL    HW1 8930   0.969   4.775   6.336
 2828SOL    HW2 8931   1.098   4.754   6.239
 2829SOL     OW 8932   1.014   3.960   6.557
 2829SOL    HW1 8933   1.006   3.924   6.464
 2829SOL    HW2 8934   1.012   3.884   6.622
 2830SOL     OW 8935   1.709   4.109   6.967
 2830SOL    HW1 8936   1.782   4.178   6.971
 2830SOL    HW2 8937   1.737   4.034   6.908
 2831SOL     OW 8938   0.672   3.927   7.075
 2831SOL    HW1 8939   0.762   3.911   7.035
 2831SOL    HW2 8940   0.680   3.932   7.174
 2832SOL     OW 8941   0.075   4.069   5.619
 2832SOL    HW1 8942  -0.017   4.041   5.590
 2832SOL    HW2 8943   0.106   4.146   5.563
 2833SOL     OW 8944   0.072   3.890   5.904
 2833SOL    HW1 8945   0.055   3.973   5.850
 2833SOL    HW2 8946   0.162   3.853   5.882
 2834SOL     OW 8947   0.716   4.289   7.294
 2834SOL    HW1 8948   0.735   4.354   7.368
 2834SOL    HW2 8949   0.776   4.209   7.303
 2835SOL     OW 8950   1.225   4.049   6.035
 2835SOL    HW1 8951   1.290   3.975   6.024
 2835SOL    HW2 8952   1.245   4.099   6.119
 2836SOL     OW 8953   1.777   4.066   7.228
 2836SOL    HW1 8954   1.760   4.097   7.134
 2836SOL    HW2 8955   1.693   4.029   7.266
 2837SOL     OW 8956   1.083   4.708   5.673
 2837SOL    HW1 8957   1.060   4.761   5.591
 2837SOL    HW2 8958   1.164   4.652   5.654
 2838SOL     OW 8959   1.824   3.916   6.813
 2838SOL    HW1 8960   1.820   3.826   6.857
 2838SOL    HW2 8961   1.827   3.905   6.714
 2839SOL     OW 8962   0.428   4.148   6.106
 2839SOL    HW1 8963   0.458   4.076   6.044
 2839SOL    HW2 8964   0.389   4.108   6.189
 2840SOL     OW 8965   0.317   4.271   6.866
 2840SOL    HW1 8966   0.355   4.212   6.938
 2840SOL    HW2 8967   0.357   4.245   6.778
 2841SOL     OW 8968   1.424   3.938   6.698
 2841SOL    HW1 8969   1.476   3.873   6.753
 2841SOL    HW2 8970   1.375   4.001   6.759
 2842SOL     OW 8971   1.001   3.758   6.740
 2842SOL    HW1 8972   0.938   3.686   6.709
 2842SOL    HW2 8973   1.094   3.722   6.740
 2843SOL     OW 8974   1.352   3.776   5.754
 2843SOL    HW1 8975   1.387   3.735   5.670
 2843SOL    HW2 8976   1.262   3.738   5.774
 2844SOL     OW 8977   1.300   4.177   6.277
 2844SOL    HW1 8978   1.241   4.257   6.281
 2844SOL    HW2 8979   1.315   4.142   6.370
 2845SOL     OW 8980   1.593   3.945   6.468
 2845SOL    HW1 8981   1.509   3.944   6.522
 2845SOL    HW2 8982   1.595   4.028   6.412
 2846SOL     OW 8983   0.230   4.352   7.561
 2846SOL    HW1 8984   0.137   4.350   7.598
 2846SOL    HW2 8985   0.231   4.313   7.469
 2847SOL     OW 8986   0.225   3.999   8.444
 2847SOL    HW1 8987   0.260   3.982   8.536
 2847SOL    HW2 8988   0.137   3.954   8.432
 2848SOL     OW 8989   0.019   4.092   8.095
 2848SOL    HW1 8990  -0.063   4.135   8.134
 2848SOL    HW2 8991  -0.009   4.019   8.032
 2849SOL     OW 8992   1.755   4.331   7.679
 2849SOL    HW1 8993   1.743   4.318   7.580
 2849SOL    HW2 8994   1.725   4.250   7.728
 2850SOL     OW 8995   0.685   4.736   8.113
 2850SOL    HW1 8996   0.754   4.720   8.183
 2850SOL    HW2 8997   0.612   4.793   8.151
 2851SOL     OW 8998   0.438   4.116   8.947
 2851SOL    HW1 8999   0.520   4.060   8.956
 2851SOL    HW2 9000   0.357   4.058   8.951
 2852SOL     OW 9001   1.603   4.171   8.185
 2852SOL    HW1 9002   1.529   4.217   8.135
 2852SOL    HW2 9003   1.654   4.239   8.238
 2853SOL     OW 9004   1.594   3.838   8.928
 2853SOL    HW1 9005   1.576   3.905   8.856
 2853SOL    HW2 9006   1.591   3.884   9.017
 2854SOL     OW 9007   0.122   4.367   8.011
 2854SOL    HW1 9008   0.077   4.279   8.028
 2854SOL    HW2 9009   0.121   4.421   8.095
 2855SOL     OW 9010   0.113   4.461   9.045
 2855SOL    HW1 9011   0.201   4.448   9.090
 2855SOL    HW2 9012   0.100   4.558   9.023
 2856SOL     OW 9013   0.809   3.728   7.950
 2856SOL    HW1 9014   0.849   3.819   7.941
 2856SOL    HW2 9015   0.709   3.736   7.956
 2857SOL     OW 9016   0.317   3.975   9.249
 2857SOL    HW1 9017   0.388   4.046   9.255
 2857SOL    HW2 9018   0.229   4.014   9.277
 2858SOL     OW 9019   1.281   4.069   8.392
 2858SOL    HW1 9020   1.195   4.019   8.379
 2858SOL    HW2 9021   1.343   4.015   8.448
 2859SOL     OW 9022   0.807   4.329   8.913
 2859SOL    HW1 9023   0.760   4.326   9.002
 2859SOL    HW2 9024   0.756   4.274   8.847
 2860SOL     OW 9025   1.394   4.193   9.122
 2860SOL    HW1 9026   1.374   4.236   9.210
 2860SOL    HW2 9027   1.472   4.131   9.131
 2861SOL     OW 9028   0.991   4.134   8.690
 2861SOL    HW1 9029   0.914   4.168   8.744
 2861SOL    HW2 9030   0.957   4.083   8.611
 2862SOL     OW 9031   1.041   4.425   7.877
 2862SOL    HW1 9032   1.067   4.421   7.973
 2862SOL    HW2 9033   0.956   4.374   7.863
 2863SOL     OW 9034   0.076   4.535   8.237
 2863SOL    HW1 9035   0.175   4.523   8.246
 2863SOL    HW2 9036   0.052   4.630   8.258
 2864SOL     OW 9037   0.865   4.072   7.643
 2864SOL    HW1 9038   0.924   4.135   7.594
 2864SOL    HW2 9039   0.884   3.978   7.614
 2865SOL     OW 9040   1.719   4.309   9.279
 2865SOL    HW1 9041   1.693   4.398   9.243
 2865SOL    HW2 9042   1.717   4.241   9.206
 2866SOL     OW 9043   0.550   3.920   8.333
 2866SOL    HW1 9044   0.545   3.915   8.433
 2866SOL    HW2 9045   0.552   4.016   8.304
 2867SOL     OW 9046   1.458   4.459   8.176
 2867SOL    HW1 9047   1.453   4.394   8.251
 2867SOL    HW2 9048   1.538   4.518   8.189
 2868SOL     OW 9049   0.202   4.009   8.946
 2868SOL    HW1 9050   0.122   4.069   8.933
 2868SOL    HW2 9051   0.192   3.960   9.032
 2869SOL     OW 9052   1.400   3.831   7.874
 2869SOL    HW1 9053   1.376   3.794   7.784
 2869SOL    HW2 9054   1.499   3.847   7.878
 2870SOL     OW 9055   0.382   4.424   7.928
 2870SOL    HW1 9056   0.427   4.334   7.925
 2870SOL    HW2 9057   0.288   4.413   7.961
 2871SOL     OW 9058   1.547   3.946   9.177
 2871SOL    HW1 9059   1.542   3.983   9.269
 2871SOL    HW2 9060   1.475   3.877   9.165
 2872SOL     OW 9061   0.614   3.846   7.565
 2872SOL    HW1 9062   0.712   3.824   7.572
 2872SOL    HW2 9063   0.583   3.829   7.472
 2873SOL     OW 9064   0.781   3.988   9.197
 2873SOL    HW1 9065   0.848   3.927   9.240
 2873SOL    HW2 9066   0.708   4.007   9.262
 2874SOL     OW 9067   1.351   4.314   8.881
 2874SOL    HW1 9068   1.379   4.271   8.966
 2874SOL    HW2 9069   1.376   4.410   8.882
 2875SOL     OW 9070   0.922   4.227   8.347
 2875SOL    HW1 9071   0.897   4.218   8.251
 2875SOL    HW2 9072   0.970   4.145   8.378
 2876SOL     OW 9073   0.539   3.788   7.960
 2876SOL    HW1 9074   0.458   3.789   8.018
 2876SOL    HW2 9075   0.542   3.871   7.905
 2877SOL     OW 9076   0.297   3.759   7.619
 2877SOL    HW1 9077   0.346   3.843   7.598
 2877SOL    HW2 9078   0.359   3.694   7.664
 2878SOL     OW 9079   0.935   3.960   7.928
 2878SOL    HW1 9080   0.887   4.001   7.850
 2878SOL    HW2 9081   1.034   3.958   7.909
 2879SOL     OW 9082   1.076   4.407   8.912
 2879SOL    HW1 9083   0.996   4.346   8.915
 2879SOL    HW2 9084   1.157   4.354   8.888
 2880SOL     OW 9085   1.032   4.273   7.464
 2880SOL    HW1 9086   0.991   4.355   7.425
 2880SOL    HW2 9087   1.096   4.299   7.537
 2881SOL     OW 9088   0.078   4.280   8.834
 2881SOL    HW1 9089   0.170   4.279   8.793
 2881SOL    HW2 9090   0.072   4.354   8.901
 2882SOL     OW 9091   0.561   3.946   8.595
 2882SOL    HW1 9092   0.599   3.862   8.632
 2882SOL    HW2 9093   0.473   3.965   8.639
 2883SOL     OW 9094   0.866   4.178   8.090
 2883SOL    HW1 9095   0.834   4.250   8.028
 2883SOL    HW2 9096   0.890   4.097   8.037
 2884SOL     OW 9097   1.017   3.763   8.201
 2884SOL    HW1 9098   0.945   3.768   8.132
 2884SOL    HW2 9099   0.993   3.694   8.270
 2885SOL     OW 9100   1.466   4.314   8.440
 2885SOL    HW1 9101   1.436   4.219   8.447
 2885SOL    HW2 9102   1.539   4.330   8.506
 2886SOL     OW 9103   1.390   4.299   7.526
 2886SOL    HW1 9104   1.336   4.278   7.607
 2886SOL    HW2 9105   1.481   4.258   7.535
 2887SOL     OW 9106   0.527   3.980   7.776
 2887SOL    HW1 9107   0.554   3.921   7.701
 2887SOL    HW2 9108   0.527   4.075   7.745
 2888SOL     OW 9109   0.915   3.813   8.850
 2888SOL    HW1 9110   0.940   3.793   8.755
 2888SOL    HW2 9111   0.987   3.869   8.892
 2889SOL     OW 9112   0.410   4.537   8.699
 2889SOL    HW1 9113   0.496   4.549   8.749
 2889SOL    HW2 9114   0.368   4.450   8.726
 2890SOL     OW 9115   1.274   4.110   8.710
 2890SOL    HW1 9116   1.295   4.184   8.774
 2890SOL    HW2 9117   1.185   4.127   8.667
 2891SOL     OW 9118   0.566   4.261   8.313
 2891SOL    HW1 9119   0.578   4.327   8.239
 2891SOL    HW2 9120   0.612   4.295   8.396
 2892SOL     OW 9121   1.582   4.363   7.920
 2892SOL    HW1 9122   1.551   4.424   7.993
 2892SOL    HW2 9123   1.632   4.415   7.851
 2893SOL     OW 9124   1.013   3.829   9.218
 2893SOL    HW1 9125   1.019   3.914   9.166
 2893SOL    HW2 9126   1.045   3.753   9.161
 2894SOL     OW 9127   0.504   3.774   9.188
 2894SOL    HW1 9128   0.462   3.717   9.118
 2894SOL    HW2 9129   0.438   3.843   9.220
 2895SOL     OW 9130   1.209   4.249   7.723
 2895SOL    HW1 9131   1.222   4.165   7.777
 2895SOL    HW2 9132   1.180   4.323   7.783
 2896SOL     OW 9133   0.307   3.937   8.679
 2896SOL    HW1 9134   0.284   3.974   8.769
 2896SOL    HW2 9135   0.277   3.842   8.673
 2897SOL     OW 9136   0.732   4.358   8.512
 2897SOL    HW1 9137   0.791   4.332   8.436
 2897SOL    HW2 9138   0.704   4.454   8.501
 2898SOL     OW 9139   1.728   4.659   9.302
 2898SOL    HW1 9140   1.682   4.652   9.213
 2898SOL    HW2 9141   1.666   4.703   9.368
 2899SOL     OW 9142   0.307   3.787   8.066
 2899SOL    HW1 9143   0.296   3.881   8.099
 2899SOL    HW2 9144   0.302   3.724   8.143
 2900SOL     OW 9145   1.622   4.091   7.822
 2900SOL    HW1 9146   1.624   4.015   7.886
 2900SOL    HW2 9147   1.574   4.168   7.862
 2901SOL     OW 9148   1.540   3.998   7.573
 2901SOL    HW1 9149   1.479   3.923   7.596
 2901SOL    HW2 9150   1.562   4.050   7.656
 2902SOL     OW 9151   0.319   4.534   8.397
 2902SOL    HW1 9152   0.412   4.570   8.402
 2902SOL    HW2 9153   0.313   4.449   8.449
 2903SOL     OW 9154   0.339   4.233   8.454
 2903SOL    HW1 9155   0.287   4.150   8.437
 2903SOL    HW2 9156   0.416   4.238   8.390
 2904SOL     OW 9157   1.138   4.104   9.126
 2904SOL    HW1 9158   1.093   4.167   9.190
 2904SOL    HW2 9159   1.231   4.135   9.109
 2905SOL     OW 9160   1.160   3.931   8.925
 2905SOL    HW1 9161   1.160   3.995   9.002
 2905SOL    HW2 9162   1.188   3.979   8.842
 2906SOL     OW 9163   0.040   4.268   8.562
 2906SOL    HW1 9164   0.125   4.235   8.521
 2906SOL    HW2 9165   0.053   4.283   8.660
 2907SOL     OW 9166   0.189   4.244   9.170
 2907SOL    HW1 9167   0.248   4.204   9.100
 2907SOL    HW2 9168   0.131   4.315   9.129
 2908SOL     OW 9169   0.815   4.296   7.773
 2908SOL    HW1 9170   0.822   4.207   7.727
 2908SOL    HW2 9171   0.721   4.330   7.765
 2909SOL     OW 9172   1.657   4.328   8.654
 2909SOL    HW1 9173   1.619   4.259   8.716
 2909SOL    HW2 9174   1.739   4.292   8.610
 2910SOL     OW 9175   0.671   4.188   8.717
 2910SOL    HW1 9176   0.637   4.099   8.687
 2910SOL    HW2 9177   0.697   4.242   8.637
 2911SOL     OW 9178   0.473   4.224   7.639
 2911SOL    HW1 9179   0.534   4.304   7.643
 2911SOL    HW2 9180   0.378   4.255   7.646
 2912SOL     OW 9181   1.726   3.859   7.971
 2912SOL    HW1 9182   1.799   3.842   7.904
 2912SOL    HW2 9183   1.695   3.772   8.009
 2913SOL     OW 9184   1.280   4.651   8.120
 2913SOL    HW1 9185   1.340   4.570   8.122
 2913SOL    HW2 9186   1.320   4.720   8.060
 2914SOL     OW 9187   1.841   3.899   8.411
 2914SOL    HW1 9188   1.880   3.814   8.375
 2914SOL    HW2 9189   1.743   3.901   8.392
 2915SOL     OW 9190   0.263   4.050   8.168
 2915SOL    HW1 9191   0.184   4.101   8.134
 2915SOL    HW2 9192   0.254   4.035   8.266
 2916SOL     OW 9193   0.916   4.634   7.739
 2916SOL    HW1 9194   0.979   4.672   7.671
 2916SOL    HW2 9195   0.956   4.551   7.778
 2917SOL     OW 9196   1.039   4.822   8.144
 2917SOL    HW1 9197   0.969   4.775   8.198
 2917SOL    HW2 9198   1.098   4.754   8.101
 2918SOL     OW 9199   1.014   3.960   8.419
 2918SOL    HW1 9200   1.006   3.924   8.326
 2918SOL    HW2 9201   1.012   3.884   8.484
 2919SOL     OW 9202   1.709   4.109   8.829
 2919SOL    HW1 9203   1.782   4.178   8.833
 2919SOL    HW2 9204   1.737   4.034   8.770
 2920SOL     OW 9205   0.672   3.927   8.937
 2920SOL    HW1 9206   0.762   3.911   8.897
 2920SOL    HW2 9207   0.680   3.932   9.036
 2921SOL     OW 9208   0.075   4.069   7.481
 2921SOL    HW1 9209  -0.017   4.041   7.452
 2921SOL    HW2 9210   0.106   4.146   7.425
 2922SOL     OW 9211   0.072   3.890   7.766
 2922SOL    HW1 9212   0.055   3.973   7.712
 2922SOL    HW2 9213   0.162   3.853   7.744
 2923SOL     OW 9214   0.716   4.289   9.156
 2923SOL    HW1 9215   0.735   4.354   9.230
 2923SOL    HW2 9216   0.776   4.209   9.165
 2924SOL     OW 9217   1.225   4.049   7.897
 2924SOL    HW1 9218   1.290   3.975   7.886
 2924SOL    HW2 9219   1.245   4.099   7.981
 2925SOL     OW 9220   1.777   4.066   9.090
 2925SOL    HW1 9221   1.760   4.097   8.996
 2925SOL    HW2 9222   1.693   4.029   9.128
 2926SOL     OW 9223   1.083   4.708   7.535
 2926SOL    HW1 9224   1.060   4.761   7.453
 2926SOL    HW2 9225   1.164   4.652   7.516
 2927SOL     OW 9226   1.824   3.916   8.675
 2927SOL    HW1 9227   1.820   3.826   8.719
 2927SOL    HW2 9228   1.827   3.905   8.576
 2928SOL     OW 9229   0.428   4.148   7.968
 2928SOL    HW1 9230   0.458   4.076   7.906
 2928SOL    HW2 9231   0.389   4.108   8.051
 2929SOL     OW 9232   0.317   4.271   8.728
 2929SOL    HW1 9233   0.355   4.212   8.800
 2929SOL    HW2 9234   0.357   4.245   8.640
 2930SOL     OW 9235   1.424   3.938   8.560
 2930SOL    HW1 9236   1.476   3.873   8.615
 2930SOL    HW2 9237   1.375   4.001   8.621
 2931SOL     OW 9238   1.001   3.758   8.602
 2931SOL    HW1 9239   0.938   3.686   8.571
 2931SOL    HW2 9240   1.094   3.722   8.602
 2932SOL     OW 9241   1.352   3.776   7.616
 2932SOL    HW1 9242   1.387   3.735   7.532
 2932SOL    HW2 9243   1.262   3.738   7.636
 2933SOL     OW 9244   1.300   4.177   8.139
 2933SOL    HW1 9245   1.241   4.257   8.143
 2933SOL    HW2 9246   1.315   4.142   8.232
 2934SOL     OW 9247   1.593   3.945   8.330
 2934SOL    HW1 9248   1.509   3.944   8.384
 2934SOL    HW2 9249   1.595   4.028   8.274
 2935SOL     OW 9250   0.230   4.352   9.423
 2935SOL    HW1 9251   0.137   4.350   9.460
 2935SOL    HW2 9252   0.231   4.313   9.331
 2936SOL     OW 9253   0.225   3.999  10.306
 2936SOL    HW1 9254   0.260   3.982  10.398
 2936SOL    HW2 9255   0.137   3.954  10.294
 2937SOL     OW 9256   0.019   4.092   9.957
 2937SOL    HW1 9257  -0.063   4.135   9.996
 2937SOL    HW2 9258  -0.009   4.019   9.894
 2938SOL     OW 9259   1.755   4.331   9.541
 2938SOL    HW1 9260   1.743   4.318   9.442
 2938SOL    HW2 9261   1.725   4.250   9.590
 2939SOL     OW 9262   0.685   4.736   9.975
 2939SOL    HW1 9263   0.754   4.720  10.045
 2939SOL    HW2 9264   0.612   4.793  10.013
 2940SOL     OW 9265   0.438   4.116  10.809
 2940SOL    HW1 9266   0.520   4.060  10.818
 2940SOL    HW2 9267   0.357   4.058  10.813
 2941SOL     OW 9268   1.603   4.171  10.047
 2941SOL    HW1 9269   1.529   4.217   9.997
 2941SOL    HW2 9270   1.654   4.239  10.100
 2942SOL     OW 9271   1.594   3.838  10.790
 2942SOL    HW1 9272   1.576   3.905  10.718
 2942SOL    HW2 9273   1.591   3.884  10.879
 2943SOL     OW 9274   0.122   4.367   9.873
 2943SOL    HW1 9275   0.077   4.279   9.890
 2943SOL    HW2 9276   0.121   4.421   9.957
 2944SOL     OW 9277   0.113   4.461  10.907
 2944SOL    HW1 9278   0.201   4.448  10.952
 2944SOL    HW2 9279   0.100   4.558  10.885
 2945SOL     OW 9280   0.809   3.728   9.812
 2945SOL    HW1 9281   0.849   3.819   9.803
 2945SOL    HW2 9282   0.709   3.736   9.818
 2946SOL     OW 9283   0.317   3.975  11.111
 2946SOL    HW1 9284   0.388   4.046  11.117
 2946SOL    HW2 9285   0.229   4.014  11.139
 2947SOL     OW 9286   1.281   4.069  10.254
 2947SOL    HW1 9287   1.195   4.019  10.241
 2947SOL    HW2 9288   1.343   4.015  10.310
 2948SOL     OW 9289   0.807   4.329  10.775
 2948SOL    HW1 9290   0.760   4.326  10.864
 2948SOL    HW2 9291   0.756   4.274  10.709
 2949SOL     OW 9292   0.991   4.134  10.552
 2949SOL    HW1 9293   0.914   4.168  10.606
 2949SOL    HW2 9294   0.957   4.083  10.473
 2950SOL     OW 9295   1.041   4.425   9.739
 2950SOL    HW1 9296   1.067   4.421   9.835
 2950SOL    HW2 9297   0.956   4.374   9.725
 2951SOL     OW 9298   0.076   4.535  10.099
 2951SOL    HW1 9299   0.175   4.523  10.108
 2951SOL    HW2 9300   0.052   4.630  10.120
 2952SOL     OW 9301   0.865   4.072   9.505
 2952SOL    HW1 9302   0.924   4.135   9.456
 2952SOL    HW2 9303   0.884   3.978   9.476
 2953SOL     OW 9304   0.550   3.920  10.195
 2953SOL    HW1 9305   0.545   3.915  10.295
 2953SOL    HW2 9306   0.552   4.016  10.166
 2954SOL     OW 9307   1.458   4.459  10.038
 2954SOL    HW1 9308   1.453   4.394  10.113
 2954SOL    HW2 9309   1.538   4.518  10.051
 2955SOL     OW 9310   0.202   4.009  10.808
 2955SOL    HW1 9311   0.122   4.069  10.795
 2955SOL    HW2 9312   0.192   3.960  10.894
 2956SOL     OW 9313   1.400   3.831   9.736
 2956SOL    HW1 9314   1.376   3.794   9.646
 2956SOL    HW2 9315   1.499   3.847   9.740
 2957SOL     OW 9316   0.382   4.424   9.790
 2957SOL    HW1 9317   0.427   4.334   9.787
 2957SOL    HW2 9318   0.288   4.413   9.823
 2958SOL     OW 9319   0.614   3.846   9.427
 2958SOL    HW1 9320   0.712   3.824   9.434
 2958SOL    HW2 9321   0.583   3.829   9.334
 2959SOL     OW 9322   0.781   3.988  11.059
 2959SOL    HW1 9323   0.848   3.927  11.102
 2959SOL    HW2 9324   0.708   4.007  11.124
 2960SOL     OW 9325   1.351   4.314  10.743
 2960SOL    HW1 9326   1.379   4.271  10.828
 2960SOL    HW2 9327   1.376   4.410  10.744
 2961SOL     OW 9328   0.922   4.227  10.209
 2961SOL    HW1 9329   0.897   4.218  10.113
 2961SOL    HW2 9330   0.970   4.145  10.240
 2962SOL     OW 9331   0.539   3.788   9.822
 2962SOL    HW1 9332   0.458   3.789   9.880
 2962SOL    HW2 9333   0.542   3.871   9.767
 2963SOL     OW 9334   0.297   3.759   9.481
 2963SOL    HW1 9335   0.346   3.843   9.460
 2963SOL    HW2 9336   0.359   3.694   9.526
 2964SOL     OW 9337   0.935   3.960   9.790
 2964SOL    HW1 9338   0.887   4.001   9.712
 2964SOL    HW2 9339   1.034   3.958   9.771
 2965SOL     OW 9340   1.076   4.407  10.774
 2965SOL    HW1 9341   0.996   4.346  10.777
 2965SOL    HW2 9342   1.157   4.354  10.750
 2966SOL     OW 9343   1.032   4.273   9.326
 2966SOL    HW1 9344   0.991   4.355   9.287
 2966SOL    HW2 9345   1.096   4.299   9.399
 2967SOL     OW 9346   0.078   4.280  10.696
 2967SOL    HW1 9347   0.170   4.279  10.655
 2967SOL    HW2 9348   0.072   4.354  10.763
 2968SOL     OW 9349   0.561   3.946  10.457
 2968SOL    HW1 9350   0.599   3.862  10.494
 2968SOL    HW2 9351   0.473   3.965  10.501
 2969SOL     OW 9352   0.866   4.178   9.952
 2969SOL    HW1 9353   0.834   4.250   9.890
 2969SOL    HW2 9354   0.890   4.097   9.899
 2970SOL     OW 9355   1.017   3.763  10.063
 2970SOL    HW1 9356   0.945   3.768   9.994
 2970SOL    HW2 9357   0.993   3.694  10.132
 2971SOL     OW 9358   1.466   4.314  10.302
 2971SOL    HW1 9359   1.436   4.219  10.309
 2971SOL    HW2 9360   1.539   4.330  10.368
 2972SOL     OW 9361   1.390   4.299   9.388
 2972SOL    HW1 9362   1.336   4.278   9.469
 2972SOL    HW2 9363   1.481   4.258   9.397
 2973SOL     OW 9364   0.527   3.980   9.638
 2973SOL    HW1 9365   0.554   3.921   9.563
 2973SOL    HW2 9366   0.527   4.075   9.607
 2974SOL     OW 9367   0.915   3.813  10.712
 2974SOL    HW1 9368   0.940   3.793  10.617
 2974SOL    HW2 9369   0.987   3.869  10.754
 2975SOL     OW 9370   0.410   4.537  10.561
 2975SOL    HW1 9371   0.496   4.549  10.611
 2975SOL    HW2 9372   0.368   4.450  10.588
 2976SOL     OW 9373   1.274   4.110  10.572
 2976SOL    HW1 9374   1.295   4.184  10.636
 2976SOL    HW2 9375   1.185   4.127  10.529
 2977SOL     OW 9376   0.566   4.261  10.175
 2977SOL    HW1 9377   0.578   4.327  10.101
 2977SOL    HW2 9378   0.612   4.295  10.258
 2978SOL     OW 9379   1.582   4.363   9.782
 2978SOL    HW1 9380   1.551   4.424   9.855
 2978SOL    HW2 9381   1.632   4.415   9.713
 2979SOL     OW 9382   0.402   4.475  10.908
 2979SOL    HW1 9383   0.470   4.530  10.861
 2979SOL    HW2 9384   0.442   4.387  10.935
 2980SOL     OW 9385   1.209   4.249   9.585
 2980SOL    HW1 9386   1.222   4.165   9.639
 2980SOL    HW2 9387   1.180   4.323   9.645
 2981SOL     OW 9388   0.307   3.937  10.541
 2981SOL    HW1 9389   0.284   3.974  10.631
 2981SOL    HW2 9390   0.277   3.842  10.535
 2982SOL     OW 9391   0.732   4.358  10.374
 2982SOL    HW1 9392   0.791   4.332  10.298
 2982SOL    HW2 9393   0.704   4.454  10.363
 2983SOL     OW 9394   0.307   3.787   9.928
 2983SOL    HW1 9395   0.296   3.881   9.961
 2983SOL    HW2 9396   0.302   3.724  10.005
 2984SOL     OW 9397   1.622   4.091   9.684
 2984SOL    HW1 9398   1.624   4.015   9.748
 2984SOL    HW2 9399   1.574   4.168   9.724
 2985SOL     OW 9400   1.540   3.998   9.435
 2985SOL    HW1 9401   1.479   3.923   9.458
 2985SOL    HW2 9402   1.562   4.050   9.518
 2986SOL     OW 9403   0.319   4.534  10.259
 2986SOL    HW1 9404   0.412   4.570  10.264
 2986SOL    HW2 9405   0.313   4.449  10.311
 2987SOL     OW 9406   0.339   4.233  10.316
 2987SOL    HW1 9407   0.287   4.150  10.299
 2987SOL    HW2 9408   0.416   4.238  10.252
 2988SOL     OW 9409   1.160   3.931  10.787
 2988SOL    HW1 9410   1.160   3.995  10.864
 2988SOL    HW2 9411   1.188   3.979  10.704
 2989SOL     OW 9412   0.040   4.268  10.424
 2989SOL    HW1 9413   0.125   4.235  10.383
 2989SOL    HW2 9414   0.053   4.283  10.522
 2990SOL     OW 9415   1.369   4.674  10.970
 2990SOL    HW1 9416   1.408   4.763  10.990
 2990SOL    HW2 9417   1.379   4.654  10.873
 2991SOL     OW 9418   0.815   4.296   9.635
 2991SOL    HW1 9419   0.822   4.207   9.589
 2991SOL    HW2 9420   0.721   4.330   9.627
 2992SOL     OW 9421   1.657   4.328  10.516
 2992SOL    HW1 9422   1.619   4.259  10.578
 2992SOL    HW2 9423   1.739   4.292  10.472
 2993SOL     OW 9424   0.671   4.188  10.579
 2993SOL    HW1 9425   0.637   4.099  10.549
 2993SOL    HW2 9426   0.697   4.242  10.499
 2994SOL     OW 9427   0.473   4.224   9.501
 2994SOL    HW1 9428   0.534   4.304   9.505
 2994SOL    HW2 9429   0.378   4.255   9.508
 2995SOL     OW 9430   1.726   3.859   9.833
 2995SOL    HW1 9431   1.799   3.842   9.766
 2995SOL    HW2 9432   1.695   3.772   9.871
 2996SOL     OW 9433   1.280   4.651   9.982
 2996SOL    HW1 9434   1.340   4.570   9.984
 2996SOL    HW2 9435   1.320   4.720   9.922
 2997SOL     OW 9436   1.841   3.899  10.273
 2997SOL    HW1 9437   1.880   3.814  10.237
 2997SOL    HW2 9438   1.743   3.901  10.254
 2998SOL     OW 9439   0.263   4.050  10.030
 2998SOL    HW1 9440   0.184   4.101   9.996
 2998SOL    HW2 9441   0.254   4.035  10.128
 2999SOL     OW 9442   0.916   4.634   9.601
 2999SOL    HW1 9443   0.979   4.672   9.533
 2999SOL    HW2 9444   0.956   4.551   9.640
 3000SOL     OW 9445   1.039   4.822  10.006
 3000SOL    HW1 9446   0.969   4.775  10.060
 3000SOL    HW2 9447   1.098   4.754   9.963
 3001SOL     OW 9448   1.014   3.960  10.281
 3001SOL    HW1 9449   1.006   3.924  10.188
 3001SOL    HW2 9450   1.012   3.884  10.346
 3002SOL     OW 9451   1.709   4.109  10.691
 3002SOL    HW1 9452   1.782   4.178  10.695
 3002SOL    HW2 9453   1.737   4.034  10.632
 3003SOL     OW 9454   0.672   3.927  10.799
 3003SOL    HW1 9455   0.762   3.911  10.759
 3003SOL    HW2 9456   0.680   3.932  10.898
 3004SOL     OW 9457   0.075   4.069   9.343
 3004SOL    HW1 9458  -0.017   4.041   9.314
 3004SOL    HW2 9459   0.106   4.146   9.287
 3005SOL     OW 9460   0.072   3.890   9.628
 3005SOL    HW1 9461   0.055   3.973   9.574
 3005SOL    HW2 9462   0.162   3.853   9.606
 3006SOL     OW 9463   0.716   4.289  11.018
 3006SOL    HW1 9464   0.735   4.354  11.092
 3006SOL    HW2 9465   0.776   4.209  11.027
 3007SOL     OW 9466   1.225   4.049   9.759
 3007SOL    HW1 9467   1.290   3.975   9.748
 3007SOL    HW2 9468   1.245   4.099   9.843
 3008SOL     OW 9469   1.777   4.066  10.952
 3008SOL    HW1 9470   1.760   4.097  10.858
 3008SOL    HW2 9471   1.693   4.029  10.990
 3009SOL     OW 9472   1.083   4.708   9.397
 3009SOL    HW1 9473   1.060   4.761   9.315
 3009SOL    HW2 9474   1.164   4.652   9.378
 3010SOL     OW 9475   1.824   3.916  10.537
 3010SOL    HW1 9476   1.820   3.826  10.581
 3010SOL    HW2 9477   1.827   3.905  10.438
 3011SOL     OW 9478   0.428   4.148   9.830
 3011SOL    HW1 9479   0.458   4.076   9.768
 3011SOL    HW2 9480   0.389   4.108   9.913
 3012SOL     OW 9481   0.317   4.271  10.590
 3012SOL    HW1 9482   0.355   4.212  10.662
 3012SOL    HW2 9483   0.357   4.245  10.502
 3013SOL     OW 9484   1.424   3.938  10.422
 3013SOL    HW1 9485   1.476   3.873  10.477
 3013SOL    HW2 9486   1.375   4.001  10.483
 3014SOL     OW 9487   1.001   3.758  10.464
 3014SOL    HW1 9488   0.938   3.686  10.433
 3014SOL    HW2 9489   1.094   3.722  10.464
 3015SOL     OW 9490   1.352   3.776   9.478
 3015SOL    HW1 9491   1.387   3.735   9.394
 3015SOL    HW2 9492   1.262   3.738   9.498
 3016SOL     OW 9493   1.300   4.177  10.001
 3016SOL    HW1 9494   1.241   4.257  10.005
 3016SOL    HW2 9495   1.315   4.142  10.094
 3017SOL     OW 9496   1.593   3.945  10.192
 3017SOL    HW1 9497   1.509   3.944  10.246
 3017SOL    HW2 9498   1.595   4.028  10.136
 3018SOL     OW 9499   2.092   0.628   0.113
 3018SOL    HW1 9500   1.999   0.626   0.150
 3018SOL    HW2 9501   2.093   0.589   0.021
 3019SOL     OW 9502   2.087   0.275   0.996
 3019SOL    HW1 9503   2.122   0.258   1.088
 3019SOL    HW2 9504   1.999   0.230   0.984
 3020SOL     OW 9505   1.881   0.368   0.647
 3020SOL    HW1 9506   1.799   0.411   0.686
 3020SOL    HW2 9507   1.853   0.295   0.584
 3021SOL     OW 9508   2.431   1.275   1.165
 3021SOL    HW1 9509   2.338   1.268   1.128
 3021SOL    HW2 9510   2.442   1.364   1.209
 3022SOL     OW 9511   3.417   1.511   0.703
 3022SOL    HW1 9512   3.360   1.495   0.784
 3022SOL    HW2 9513   3.358   1.521   0.623
 3023SOL     OW 9514   2.997   0.703   0.717
 3023SOL    HW1 9515   3.054   0.781   0.692
 3023SOL    HW2 9516   2.937   0.729   0.793
 3024SOL     OW 9517   3.617   0.607   0.231
 3024SOL    HW1 9518   3.605   0.594   0.132
 3024SOL    HW2 9519   3.587   0.526   0.280
 3025SOL     OW 9520   2.630   1.144   1.023
 3025SOL    HW1 9521   2.552   1.161   1.083
 3025SOL    HW2 9522   2.664   1.231   0.987
 3026SOL     OW 9523   2.712   0.798   1.823
 3026SOL    HW1 9524   2.708   0.874   1.888
 3026SOL    HW2 9525   2.734   0.834   1.732
 3027SOL     OW 9526   2.547   1.012   0.665
 3027SOL    HW1 9527   2.616   0.996   0.735
 3027SOL    HW2 9528   2.474   1.069   0.703
 3028SOL     OW 9529   2.548   1.161   1.803
 3028SOL    HW1 9530   2.608   1.240   1.817
 3028SOL    HW2 9531   2.462   1.192   1.762
 3029SOL     OW 9532   2.197   1.435   1.061
 3029SOL    HW1 9533   2.119   1.404   1.008
 3029SOL    HW2 9534   2.255   1.493   1.004
 3030SOL     OW 9535   3.322   1.505   1.339
 3030SOL    HW1 9536   3.346   1.599   1.365
 3030SOL    HW2 9537   3.306   1.451   1.421
 3031SOL     OW 9538   2.300   0.392   1.499
 3031SOL    HW1 9539   2.382   0.336   1.508
 3031SOL    HW2 9540   2.219   0.334   1.503
 3032SOL     OW 9541   3.465   0.447   0.737
 3032SOL    HW1 9542   3.391   0.493   0.687
 3032SOL    HW2 9543   3.516   0.515   0.790
 3033SOL     OW 9544   2.093   1.713   0.483
 3033SOL    HW1 9545   2.127   1.790   0.537
 3033SOL    HW2 9546   2.137   1.713   0.393
 3034SOL     OW 9547   2.989   1.341   1.690
 3034SOL    HW1 9548   3.036   1.341   1.778
 3034SOL    HW2 9549   2.941   1.254   1.679
 3035SOL     OW 9550   2.092   1.434   0.538
 3035SOL    HW1 9551   2.066   1.530   0.538
 3035SOL    HW2 9552   2.021   1.380   0.583
 3036SOL     OW 9553   2.102   1.091   0.886
 3036SOL    HW1 9554   2.116   1.007   0.938
 3036SOL    HW2 9555   2.047   1.155   0.941
 3037SOL     OW 9556   2.482   1.786   1.439
 3037SOL    HW1 9557   2.390   1.769   1.474
 3037SOL    HW2 9558   2.510   1.878   1.465
 3038SOL     OW 9559   2.468   0.964   0.123
 3038SOL    HW1 9560   2.475   1.048   0.069
 3038SOL    HW2 9561   2.514   0.977   0.211
 3039SOL     OW 9562   3.456   0.114   1.480
 3039SOL    HW1 9563   3.438   0.181   1.408
 3039SOL    HW2 9564   3.453   0.160   1.569
 3040SOL     OW 9565   1.984   0.643   0.563
 3040SOL    HW1 9566   1.939   0.555   0.580
 3040SOL    HW2 9567   1.983   0.697   0.647
 3041SOL     OW 9568   3.704   1.767   0.359
 3041SOL    HW1 9569   3.758   1.738   0.439
 3041SOL    HW2 9570   3.734   1.857   0.330
 3042SOL     OW 9571   1.889   1.596   0.117
 3042SOL    HW1 9572   1.870   1.500   0.138
 3042SOL    HW2 9573   1.856   1.654   0.192
 3043SOL     OW 9574   3.551   0.922   0.612
 3043SOL    HW1 9575   3.646   0.893   0.620
 3043SOL    HW2 9576   3.543   0.987   0.537
 3044SOL     OW 9577   3.503   1.108   0.432
 3044SOL    HW1 9578   3.589   1.110   0.380
 3044SOL    HW2 9579   3.517   1.155   0.520
 3045SOL     OW 9580   1.975   0.737   1.597
 3045SOL    HW1 9581   2.063   0.724   1.642
 3045SOL    HW2 9582   1.962   0.834   1.575
 3046SOL     OW 9583   2.475   1.365   0.726
 3046SOL    HW1 9584   2.426   1.278   0.735
 3046SOL    HW2 9585   2.452   1.408   0.639
 3047SOL     OW 9586   3.155   1.228   1.423
 3047SOL    HW1 9587   3.192   1.155   1.365
 3047SOL    HW2 9588   3.207   1.233   1.508
 3048SOL     OW 9589   2.671   0.004   0.502
 3048SOL    HW1 9590   2.711   0.095   0.493
 3048SOL    HW2 9591   2.571   0.012   0.508
 3049SOL     OW 9592   2.059   0.976   1.264
 3049SOL    HW1 9593   2.148   0.931   1.250
 3049SOL    HW2 9594   1.986   0.911   1.245
 3050SOL     OW 9595   3.387   0.999   0.190
 3050SOL    HW1 9596   3.324   0.923   0.203
 3050SOL    HW2 9597   3.435   1.017   0.276
 3051SOL     OW 9598   3.049   1.792   1.616
 3051SOL    HW1 9599   3.073   1.852   1.540
 3051SOL    HW2 9600   3.056   1.697   1.586
 3052SOL     OW 9601   2.179   0.251   1.801
 3052SOL    HW1 9602   2.250   0.322   1.807
 3052SOL    HW2 9603   2.091   0.290   1.829
 3053SOL     OW 9604   3.328   1.417   0.953
 3053SOL    HW1 9605   3.269   1.423   1.033
 3053SOL    HW2 9606   3.313   1.329   0.907
 3054SOL     OW 9607   3.529   1.714   0.572
 3054SOL    HW1 9608   3.488   1.691   0.484
 3054SOL    HW2 9609   3.511   1.640   0.637
 3055SOL     OW 9610   2.460   0.729   0.270
 3055SOL    HW1 9611   2.484   0.798   0.202
 3055SOL    HW2 9612   2.382   0.762   0.324
 3056SOL     OW 9613   3.143   0.345   0.944
 3056SOL    HW1 9614   3.057   0.295   0.931
 3056SOL    HW2 9615   3.205   0.291   1.000
 3057SOL     OW 9616   3.438   1.662   0.307
 3057SOL    HW1 9617   3.527   1.708   0.310
 3057SOL    HW2 9618   3.417   1.638   0.212
 3058SOL     OW 9619   2.669   0.605   1.465
 3058SOL    HW1 9620   2.622   0.602   1.554
 3058SOL    HW2 9621   2.618   0.550   1.399
 3059SOL     OW 9622   3.256   0.469   1.674
 3059SOL    HW1 9623   3.236   0.512   1.762
 3059SOL    HW2 9624   3.334   0.407   1.683
 3060SOL     OW 9625   2.835   0.890   1.572
 3060SOL    HW1 9626   2.881   0.806   1.543
 3060SOL    HW2 9627   2.779   0.924   1.497
 3061SOL     OW 9628   2.853   0.410   1.242
 3061SOL    HW1 9629   2.776   0.444   1.296
 3061SOL    HW2 9630   2.819   0.359   1.163
 3062SOL     OW 9631   2.903   0.701   0.429
 3062SOL    HW1 9632   2.929   0.697   0.525
 3062SOL    HW2 9633   2.818   0.650   0.415
 3063SOL     OW 9634   1.938   0.811   0.789
 3063SOL    HW1 9635   2.037   0.799   0.798
 3063SOL    HW2 9636   1.914   0.906   0.810
 3064SOL     OW 9637   1.992   1.821   1.571
 3064SOL    HW1 9638   1.982   1.806   1.670
 3064SOL    HW2 9639   1.906   1.857   1.535
 3065SOL     OW 9640   2.727   0.348   0.195
 3065SOL    HW1 9641   2.786   0.411   0.146
 3065SOL    HW2 9642   2.746   0.254   0.166
 3066SOL     OW 9643   3.581   0.585   1.831
 3066SOL    HW1 9644   3.555   0.674   1.795
 3066SOL    HW2 9645   3.579   0.517   1.758
 3067SOL     OW 9646   3.224   1.144   0.545
 3067SOL    HW1 9647   3.307   1.115   0.497
 3067SOL    HW2 9648   3.175   1.211   0.489
 3068SOL     OW 9649   2.412   0.196   0.885
 3068SOL    HW1 9650   2.407   0.191   0.985
 3068SOL    HW2 9651   2.414   0.292   0.856
 3069SOL     OW 9652   2.870   1.456   0.477
 3069SOL    HW1 9653   2.824   1.528   0.425
 3069SOL    HW2 9654   2.866   1.476   0.575
 3070SOL     OW 9655   2.213   1.801   0.853
 3070SOL    HW1 9656   2.263   1.715   0.859
 3070SOL    HW2 9657   2.278   1.878   0.850
 3071SOL     OW 9658   3.657   1.066   0.873
 3071SOL    HW1 9659   3.595   1.051   0.797
 3071SOL    HW2 9660   3.605   1.077   0.958
 3072SOL     OW 9661   3.089   1.550   1.506
 3072SOL    HW1 9662   3.095   1.473   1.570
 3072SOL    HW2 9663   3.037   1.524   1.426
 3073SOL     OW 9664   2.183   0.943   0.242
 3073SOL    HW1 9665   2.265   0.982   0.200
 3073SOL    HW2 9666   2.156   0.861   0.193
 3074SOL     OW 9667   3.320   0.735   0.728
 3074SOL    HW1 9668   3.315   0.670   0.803
 3074SOL    HW2 9669   3.400   0.794   0.741
 3075SOL     OW 9670   2.323   1.266   1.727
 3075SOL    HW1 9671   2.273   1.267   1.641
 3075SOL    HW2 9672   2.260   1.248   1.803
 3076SOL     OW 9673   2.973   1.776   0.237
 3076SOL    HW1 9674   2.913   1.714   0.287
 3076SOL    HW2 9675   3.004   1.732   0.152
 3077SOL     OW 9676   2.064   0.285   1.498
 3077SOL    HW1 9677   1.984   0.345   1.485
 3077SOL    HW2 9678   2.054   0.236   1.584
 3078SOL     OW 9679   3.494   1.377   0.081
 3078SOL    HW1 9680   3.462   1.471   0.071
 3078SOL    HW2 9681   3.418   1.314   0.069
 3079SOL     OW 9682   2.326   1.743   0.323
 3079SOL    HW1 9683   2.359   1.782   0.409
 3079SOL    HW2 9684   2.402   1.736   0.258
 3080SOL     OW 9685   3.262   0.107   0.426
 3080SOL    HW1 9686   3.238   0.070   0.336
 3080SOL    HW2 9687   3.361   0.123   0.430
 3081SOL     OW 9688   2.111   1.785   1.241
 3081SOL    HW1 9689   2.168   1.720   1.291
 3081SOL    HW2 9690   2.095   1.752   1.148
 3082SOL     OW 9691   2.802   1.698   0.904
 3082SOL    HW1 9692   2.882   1.641   0.925
 3082SOL    HW2 9693   2.753   1.658   0.827
 3083SOL     OW 9694   2.244   0.700   0.480
 3083SOL    HW1 9695   2.289   0.610   0.477
 3083SOL    HW2 9696   2.150   0.689   0.513
 3084SOL     OW 9697   3.409   0.222   1.729
 3084SOL    HW1 9698   3.404   0.259   1.821
 3084SOL    HW2 9699   3.337   0.153   1.717
 3085SOL     OW 9700   2.476   0.122   0.117
 3085SOL    HW1 9701   2.574   0.100   0.124
 3085SOL    HW2 9702   2.445   0.105   0.024
 3086SOL     OW 9703   2.643   0.264   1.749
 3086SOL    HW1 9704   2.710   0.203   1.792
 3086SOL    HW2 9705   2.570   0.283   1.814
 3087SOL     OW 9706   2.750   1.514   1.195
 3087SOL    HW1 9707   2.727   1.489   1.101
 3087SOL    HW2 9708   2.811   1.445   1.234
 3088SOL     OW 9709   3.213   0.590   1.433
 3088SOL    HW1 9710   3.241   0.547   1.518
 3088SOL    HW2 9711   3.238   0.686   1.434
 3089SOL     OW 9712   2.665   1.402   0.924
 3089SOL    HW1 9713   2.755   1.416   0.882
 3089SOL    HW2 9714   2.594   1.404   0.853
 3090SOL     OW 9715   2.784   0.503   0.899
 3090SOL    HW1 9716   2.759   0.494   0.803
 3090SOL    HW2 9717   2.832   0.421   0.930
 3091SOL     OW 9718   2.401   0.064   0.512
 3091SOL    HW1 9719   2.320   0.065   0.570
 3091SOL    HW2 9720   2.404   0.147   0.457
 3092SOL     OW 9721   3.296   1.188   0.041
 3092SOL    HW1 9722   3.328   1.112   0.098
 3092SOL    HW2 9723   3.204   1.215   0.071
 3093SOL     OW 9724   2.159   0.035   0.171
 3093SOL    HW1 9725   2.208   0.119   0.150
 3093SOL    HW2 9726   2.221  -0.030   0.216
 3094SOL     OW 9727   2.797   0.236   0.480
 3094SOL    HW1 9728   2.749   0.277   0.402
 3094SOL    HW2 9729   2.896   0.234   0.461
 3095SOL     OW 9730   2.938   0.683   1.464
 3095SOL    HW1 9731   2.858   0.622   1.467
 3095SOL    HW2 9732   3.019   0.630   1.440
 3096SOL     OW 9733   3.089   1.570   0.793
 3096SOL    HW1 9734   3.110   1.644   0.728
 3096SOL    HW2 9735   3.157   1.570   0.866
 3097SOL     OW 9736   2.321   1.152   0.741
 3097SOL    HW1 9737   2.250   1.125   0.806
 3097SOL    HW2 9738   2.295   1.124   0.648
 3098SOL     OW 9739   3.133   1.797   0.591
 3098SOL    HW1 9740   3.177   1.861   0.527
 3098SOL    HW2 9741   3.083   1.849   0.661
 3099SOL     OW 9742   2.894   0.549   0.016
 3099SOL    HW1 9743   2.853   0.631  -0.023
 3099SOL    HW2 9744   2.958   0.575   0.089
 3100SOL     OW 9745   1.940   0.556   1.386
 3100SOL    HW1 9746   2.032   0.555   1.345
 3100SOL    HW2 9747   1.934   0.630   1.453
 3101SOL     OW 9748   2.423   0.222   1.147
 3101SOL    HW1 9749   2.461   0.138   1.184
 3101SOL    HW2 9750   2.335   0.241   1.191
 3102SOL     OW 9751   2.728   0.454   0.642
 3102SOL    HW1 9752   2.696   0.526   0.580
 3102SOL    HW2 9753   2.752   0.373   0.589
 3103SOL     OW 9754   2.879   0.039   0.753
 3103SOL    HW1 9755   2.807   0.044   0.684
 3103SOL    HW2 9756   2.855  -0.030   0.822
 3104SOL     OW 9757   3.291   1.173   0.867
 3104SOL    HW1 9758   3.236   1.089   0.860
 3104SOL    HW2 9759   3.317   1.202   0.775
 3105SOL     OW 9760   3.328   0.590   0.992
 3105SOL    HW1 9761   3.298   0.495   0.999
 3105SOL    HW2 9762   3.401   0.606   1.058
 3106SOL     OW 9763   3.719   0.833   0.377
 3106SOL    HW1 9764   3.761   0.769   0.441
 3106SOL    HW2 9765   3.681   0.782   0.299
 3107SOL     OW 9766   2.350   1.385   0.174
 3107SOL    HW1 9767   2.263   1.370   0.221
 3107SOL    HW2 9768   2.333   1.411   0.079
 3108SOL     OW 9769   3.526   1.280   0.657
 3108SOL    HW1 9770   3.625   1.288   0.671
 3108SOL    HW2 9771   3.481   1.364   0.688
 3109SOL     OW 9772   3.252   0.575   0.078
 3109SOL    HW1 9773   3.198   0.554   0.159
 3109SOL    HW2 9774   3.343   0.534   0.087
 3110SOL     OW 9775   2.389   0.256   0.328
 3110SOL    HW1 9776   2.416   0.197   0.253
 3110SOL    HW2 9777   2.389   0.351   0.297
 3111SOL     OW 9778   3.616   1.223   1.588
 3111SOL    HW1 9779   3.707   1.184   1.575
 3111SOL    HW2 9780   3.624   1.319   1.612
 3112SOL     OW 9781   2.926   1.347   1.340
 3112SOL    HW1 9782   2.846   1.324   1.395
 3112SOL    HW2 9783   3.009   1.321   1.389
 3113SOL     OW 9784   3.454   1.629   1.625
 3113SOL    HW1 9785   3.481   1.663   1.535
 3113SOL    HW2 9786   3.533   1.591   1.671
 3114SOL     OW 9787   2.973   1.195   1.100
 3114SOL    HW1 9788   2.933   1.239   1.181
 3114SOL    HW2 9789   2.932   1.232   1.017
 3115SOL     OW 9790   3.500   1.099   1.079
 3115SOL    HW1 9791   3.505   1.180   1.138
 3115SOL    HW2 9792   3.414   1.101   1.028
 3116SOL     OW 9793   2.777   0.089   1.402
 3116SOL    HW1 9794   2.802   0.069   1.307
 3116SOL    HW2 9795   2.849   0.145   1.444
 3117SOL     OW 9796   2.842   1.116   1.719
 3117SOL    HW1 9797   2.743   1.122   1.729
 3117SOL    HW2 9798   2.865   1.036   1.663
 3118SOL     OW 9799   2.567   1.050   0.368
 3118SOL    HW1 9800   2.553   1.057   0.467
 3118SOL    HW2 9801   2.651   0.999   0.350
 3119SOL     OW 9802   2.272   0.813   1.251
 3119SOL    HW1 9803   2.358   0.825   1.301
 3119SOL    HW2 9804   2.230   0.726   1.278
 3120SOL     OW 9805   3.136   0.386   1.262
 3120SOL    HW1 9806   3.157   0.460   1.326
 3120SOL    HW2 9807   3.047   0.403   1.219
 3121SOL     OW 9808   1.926   1.564   1.331
 3121SOL    HW1 9809   1.880   1.646   1.297
 3121SOL    HW2 9810   2.024   1.583   1.340
 3122SOL     OW 9811   2.229   1.100   0.501
 3122SOL    HW1 9812   2.222   1.183   0.445
 3122SOL    HW2 9813   2.233   1.020   0.441
 3123SOL     OW 9814   2.428   0.537   0.865
 3123SOL    HW1 9815   2.440   0.603   0.791
 3123SOL    HW2 9816   2.474   0.571   0.948
 3124SOL     OW 9817   3.114   1.348   0.388
 3124SOL    HW1 9818   3.164   1.425   0.428
 3124SOL    HW2 9819   3.019   1.350   0.420
 3125SOL     OW 9820   3.134   1.445   1.142
 3125SOL    HW1 9821   3.181   1.458   1.229
 3125SOL    HW2 9822   3.068   1.371   1.151
 3126SOL     OW 9823   3.444   0.639   0.472
 3126SOL    HW1 9824   3.413   0.700   0.545
 3126SOL    HW2 9825   3.494   0.691   0.403
 3127SOL     OW 9826   2.216   1.510   1.329
 3127SOL    HW1 9827   2.195   1.466   1.242
 3127SOL    HW2 9828   2.313   1.536   1.332
 3128SOL     OW 9829   2.264   0.751   1.598
 3128SOL    HW1 9830   2.332   0.806   1.551
 3128SOL    HW2 9831   2.304   0.663   1.625
 3129SOL     OW 9832   3.449   0.779   1.670
 3129SOL    HW1 9833   3.357   0.817   1.665
 3129SOL    HW2 9834   3.509   0.826   1.605
 3130SOL     OW 9835   2.875   0.105   1.770
 3130SOL    HW1 9836   2.881   0.190   1.718
 3130SOL    HW2 9837   2.907   0.029   1.713
 3131SOL     OW 9838   2.366   0.050   1.740
 3131SOL    HW1 9839   2.324  -0.007   1.670
 3131SOL    HW2 9840   2.300   0.119   1.772
 3132SOL     OW 9841   2.435   0.870   1.029
 3132SOL    HW1 9842   2.479   0.959   1.020
 3132SOL    HW2 9843   2.372   0.870   1.106
 3133SOL     OW 9844   3.222   0.862   1.045
 3133SOL    HW1 9845   3.147   0.862   0.979
 3133SOL    HW2 9846   3.259   0.770   1.054
 3134SOL     OW 9847   3.071   0.525   0.275
 3134SOL    HW1 9848   3.084   0.441   0.329
 3134SOL    HW2 9849   3.042   0.599   0.335
 3135SOL     OW 9850   2.169   0.213   1.231
 3135SOL    HW1 9851   2.146   0.250   1.321
 3135SOL    HW2 9852   2.139   0.118   1.225
 3136SOL     OW 9853   1.899   1.310   1.282
 3136SOL    HW1 9854   1.952   1.261   1.350
 3136SOL    HW2 9855   1.921   1.408   1.287
 3137SOL     OW 9856   2.594   0.634   1.064
 3137SOL    HW1 9857   2.653   0.608   0.988
 3137SOL    HW2 9858   2.566   0.730   1.053
 3138SOL     OW 9859   3.590   0.935   1.854
 3138SOL    HW1 9860   3.544   0.928   1.765
 3138SOL    HW2 9861   3.528   0.979   1.920
 3139SOL     OW 9862   2.169   0.063   0.618
 3139SOL    HW1 9863   2.158   0.157   0.651
 3139SOL    HW2 9864   2.164   0.000   0.695
 3140SOL     OW 9865   3.484   0.367   0.374
 3140SOL    HW1 9866   3.486   0.291   0.438
 3140SOL    HW2 9867   3.436   0.444   0.414
 3141SOL     OW 9868   2.885   0.766   0.966
 3141SOL    HW1 9869   2.900   0.787   1.062
 3141SOL    HW2 9870   2.855   0.671   0.957
 3142SOL     OW 9871   2.842   1.573   1.700
 3142SOL    HW1 9872   2.822   1.617   1.612
 3142SOL    HW2 9873   2.881   1.482   1.684
 3143SOL     OW 9874   3.721   1.518   1.605
 3143SOL    HW1 9875   3.735   1.545   1.510
 3143SOL    HW2 9876   3.804   1.540   1.658
 3144SOL     OW 9877   2.212   0.898   1.804
 3144SOL    HW1 9878   2.288   0.942   1.852
 3144SOL    HW2 9879   2.247   0.851   1.722
 3145SOL     OW 9880   3.402   0.274   0.125
 3145SOL    HW1 9881   3.341   0.199   0.148
 3145SOL    HW2 9882   3.424   0.326   0.208
 3146SOL     OW 9883   3.165   0.838   0.042
 3146SOL    HW1 9884   3.199   0.745   0.057
 3146SOL    HW2 9885   3.183   0.865  -0.053
 3147SOL     OW 9886   2.930   1.333   0.849
 3147SOL    HW1 9887   2.937   1.249   0.794
 3147SOL    HW2 9888   2.992   1.402   0.813
 3148SOL     OW 9889   2.181   0.810   0.949
 3148SOL    HW1 9890   2.274   0.846   0.954
 3148SOL    HW2 9891   2.175   0.725   1.001
 3149SOL     OW 9892   2.201   0.509   1.006
 3149SOL    HW1 9893   2.149   0.426   0.989
 3149SOL    HW2 9894   2.278   0.514   0.942
 3150SOL     OW 9895   3.000   0.380   1.678
 3150SOL    HW1 9896   2.955   0.443   1.742
 3150SOL    HW2 9897   3.093   0.411   1.661
 3151SOL     OW 9898   3.022   0.207   1.477
 3151SOL    HW1 9899   3.022   0.271   1.554
 3151SOL    HW2 9900   3.050   0.255   1.394
 3152SOL     OW 9901   1.870   1.326   0.200
 3152SOL    HW1 9902   1.777   1.347   0.169
 3152SOL    HW2 9903   1.880   1.227   0.213
 3153SOL     OW 9904   1.950   1.801   0.927
 3153SOL    HW1 9905   1.908   1.715   0.900
 3153SOL    HW2 9906   2.044   1.804   0.893
 3154SOL     OW 9907   2.366   1.568   0.910
 3154SOL    HW1 9908   2.432   1.642   0.919
 3154SOL    HW2 9909   2.410   1.489   0.868
 3155SOL     OW 9910   2.864   0.796   1.238
 3155SOL    HW1 9911   2.905   0.764   1.324
 3155SOL    HW2 9912   2.768   0.769   1.235
 3156SOL     OW 9913   1.902   0.544   1.114
 3156SOL    HW1 9914   1.987   0.511   1.073
 3156SOL    HW2 9915   1.915   0.559   1.212
 3157SOL     OW 9916   2.051   0.520   1.722
 3157SOL    HW1 9917   2.110   0.480   1.652
 3157SOL    HW2 9918   1.993   0.591   1.681
 3158SOL     OW 9919   3.231   0.950   1.660
 3158SOL    HW1 9920   3.270   1.039   1.680
 3158SOL    HW2 9921   3.241   0.930   1.563
 3159SOL     OW 9922   2.677   0.572   0.325
 3159SOL    HW1 9923   2.684   0.483   0.279
 3159SOL    HW2 9924   2.583   0.606   0.317
 3160SOL     OW 9925   3.519   0.604   1.206
 3160SOL    HW1 9926   3.481   0.535   1.268
 3160SOL    HW2 9927   3.601   0.568   1.162
 3161SOL     OW 9928   2.114   1.564   1.744
 3161SOL    HW1 9929   2.084   1.621   1.820
 3161SOL    HW2 9930   2.107   1.467   1.770
 3162SOL     OW 9931   2.533   0.464   1.269
 3162SOL    HW1 9932   2.499   0.375   1.239
 3162SOL    HW2 9933   2.559   0.518   1.189
 3163SOL     OW 9934   2.792   1.678   1.465
 3163SOL    HW1 9935   2.768   1.660   1.370
 3163SOL    HW2 9936   2.822   1.772   1.475
 3164SOL     OW 9937   2.335   0.500   0.191
 3164SOL    HW1 9938   2.396   0.580   0.195
 3164SOL    HW2 9939   2.240   0.531   0.198
 3165SOL     OW 9940   2.021   1.137   1.466
 3165SOL    HW1 9941   2.043   1.076   1.542
 3165SOL    HW2 9942   2.031   1.088   1.380
 3166SOL     OW 9943   3.209   1.059   1.234
 3166SOL    HW1 9944   3.233   0.996   1.160
 3166SOL    HW2 9945   3.119   1.099   1.216
 3167SOL     OW 9946   3.164   0.855   0.309
 3167SOL    HW1 9947   3.078   0.824   0.351
 3167SOL    HW2 9948   3.160   0.841   0.210
 3168SOL     OW 9949   3.621   1.747   1.154
 3168SOL    HW1 9950   3.682   1.777   1.081
 3168SOL    HW2 9951   3.583   1.658   1.132
 3169SOL     OW 9952   3.114   1.731   1.128
 3169SOL    HW1 9953   3.198   1.736   1.074
 3169SOL    HW2 9954   3.091   1.635   1.146
 3170SOL     OW 9955   1.945   1.258   1.022
 3170SOL    HW1 9956   1.940   1.257   1.122
 3170SOL    HW2 9957   1.862   1.217   0.984
 3171SOL     OW 9958   2.550   1.662   1.716
 3171SOL    HW1 9959   2.494   1.743   1.725
 3171SOL    HW2 9960   2.602   1.666   1.630
 3172SOL     OW 9961   2.765   0.086   0.133
 3172SOL    HW1 9962   2.816   0.087   0.047
 3172SOL    HW2 9963   2.821   0.044   0.204
 3173SOL     OW 9964   3.588   0.135   0.523
 3173SOL    HW1 9965   3.661   0.118   0.456
 3173SOL    HW2 9966   3.557   0.048   0.561
 3174SOL     OW 9967   3.250   1.573   0.477
 3174SOL    HW1 9968   3.317   1.585   0.403
 3174SOL    HW2 9969   3.210   1.662   0.500
 3175SOL     OW 9970   1.992   1.794   1.851
 3175SOL    HW1 9971   1.951   1.720   1.904
 3175SOL    HW2 9972   2.056   1.845   1.909
 3176SOL     OW 9973   3.142   0.927   0.672
 3176SOL    HW1 9974   3.202   0.846   0.674
 3176SOL    HW2 9975   3.182   0.996   0.612
 3177SOL     OW 9976   2.692   1.273   1.422
 3177SOL    HW1 9977   2.687   1.306   1.517
 3177SOL    HW2 9978   2.606   1.292   1.376
 3178SOL     OW 9979   2.534   1.616   0.154
 3178SOL    HW1 9980   2.543   1.626   0.055
 3178SOL    HW2 9981   2.494   1.527   0.175
 3179SOL     OW 9982   3.512   1.720   1.394
 3179SOL    HW1 9983   3.565   1.730   1.310
 3179SOL    HW2 9984   3.485   1.810   1.428
 3180SOL     OW 9985   3.703   0.175   0.963
 3180SOL    HW1 9986   3.742   0.090   0.927
 3180SOL    HW2 9987   3.605   0.177   0.944
 3181SOL     OW 9988   2.125   0.326   0.720
 3181SOL    HW1 9989   2.046   0.377   0.686
 3181SOL    HW2 9990   2.116   0.311   0.818
 3182SOL     OW 9991   3.056   1.612   0.031
 3182SOL    HW1 9992   3.062   1.519   0.068
 3182SOL    HW2 9993   2.997   1.612  -0.049
 3183SOL     OW 9994   2.684   1.002   1.372
 3183SOL    HW1 9995   2.724   1.001   1.280
 3183SOL    HW2 9996   2.694   1.094   1.412
 3184SOL     OW 9997   2.778   0.910   0.291
 3184SOL    HW1 9998   2.841   0.948   0.223
 3184SOL    HW2 9999   2.818   0.827   0.330
 3185SOL     OW10000   3.366   1.607   0.044
 3185SOL    HW110001   3.274   1.644   0.051
 3185SOL    HW210002   3.404   1.627  -0.046
 3186SOL     OW10003   2.234   1.288   1.490
 3186SOL    HW110004   2.221   1.381   1.456
 3186SOL    HW210005   2.150   1.236   1.477
 3187SOL     OW10006   3.476   1.292   1.289
 3187SOL    HW110007   3.536   1.295   1.369
 3187SOL    HW210008   3.401   1.356   1.302
 3188SOL     OW10009   2.901   1.098   0.696
 3188SOL    HW110010   2.831   1.051   0.750
 3188SOL    HW210011   2.960   1.030   0.653
 3189SOL     OW10012   2.876   0.236   0.971
 3189SOL    HW110013   2.868   0.200   0.878
 3189SOL    HW210014   2.874   0.160   1.036
 3190SOL     OW10015   2.452   1.487   0.491
 3190SOL    HW110016   2.494   1.429   0.421
 3190SOL    HW210017   2.408   1.566   0.447
 3191SOL     OW10018   3.571   0.385   1.381
 3191SOL    HW110019   3.644   0.454   1.385
 3191SOL    HW210020   3.599   0.310   1.322
 3192SOL     OW10021   2.117   1.348   0.290
 3192SOL    HW110022   2.021   1.349   0.263
 3192SOL    HW210023   2.129   1.401   0.374
 3193SOL     OW10024   1.967   1.013   1.726
 3193SOL    HW110025   1.890   0.980   1.780
 3193SOL    HW210026   2.052   0.983   1.768
 3194SOL     OW10027   2.534   0.203   1.489
 3194SOL    HW110028   2.624   0.187   1.449
 3194SOL    HW210029   2.542   0.208   1.588
 3195SOL     OW10030   1.937   0.345   0.033
 3195SOL    HW110031   1.845   0.317   0.004
 3195SOL    HW210032   1.968   0.422  -0.023
 3196SOL     OW10033   3.302   0.856   1.398
 3196SOL    HW110034   3.245   0.908   1.335
 3196SOL    HW210035   3.398   0.868   1.374
 3197SOL     OW10036   1.934   0.166   0.318
 3197SOL    HW110037   1.917   0.249   0.264
 3197SOL    HW210038   2.024   0.129   0.296
 3198SOL     OW10039   3.045   1.335   0.119
 3198SOL    HW110040   2.946   1.324   0.121
 3198SOL    HW210041   3.079   1.350   0.212
 3199SOL     OW10042   2.475   0.842   1.431
 3199SOL    HW110043   2.531   0.923   1.414
 3199SOL    HW210044   2.534   0.762   1.434
 3200SOL     OW10045   3.355   1.767   0.959
 3200SOL    HW110046   3.388   1.831   0.890
 3200SOL    HW210047   3.421   1.761   1.034
 3201SOL     OW10048   2.578   0.565   1.708
 3201SOL    HW110049   2.597   0.630   1.782
 3201SOL    HW210050   2.638   0.485   1.717
 3202SOL     OW10051   3.312   1.220   1.633
 3202SOL    HW110052   3.303   1.210   1.732
 3202SOL    HW210053   3.408   1.213   1.607
 3203SOL     OW10054   2.252   1.741   1.560
 3203SOL    HW110055   2.161   1.782   1.558
 3203SOL    HW210056   2.245   1.647   1.592
 3204SOL     OW10057   3.536   0.883   1.254
 3204SOL    HW110058   3.509   0.794   1.217
 3204SOL    HW210059   3.537   0.951   1.181
 3205SOL     OW10060   3.087   0.325   0.449
 3205SOL    HW110061   3.152   0.251   0.438
 3205SOL    HW210062   3.107   0.375   0.533
 3206SOL     OW10063   2.456   0.745   0.652
 3206SOL    HW110064   2.506   0.830   0.633
 3206SOL    HW210065   2.368   0.747   0.604
 3207SOL     OW10066   3.639   0.342   1.642
 3207SOL    HW110067   3.622   0.373   1.548
 3207SOL    HW210068   3.555   0.305   1.680
 3208SOL     OW10069   3.592   0.934   1.517
 3208SOL    HW110070   3.630   1.025   1.532
 3208SOL    HW210071   3.584   0.917   1.418
 3209SOL     OW10072   2.721   1.374   0.016
 3209SOL    HW110073   2.675   1.389   0.104
 3209SOL    HW210074   2.765   1.459  -0.014
 3210SOL     OW10075   2.523   1.790   0.953
 3210SOL    HW110076   2.477   1.878   0.940
 3210SOL    HW210077   2.622   1.802   0.946
 3211SOL     OW10078   2.721   0.956   0.861
 3211SOL    HW110079   2.775   0.887   0.909
 3211SOL    HW210080   2.689   1.025   0.927
 3212SOL     OW10081   2.945   0.984   0.087
 3212SOL    HW110082   2.922   1.037   0.005
 3212SOL    HW210083   3.026   0.928   0.068
 3213SOL     OW10084   3.723   1.569   0.851
 3213SOL    HW110085   3.652   1.557   0.781
 3213SOL    HW210086   3.724   1.490   0.911
 3214SOL     OW10087   2.083   1.314   1.844
 3214SOL    HW110088   2.018   1.241   1.823
 3214SOL    HW210089   2.087   1.328   1.942
 3215SOL     OW10090   1.941   1.240   0.653
 3215SOL    HW110091   1.940   1.193   0.741
 3215SOL    HW210092   2.023   1.212   0.602
 3216SOL     OW10093   2.534   1.391   1.624
 3216SOL    HW110094   2.456   1.341   1.662
 3216SOL    HW210095   2.531   1.486   1.655
 3217SOL     OW10096   3.686   0.192   1.227
 3217SOL    HW110097   3.682   0.102   1.271
 3217SOL    HW210098   3.689   0.181   1.128
 3218SOL     OW10099   2.290   0.424   0.520
 3218SOL    HW110100   2.320   0.352   0.458
 3218SOL    HW210101   2.251   0.384   0.603
 3219SOL     OW10102   3.567   1.487   1.104
 3219SOL    HW110103   3.474   1.462   1.077
 3219SOL    HW210104   3.593   1.437   1.186
 3220SOL     OW10105   2.179   0.547   1.280
 3220SOL    HW110106   2.217   0.488   1.352
 3220SOL    HW210107   2.219   0.521   1.192
 3221SOL     OW10108   2.674   1.586   0.687
 3221SOL    HW110109   2.706   1.596   0.593
 3221SOL    HW210110   2.595   1.524   0.689
 3222SOL     OW10111   3.286   0.214   1.112
 3222SOL    HW110112   3.338   0.149   1.167
 3222SOL    HW210113   3.237   0.277   1.173
 3223SOL     OW10114   2.863   0.034   1.154
 3223SOL    HW110115   2.800  -0.038   1.123
 3223SOL    HW210116   2.956  -0.002   1.154
 3224SOL     OW10117   2.632   1.330   0.301
 3224SOL    HW110118   2.586   1.243   0.318
 3224SOL    HW210119   2.723   1.327   0.342
 3225SOL     OW10120   2.480   1.567   1.284
 3225SOL    HW110121   2.475   1.649   1.341
 3225SOL    HW210122   2.569   1.564   1.239
 3226SOL     OW10123   3.214   0.052   0.168
 3226SOL    HW110124   3.249   0.011   0.084
 3226SOL    HW210125   3.124   0.014   0.188
 3227SOL     OW10126   3.162   0.453   0.691
 3227SOL    HW110127   3.103   0.533   0.695
 3227SOL    HW210128   3.177   0.418   0.784
 3228SOL     OW10129   3.455   0.221   0.882
 3228SOL    HW110130   3.371   0.220   0.936
 3228SOL    HW210131   3.457   0.304   0.826
 3229SOL     OW10132   1.901   1.077   0.300
 3229SOL    HW110133   2.000   1.066   0.291
 3229SOL    HW210134   1.861   0.991   0.332
 3230SOL     OW10135   2.737   1.646   0.337
 3230SOL    HW110136   2.660   1.611   0.283
 3230SOL    HW210137   2.705   1.717   0.399
 3231SOL     OW10138   2.092   0.628   1.975
 3231SOL    HW110139   1.999   0.626   2.012
 3231SOL    HW210140   2.093   0.589   1.883
 3232SOL     OW10141   2.087   0.275   2.858
 3232SOL    HW110142   2.122   0.258   2.950
 3232SOL    HW210143   1.999   0.230   2.846
 3233SOL     OW10144   1.881   0.368   2.509
 3233SOL    HW110145   1.799   0.411   2.548
 3233SOL    HW210146   1.853   0.295   2.446
 3234SOL     OW10147   2.431   1.275   3.027
 3234SOL    HW110148   2.338   1.268   2.990
 3234SOL    HW210149   2.442   1.364   3.071
 3235SOL     OW10150   3.417   1.511   2.565
 3235SOL    HW110151   3.360   1.495   2.646
 3235SOL    HW210152   3.358   1.521   2.485
 3236SOL     OW10153   2.997   0.703   2.579
 3236SOL    HW110154   3.054   0.781   2.554
 3236SOL    HW210155   2.937   0.729   2.655
 3237SOL     OW10156   3.617   0.607   2.093
 3237SOL    HW110157   3.605   0.594   1.994
 3237SOL    HW210158   3.587   0.526   2.142
 3238SOL     OW10159   2.630   1.144   2.885
 3238SOL    HW110160   2.552   1.161   2.945
 3238SOL    HW210161   2.664   1.231   2.849
 3239SOL     OW10162   2.712   0.798   3.685
 3239SOL    HW110163   2.708   0.874   3.750
 3239SOL    HW210164   2.734   0.834   3.594
 3240SOL     OW10165   2.547   1.012   2.527
 3240SOL    HW110166   2.616   0.996   2.597
 3240SOL    HW210167   2.474   1.069   2.565
 3241SOL     OW10168   2.548   1.161   3.665
 3241SOL    HW110169   2.608   1.240   3.679
 3241SOL    HW210170   2.462   1.192   3.624
 3242SOL     OW10171   2.197   1.435   2.923
 3242SOL    HW110172   2.119   1.404   2.870
 3242SOL    HW210173   2.255   1.493   2.866
 3243SOL     OW10174   3.322   1.505   3.201
 3243SOL    HW110175   3.346   1.599   3.227
 3243SOL    HW210176   3.306   1.451   3.283
 3244SOL     OW10177   2.300   0.392   3.361
 3244SOL    HW110178   2.382   0.336   3.370
 3244SOL    HW210179   2.219   0.334   3.365
 3245SOL     OW10180   3.465   0.447   2.599
 3245SOL    HW110181   3.391   0.493   2.549
 3245SOL    HW210182   3.516   0.515   2.652
 3246SOL     OW10183   2.093   1.713   2.345
 3246SOL    HW110184   2.127   1.790   2.399
 3246SOL    HW210185   2.137   1.713   2.255
 3247SOL     OW10186   2.989   1.341   3.552
 3247SOL    HW110187   3.036   1.341   3.640
 3247SOL    HW210188   2.941   1.254   3.541
 3248SOL     OW10189   2.092   1.434   2.400
 3248SOL    HW110190   2.066   1.530   2.400
 3248SOL    HW210191   2.021   1.380   2.445
 3249SOL     OW10192   2.102   1.091   2.748
 3249SOL    HW110193   2.116   1.007   2.800
 3249SOL    HW210194   2.047   1.155   2.803
 3250SOL     OW10195   2.482   1.786   3.301
 3250SOL    HW110196   2.390   1.769   3.336
 3250SOL    HW210197   2.510   1.878   3.327
 3251SOL     OW10198   2.468   0.964   1.985
 3251SOL    HW110199   2.475   1.048   1.931
 3251SOL    HW210200   2.514   0.977   2.073
 3252SOL     OW10201   3.456   0.114   3.342
 3252SOL    HW110202   3.438   0.181   3.270
 3252SOL    HW210203   3.453   0.160   3.431
 3253SOL     OW10204   1.984   0.643   2.425
 3253SOL    HW110205   1.939   0.555   2.442
 3253SOL    HW210206   1.983   0.697   2.509
 3254SOL     OW10207   3.704   1.767   2.221
 3254SOL    HW110208   3.758   1.738   2.301
 3254SOL    HW210209   3.734   1.857   2.192
 3255SOL     OW10210   1.889   1.596   1.979
 3255SOL    HW110211   1.870   1.500   2.000
 3255SOL    HW210212   1.856   1.654   2.054
 3256SOL     OW10213   3.551   0.922   2.474
 3256SOL    HW110214   3.646   0.893   2.482
 3256SOL    HW210215   3.543   0.987   2.399
 3257SOL     OW10216   3.503   1.108   2.294
 3257SOL    HW110217   3.589   1.110   2.242
 3257SOL    HW210218   3.517   1.155   2.382
 3258SOL     OW10219   1.975   0.737   3.459
 3258SOL    HW110220   2.063   0.724   3.504
 3258SOL    HW210221   1.962   0.834   3.437
 3259SOL     OW10222   2.475   1.365   2.588
 3259SOL    HW110223   2.426   1.278   2.597
 3259SOL    HW210224   2.452   1.408   2.501
 3260SOL     OW10225   3.155   1.228   3.285
 3260SOL    HW110226   3.192   1.155   3.227
 3260SOL    HW210227   3.207   1.233   3.370
 3261SOL     OW10228   2.671   0.004   2.364
 3261SOL    HW110229   2.711   0.095   2.355
 3261SOL    HW210230   2.571   0.012   2.370
 3262SOL     OW10231   2.059   0.976   3.126
 3262SOL    HW110232   2.148   0.931   3.112
 3262SOL    HW210233   1.986   0.911   3.107
 3263SOL     OW10234   3.387   0.999   2.052
 3263SOL    HW110235   3.324   0.923   2.065
 3263SOL    HW210236   3.435   1.017   2.138
 3264SOL     OW10237   3.049   1.792   3.478
 3264SOL    HW110238   3.073   1.852   3.402
 3264SOL    HW210239   3.056   1.697   3.448
 3265SOL     OW10240   2.179   0.251   3.663
 3265SOL    HW110241   2.250   0.322   3.669
 3265SOL    HW210242   2.091   0.290   3.691
 3266SOL     OW10243   3.328   1.417   2.815
 3266SOL    HW110244   3.269   1.423   2.895
 3266SOL    HW210245   3.313   1.329   2.769
 3267SOL     OW10246   3.529   1.714   2.434
 3267SOL    HW110247   3.488   1.691   2.346
 3267SOL    HW210248   3.511   1.640   2.499
 3268SOL     OW10249   2.460   0.729   2.132
 3268SOL    HW110250   2.484   0.798   2.064
 3268SOL    HW210251   2.382   0.762   2.186
 3269SOL     OW10252   3.143   0.345   2.806
 3269SOL    HW110253   3.057   0.295   2.793
 3269SOL    HW210254   3.205   0.291   2.862
 3270SOL     OW10255   3.438   1.662   2.169
 3270SOL    HW110256   3.527   1.708   2.172
 3270SOL    HW210257   3.417   1.638   2.074
 3271SOL     OW10258   2.669   0.605   3.327
 3271SOL    HW110259   2.622   0.602   3.416
 3271SOL    HW210260   2.618   0.550   3.261
 3272SOL     OW10261   3.256   0.469   3.536
 3272SOL    HW110262   3.236   0.512   3.624
 3272SOL    HW210263   3.334   0.407   3.545
 3273SOL     OW10264   2.835   0.890   3.434
 3273SOL    HW110265   2.881   0.806   3.405
 3273SOL    HW210266   2.779   0.924   3.359
 3274SOL     OW10267   2.853   0.410   3.104
 3274SOL    HW110268   2.776   0.444   3.158
 3274SOL    HW210269   2.819   0.359   3.025
 3275SOL     OW10270   2.903   0.701   2.291
 3275SOL    HW110271   2.929   0.697   2.387
 3275SOL    HW210272   2.818   0.650   2.277
 3276SOL     OW10273   1.938   0.811   2.651
 3276SOL    HW110274   2.037   0.799   2.660
 3276SOL    HW210275   1.914   0.906   2.672
 3277SOL     OW10276   1.992   1.821   3.433
 3277SOL    HW110277   1.982   1.806   3.532
 3277SOL    HW210278   1.906   1.857   3.397
 3278SOL     OW10279   2.727   0.348   2.057
 3278SOL    HW110280   2.786   0.411   2.008
 3278SOL    HW210281   2.746   0.254   2.028
 3279SOL     OW10282   3.581   0.585   3.693
 3279SOL    HW110283   3.555   0.674   3.657
 3279SOL    HW210284   3.579   0.517   3.620
 3280SOL     OW10285   3.224   1.144   2.407
 3280SOL    HW110286   3.307   1.115   2.359
 3280SOL    HW210287   3.175   1.211   2.351
 3281SOL     OW10288   2.412   0.196   2.747
 3281SOL    HW110289   2.407   0.191   2.847
 3281SOL    HW210290   2.414   0.292   2.718
 3282SOL     OW10291   2.870   1.456   2.339
 3282SOL    HW110292   2.824   1.528   2.287
 3282SOL    HW210293   2.866   1.476   2.437
 3283SOL     OW10294   2.213   1.801   2.715
 3283SOL    HW110295   2.263   1.715   2.721
 3283SOL    HW210296   2.278   1.878   2.712
 3284SOL     OW10297   3.657   1.066   2.735
 3284SOL    HW110298   3.595   1.051   2.659
 3284SOL    HW210299   3.605   1.077   2.820
 3285SOL     OW10300   3.089   1.550   3.368
 3285SOL    HW110301   3.095   1.473   3.432
 3285SOL    HW210302   3.037   1.524   3.288
 3286SOL     OW10303   2.183   0.943   2.104
 3286SOL    HW110304   2.265   0.982   2.062
 3286SOL    HW210305   2.156   0.861   2.055
 3287SOL     OW10306   3.320   0.735   2.590
 3287SOL    HW110307   3.315   0.670   2.665
 3287SOL    HW210308   3.400   0.794   2.603
 3288SOL     OW10309   2.323   1.266   3.589
 3288SOL    HW110310   2.273   1.267   3.503
 3288SOL    HW210311   2.260   1.248   3.665
 3289SOL     OW10312   2.973   1.776   2.099
 3289SOL    HW110313   2.913   1.714   2.149
 3289SOL    HW210314   3.004   1.732   2.014
 3290SOL     OW10315   2.064   0.285   3.360
 3290SOL    HW110316   1.984   0.345   3.347
 3290SOL    HW210317   2.054   0.236   3.446
 3291SOL     OW10318   3.494   1.377   1.943
 3291SOL    HW110319   3.462   1.471   1.933
 3291SOL    HW210320   3.418   1.314   1.931
 3292SOL     OW10321   2.326   1.743   2.185
 3292SOL    HW110322   2.359   1.782   2.271
 3292SOL    HW210323   2.402   1.736   2.120
 3293SOL     OW10324   3.262   0.107   2.288
 3293SOL    HW110325   3.238   0.070   2.198
 3293SOL    HW210326   3.361   0.123   2.292
 3294SOL     OW10327   2.111   1.785   3.103
 3294SOL    HW110328   2.168   1.720   3.153
 3294SOL    HW210329   2.095   1.752   3.010
 3295SOL     OW10330   2.802   1.698   2.766
 3295SOL    HW110331   2.882   1.641   2.787
 3295SOL    HW210332   2.753   1.658   2.689
 3296SOL     OW10333   2.244   0.700   2.342
 3296SOL    HW110334   2.289   0.610   2.339
 3296SOL    HW210335   2.150   0.689   2.375
 3297SOL     OW10336   3.409   0.222   3.591
 3297SOL    HW110337   3.404   0.259   3.683
 3297SOL    HW210338   3.337   0.153   3.579
 3298SOL     OW10339   2.476   0.122   1.979
 3298SOL    HW110340   2.574   0.100   1.986
 3298SOL    HW210341   2.445   0.105   1.886
 3299SOL     OW10342   2.643   0.264   3.611
 3299SOL    HW110343   2.710   0.203   3.654
 3299SOL    HW210344   2.570   0.283   3.676
 3300SOL     OW10345   2.750   1.514   3.057
 3300SOL    HW110346   2.727   1.489   2.963
 3300SOL    HW210347   2.811   1.445   3.096
 3301SOL     OW10348   3.213   0.590   3.295
 3301SOL    HW110349   3.241   0.547   3.380
 3301SOL    HW210350   3.238   0.686   3.296
 3302SOL     OW10351   2.665   1.402   2.786
 3302SOL    HW110352   2.755   1.416   2.744
 3302SOL    HW210353   2.594   1.404   2.715
 3303SOL     OW10354   2.784   0.503   2.761
 3303SOL    HW110355   2.759   0.494   2.665
 3303SOL    HW210356   2.832   0.421   2.792
 3304SOL     OW10357   2.401   0.064   2.374
 3304SOL    HW110358   2.320   0.065   2.432
 3304SOL    HW210359   2.404   0.147   2.319
 3305SOL     OW10360   3.296   1.188   1.903
 3305SOL    HW110361   3.328   1.112   1.960
 3305SOL    HW210362   3.204   1.215   1.933
 3306SOL     OW10363   2.159   0.035   2.033
 3306SOL    HW110364   2.208   0.119   2.012
 3306SOL    HW210365   2.221  -0.030   2.078
 3307SOL     OW10366   2.797   0.236   2.342
 3307SOL    HW110367   2.749   0.277   2.264
 3307SOL    HW210368   2.896   0.234   2.323
 3308SOL     OW10369   2.938   0.683   3.326
 3308SOL    HW110370   2.858   0.622   3.329
 3308SOL    HW210371   3.019   0.630   3.302
 3309SOL     OW10372   3.089   1.570   2.655
 3309SOL    HW110373   3.110   1.644   2.590
 3309SOL    HW210374   3.157   1.570   2.728
 3310SOL     OW10375   2.321   1.152   2.603
 3310SOL    HW110376   2.250   1.125   2.668
 3310SOL    HW210377   2.295   1.124   2.510
 3311SOL     OW10378   3.133   1.797   2.453
 3311SOL    HW110379   3.177   1.861   2.389
 3311SOL    HW210380   3.083   1.849   2.523
 3312SOL     OW10381   2.894   0.549   1.878
 3312SOL    HW110382   2.853   0.631   1.839
 3312SOL    HW210383   2.958   0.575   1.951
 3313SOL     OW10384   1.940   0.556   3.248
 3313SOL    HW110385   2.032   0.555   3.207
 3313SOL    HW210386   1.934   0.630   3.315
 3314SOL     OW10387   2.423   0.222   3.009
 3314SOL    HW110388   2.461   0.138   3.046
 3314SOL    HW210389   2.335   0.241   3.053
 3315SOL     OW10390   2.728   0.454   2.504
 3315SOL    HW110391   2.696   0.526   2.442
 3315SOL    HW210392   2.752   0.373   2.451
 3316SOL     OW10393   2.879   0.039   2.615
 3316SOL    HW110394   2.807   0.044   2.546
 3316SOL    HW210395   2.855  -0.030   2.684
 3317SOL     OW10396   3.291   1.173   2.729
 3317SOL    HW110397   3.236   1.089   2.722
 3317SOL    HW210398   3.317   1.202   2.637
 3318SOL     OW10399   3.328   0.590   2.854
 3318SOL    HW110400   3.298   0.495   2.861
 3318SOL    HW210401   3.401   0.606   2.920
 3319SOL     OW10402   3.719   0.833   2.239
 3319SOL    HW110403   3.761   0.769   2.303
 3319SOL    HW210404   3.681   0.782   2.161
 3320SOL     OW10405   2.350   1.385   2.036
 3320SOL    HW110406   2.263   1.370   2.083
 3320SOL    HW210407   2.333   1.411   1.941
 3321SOL     OW10408   3.526   1.280   2.519
 3321SOL    HW110409   3.625   1.288   2.533
 3321SOL    HW210410   3.481   1.364   2.550
 3322SOL     OW10411   3.252   0.575   1.940
 3322SOL    HW110412   3.198   0.554   2.021
 3322SOL    HW210413   3.343   0.534   1.949
 3323SOL     OW10414   2.389   0.256   2.190
 3323SOL    HW110415   2.416   0.197   2.115
 3323SOL    HW210416   2.389   0.351   2.159
 3324SOL     OW10417   3.616   1.223   3.450
 3324SOL    HW110418   3.707   1.184   3.437
 3324SOL    HW210419   3.624   1.319   3.474
 3325SOL     OW10420   2.926   1.347   3.202
 3325SOL    HW110421   2.846   1.324   3.257
 3325SOL    HW210422   3.009   1.321   3.251
 3326SOL     OW10423   3.454   1.629   3.487
 3326SOL    HW110424   3.481   1.663   3.397
 3326SOL    HW210425   3.533   1.591   3.533
 3327SOL     OW10426   2.973   1.195   2.962
 3327SOL    HW110427   2.933   1.239   3.043
 3327SOL    HW210428   2.932   1.232   2.879
 3328SOL     OW10429   3.500   1.099   2.941
 3328SOL    HW110430   3.505   1.180   3.000
 3328SOL    HW210431   3.414   1.101   2.890
 3329SOL     OW10432   2.777   0.089   3.264
 3329SOL    HW110433   2.802   0.069   3.169
 3329SOL    HW210434   2.849   0.145   3.306
 3330SOL     OW10435   2.842   1.116   3.581
 3330SOL    HW110436   2.743   1.122   3.591
 3330SOL    HW210437   2.865   1.036   3.525
 3331SOL     OW10438   2.567   1.050   2.230
 3331SOL    HW110439   2.553   1.057   2.329
 3331SOL    HW210440   2.651   0.999   2.212
 3332SOL     OW10441   2.272   0.813   3.113
 3332SOL    HW110442   2.358   0.825   3.163
 3332SOL    HW210443   2.230   0.726   3.140
 3333SOL     OW10444   3.136   0.386   3.124
 3333SOL    HW110445   3.157   0.460   3.188
 3333SOL    HW210446   3.047   0.403   3.081
 3334SOL     OW10447   1.926   1.564   3.193
 3334SOL    HW110448   1.880   1.646   3.159
 3334SOL    HW210449   2.024   1.583   3.202
 3335SOL     OW10450   2.229   1.100   2.363
 3335SOL    HW110451   2.222   1.183   2.307
 3335SOL    HW210452   2.233   1.020   2.303
 3336SOL     OW10453   2.428   0.537   2.727
 3336SOL    HW110454   2.440   0.603   2.653
 3336SOL    HW210455   2.474   0.571   2.810
 3337SOL     OW10456   3.114   1.348   2.250
 3337SOL    HW110457   3.164   1.425   2.290
 3337SOL    HW210458   3.019   1.350   2.282
 3338SOL     OW10459   3.134   1.445   3.004
 3338SOL    HW110460   3.181   1.458   3.091
 3338SOL    HW210461   3.068   1.371   3.013
 3339SOL     OW10462   3.444   0.639   2.334
 3339SOL    HW110463   3.413   0.700   2.407
 3339SOL    HW210464   3.494   0.691   2.265
 3340SOL     OW10465   2.216   1.510   3.191
 3340SOL    HW110466   2.195   1.466   3.104
 3340SOL    HW210467   2.313   1.536   3.194
 3341SOL     OW10468   2.264   0.751   3.460
 3341SOL    HW110469   2.332   0.806   3.413
 3341SOL    HW210470   2.304   0.663   3.487
 3342SOL     OW10471   3.449   0.779   3.532
 3342SOL    HW110472   3.357   0.817   3.527
 3342SOL    HW210473   3.509   0.826   3.467
 3343SOL     OW10474   2.875   0.105   3.632
 3343SOL    HW110475   2.881   0.190   3.580
 3343SOL    HW210476   2.907   0.029   3.575
 3344SOL     OW10477   2.366   0.050   3.602
 3344SOL    HW110478   2.324  -0.007   3.532
 3344SOL    HW210479   2.300   0.119   3.634
 3345SOL     OW10480   2.435   0.870   2.891
 3345SOL    HW110481   2.479   0.959   2.882
 3345SOL    HW210482   2.372   0.870   2.968
 3346SOL     OW10483   3.222   0.862   2.907
 3346SOL    HW110484   3.147   0.862   2.841
 3346SOL    HW210485   3.259   0.770   2.916
 3347SOL     OW10486   3.071   0.525   2.137
 3347SOL    HW110487   3.084   0.441   2.191
 3347SOL    HW210488   3.042   0.599   2.197
 3348SOL     OW10489   2.169   0.213   3.093
 3348SOL    HW110490   2.146   0.250   3.183
 3348SOL    HW210491   2.139   0.118   3.087
 3349SOL     OW10492   1.899   1.310   3.144
 3349SOL    HW110493   1.952   1.261   3.212
 3349SOL    HW210494   1.921   1.408   3.149
 3350SOL     OW10495   2.594   0.634   2.926
 3350SOL    HW110496   2.653   0.608   2.850
 3350SOL    HW210497   2.566   0.730   2.915
 3351SOL     OW10498   3.590   0.935   3.716
 3351SOL    HW110499   3.544   0.928   3.627
 3351SOL    HW210500   3.528   0.979   3.782
 3352SOL     OW10501   2.169   0.063   2.480
 3352SOL    HW110502   2.158   0.157   2.513
 3352SOL    HW210503   2.164   0.000   2.557
 3353SOL     OW10504   3.484   0.367   2.236
 3353SOL    HW110505   3.486   0.291   2.300
 3353SOL    HW210506   3.436   0.444   2.276
 3354SOL     OW10507   2.885   0.766   2.828
 3354SOL    HW110508   2.900   0.787   2.924
 3354SOL    HW210509   2.855   0.671   2.819
 3355SOL     OW10510   2.842   1.573   3.562
 3355SOL    HW110511   2.822   1.617   3.474
 3355SOL    HW210512   2.881   1.482   3.546
 3356SOL     OW10513   3.721   1.518   3.467
 3356SOL    HW110514   3.735   1.545   3.372
 3356SOL    HW210515   3.804   1.540   3.520
 3357SOL     OW10516   2.212   0.898   3.666
 3357SOL    HW110517   2.288   0.942   3.714
 3357SOL    HW210518   2.247   0.851   3.584
 3358SOL     OW10519   3.402   0.274   1.987
 3358SOL    HW110520   3.341   0.199   2.010
 3358SOL    HW210521   3.424   0.326   2.070
 3359SOL     OW10522   3.165   0.838   1.904
 3359SOL    HW110523   3.199   0.745   1.919
 3359SOL    HW210524   3.183   0.865   1.809
 3360SOL     OW10525   2.930   1.333   2.711
 3360SOL    HW110526   2.937   1.249   2.656
 3360SOL    HW210527   2.992   1.402   2.675
 3361SOL     OW10528   2.181   0.810   2.811
 3361SOL    HW110529   2.274   0.846   2.816
 3361SOL    HW210530   2.175   0.725   2.863
 3362SOL     OW10531   2.201   0.509   2.868
 3362SOL    HW110532   2.149   0.426   2.851
 3362SOL    HW210533   2.278   0.514   2.804
 3363SOL     OW10534   3.000   0.380   3.540
 3363SOL    HW110535   2.955   0.443   3.604
 3363SOL    HW210536   3.093   0.411   3.523
 3364SOL     OW10537   3.022   0.207   3.339
 3364SOL    HW110538   3.022   0.271   3.416
 3364SOL    HW210539   3.050   0.255   3.256
 3365SOL     OW10540   1.870   1.326   2.062
 3365SOL    HW110541   1.777   1.347   2.031
 3365SOL    HW210542   1.880   1.227   2.075
 3366SOL     OW10543   1.950   1.801   2.789
 3366SOL    HW110544   1.908   1.715   2.762
 3366SOL    HW210545   2.044   1.804   2.755
 3367SOL     OW10546   2.366   1.568   2.772
 3367SOL    HW110547   2.432   1.642   2.781
 3367SOL    HW210548   2.410   1.489   2.730
 3368SOL     OW10549   2.864   0.796   3.100
 3368SOL    HW110550   2.905   0.764   3.186
 3368SOL    HW210551   2.768   0.769   3.097
 3369SOL     OW10552   1.902   0.544   2.976
 3369SOL    HW110553   1.987   0.511   2.935
 3369SOL    HW210554   1.915   0.559   3.074
 3370SOL     OW10555   2.051   0.520   3.584
 3370SOL    HW110556   2.110   0.480   3.514
 3370SOL    HW210557   1.993   0.591   3.543
 3371SOL     OW10558   3.231   0.950   3.522
 3371SOL    HW110559   3.270   1.039   3.542
 3371SOL    HW210560   3.241   0.930   3.425
 3372SOL     OW10561   2.677   0.572   2.187
 3372SOL    HW110562   2.684   0.483   2.141
 3372SOL    HW210563   2.583   0.606   2.179
 3373SOL     OW10564   3.519   0.604   3.068
 3373SOL    HW110565   3.481   0.535   3.130
 3373SOL    HW210566   3.601   0.568   3.024
 3374SOL     OW10567   2.114   1.564   3.606
 3374SOL    HW110568   2.084   1.621   3.682
 3374SOL    HW210569   2.107   1.467   3.632
 3375SOL     OW10570   2.533   0.464   3.131
 3375SOL    HW110571   2.499   0.375   3.101
 3375SOL    HW210572   2.559   0.518   3.051
 3376SOL     OW10573   2.792   1.678   3.327
 3376SOL    HW110574   2.768   1.660   3.232
 3376SOL    HW210575   2.822   1.772   3.337
 3377SOL     OW10576   2.335   0.500   2.053
 3377SOL    HW110577   2.396   0.580   2.057
 3377SOL    HW210578   2.240   0.531   2.060
 3378SOL     OW10579   2.021   1.137   3.328
 3378SOL    HW110580   2.043   1.076   3.404
 3378SOL    HW210581   2.031   1.088   3.242
 3379SOL     OW10582   3.209   1.059   3.096
 3379SOL    HW110583   3.233   0.996   3.022
 3379SOL    HW210584   3.119   1.099   3.078
 3380SOL     OW10585   3.164   0.855   2.171
 3380SOL    HW110586   3.078   0.824   2.213
 3380SOL    HW210587   3.160   0.841   2.072
 3381SOL     OW10588   3.621   1.747   3.016
 3381SOL    HW110589   3.682   1.777   2.943
 3381SOL    HW210590   3.583   1.658   2.994
 3382SOL     OW10591   3.114   1.731   2.990
 3382SOL    HW110592   3.198   1.736   2.936
 3382SOL    HW210593   3.091   1.635   3.008
 3383SOL     OW10594   1.945   1.258   2.884
 3383SOL    HW110595   1.940   1.257   2.984
 3383SOL    HW210596   1.862   1.217   2.846
 3384SOL     OW10597   2.550   1.662   3.578
 3384SOL    HW110598   2.494   1.743   3.587
 3384SOL    HW210599   2.602   1.666   3.492
 3385SOL     OW10600   3.588   0.135   2.385
 3385SOL    HW110601   3.661   0.118   2.318
 3385SOL    HW210602   3.557   0.048   2.423
 3386SOL     OW10603   3.250   1.573   2.339
 3386SOL    HW110604   3.317   1.585   2.265
 3386SOL    HW210605   3.210   1.662   2.362
 3387SOL     OW10606   1.992   1.794   3.713
 3387SOL    HW110607   1.951   1.720   3.766
 3387SOL    HW210608   2.056   1.845   3.771
 3388SOL     OW10609   3.142   0.927   2.534
 3388SOL    HW110610   3.202   0.846   2.536
 3388SOL    HW210611   3.182   0.996   2.474
 3389SOL     OW10612   2.692   1.273   3.284
 3389SOL    HW110613   2.687   1.306   3.379
 3389SOL    HW210614   2.606   1.292   3.238
 3390SOL     OW10615   2.534   1.616   2.016
 3390SOL    HW110616   2.543   1.626   1.917
 3390SOL    HW210617   2.494   1.527   2.037
 3391SOL     OW10618   3.512   1.720   3.256
 3391SOL    HW110619   3.565   1.730   3.172
 3391SOL    HW210620   3.485   1.810   3.290
 3392SOL     OW10621   3.703   0.175   2.825
 3392SOL    HW110622   3.742   0.090   2.789
 3392SOL    HW210623   3.605   0.177   2.806
 3393SOL     OW10624   2.125   0.326   2.582
 3393SOL    HW110625   2.046   0.377   2.548
 3393SOL    HW210626   2.116   0.311   2.680
 3394SOL     OW10627   3.056   1.612   1.893
 3394SOL    HW110628   3.062   1.519   1.930
 3394SOL    HW210629   2.997   1.612   1.813
 3395SOL     OW10630   2.684   1.002   3.234
 3395SOL    HW110631   2.724   1.001   3.142
 3395SOL    HW210632   2.694   1.094   3.274
 3396SOL     OW10633   2.778   0.910   2.153
 3396SOL    HW110634   2.841   0.948   2.085
 3396SOL    HW210635   2.818   0.827   2.192
 3397SOL     OW10636   3.366   1.607   1.906
 3397SOL    HW110637   3.274   1.644   1.913
 3397SOL    HW210638   3.404   1.627   1.816
 3398SOL     OW10639   2.234   1.288   3.352
 3398SOL    HW110640   2.221   1.381   3.318
 3398SOL    HW210641   2.150   1.236   3.339
 3399SOL     OW10642   3.476   1.292   3.151
 3399SOL    HW110643   3.536   1.295   3.231
 3399SOL    HW210644   3.401   1.356   3.164
 3400SOL     OW10645   2.901   1.098   2.558
 3400SOL    HW110646   2.831   1.051   2.612
 3400SOL    HW210647   2.960   1.030   2.515
 3401SOL     OW10648   2.876   0.236   2.833
 3401SOL    HW110649   2.868   0.200   2.740
 3401SOL    HW210650   2.874   0.160   2.898
 3402SOL     OW10651   2.452   1.487   2.353
 3402SOL    HW110652   2.494   1.429   2.283
 3402SOL    HW210653   2.408   1.566   2.309
 3403SOL     OW10654   3.571   0.385   3.243
 3403SOL    HW110655   3.644   0.454   3.247
 3403SOL    HW210656   3.599   0.310   3.184
 3404SOL     OW10657   2.117   1.348   2.152
 3404SOL    HW110658   2.021   1.349   2.125
 3404SOL    HW210659   2.129   1.401   2.236
 3405SOL     OW10660   1.967   1.013   3.588
 3405SOL    HW110661   1.890   0.980   3.642
 3405SOL    HW210662   2.052   0.983   3.630
 3406SOL     OW10663   2.534   0.203   3.351
 3406SOL    HW110664   2.624   0.187   3.311
 3406SOL    HW210665   2.542   0.208   3.450
 3407SOL     OW10666   1.937   0.345   1.895
 3407SOL    HW110667   1.845   0.317   1.866
 3407SOL    HW210668   1.968   0.422   1.839
 3408SOL     OW10669   3.302   0.856   3.260
 3408SOL    HW110670   3.245   0.908   3.197
 3408SOL    HW210671   3.398   0.868   3.236
 3409SOL     OW10672   1.934   0.166   2.180
 3409SOL    HW110673   1.917   0.249   2.126
 3409SOL    HW210674   2.024   0.129   2.158
 3410SOL     OW10675   3.045   1.335   1.981
 3410SOL    HW110676   2.946   1.324   1.983
 3410SOL    HW210677   3.079   1.350   2.074
 3411SOL     OW10678   2.475   0.842   3.293
 3411SOL    HW110679   2.531   0.923   3.276
 3411SOL    HW210680   2.534   0.762   3.296
 3412SOL     OW10681   3.355   1.767   2.821
 3412SOL    HW110682   3.388   1.831   2.752
 3412SOL    HW210683   3.421   1.761   2.896
 3413SOL     OW10684   2.578   0.565   3.570
 3413SOL    HW110685   2.597   0.630   3.644
 3413SOL    HW210686   2.638   0.485   3.579
 3414SOL     OW10687   3.312   1.220   3.495
 3414SOL    HW110688   3.303   1.210   3.594
 3414SOL    HW210689   3.408   1.213   3.469
 3415SOL     OW10690   2.252   1.741   3.422
 3415SOL    HW110691   2.161   1.782   3.420
 3415SOL    HW210692   2.245   1.647   3.454
 3416SOL     OW10693   3.536   0.883   3.116
 3416SOL    HW110694   3.509   0.794   3.079
 3416SOL    HW210695   3.537   0.951   3.043
 3417SOL     OW10696   3.087   0.325   2.311
 3417SOL    HW110697   3.152   0.251   2.300
 3417SOL    HW210698   3.107   0.375   2.395
 3418SOL     OW10699   2.456   0.745   2.514
 3418SOL    HW110700   2.506   0.830   2.495
 3418SOL    HW210701   2.368   0.747   2.466
 3419SOL     OW10702   3.639   0.342   3.504
 3419SOL    HW110703   3.622   0.373   3.410
 3419SOL    HW210704   3.555   0.305   3.542
 3420SOL     OW10705   3.592   0.934   3.379
 3420SOL    HW110706   3.630   1.025   3.394
 3420SOL    HW210707   3.584   0.917   3.280
 3421SOL     OW10708   2.721   1.374   1.878
 3421SOL    HW110709   2.675   1.389   1.966
 3421SOL    HW210710   2.765   1.459   1.848
 3422SOL     OW10711   2.523   1.790   2.815
 3422SOL    HW110712   2.477   1.878   2.802
 3422SOL    HW210713   2.622   1.802   2.808
 3423SOL     OW10714   2.721   0.956   2.723
 3423SOL    HW110715   2.775   0.887   2.771
 3423SOL    HW210716   2.689   1.025   2.789
 3424SOL     OW10717   2.945   0.984   1.949
 3424SOL    HW110718   2.922   1.037   1.867
 3424SOL    HW210719   3.026   0.928   1.930
 3425SOL     OW10720   3.723   1.569   2.713
 3425SOL    HW110721   3.652   1.557   2.643
 3425SOL    HW210722   3.724   1.490   2.773
 3426SOL     OW10723   2.083   1.314   3.706
 3426SOL    HW110724   2.018   1.241   3.685
 3426SOL    HW210725   2.087   1.328   3.804
 3427SOL     OW10726   1.941   1.240   2.515
 3427SOL    HW110727   1.940   1.193   2.603
 3427SOL    HW210728   2.023   1.212   2.464
 3428SOL     OW10729   2.534   1.391   3.486
 3428SOL    HW110730   2.456   1.341   3.524
 3428SOL    HW210731   2.531   1.486   3.517
 3429SOL     OW10732   3.686   0.192   3.089
 3429SOL    HW110733   3.682   0.102   3.133
 3429SOL    HW210734   3.689   0.181   2.990
 3430SOL     OW10735   2.290   0.424   2.382
 3430SOL    HW110736   2.320   0.352   2.320
 3430SOL    HW210737   2.251   0.384   2.465
 3431SOL     OW10738   3.567   1.487   2.966
 3431SOL    HW110739   3.474   1.462   2.939
 3431SOL    HW210740   3.593   1.437   3.048
 3432SOL     OW10741   2.179   0.547   3.142
 3432SOL    HW110742   2.217   0.488   3.214
 3432SOL    HW210743   2.219   0.521   3.054
 3433SOL     OW10744   2.674   1.586   2.549
 3433SOL    HW110745   2.706   1.596   2.455
 3433SOL    HW210746   2.595   1.524   2.551
 3434SOL     OW10747   3.286   0.214   2.974
 3434SOL    HW110748   3.338   0.149   3.029
 3434SOL    HW210749   3.237   0.277   3.035
 3435SOL     OW10750   2.863   0.034   3.016
 3435SOL    HW110751   2.800  -0.038   2.985
 3435SOL    HW210752   2.956  -0.002   3.016
 3436SOL     OW10753   2.632   1.330   2.163
 3436SOL    HW110754   2.586   1.243   2.180
 3436SOL    HW210755   2.723   1.327   2.204
 3437SOL     OW10756   2.480   1.567   3.146
 3437SOL    HW110757   2.475   1.649   3.203
 3437SOL    HW210758   2.569   1.564   3.101
 3438SOL     OW10759   3.214   0.052   2.030
 3438SOL    HW110760   3.249   0.011   1.946
 3438SOL    HW210761   3.124   0.014   2.050
 3439SOL     OW10762   3.162   0.453   2.553
 3439SOL    HW110763   3.103   0.533   2.557
 3439SOL    HW210764   3.177   0.418   2.646
 3440SOL     OW10765   3.455   0.221   2.744
 3440SOL    HW110766   3.371   0.220   2.798
 3440SOL    HW210767   3.457   0.304   2.688
 3441SOL     OW10768   1.901   1.077   2.162
 3441SOL    HW110769   2.000   1.066   2.153
 3441SOL    HW210770   1.861   0.991   2.194
 3442SOL     OW10771   2.737   1.646   2.199
 3442SOL    HW110772   2.660   1.611   2.145
 3442SOL    HW210773   2.705   1.717   2.261
 3443SOL     OW10774   2.092   0.628   3.837
 3443SOL    HW110775   1.999   0.626   3.874
 3443SOL    HW210776   2.093   0.589   3.745
 3444SOL     OW10777   2.087   0.275   4.720
 3444SOL    HW110778   2.122   0.258   4.812
 3444SOL    HW210779   1.999   0.230   4.708
 3445SOL     OW10780   1.881   0.368   4.371
 3445SOL    HW110781   1.799   0.411   4.410
 3445SOL    HW210782   1.853   0.295   4.308
 3446SOL     OW10783   2.431   1.275   4.889
 3446SOL    HW110784   2.338   1.268   4.852
 3446SOL    HW210785   2.442   1.364   4.933
 3447SOL     OW10786   3.417   1.511   4.427
 3447SOL    HW110787   3.360   1.495   4.508
 3447SOL    HW210788   3.358   1.521   4.347
 3448SOL     OW10789   2.997   0.703   4.441
 3448SOL    HW110790   3.054   0.781   4.416
 3448SOL    HW210791   2.937   0.729   4.517
 3449SOL     OW10792   3.617   0.607   3.955
 3449SOL    HW110793   3.605   0.594   3.856
 3449SOL    HW210794   3.587   0.526   4.004
 3450SOL     OW10795   2.630   1.144   4.747
 3450SOL    HW110796   2.552   1.161   4.807
 3450SOL    HW210797   2.664   1.231   4.711
 3451SOL     OW10798   2.712   0.798   5.547
 3451SOL    HW110799   2.708   0.874   5.612
 3451SOL    HW210800   2.734   0.834   5.456
 3452SOL     OW10801   2.547   1.012   4.389
 3452SOL    HW110802   2.616   0.996   4.459
 3452SOL    HW210803   2.474   1.069   4.427
 3453SOL     OW10804   2.548   1.161   5.527
 3453SOL    HW110805   2.608   1.240   5.541
 3453SOL    HW210806   2.462   1.192   5.486
 3454SOL     OW10807   2.197   1.435   4.785
 3454SOL    HW110808   2.119   1.404   4.732
 3454SOL    HW210809   2.255   1.493   4.728
 3455SOL     OW10810   3.322   1.505   5.063
 3455SOL    HW110811   3.346   1.599   5.089
 3455SOL    HW210812   3.306   1.451   5.145
 3456SOL     OW10813   2.300   0.392   5.223
 3456SOL    HW110814   2.382   0.336   5.232
 3456SOL    HW210815   2.219   0.334   5.227
 3457SOL     OW10816   3.465   0.447   4.461
 3457SOL    HW110817   3.391   0.493   4.411
 3457SOL    HW210818   3.516   0.515   4.514
 3458SOL     OW10819   2.093   1.713   4.207
 3458SOL    HW110820   2.127   1.790   4.261
 3458SOL    HW210821   2.137   1.713   4.117
 3459SOL     OW10822   2.989   1.341   5.414
 3459SOL    HW110823   3.036   1.341   5.502
 3459SOL    HW210824   2.941   1.254   5.403
 3460SOL     OW10825   2.092   1.434   4.262
 3460SOL    HW110826   2.066   1.530   4.262
 3460SOL    HW210827   2.021   1.380   4.307
 3461SOL     OW10828   2.102   1.091   4.610
 3461SOL    HW110829   2.116   1.007   4.662
 3461SOL    HW210830   2.047   1.155   4.665
 3462SOL     OW10831   2.482   1.786   5.163
 3462SOL    HW110832   2.390   1.769   5.198
 3462SOL    HW210833   2.510   1.878   5.189
 3463SOL     OW10834   2.468   0.964   3.847
 3463SOL    HW110835   2.475   1.048   3.793
 3463SOL    HW210836   2.514   0.977   3.935
 3464SOL     OW10837   3.456   0.114   5.204
 3464SOL    HW110838   3.438   0.181   5.132
 3464SOL    HW210839   3.453   0.160   5.293
 3465SOL     OW10840   1.984   0.643   4.287
 3465SOL    HW110841   1.939   0.555   4.304
 3465SOL    HW210842   1.983   0.697   4.371
 3466SOL     OW10843   3.704   1.767   4.083
 3466SOL    HW110844   3.758   1.738   4.163
 3466SOL    HW210845   3.734   1.857   4.054
 3467SOL     OW10846   1.889   1.596   3.841
 3467SOL    HW110847   1.870   1.500   3.862
 3467SOL    HW210848   1.856   1.654   3.916
 3468SOL     OW10849   3.551   0.922   4.336
 3468SOL    HW110850   3.646   0.893   4.344
 3468SOL    HW210851   3.543   0.987   4.261
 3469SOL     OW10852   3.503   1.108   4.156
 3469SOL    HW110853   3.589   1.110   4.104
 3469SOL    HW210854   3.517   1.155   4.244
 3470SOL     OW10855   1.975   0.737   5.321
 3470SOL    HW110856   2.063   0.724   5.366
 3470SOL    HW210857   1.962   0.834   5.299
 3471SOL     OW10858   2.475   1.365   4.450
 3471SOL    HW110859   2.426   1.278   4.459
 3471SOL    HW210860   2.452   1.408   4.363
 3472SOL     OW10861   3.155   1.228   5.147
 3472SOL    HW110862   3.192   1.155   5.089
 3472SOL    HW210863   3.207   1.233   5.232
 3473SOL     OW10864   2.671   0.004   4.226
 3473SOL    HW110865   2.711   0.095   4.217
 3473SOL    HW210866   2.571   0.012   4.232
 3474SOL     OW10867   2.059   0.976   4.988
 3474SOL    HW110868   2.148   0.931   4.974
 3474SOL    HW210869   1.986   0.911   4.969
 3475SOL     OW10870   3.387   0.999   3.914
 3475SOL    HW110871   3.324   0.923   3.927
 3475SOL    HW210872   3.435   1.017   4.000
 3476SOL     OW10873   2.179   0.251   5.525
 3476SOL    HW110874   2.250   0.322   5.531
 3476SOL    HW210875   2.091   0.290   5.553
 3477SOL     OW10876   3.328   1.417   4.677
 3477SOL    HW110877   3.269   1.423   4.757
 3477SOL    HW210878   3.313   1.329   4.631
 3478SOL     OW10879   3.529   1.714   4.296
 3478SOL    HW110880   3.488   1.691   4.208
 3478SOL    HW210881   3.511   1.640   4.361
 3479SOL     OW10882   2.460   0.729   3.994
 3479SOL    HW110883   2.484   0.798   3.926
 3479SOL    HW210884   2.382   0.762   4.048
 3480SOL     OW10885   3.143   0.345   4.668
 3480SOL    HW110886   3.057   0.295   4.655
 3480SOL    HW210887   3.205   0.291   4.724
 3481SOL     OW10888   3.438   1.662   4.031
 3481SOL    HW110889   3.527   1.708   4.034
 3481SOL    HW210890   3.417   1.638   3.936
 3482SOL     OW10891   2.669   0.605   5.189
 3482SOL    HW110892   2.622   0.602   5.278
 3482SOL    HW210893   2.618   0.550   5.123
 3483SOL     OW10894   3.256   0.469   5.398
 3483SOL    HW110895   3.236   0.512   5.486
 3483SOL    HW210896   3.334   0.407   5.407
 3484SOL     OW10897   2.835   0.890   5.296
 3484SOL    HW110898   2.881   0.806   5.267
 3484SOL    HW210899   2.779   0.924   5.221
 3485SOL     OW10900   2.853   0.410   4.966
 3485SOL    HW110901   2.776   0.444   5.020
 3485SOL    HW210902   2.819   0.359   4.887
 3486SOL     OW10903   2.903   0.701   4.153
 3486SOL    HW110904   2.929   0.697   4.249
 3486SOL    HW210905   2.818   0.650   4.139
 3487SOL     OW10906   1.938   0.811   4.513
 3487SOL    HW110907   2.037   0.799   4.522
 3487SOL    HW210908   1.914   0.906   4.534
 3488SOL     OW10909   2.727   0.348   3.919
 3488SOL    HW110910   2.786   0.411   3.870
 3488SOL    HW210911   2.746   0.254   3.890
 3489SOL     OW10912   3.581   0.585   5.555
 3489SOL    HW110913   3.555   0.674   5.519
 3489SOL    HW210914   3.579   0.517   5.482
 3490SOL     OW10915   3.224   1.144   4.269
 3490SOL    HW110916   3.307   1.115   4.221
 3490SOL    HW210917   3.175   1.211   4.213
 3491SOL     OW10918   2.412   0.196   4.609
 3491SOL    HW110919   2.407   0.191   4.709
 3491SOL    HW210920   2.414   0.292   4.580
 3492SOL     OW10921   2.870   1.456   4.201
 3492SOL    HW110922   2.824   1.528   4.149
 3492SOL    HW210923   2.866   1.476   4.299
 3493SOL     OW10924   2.213   1.801   4.577
 3493SOL    HW110925   2.263   1.715   4.583
 3493SOL    HW210926   2.278   1.878   4.574
 3494SOL     OW10927   3.657   1.066   4.597
 3494SOL    HW110928   3.595   1.051   4.521
 3494SOL    HW210929   3.605   1.077   4.682
 3495SOL     OW10930   3.089   1.550   5.230
 3495SOL    HW110931   3.095   1.473   5.294
 3495SOL    HW210932   3.037   1.524   5.150
 3496SOL     OW10933   2.183   0.943   3.966
 3496SOL    HW110934   2.265   0.982   3.924
 3496SOL    HW210935   2.156   0.861   3.917
 3497SOL     OW10936   3.320   0.735   4.452
 3497SOL    HW110937   3.315   0.670   4.527
 3497SOL    HW210938   3.400   0.794   4.465
 3498SOL     OW10939   2.323   1.266   5.451
 3498SOL    HW110940   2.273   1.267   5.365
 3498SOL    HW210941   2.260   1.248   5.527
 3499SOL     OW10942   2.973   1.776   3.961
 3499SOL    HW110943   2.913   1.714   4.011
 3499SOL    HW210944   3.004   1.732   3.876
 3500SOL     OW10945   2.064   0.285   5.222
 3500SOL    HW110946   1.984   0.345   5.209
 3500SOL    HW210947   2.054   0.236   5.308
 3501SOL     OW10948   3.494   1.377   3.805
 3501SOL    HW110949   3.462   1.471   3.795
 3501SOL    HW210950   3.418   1.314   3.793
 3502SOL     OW10951   2.326   1.743   4.047
 3502SOL    HW110952   2.359   1.782   4.133
 3502SOL    HW210953   2.402   1.736   3.982
 3503SOL     OW10954   3.262   0.107   4.150
 3503SOL    HW110955   3.238   0.070   4.060
 3503SOL    HW210956   3.361   0.123   4.154
 3504SOL     OW10957   2.802   1.698   4.628
 3504SOL    HW110958   2.882   1.641   4.649
 3504SOL    HW210959   2.753   1.658   4.551
 3505SOL     OW10960   2.244   0.700   4.204
 3505SOL    HW110961   2.289   0.610   4.201
 3505SOL    HW210962   2.150   0.689   4.237
 3506SOL     OW10963   3.409   0.222   5.453
 3506SOL    HW110964   3.404   0.259   5.545
 3506SOL    HW210965   3.337   0.153   5.441
 3507SOL     OW10966   2.476   0.122   3.841
 3507SOL    HW110967   2.574   0.100   3.848
 3507SOL    HW210968   2.445   0.105   3.748
 3508SOL     OW10969   2.643   0.264   5.473
 3508SOL    HW110970   2.710   0.203   5.516
 3508SOL    HW210971   2.570   0.283   5.538
 3509SOL     OW10972   2.750   1.514   4.919
 3509SOL    HW110973   2.727   1.489   4.825
 3509SOL    HW210974   2.811   1.445   4.958
 3510SOL     OW10975   3.213   0.590   5.157
 3510SOL    HW110976   3.241   0.547   5.242
 3510SOL    HW210977   3.238   0.686   5.158
 3511SOL     OW10978   2.665   1.402   4.648
 3511SOL    HW110979   2.755   1.416   4.606
 3511SOL    HW210980   2.594   1.404   4.577
 3512SOL     OW10981   2.784   0.503   4.623
 3512SOL    HW110982   2.759   0.494   4.527
 3512SOL    HW210983   2.832   0.421   4.654
 3513SOL     OW10984   2.401   0.064   4.236
 3513SOL    HW110985   2.320   0.065   4.294
 3513SOL    HW210986   2.404   0.147   4.181
 3514SOL     OW10987   3.296   1.188   3.765
 3514SOL    HW110988   3.328   1.112   3.822
 3514SOL    HW210989   3.204   1.215   3.795
 3515SOL     OW10990   2.159   0.035   3.895
 3515SOL    HW110991   2.208   0.119   3.874
 3515SOL    HW210992   2.221  -0.030   3.940
 3516SOL     OW10993   2.797   0.236   4.204
 3516SOL    HW110994   2.749   0.277   4.126
 3516SOL    HW210995   2.896   0.234   4.185
 3517SOL     OW10996   2.938   0.683   5.188
 3517SOL    HW110997   2.858   0.622   5.191
 3517SOL    HW210998   3.019   0.630   5.164
 3518SOL     OW10999   3.089   1.570   4.517
 3518SOL    HW111000   3.110   1.644   4.452
 3518SOL    HW211001   3.157   1.570   4.590
 3519SOL     OW11002   2.321   1.152   4.465
 3519SOL    HW111003   2.250   1.125   4.530
 3519SOL    HW211004   2.295   1.124   4.372
 3520SOL     OW11005   3.133   1.797   4.315
 3520SOL    HW111006   3.177   1.861   4.251
 3520SOL    HW211007   3.083   1.849   4.385
 3521SOL     OW11008   2.894   0.549   3.740
 3521SOL    HW111009   2.853   0.631   3.701
 3521SOL    HW211010   2.958   0.575   3.813
 3522SOL     OW11011   1.940   0.556   5.110
 3522SOL    HW111012   2.032   0.555   5.069
 3522SOL    HW211013   1.934   0.630   5.177
 3523SOL     OW11014   2.423   0.222   4.871
 3523SOL    HW111015   2.461   0.138   4.908
 3523SOL    HW211016   2.335   0.241   4.915
 3524SOL     OW11017   2.728   0.454   4.366
 3524SOL    HW111018   2.696   0.526   4.304
 3524SOL    HW211019   2.752   0.373   4.313
 3525SOL     OW11020   2.879   0.039   4.477
 3525SOL    HW111021   2.807   0.044   4.408
 3525SOL    HW211022   2.855  -0.030   4.546
 3526SOL     OW11023   3.291   1.173   4.591
 3526SOL    HW111024   3.236   1.089   4.584
 3526SOL    HW211025   3.317   1.202   4.499
 3527SOL     OW11026   3.328   0.590   4.716
 3527SOL    HW111027   3.298   0.495   4.723
 3527SOL    HW211028   3.401   0.606   4.782
 3528SOL     OW11029   3.719   0.833   4.101
 3528SOL    HW111030   3.761   0.769   4.165
 3528SOL    HW211031   3.681   0.782   4.023
 3529SOL     OW11032   2.350   1.385   3.898
 3529SOL    HW111033   2.263   1.370   3.945
 3529SOL    HW211034   2.333   1.411   3.803
 3530SOL     OW11035   3.526   1.280   4.381
 3530SOL    HW111036   3.625   1.288   4.395
 3530SOL    HW211037   3.481   1.364   4.412
 3531SOL     OW11038   3.252   0.575   3.802
 3531SOL    HW111039   3.198   0.554   3.883
 3531SOL    HW211040   3.343   0.534   3.811
 3532SOL     OW11041   2.389   0.256   4.052
 3532SOL    HW111042   2.416   0.197   3.977
 3532SOL    HW211043   2.389   0.351   4.021
 3533SOL     OW11044   3.616   1.223   5.312
 3533SOL    HW111045   3.707   1.184   5.299
 3533SOL    HW211046   3.624   1.319   5.336
 3534SOL     OW11047   2.926   1.347   5.064
 3534SOL    HW111048   2.846   1.324   5.119
 3534SOL    HW211049   3.009   1.321   5.113
 3535SOL     OW11050   3.454   1.629   5.349
 3535SOL    HW111051   3.481   1.663   5.259
 3535SOL    HW211052   3.533   1.591   5.395
 3536SOL     OW11053   2.973   1.195   4.824
 3536SOL    HW111054   2.933   1.239   4.905
 3536SOL    HW211055   2.932   1.232   4.741
 3537SOL     OW11056   3.500   1.099   4.803
 3537SOL    HW111057   3.505   1.180   4.862
 3537SOL    HW211058   3.414   1.101   4.752
 3538SOL     OW11059   2.777   0.089   5.126
 3538SOL    HW111060   2.802   0.069   5.031
 3538SOL    HW211061   2.849   0.145   5.168
 3539SOL     OW11062   2.842   1.116   5.443
 3539SOL    HW111063   2.743   1.122   5.453
 3539SOL    HW211064   2.865   1.036   5.387
 3540SOL     OW11065   2.567   1.050   4.092
 3540SOL    HW111066   2.553   1.057   4.191
 3540SOL    HW211067   2.651   0.999   4.074
 3541SOL     OW11068   2.272   0.813   4.975
 3541SOL    HW111069   2.358   0.825   5.025
 3541SOL    HW211070   2.230   0.726   5.002
 3542SOL     OW11071   3.136   0.386   4.986
 3542SOL    HW111072   3.157   0.460   5.050
 3542SOL    HW211073   3.047   0.403   4.943
 3543SOL     OW11074   1.926   1.564   5.055
 3543SOL    HW111075   1.880   1.646   5.021
 3543SOL    HW211076   2.024   1.583   5.064
 3544SOL     OW11077   2.229   1.100   4.225
 3544SOL    HW111078   2.222   1.183   4.169
 3544SOL    HW211079   2.233   1.020   4.165
 3545SOL     OW11080   2.428   0.537   4.589
 3545SOL    HW111081   2.440   0.603   4.515
 3545SOL    HW211082   2.474   0.571   4.672
 3546SOL     OW11083   3.114   1.348   4.112
 3546SOL    HW111084   3.164   1.425   4.152
 3546SOL    HW211085   3.019   1.350   4.144
 3547SOL     OW11086   3.134   1.445   4.866
 3547SOL    HW111087   3.181   1.458   4.953
 3547SOL    HW211088   3.068   1.371   4.875
 3548SOL     OW11089   3.444   0.639   4.196
 3548SOL    HW111090   3.413   0.700   4.269
 3548SOL    HW211091   3.494   0.691   4.127
 3549SOL     OW11092   2.264   0.751   5.322
 3549SOL    HW111093   2.332   0.806   5.275
 3549SOL    HW211094   2.304   0.663   5.349
 3550SOL     OW11095   3.449   0.779   5.394
 3550SOL    HW111096   3.357   0.817   5.389
 3550SOL    HW211097   3.509   0.826   5.329
 3551SOL     OW11098   2.875   0.105   5.494
 3551SOL    HW111099   2.881   0.190   5.442
 3551SOL    HW211100   2.907   0.029   5.437
 3552SOL     OW11101   2.366   0.050   5.464
 3552SOL    HW111102   2.324  -0.007   5.394
 3552SOL    HW211103   2.300   0.119   5.496
 3553SOL     OW11104   2.435   0.870   4.753
 3553SOL    HW111105   2.479   0.959   4.744
 3553SOL    HW211106   2.372   0.870   4.830
 3554SOL     OW11107   3.222   0.862   4.769
 3554SOL    HW111108   3.147   0.862   4.703
 3554SOL    HW211109   3.259   0.770   4.778
 3555SOL     OW11110   3.071   0.525   3.999
 3555SOL    HW111111   3.084   0.441   4.053
 3555SOL    HW211112   3.042   0.599   4.059
 3556SOL     OW11113   2.169   0.213   4.955
 3556SOL    HW111114   2.146   0.250   5.045
 3556SOL    HW211115   2.139   0.118   4.949
 3557SOL     OW11116   1.899   1.310   5.006
 3557SOL    HW111117   1.952   1.261   5.074
 3557SOL    HW211118   1.921   1.408   5.011
 3558SOL     OW11119   2.594   0.634   4.788
 3558SOL    HW111120   2.653   0.608   4.712
 3558SOL    HW211121   2.566   0.730   4.777
 3559SOL     OW11122   3.590   0.935   5.578
 3559SOL    HW111123   3.544   0.928   5.489
 3559SOL    HW211124   3.528   0.979   5.644
 3560SOL     OW11125   2.169   0.063   4.342
 3560SOL    HW111126   2.158   0.157   4.375
 3560SOL    HW211127   2.164   0.000   4.419
 3561SOL     OW11128   3.484   0.367   4.098
 3561SOL    HW111129   3.486   0.291   4.162
 3561SOL    HW211130   3.436   0.444   4.138
 3562SOL     OW11131   2.885   0.766   4.690
 3562SOL    HW111132   2.900   0.787   4.786
 3562SOL    HW211133   2.855   0.671   4.681
 3563SOL     OW11134   3.721   1.518   5.329
 3563SOL    HW111135   3.735   1.545   5.234
 3563SOL    HW211136   3.804   1.540   5.382
 3564SOL     OW11137   2.212   0.898   5.528
 3564SOL    HW111138   2.288   0.942   5.576
 3564SOL    HW211139   2.247   0.851   5.446
 3565SOL     OW11140   3.402   0.274   3.849
 3565SOL    HW111141   3.341   0.199   3.872
 3565SOL    HW211142   3.424   0.326   3.932
 3566SOL     OW11143   3.165   0.838   3.766
 3566SOL    HW111144   3.199   0.745   3.781
 3566SOL    HW211145   3.183   0.865   3.671
 3567SOL     OW11146   2.930   1.333   4.573
 3567SOL    HW111147   2.937   1.249   4.518
 3567SOL    HW211148   2.992   1.402   4.537
 3568SOL     OW11149   2.181   0.810   4.673
 3568SOL    HW111150   2.274   0.846   4.678
 3568SOL    HW211151   2.175   0.725   4.725
 3569SOL     OW11152   2.201   0.509   4.730
 3569SOL    HW111153   2.149   0.426   4.713
 3569SOL    HW211154   2.278   0.514   4.666
 3570SOL     OW11155   3.000   0.380   5.402
 3570SOL    HW111156   2.955   0.443   5.466
 3570SOL    HW211157   3.093   0.411   5.385
 3571SOL     OW11158   3.022   0.207   5.201
 3571SOL    HW111159   3.022   0.271   5.278
 3571SOL    HW211160   3.050   0.255   5.118
 3572SOL     OW11161   1.870   1.326   3.924
 3572SOL    HW111162   1.777   1.347   3.893
 3572SOL    HW211163   1.880   1.227   3.937
 3573SOL     OW11164   1.950   1.801   4.651
 3573SOL    HW111165   1.908   1.715   4.624
 3573SOL    HW211166   2.044   1.804   4.617
 3574SOL     OW11167   2.366   1.568   4.634
 3574SOL    HW111168   2.432   1.642   4.643
 3574SOL    HW211169   2.410   1.489   4.592
 3575SOL     OW11170   2.864   0.796   4.962
 3575SOL    HW111171   2.905   0.764   5.048
 3575SOL    HW211172   2.768   0.769   4.959
 3576SOL     OW11173   1.902   0.544   4.838
 3576SOL    HW111174   1.987   0.511   4.797
 3576SOL    HW211175   1.915   0.559   4.936
 3577SOL     OW11176   2.051   0.520   5.446
 3577SOL    HW111177   2.110   0.480   5.376
 3577SOL    HW211178   1.993   0.591   5.405
 3578SOL     OW11179   3.231   0.950   5.384
 3578SOL    HW111180   3.270   1.039   5.404
 3578SOL    HW211181   3.241   0.930   5.287
 3579SOL     OW11182   2.677   0.572   4.049
 3579SOL    HW111183   2.684   0.483   4.003
 3579SOL    HW211184   2.583   0.606   4.041
 3580SOL     OW11185   3.519   0.604   4.930
 3580SOL    HW111186   3.481   0.535   4.992
 3580SOL    HW211187   3.601   0.568   4.886
 3581SOL     OW11188   2.533   0.464   4.993
 3581SOL    HW111189   2.499   0.375   4.963
 3581SOL    HW211190   2.559   0.518   4.913
 3582SOL     OW11191   2.792   1.678   5.189
 3582SOL    HW111192   2.768   1.660   5.094
 3582SOL    HW211193   2.822   1.772   5.199
 3583SOL     OW11194   2.335   0.500   3.915
 3583SOL    HW111195   2.396   0.580   3.919
 3583SOL    HW211196   2.240   0.531   3.922
 3584SOL     OW11197   2.021   1.137   5.190
 3584SOL    HW111198   2.043   1.076   5.266
 3584SOL    HW211199   2.031   1.088   5.104
 3585SOL     OW11200   3.209   1.059   4.958
 3585SOL    HW111201   3.233   0.996   4.884
 3585SOL    HW211202   3.119   1.099   4.940
 3586SOL     OW11203   3.164   0.855   4.033
 3586SOL    HW111204   3.078   0.824   4.075
 3586SOL    HW211205   3.160   0.841   3.934
 3587SOL     OW11206   3.621   1.747   4.878
 3587SOL    HW111207   3.682   1.777   4.805
 3587SOL    HW211208   3.583   1.658   4.856
 3588SOL     OW11209   3.114   1.731   4.852
 3588SOL    HW111210   3.198   1.736   4.798
 3588SOL    HW211211   3.091   1.635   4.870
 3589SOL     OW11212   1.945   1.258   4.746
 3589SOL    HW111213   1.940   1.257   4.846
 3589SOL    HW211214   1.862   1.217   4.708
 3590SOL     OW11215   3.588   0.135   4.247
 3590SOL    HW111216   3.661   0.118   4.180
 3590SOL    HW211217   3.557   0.048   4.285
 3591SOL     OW11218   3.250   1.573   4.201
 3591SOL    HW111219   3.317   1.585   4.127
 3591SOL    HW211220   3.210   1.662   4.224
 3592SOL     OW11221   3.142   0.927   4.396
 3592SOL    HW111222   3.202   0.846   4.398
 3592SOL    HW211223   3.182   0.996   4.336
 3593SOL     OW11224   2.692   1.273   5.146
 3593SOL    HW111225   2.687   1.306   5.241
 3593SOL    HW211226   2.606   1.292   5.100
 3594SOL     OW11227   2.534   1.616   3.878
 3594SOL    HW111228   2.543   1.626   3.779
 3594SOL    HW211229   2.494   1.527   3.899
 3595SOL     OW11230   3.512   1.720   5.118
 3595SOL    HW111231   3.565   1.730   5.034
 3595SOL    HW211232   3.485   1.810   5.152
 3596SOL     OW11233   3.703   0.175   4.687
 3596SOL    HW111234   3.742   0.090   4.651
 3596SOL    HW211235   3.605   0.177   4.668
 3597SOL     OW11236   2.125   0.326   4.444
 3597SOL    HW111237   2.046   0.377   4.410
 3597SOL    HW211238   2.116   0.311   4.542
 3598SOL     OW11239   3.056   1.612   3.755
 3598SOL    HW111240   3.062   1.519   3.792
 3598SOL    HW211241   2.997   1.612   3.675
 3599SOL     OW11242   2.684   1.002   5.096
 3599SOL    HW111243   2.724   1.001   5.004
 3599SOL    HW211244   2.694   1.094   5.136
 3600SOL     OW11245   2.778   0.910   4.015
 3600SOL    HW111246   2.841   0.948   3.947
 3600SOL    HW211247   2.818   0.827   4.054
 3601SOL     OW11248   3.366   1.607   3.768
 3601SOL    HW111249   3.274   1.644   3.775
 3601SOL    HW211250   3.404   1.627   3.678
 3602SOL     OW11251   3.476   1.292   5.013
 3602SOL    HW111252   3.536   1.295   5.093
 3602SOL    HW211253   3.401   1.356   5.026
 3603SOL     OW11254   2.901   1.098   4.420
 3603SOL    HW111255   2.831   1.051   4.474
 3603SOL    HW211256   2.960   1.030   4.377
 3604SOL     OW11257   2.876   0.236   4.695
 3604SOL    HW111258   2.868   0.200   4.602
 3604SOL    HW211259   2.874   0.160   4.760
 3605SOL     OW11260   2.452   1.487   4.215
 3605SOL    HW111261   2.494   1.429   4.145
 3605SOL    HW211262   2.408   1.566   4.171
 3606SOL     OW11263   3.571   0.385   5.105
 3606SOL    HW111264   3.644   0.454   5.109
 3606SOL    HW211265   3.599   0.310   5.046
 3607SOL     OW11266   2.117   1.348   4.014
 3607SOL    HW111267   2.021   1.349   3.987
 3607SOL    HW211268   2.129   1.401   4.098
 3608SOL     OW11269   1.967   1.013   5.450
 3608SOL    HW111270   1.890   0.980   5.504
 3608SOL    HW211271   2.052   0.983   5.492
 3609SOL     OW11272   2.534   0.203   5.213
 3609SOL    HW111273   2.624   0.187   5.173
 3609SOL    HW211274   2.542   0.208   5.312
 3610SOL     OW11275   1.937   0.345   3.757
 3610SOL    HW111276   1.845   0.317   3.728
 3610SOL    HW211277   1.968   0.422   3.701
 3611SOL     OW11278   3.302   0.856   5.122
 3611SOL    HW111279   3.245   0.908   5.059
 3611SOL    HW211280   3.398   0.868   5.098
 3612SOL     OW11281   1.934   0.166   4.042
 3612SOL    HW111282   1.917   0.249   3.988
 3612SOL    HW211283   2.024   0.129   4.020
 3613SOL     OW11284   3.045   1.335   3.843
 3613SOL    HW111285   2.946   1.324   3.845
 3613SOL    HW211286   3.079   1.350   3.936
 3614SOL     OW11287   2.475   0.842   5.155
 3614SOL    HW111288   2.531   0.923   5.138
 3614SOL    HW211289   2.534   0.762   5.158
 3615SOL     OW11290   3.355   1.767   4.683
 3615SOL    HW111291   3.388   1.831   4.614
 3615SOL    HW211292   3.421   1.761   4.758
 3616SOL     OW11293   2.578   0.565   5.432
 3616SOL    HW111294   2.597   0.630   5.506
 3616SOL    HW211295   2.638   0.485   5.441
 3617SOL     OW11296   3.312   1.220   5.357
 3617SOL    HW111297   3.303   1.210   5.456
 3617SOL    HW211298   3.408   1.213   5.331
 3618SOL     OW11299   3.536   0.883   4.978
 3618SOL    HW111300   3.509   0.794   4.941
 3618SOL    HW211301   3.537   0.951   4.905
 3619SOL     OW11302   3.087   0.325   4.173
 3619SOL    HW111303   3.152   0.251   4.162
 3619SOL    HW211304   3.107   0.375   4.257
 3620SOL     OW11305   2.456   0.745   4.376
 3620SOL    HW111306   2.506   0.830   4.357
 3620SOL    HW211307   2.368   0.747   4.328
 3621SOL     OW11308   3.639   0.342   5.366
 3621SOL    HW111309   3.622   0.373   5.272
 3621SOL    HW211310   3.555   0.305   5.404
 3622SOL     OW11311   3.592   0.934   5.241
 3622SOL    HW111312   3.630   1.025   5.256
 3622SOL    HW211313   3.584   0.917   5.142
 3623SOL     OW11314   2.721   1.374   3.740
 3623SOL    HW111315   2.675   1.389   3.828
 3623SOL    HW211316   2.765   1.459   3.710
 3624SOL     OW11317   2.523   1.790   4.677
 3624SOL    HW111318   2.477   1.878   4.664
 3624SOL    HW211319   2.622   1.802   4.670
 3625SOL     OW11320   2.721   0.956   4.585
 3625SOL    HW111321   2.775   0.887   4.633
 3625SOL    HW211322   2.689   1.025   4.651
 3626SOL     OW11323   2.945   0.984   3.811
 3626SOL    HW111324   2.922   1.037   3.729
 3626SOL    HW211325   3.026   0.928   3.792
 3627SOL     OW11326   3.723   1.569   4.575
 3627SOL    HW111327   3.652   1.557   4.505
 3627SOL    HW211328   3.724   1.490   4.635
 3628SOL     OW11329   2.083   1.314   5.568
 3628SOL    HW111330   2.018   1.241   5.547
 3628SOL    HW211331   2.087   1.328   5.666
 3629SOL     OW11332   1.941   1.240   4.377
 3629SOL    HW111333   1.940   1.193   4.465
 3629SOL    HW211334   2.023   1.212   4.326
 3630SOL     OW11335   3.686   0.192   4.951
 3630SOL    HW111336   3.682   0.102   4.995
 3630SOL    HW211337   3.689   0.181   4.852
 3631SOL     OW11338   2.290   0.424   4.244
 3631SOL    HW111339   2.320   0.352   4.182
 3631SOL    HW211340   2.251   0.384   4.327
 3632SOL     OW11341   3.567   1.487   4.828
 3632SOL    HW111342   3.474   1.462   4.801
 3632SOL    HW211343   3.593   1.437   4.910
 3633SOL     OW11344   2.179   0.547   5.004
 3633SOL    HW111345   2.217   0.488   5.076
 3633SOL    HW211346   2.219   0.521   4.916
 3634SOL     OW11347   2.674   1.586   4.411
 3634SOL    HW111348   2.706   1.596   4.317
 3634SOL    HW211349   2.595   1.524   4.413
 3635SOL     OW11350   3.286   0.214   4.836
 3635SOL    HW111351   3.338   0.149   4.891
 3635SOL    HW211352   3.237   0.277   4.897
 3636SOL     OW11353   2.863   0.034   4.878
 3636SOL    HW111354   2.800  -0.038   4.847
 3636SOL    HW211355   2.956  -0.002   4.878
 3637SOL     OW11356   2.632   1.330   4.025
 3637SOL    HW111357   2.586   1.243   4.042
 3637SOL    HW211358   2.723   1.327   4.066
 3638SOL     OW11359   3.214   0.052   3.892
 3638SOL    HW111360   3.249   0.011   3.808
 3638SOL    HW211361   3.124   0.014   3.912
 3639SOL     OW11362   3.162   0.453   4.415
 3639SOL    HW111363   3.103   0.533   4.419
 3639SOL    HW211364   3.177   0.418   4.508
 3640SOL     OW11365   3.455   0.221   4.606
 3640SOL    HW111366   3.371   0.220   4.660
 3640SOL    HW211367   3.457   0.304   4.550
 3641SOL     OW11368   1.901   1.077   4.024
 3641SOL    HW111369   2.000   1.066   4.015
 3641SOL    HW211370   1.861   0.991   4.056
 3642SOL     OW11371   2.737   1.646   4.061
 3642SOL    HW111372   2.660   1.611   4.007
 3642SOL    HW211373   2.705   1.717   4.123
 3643SOL     OW11374   2.092   0.628   5.699
 3643SOL    HW111375   1.999   0.626   5.736
 3643SOL    HW211376   2.093   0.589   5.607
 3644SOL     OW11377   2.087   0.275   6.582
 3644SOL    HW111378   2.122   0.258   6.674
 3644SOL    HW211379   1.999   0.230   6.570
 3645SOL     OW11380   1.881   0.368   6.233
 3645SOL    HW111381   1.799   0.411   6.272
 3645SOL    HW211382   1.853   0.295   6.170
 3646SOL     OW11383   2.431   1.275   6.751
 3646SOL    HW111384   2.338   1.268   6.714
 3646SOL    HW211385   2.442   1.364   6.795
 3647SOL     OW11386   3.417   1.511   6.289
 3647SOL    HW111387   3.360   1.495   6.370
 3647SOL    HW211388   3.358   1.521   6.209
 3648SOL     OW11389   2.997   0.703   6.303
 3648SOL    HW111390   3.054   0.781   6.278
 3648SOL    HW211391   2.937   0.729   6.379
 3649SOL     OW11392   3.617   0.607   5.817
 3649SOL    HW111393   3.605   0.594   5.718
 3649SOL    HW211394   3.587   0.526   5.866
 3650SOL     OW11395   2.630   1.144   6.609
 3650SOL    HW111396   2.552   1.161   6.669
 3650SOL    HW211397   2.664   1.231   6.573
 3651SOL     OW11398   2.712   0.798   7.409
 3651SOL    HW111399   2.708   0.874   7.474
 3651SOL    HW211400   2.734   0.834   7.318
 3652SOL     OW11401   2.547   1.012   6.251
 3652SOL    HW111402   2.616   0.996   6.321
 3652SOL    HW211403   2.474   1.069   6.289
 3653SOL     OW11404   2.548   1.161   7.389
 3653SOL    HW111405   2.608   1.240   7.403
 3653SOL    HW211406   2.462   1.192   7.348
 3654SOL     OW11407   2.197   1.435   6.647
 3654SOL    HW111408   2.119   1.404   6.594
 3654SOL    HW211409   2.255   1.493   6.590
 3655SOL     OW11410   3.322   1.505   6.925
 3655SOL    HW111411   3.346   1.599   6.951
 3655SOL    HW211412   3.306   1.451   7.007
 3656SOL     OW11413   2.300   0.392   7.085
 3656SOL    HW111414   2.382   0.336   7.094
 3656SOL    HW211415   2.219   0.334   7.089
 3657SOL     OW11416   3.465   0.447   6.323
 3657SOL    HW111417   3.391   0.493   6.273
 3657SOL    HW211418   3.516   0.515   6.376
 3658SOL     OW11419   2.093   1.713   6.069
 3658SOL    HW111420   2.127   1.790   6.123
 3658SOL    HW211421   2.137   1.713   5.979
 3659SOL     OW11422   2.989   1.341   7.276
 3659SOL    HW111423   3.036   1.341   7.364
 3659SOL    HW211424   2.941   1.254   7.265
 3660SOL     OW11425   2.092   1.434   6.124
 3660SOL    HW111426   2.066   1.530   6.124
 3660SOL    HW211427   2.021   1.380   6.169
 3661SOL     OW11428   2.102   1.091   6.472
 3661SOL    HW111429   2.116   1.007   6.524
 3661SOL    HW211430   2.047   1.155   6.527
 3662SOL     OW11431   2.482   1.786   7.025
 3662SOL    HW111432   2.390   1.769   7.060
 3662SOL    HW211433   2.510   1.878   7.051
 3663SOL     OW11434   2.468   0.964   5.709
 3663SOL    HW111435   2.475   1.048   5.655
 3663SOL    HW211436   2.514   0.977   5.797
 3664SOL     OW11437   3.456   0.114   7.066
 3664SOL    HW111438   3.438   0.181   6.994
 3664SOL    HW211439   3.453   0.160   7.155
 3665SOL     OW11440   1.984   0.643   6.149
 3665SOL    HW111441   1.939   0.555   6.166
 3665SOL    HW211442   1.983   0.697   6.233
 3666SOL     OW11443   3.704   1.767   5.945
 3666SOL    HW111444   3.758   1.738   6.025
 3666SOL    HW211445   3.734   1.857   5.916
 3667SOL     OW11446   3.551   0.922   6.198
 3667SOL    HW111447   3.646   0.893   6.206
 3667SOL    HW211448   3.543   0.987   6.123
 3668SOL     OW11449   3.503   1.108   6.018
 3668SOL    HW111450   3.589   1.110   5.966
 3668SOL    HW211451   3.517   1.155   6.106
 3669SOL     OW11452   1.975   0.737   7.183
 3669SOL    HW111453   2.063   0.724   7.228
 3669SOL    HW211454   1.962   0.834   7.161
 3670SOL     OW11455   2.475   1.365   6.312
 3670SOL    HW111456   2.426   1.278   6.321
 3670SOL    HW211457   2.452   1.408   6.225
 3671SOL     OW11458   3.155   1.228   7.009
 3671SOL    HW111459   3.192   1.155   6.951
 3671SOL    HW211460   3.207   1.233   7.094
 3672SOL     OW11461   2.671   0.004   6.088
 3672SOL    HW111462   2.711   0.095   6.079
 3672SOL    HW211463   2.571   0.012   6.094
 3673SOL     OW11464   2.059   0.976   6.850
 3673SOL    HW111465   2.148   0.931   6.836
 3673SOL    HW211466   1.986   0.911   6.831
 3674SOL     OW11467   3.387   0.999   5.776
 3674SOL    HW111468   3.324   0.923   5.789
 3674SOL    HW211469   3.435   1.017   5.862
 3675SOL     OW11470   3.049   1.792   7.202
 3675SOL    HW111471   3.073   1.852   7.126
 3675SOL    HW211472   3.056   1.697   7.172
 3676SOL     OW11473   2.179   0.251   7.387
 3676SOL    HW111474   2.250   0.322   7.393
 3676SOL    HW211475   2.091   0.290   7.415
 3677SOL     OW11476   3.328   1.417   6.539
 3677SOL    HW111477   3.269   1.423   6.619
 3677SOL    HW211478   3.313   1.329   6.493
 3678SOL     OW11479   3.529   1.714   6.158
 3678SOL    HW111480   3.488   1.691   6.070
 3678SOL    HW211481   3.511   1.640   6.223
 3679SOL     OW11482   2.460   0.729   5.856
 3679SOL    HW111483   2.484   0.798   5.788
 3679SOL    HW211484   2.382   0.762   5.910
 3680SOL     OW11485   3.143   0.345   6.530
 3680SOL    HW111486   3.057   0.295   6.517
 3680SOL    HW211487   3.205   0.291   6.586
 3681SOL     OW11488   3.438   1.662   5.893
 3681SOL    HW111489   3.527   1.708   5.896
 3681SOL    HW211490   3.417   1.638   5.798
 3682SOL     OW11491   2.669   0.605   7.051
 3682SOL    HW111492   2.622   0.602   7.140
 3682SOL    HW211493   2.618   0.550   6.985
 3683SOL     OW11494   3.256   0.469   7.260
 3683SOL    HW111495   3.236   0.512   7.348
 3683SOL    HW211496   3.334   0.407   7.269
 3684SOL     OW11497   2.835   0.890   7.158
 3684SOL    HW111498   2.881   0.806   7.129
 3684SOL    HW211499   2.779   0.924   7.083
 3685SOL     OW11500   2.853   0.410   6.828
 3685SOL    HW111501   2.776   0.444   6.882
 3685SOL    HW211502   2.819   0.359   6.749
 3686SOL     OW11503   2.903   0.701   6.015
 3686SOL    HW111504   2.929   0.697   6.111
 3686SOL    HW211505   2.818   0.650   6.001
 3687SOL     OW11506   1.938   0.811   6.375
 3687SOL    HW111507   2.037   0.799   6.384
 3687SOL    HW211508   1.914   0.906   6.396
 3688SOL     OW11509   1.992   1.821   7.157
 3688SOL    HW111510   1.982   1.806   7.256
 3688SOL    HW211511   1.906   1.857   7.121
 3689SOL     OW11512   2.727   0.348   5.781
 3689SOL    HW111513   2.786   0.411   5.732
 3689SOL    HW211514   2.746   0.254   5.752
 3690SOL     OW11515   3.581   0.585   7.417
 3690SOL    HW111516   3.555   0.674   7.381
 3690SOL    HW211517   3.579   0.517   7.344
 3691SOL     OW11518   3.224   1.144   6.131
 3691SOL    HW111519   3.307   1.115   6.083
 3691SOL    HW211520   3.175   1.211   6.075
 3692SOL     OW11521   2.412   0.196   6.471
 3692SOL    HW111522   2.407   0.191   6.571
 3692SOL    HW211523   2.414   0.292   6.442
 3693SOL     OW11524   2.870   1.456   6.063
 3693SOL    HW111525   2.824   1.528   6.011
 3693SOL    HW211526   2.866   1.476   6.161
 3694SOL     OW11527   2.213   1.801   6.439
 3694SOL    HW111528   2.263   1.715   6.445
 3694SOL    HW211529   2.278   1.878   6.436
 3695SOL     OW11530   3.657   1.066   6.459
 3695SOL    HW111531   3.595   1.051   6.383
 3695SOL    HW211532   3.605   1.077   6.544
 3696SOL     OW11533   3.089   1.550   7.092
 3696SOL    HW111534   3.095   1.473   7.156
 3696SOL    HW211535   3.037   1.524   7.012
 3697SOL     OW11536   2.183   0.943   5.828
 3697SOL    HW111537   2.265   0.982   5.786
 3697SOL    HW211538   2.156   0.861   5.779
 3698SOL     OW11539   3.320   0.735   6.314
 3698SOL    HW111540   3.315   0.670   6.389
 3698SOL    HW211541   3.400   0.794   6.327
 3699SOL     OW11542   2.323   1.266   7.313
 3699SOL    HW111543   2.273   1.267   7.227
 3699SOL    HW211544   2.260   1.248   7.389
 3700SOL     OW11545   2.973   1.776   5.823
 3700SOL    HW111546   2.913   1.714   5.873
 3700SOL    HW211547   3.004   1.732   5.738
 3701SOL     OW11548   2.064   0.285   7.084
 3701SOL    HW111549   1.984   0.345   7.071
 3701SOL    HW211550   2.054   0.236   7.170
 3702SOL     OW11551   3.494   1.377   5.667
 3702SOL    HW111552   3.462   1.471   5.657
 3702SOL    HW211553   3.418   1.314   5.655
 3703SOL     OW11554   3.262   0.107   6.012
 3703SOL    HW111555   3.238   0.070   5.922
 3703SOL    HW211556   3.361   0.123   6.016
 3704SOL     OW11557   2.111   1.785   6.827
 3704SOL    HW111558   2.168   1.720   6.877
 3704SOL    HW211559   2.095   1.752   6.734
 3705SOL     OW11560   2.802   1.698   6.490
 3705SOL    HW111561   2.882   1.641   6.511
 3705SOL    HW211562   2.753   1.658   6.413
 3706SOL     OW11563   2.244   0.700   6.066
 3706SOL    HW111564   2.289   0.610   6.063
 3706SOL    HW211565   2.150   0.689   6.099
 3707SOL     OW11566   3.409   0.222   7.315
 3707SOL    HW111567   3.404   0.259   7.407
 3707SOL    HW211568   3.337   0.153   7.303
 3708SOL     OW11569   2.476   0.122   5.703
 3708SOL    HW111570   2.574   0.100   5.710
 3708SOL    HW211571   2.445   0.105   5.610
 3709SOL     OW11572   2.643   0.264   7.335
 3709SOL    HW111573   2.710   0.203   7.378
 3709SOL    HW211574   2.570   0.283   7.400
 3710SOL     OW11575   2.750   1.514   6.781
 3710SOL    HW111576   2.727   1.489   6.687
 3710SOL    HW211577   2.811   1.445   6.820
 3711SOL     OW11578   3.213   0.590   7.019
 3711SOL    HW111579   3.241   0.547   7.104
 3711SOL    HW211580   3.238   0.686   7.020
 3712SOL     OW11581   2.665   1.402   6.510
 3712SOL    HW111582   2.755   1.416   6.468
 3712SOL    HW211583   2.594   1.404   6.439
 3713SOL     OW11584   2.784   0.503   6.485
 3713SOL    HW111585   2.759   0.494   6.389
 3713SOL    HW211586   2.832   0.421   6.516
 3714SOL     OW11587   2.401   0.064   6.098
 3714SOL    HW111588   2.320   0.065   6.156
 3714SOL    HW211589   2.404   0.147   6.043
 3715SOL     OW11590   3.296   1.188   5.627
 3715SOL    HW111591   3.328   1.112   5.684
 3715SOL    HW211592   3.204   1.215   5.657
 3716SOL     OW11593   2.159   0.035   5.757
 3716SOL    HW111594   2.208   0.119   5.736
 3716SOL    HW211595   2.221  -0.030   5.802
 3717SOL     OW11596   2.797   0.236   6.066
 3717SOL    HW111597   2.749   0.277   5.988
 3717SOL    HW211598   2.896   0.234   6.047
 3718SOL     OW11599   2.938   0.683   7.050
 3718SOL    HW111600   2.858   0.622   7.053
 3718SOL    HW211601   3.019   0.630   7.026
 3719SOL     OW11602   3.089   1.570   6.379
 3719SOL    HW111603   3.110   1.644   6.314
 3719SOL    HW211604   3.157   1.570   6.452
 3720SOL     OW11605   2.321   1.152   6.327
 3720SOL    HW111606   2.250   1.125   6.392
 3720SOL    HW211607   2.295   1.124   6.234
 3721SOL     OW11608   3.133   1.797   6.177
 3721SOL    HW111609   3.177   1.861   6.113
 3721SOL    HW211610   3.083   1.849   6.247
 3722SOL     OW11611   2.894   0.549   5.602
 3722SOL    HW111612   2.853   0.631   5.563
 3722SOL    HW211613   2.958   0.575   5.675
 3723SOL     OW11614   1.940   0.556   6.972
 3723SOL    HW111615   2.032   0.555   6.931
 3723SOL    HW211616   1.934   0.630   7.039
 3724SOL     OW11617   2.423   0.222   6.733
 3724SOL    HW111618   2.461   0.138   6.770
 3724SOL    HW211619   2.335   0.241   6.777
 3725SOL     OW11620   2.728   0.454   6.228
 3725SOL    HW111621   2.696   0.526   6.166
 3725SOL    HW211622   2.752   0.373   6.175
 3726SOL     OW11623   2.879   0.039   6.339
 3726SOL    HW111624   2.807   0.044   6.270
 3726SOL    HW211625   2.855  -0.030   6.408
 3727SOL     OW11626   3.291   1.173   6.453
 3727SOL    HW111627   3.236   1.089   6.446
 3727SOL    HW211628   3.317   1.202   6.361
 3728SOL     OW11629   3.328   0.590   6.578
 3728SOL    HW111630   3.298   0.495   6.585
 3728SOL    HW211631   3.401   0.606   6.644
 3729SOL     OW11632   3.719   0.833   5.963
 3729SOL    HW111633   3.761   0.769   6.027
 3729SOL    HW211634   3.681   0.782   5.885
 3730SOL     OW11635   2.350   1.385   5.760
 3730SOL    HW111636   2.263   1.370   5.807
 3730SOL    HW211637   2.333   1.411   5.665
 3731SOL     OW11638   3.526   1.280   6.243
 3731SOL    HW111639   3.625   1.288   6.257
 3731SOL    HW211640   3.481   1.364   6.274
 3732SOL     OW11641   3.252   0.575   5.664
 3732SOL    HW111642   3.198   0.554   5.745
 3732SOL    HW211643   3.343   0.534   5.673
 3733SOL     OW11644   2.389   0.256   5.914
 3733SOL    HW111645   2.416   0.197   5.839
 3733SOL    HW211646   2.389   0.351   5.883
 3734SOL     OW11647   3.616   1.223   7.174
 3734SOL    HW111648   3.707   1.184   7.161
 3734SOL    HW211649   3.624   1.319   7.198
 3735SOL     OW11650   2.926   1.347   6.926
 3735SOL    HW111651   2.846   1.324   6.981
 3735SOL    HW211652   3.009   1.321   6.975
 3736SOL     OW11653   3.454   1.629   7.211
 3736SOL    HW111654   3.481   1.663   7.121
 3736SOL    HW211655   3.533   1.591   7.257
 3737SOL     OW11656   2.973   1.195   6.686
 3737SOL    HW111657   2.933   1.239   6.767
 3737SOL    HW211658   2.932   1.232   6.603
 3738SOL     OW11659   3.500   1.099   6.665
 3738SOL    HW111660   3.505   1.180   6.724
 3738SOL    HW211661   3.414   1.101   6.614
 3739SOL     OW11662   2.777   0.089   6.988
 3739SOL    HW111663   2.802   0.069   6.893
 3739SOL    HW211664   2.849   0.145   7.030
 3740SOL     OW11665   2.842   1.116   7.305
 3740SOL    HW111666   2.743   1.122   7.315
 3740SOL    HW211667   2.865   1.036   7.249
 3741SOL     OW11668   2.567   1.050   5.954
 3741SOL    HW111669   2.553   1.057   6.053
 3741SOL    HW211670   2.651   0.999   5.936
 3742SOL     OW11671   2.272   0.813   6.837
 3742SOL    HW111672   2.358   0.825   6.887
 3742SOL    HW211673   2.230   0.726   6.864
 3743SOL     OW11674   3.136   0.386   6.848
 3743SOL    HW111675   3.157   0.460   6.912
 3743SOL    HW211676   3.047   0.403   6.805
 3744SOL     OW11677   1.926   1.564   6.917
 3744SOL    HW111678   1.880   1.646   6.883
 3744SOL    HW211679   2.024   1.583   6.926
 3745SOL     OW11680   2.229   1.100   6.087
 3745SOL    HW111681   2.222   1.183   6.031
 3745SOL    HW211682   2.233   1.020   6.027
 3746SOL     OW11683   2.428   0.537   6.451
 3746SOL    HW111684   2.440   0.603   6.377
 3746SOL    HW211685   2.474   0.571   6.534
 3747SOL     OW11686   3.114   1.348   5.974
 3747SOL    HW111687   3.164   1.425   6.014
 3747SOL    HW211688   3.019   1.350   6.006
 3748SOL     OW11689   3.134   1.445   6.728
 3748SOL    HW111690   3.181   1.458   6.815
 3748SOL    HW211691   3.068   1.371   6.737
 3749SOL     OW11692   3.444   0.639   6.058
 3749SOL    HW111693   3.413   0.700   6.131
 3749SOL    HW211694   3.494   0.691   5.989
 3750SOL     OW11695   2.216   1.510   6.915
 3750SOL    HW111696   2.195   1.466   6.828
 3750SOL    HW211697   2.313   1.536   6.918
 3751SOL     OW11698   2.264   0.751   7.184
 3751SOL    HW111699   2.332   0.806   7.137
 3751SOL    HW211700   2.304   0.663   7.211
 3752SOL     OW11701   3.449   0.779   7.256
 3752SOL    HW111702   3.357   0.817   7.251
 3752SOL    HW211703   3.509   0.826   7.191
 3753SOL     OW11704   2.875   0.105   7.356
 3753SOL    HW111705   2.881   0.190   7.304
 3753SOL    HW211706   2.907   0.029   7.299
 3754SOL     OW11707   2.366   0.050   7.326
 3754SOL    HW111708   2.324  -0.007   7.256
 3754SOL    HW211709   2.300   0.119   7.358
 3755SOL     OW11710   2.435   0.870   6.615
 3755SOL    HW111711   2.479   0.959   6.606
 3755SOL    HW211712   2.372   0.870   6.692
 3756SOL     OW11713   3.222   0.862   6.631
 3756SOL    HW111714   3.147   0.862   6.565
 3756SOL    HW211715   3.259   0.770   6.640
 3757SOL     OW11716   3.071   0.525   5.861
 3757SOL    HW111717   3.084   0.441   5.915
 3757SOL    HW211718   3.042   0.599   5.921
 3758SOL     OW11719   2.169   0.213   6.817
 3758SOL    HW111720   2.146   0.250   6.907
 3758SOL    HW211721   2.139   0.118   6.811
 3759SOL     OW11722   1.899   1.310   6.868
 3759SOL    HW111723   1.952   1.261   6.936
 3759SOL    HW211724   1.921   1.408   6.873
 3760SOL     OW11725   2.594   0.634   6.650
 3760SOL    HW111726   2.653   0.608   6.574
 3760SOL    HW211727   2.566   0.730   6.639
 3761SOL     OW11728   3.590   0.935   7.440
 3761SOL    HW111729   3.544   0.928   7.351
 3761SOL    HW211730   3.528   0.979   7.506
 3762SOL     OW11731   2.169   0.063   6.204
 3762SOL    HW111732   2.158   0.157   6.237
 3762SOL    HW211733   2.164   0.000   6.281
 3763SOL     OW11734   3.484   0.367   5.960
 3763SOL    HW111735   3.486   0.291   6.024
 3763SOL    HW211736   3.436   0.444   6.000
 3764SOL     OW11737   2.885   0.766   6.552
 3764SOL    HW111738   2.900   0.787   6.648
 3764SOL    HW211739   2.855   0.671   6.543
 3765SOL     OW11740   2.842   1.573   7.286
 3765SOL    HW111741   2.822   1.617   7.198
 3765SOL    HW211742   2.881   1.482   7.270
 3766SOL     OW11743   3.721   1.518   7.191
 3766SOL    HW111744   3.735   1.545   7.096
 3766SOL    HW211745   3.804   1.540   7.244
 3767SOL     OW11746   2.212   0.898   7.390
 3767SOL    HW111747   2.288   0.942   7.438
 3767SOL    HW211748   2.247   0.851   7.308
 3768SOL     OW11749   3.402   0.274   5.711
 3768SOL    HW111750   3.341   0.199   5.734
 3768SOL    HW211751   3.424   0.326   5.794
 3769SOL     OW11752   3.165   0.838   5.628
 3769SOL    HW111753   3.199   0.745   5.643
 3769SOL    HW211754   3.183   0.865   5.533
 3770SOL     OW11755   2.930   1.333   6.435
 3770SOL    HW111756   2.937   1.249   6.380
 3770SOL    HW211757   2.992   1.402   6.399
 3771SOL     OW11758   2.181   0.810   6.535
 3771SOL    HW111759   2.274   0.846   6.540
 3771SOL    HW211760   2.175   0.725   6.587
 3772SOL     OW11761   2.201   0.509   6.592
 3772SOL    HW111762   2.149   0.426   6.575
 3772SOL    HW211763   2.278   0.514   6.528
 3773SOL     OW11764   3.000   0.380   7.264
 3773SOL    HW111765   2.955   0.443   7.328
 3773SOL    HW211766   3.093   0.411   7.247
 3774SOL     OW11767   3.022   0.207   7.063
 3774SOL    HW111768   3.022   0.271   7.140
 3774SOL    HW211769   3.050   0.255   6.980
 3775SOL     OW11770   1.870   1.326   5.786
 3775SOL    HW111771   1.777   1.347   5.755
 3775SOL    HW211772   1.880   1.227   5.799
 3776SOL     OW11773   1.950   1.801   6.513
 3776SOL    HW111774   1.908   1.715   6.486
 3776SOL    HW211775   2.044   1.804   6.479
 3777SOL     OW11776   2.366   1.568   6.496
 3777SOL    HW111777   2.432   1.642   6.505
 3777SOL    HW211778   2.410   1.489   6.454
 3778SOL     OW11779   2.864   0.796   6.824
 3778SOL    HW111780   2.905   0.764   6.910
 3778SOL    HW211781   2.768   0.769   6.821
 3779SOL     OW11782   1.902   0.544   6.700
 3779SOL    HW111783   1.987   0.511   6.659
 3779SOL    HW211784   1.915   0.559   6.798
 3780SOL     OW11785   2.051   0.520   7.308
 3780SOL    HW111786   2.110   0.480   7.238
 3780SOL    HW211787   1.993   0.591   7.267
 3781SOL     OW11788   3.231   0.950   7.246
 3781SOL    HW111789   3.270   1.039   7.266
 3781SOL    HW211790   3.241   0.930   7.149
 3782SOL     OW11791   2.677   0.572   5.911
 3782SOL    HW111792   2.684   0.483   5.865
 3782SOL    HW211793   2.583   0.606   5.903
 3783SOL     OW11794   3.519   0.604   6.792
 3783SOL    HW111795   3.481   0.535   6.854
 3783SOL    HW211796   3.601   0.568   6.748
 3784SOL     OW11797   2.114   1.564   7.330
 3784SOL    HW111798   2.084   1.621   7.406
 3784SOL    HW211799   2.107   1.467   7.356
 3785SOL     OW11800   2.533   0.464   6.855
 3785SOL    HW111801   2.499   0.375   6.825
 3785SOL    HW211802   2.559   0.518   6.775
 3786SOL     OW11803   2.792   1.678   7.051
 3786SOL    HW111804   2.768   1.660   6.956
 3786SOL    HW211805   2.822   1.772   7.061
 3787SOL     OW11806   2.335   0.500   5.777
 3787SOL    HW111807   2.396   0.580   5.781
 3787SOL    HW211808   2.240   0.531   5.784
 3788SOL     OW11809   2.021   1.137   7.052
 3788SOL    HW111810   2.043   1.076   7.128
 3788SOL    HW211811   2.031   1.088   6.966
 3789SOL     OW11812   3.209   1.059   6.820
 3789SOL    HW111813   3.233   0.996   6.746
 3789SOL    HW211814   3.119   1.099   6.802
 3790SOL     OW11815   3.164   0.855   5.895
 3790SOL    HW111816   3.078   0.824   5.937
 3790SOL    HW211817   3.160   0.841   5.796
 3791SOL     OW11818   3.621   1.747   6.740
 3791SOL    HW111819   3.682   1.777   6.667
 3791SOL    HW211820   3.583   1.658   6.718
 3792SOL     OW11821   3.114   1.731   6.714
 3792SOL    HW111822   3.198   1.736   6.660
 3792SOL    HW211823   3.091   1.635   6.732
 3793SOL     OW11824   1.945   1.258   6.608
 3793SOL    HW111825   1.940   1.257   6.708
 3793SOL    HW211826   1.862   1.217   6.570
 3794SOL     OW11827   2.550   1.662   7.302
 3794SOL    HW111828   2.494   1.743   7.311
 3794SOL    HW211829   2.602   1.666   7.216
 3795SOL     OW11830   3.588   0.135   6.109
 3795SOL    HW111831   3.661   0.118   6.042
 3795SOL    HW211832   3.557   0.048   6.147
 3796SOL     OW11833   3.250   1.573   6.063
 3796SOL    HW111834   3.317   1.585   5.989
 3796SOL    HW211835   3.210   1.662   6.086
 3797SOL     OW11836   1.992   1.794   7.437
 3797SOL    HW111837   1.951   1.720   7.490
 3797SOL    HW211838   2.056   1.845   7.495
 3798SOL     OW11839   3.142   0.927   6.258
 3798SOL    HW111840   3.202   0.846   6.260
 3798SOL    HW211841   3.182   0.996   6.198
 3799SOL     OW11842   2.692   1.273   7.008
 3799SOL    HW111843   2.687   1.306   7.103
 3799SOL    HW211844   2.606   1.292   6.962
 3800SOL     OW11845   3.512   1.720   6.980
 3800SOL    HW111846   3.565   1.730   6.896
 3800SOL    HW211847   3.485   1.810   7.014
 3801SOL     OW11848   3.703   0.175   6.549
 3801SOL    HW111849   3.742   0.090   6.513
 3801SOL    HW211850   3.605   0.177   6.530
 3802SOL     OW11851   2.125   0.326   6.306
 3802SOL    HW111852   2.046   0.377   6.272
 3802SOL    HW211853   2.116   0.311   6.404
 3803SOL     OW11854   2.684   1.002   6.958
 3803SOL    HW111855   2.724   1.001   6.866
 3803SOL    HW211856   2.694   1.094   6.998
 3804SOL     OW11857   2.778   0.910   5.877
 3804SOL    HW111858   2.841   0.948   5.809
 3804SOL    HW211859   2.818   0.827   5.916
 3805SOL     OW11860   3.366   1.607   5.630
 3805SOL    HW111861   3.274   1.644   5.637
 3805SOL    HW211862   3.404   1.627   5.540
 3806SOL     OW11863   2.234   1.288   7.076
 3806SOL    HW111864   2.221   1.381   7.042
 3806SOL    HW211865   2.150   1.236   7.063
 3807SOL     OW11866   3.476   1.292   6.875
 3807SOL    HW111867   3.536   1.295   6.955
 3807SOL    HW211868   3.401   1.356   6.888
 3808SOL     OW11869   2.901   1.098   6.282
 3808SOL    HW111870   2.831   1.051   6.336
 3808SOL    HW211871   2.960   1.030   6.239
 3809SOL     OW11872   2.876   0.236   6.557
 3809SOL    HW111873   2.868   0.200   6.464
 3809SOL    HW211874   2.874   0.160   6.622
 3810SOL     OW11875   2.452   1.487   6.077
 3810SOL    HW111876   2.494   1.429   6.007
 3810SOL    HW211877   2.408   1.566   6.033
 3811SOL     OW11878   3.571   0.385   6.967
 3811SOL    HW111879   3.644   0.454   6.971
 3811SOL    HW211880   3.599   0.310   6.908
 3812SOL     OW11881   2.117   1.348   5.876
 3812SOL    HW111882   2.021   1.349   5.849
 3812SOL    HW211883   2.129   1.401   5.960
 3813SOL     OW11884   1.967   1.013   7.312
 3813SOL    HW111885   1.890   0.980   7.366
 3813SOL    HW211886   2.052   0.983   7.354
 3814SOL     OW11887   2.534   0.203   7.075
 3814SOL    HW111888   2.624   0.187   7.035
 3814SOL    HW211889   2.542   0.208   7.174
 3815SOL     OW11890   1.937   0.345   5.619
 3815SOL    HW111891   1.845   0.317   5.590
 3815SOL    HW211892   1.968   0.422   5.563
 3816SOL     OW11893   3.302   0.856   6.984
 3816SOL    HW111894   3.245   0.908   6.921
 3816SOL    HW211895   3.398   0.868   6.960
 3817SOL     OW11896   1.934   0.166   5.904
 3817SOL    HW111897   1.917   0.249   5.850
 3817SOL    HW211898   2.024   0.129   5.882
 3818SOL     OW11899   3.045   1.335   5.705
 3818SOL    HW111900   2.946   1.324   5.707
 3818SOL    HW211901   3.079   1.350   5.798
 3819SOL     OW11902   2.475   0.842   7.017
 3819SOL    HW111903   2.531   0.923   7.000
 3819SOL    HW211904   2.534   0.762   7.020
 3820SOL     OW11905   3.355   1.767   6.545
 3820SOL    HW111906   3.388   1.831   6.476
 3820SOL    HW211907   3.421   1.761   6.620
 3821SOL     OW11908   2.578   0.565   7.294
 3821SOL    HW111909   2.597   0.630   7.368
 3821SOL    HW211910   2.638   0.485   7.303
 3822SOL     OW11911   3.312   1.220   7.219
 3822SOL    HW111912   3.303   1.210   7.318
 3822SOL    HW211913   3.408   1.213   7.193
 3823SOL     OW11914   2.252   1.741   7.146
 3823SOL    HW111915   2.161   1.782   7.144
 3823SOL    HW211916   2.245   1.647   7.178
 3824SOL     OW11917   3.536   0.883   6.840
 3824SOL    HW111918   3.509   0.794   6.803
 3824SOL    HW211919   3.537   0.951   6.767
 3825SOL     OW11920   3.087   0.325   6.035
 3825SOL    HW111921   3.152   0.251   6.024
 3825SOL    HW211922   3.107   0.375   6.119
 3826SOL     OW11923   2.456   0.745   6.238
 3826SOL    HW111924   2.506   0.830   6.219
 3826SOL    HW211925   2.368   0.747   6.190
 3827SOL     OW11926   3.639   0.342   7.228
 3827SOL    HW111927   3.622   0.373   7.134
 3827SOL    HW211928   3.555   0.305   7.266
 3828SOL     OW11929   3.592   0.934   7.103
 3828SOL    HW111930   3.630   1.025   7.118
 3828SOL    HW211931   3.584   0.917   7.004
 3829SOL     OW11932   2.523   1.790   6.539
 3829SOL    HW111933   2.477   1.878   6.526
 3829SOL    HW211934   2.622   1.802   6.532
 3830SOL     OW11935   2.721   0.956   6.447
 3830SOL    HW111936   2.775   0.887   6.495
 3830SOL    HW211937   2.689   1.025   6.513
 3831SOL     OW11938   2.945   0.984   5.673
 3831SOL    HW111939   2.922   1.037   5.591
 3831SOL    HW211940   3.026   0.928   5.654
 3832SOL     OW11941   3.723   1.569   6.437
 3832SOL    HW111942   3.652   1.557   6.367
 3832SOL    HW211943   3.724   1.490   6.497
 3833SOL     OW11944   2.083   1.314   7.430
 3833SOL    HW111945   2.018   1.241   7.409
 3833SOL    HW211946   2.087   1.328   7.528
 3834SOL     OW11947   1.941   1.240   6.239
 3834SOL    HW111948   1.940   1.193   6.327
 3834SOL    HW211949   2.023   1.212   6.188
 3835SOL     OW11950   2.534   1.391   7.210
 3835SOL    HW111951   2.456   1.341   7.248
 3835SOL    HW211952   2.531   1.486   7.241
 3836SOL     OW11953   3.686   0.192   6.813
 3836SOL    HW111954   3.682   0.102   6.857
 3836SOL    HW211955   3.689   0.181   6.714
 3837SOL     OW11956   2.290   0.424   6.106
 3837SOL    HW111957   2.320   0.352   6.044
 3837SOL    HW211958   2.251   0.384   6.189
 3838SOL     OW11959   3.567   1.487   6.690
 3838SOL    HW111960   3.474   1.462   6.663
 3838SOL    HW211961   3.593   1.437   6.772
 3839SOL     OW11962   2.179   0.547   6.866
 3839SOL    HW111963   2.217   0.488   6.938
 3839SOL    HW211964   2.219   0.521   6.778
 3840SOL     OW11965   2.674   1.586   6.273
 3840SOL    HW111966   2.706   1.596   6.179
 3840SOL    HW211967   2.595   1.524   6.275
 3841SOL     OW11968   3.286   0.214   6.698
 3841SOL    HW111969   3.338   0.149   6.753
 3841SOL    HW211970   3.237   0.277   6.759
 3842SOL     OW11971   2.863   0.034   6.740
 3842SOL    HW111972   2.800  -0.038   6.709
 3842SOL    HW211973   2.956  -0.002   6.740
 3843SOL     OW11974   2.632   1.330   5.887
 3843SOL    HW111975   2.586   1.243   5.904
 3843SOL    HW211976   2.723   1.327   5.928
 3844SOL     OW11977   2.480   1.567   6.870
 3844SOL    HW111978   2.475   1.649   6.927
 3844SOL    HW211979   2.569   1.564   6.825
 3845SOL     OW11980   3.214   0.052   5.754
 3845SOL    HW111981   3.249   0.011   5.670
 3845SOL    HW211982   3.124   0.014   5.774
 3846SOL     OW11983   3.162   0.453   6.277
 3846SOL    HW111984   3.103   0.533   6.281
 3846SOL    HW211985   3.177   0.418   6.370
 3847SOL     OW11986   3.455   0.221   6.468
 3847SOL    HW111987   3.371   0.220   6.522
 3847SOL    HW211988   3.457   0.304   6.412
 3848SOL     OW11989   1.901   1.077   5.886
 3848SOL    HW111990   2.000   1.066   5.877
 3848SOL    HW211991   1.861   0.991   5.918
 3849SOL     OW11992   2.737   1.646   5.923
 3849SOL    HW111993   2.660   1.611   5.869
 3849SOL    HW211994   2.705   1.717   5.985
 3850SOL     OW11995   2.092   0.628   7.561
 3850SOL    HW111996   1.999   0.626   7.598
 3850SOL    HW211997   2.093   0.589   7.469
 3851SOL     OW11998   2.087   0.275   8.444
 3851SOL    HW111999   2.122   0.258   8.536
 3851SOL    HW212000   1.999   0.230   8.432
 3852SOL     OW12001   1.881   0.368   8.095
 3852SOL    HW112002   1.799   0.411   8.134
 3852SOL    HW212003   1.853   0.295   8.032
 3853SOL     OW12004   2.431   1.275   8.613
 3853SOL    HW112005   2.338   1.268   8.576
 3853SOL    HW212006   2.442   1.364   8.657
 3854SOL     OW12007   3.417   1.511   8.151
 3854SOL    HW112008   3.360   1.495   8.232
 3854SOL    HW212009   3.358   1.521   8.071
 3855SOL     OW12010   2.997   0.703   8.165
 3855SOL    HW112011   3.054   0.781   8.140
 3855SOL    HW212012   2.937   0.729   8.241
 3856SOL     OW12013   3.617   0.607   7.679
 3856SOL    HW112014   3.605   0.594   7.580
 3856SOL    HW212015   3.587   0.526   7.728
 3857SOL     OW12016   2.630   1.144   8.471
 3857SOL    HW112017   2.552   1.161   8.531
 3857SOL    HW212018   2.664   1.231   8.435
 3858SOL     OW12019   2.712   0.798   9.271
 3858SOL    HW112020   2.708   0.874   9.336
 3858SOL    HW212021   2.734   0.834   9.180
 3859SOL     OW12022   2.547   1.012   8.113
 3859SOL    HW112023   2.616   0.996   8.183
 3859SOL    HW212024   2.474   1.069   8.151
 3860SOL     OW12025   2.548   1.161   9.251
 3860SOL    HW112026   2.608   1.240   9.265
 3860SOL    HW212027   2.462   1.192   9.210
 3861SOL     OW12028   2.197   1.435   8.509
 3861SOL    HW112029   2.119   1.404   8.456
 3861SOL    HW212030   2.255   1.493   8.452
 3862SOL     OW12031   3.322   1.505   8.787
 3862SOL    HW112032   3.346   1.599   8.813
 3862SOL    HW212033   3.306   1.451   8.869
 3863SOL     OW12034   2.300   0.392   8.947
 3863SOL    HW112035   2.382   0.336   8.956
 3863SOL    HW212036   2.219   0.334   8.951
 3864SOL     OW12037   3.465   0.447   8.185
 3864SOL    HW112038   3.391   0.493   8.135
 3864SOL    HW212039   3.516   0.515   8.238
 3865SOL     OW12040   2.093   1.713   7.931
 3865SOL    HW112041   2.127   1.790   7.985
 3865SOL    HW212042   2.137   1.713   7.841
 3866SOL     OW12043   2.989   1.341   9.138
 3866SOL    HW112044   3.036   1.341   9.226
 3866SOL    HW212045   2.941   1.254   9.127
 3867SOL     OW12046   2.092   1.434   7.986
 3867SOL    HW112047   2.066   1.530   7.986
 3867SOL    HW212048   2.021   1.380   8.031
 3868SOL     OW12049   2.102   1.091   8.334
 3868SOL    HW112050   2.116   1.007   8.386
 3868SOL    HW212051   2.047   1.155   8.389
 3869SOL     OW12052   2.482   1.786   8.887
 3869SOL    HW112053   2.390   1.769   8.922
 3869SOL    HW212054   2.510   1.878   8.913
 3870SOL     OW12055   2.468   0.964   7.571
 3870SOL    HW112056   2.475   1.048   7.517
 3870SOL    HW212057   2.514   0.977   7.659
 3871SOL     OW12058   3.456   0.114   8.928
 3871SOL    HW112059   3.438   0.181   8.856
 3871SOL    HW212060   3.453   0.160   9.017
 3872SOL     OW12061   1.984   0.643   8.011
 3872SOL    HW112062   1.939   0.555   8.028
 3872SOL    HW212063   1.983   0.697   8.095
 3873SOL     OW12064   3.704   1.767   7.807
 3873SOL    HW112065   3.758   1.738   7.887
 3873SOL    HW212066   3.734   1.857   7.778
 3874SOL     OW12067   1.889   1.596   7.565
 3874SOL    HW112068   1.870   1.500   7.586
 3874SOL    HW212069   1.856   1.654   7.640
 3875SOL     OW12070   3.551   0.922   8.060
 3875SOL    HW112071   3.646   0.893   8.068
 3875SOL    HW212072   3.543   0.987   7.985
 3876SOL     OW12073   3.503   1.108   7.880
 3876SOL    HW112074   3.589   1.110   7.828
 3876SOL    HW212075   3.517   1.155   7.968
 3877SOL     OW12076   1.975   0.737   9.045
 3877SOL    HW112077   2.063   0.724   9.090
 3877SOL    HW212078   1.962   0.834   9.023
 3878SOL     OW12079   2.475   1.365   8.174
 3878SOL    HW112080   2.426   1.278   8.183
 3878SOL    HW212081   2.452   1.408   8.087
 3879SOL     OW12082   3.155   1.228   8.871
 3879SOL    HW112083   3.192   1.155   8.813
 3879SOL    HW212084   3.207   1.233   8.956
 3880SOL     OW12085   2.671   0.004   7.950
 3880SOL    HW112086   2.711   0.095   7.941
 3880SOL    HW212087   2.571   0.012   7.956
 3881SOL     OW12088   2.059   0.976   8.712
 3881SOL    HW112089   2.148   0.931   8.698
 3881SOL    HW212090   1.986   0.911   8.693
 3882SOL     OW12091   3.387   0.999   7.638
 3882SOL    HW112092   3.324   0.923   7.651
 3882SOL    HW212093   3.435   1.017   7.724
 3883SOL     OW12094   3.049   1.792   9.064
 3883SOL    HW112095   3.073   1.852   8.988
 3883SOL    HW212096   3.056   1.697   9.034
 3884SOL     OW12097   2.179   0.251   9.249
 3884SOL    HW112098   2.250   0.322   9.255
 3884SOL    HW212099   2.091   0.290   9.277
 3885SOL     OW12100   3.328   1.417   8.401
 3885SOL    HW112101   3.269   1.423   8.481
 3885SOL    HW212102   3.313   1.329   8.355
 3886SOL     OW12103   3.529   1.714   8.020
 3886SOL    HW112104   3.488   1.691   7.932
 3886SOL    HW212105   3.511   1.640   8.085
 3887SOL     OW12106   2.460   0.729   7.718
 3887SOL    HW112107   2.484   0.798   7.650
 3887SOL    HW212108   2.382   0.762   7.772
 3888SOL     OW12109   3.143   0.345   8.392
 3888SOL    HW112110   3.057   0.295   8.379
 3888SOL    HW212111   3.205   0.291   8.448
 3889SOL     OW12112   3.438   1.662   7.755
 3889SOL    HW112113   3.527   1.708   7.758
 3889SOL    HW212114   3.417   1.638   7.660
 3890SOL     OW12115   2.669   0.605   8.913
 3890SOL    HW112116   2.622   0.602   9.002
 3890SOL    HW212117   2.618   0.550   8.847
 3891SOL     OW12118   3.256   0.469   9.122
 3891SOL    HW112119   3.236   0.512   9.210
 3891SOL    HW212120   3.334   0.407   9.131
 3892SOL     OW12121   2.835   0.890   9.020
 3892SOL    HW112122   2.881   0.806   8.991
 3892SOL    HW212123   2.779   0.924   8.945
 3893SOL     OW12124   2.853   0.410   8.690
 3893SOL    HW112125   2.776   0.444   8.744
 3893SOL    HW212126   2.819   0.359   8.611
 3894SOL     OW12127   2.903   0.701   7.877
 3894SOL    HW112128   2.929   0.697   7.973
 3894SOL    HW212129   2.818   0.650   7.863
 3895SOL     OW12130   1.938   0.811   8.237
 3895SOL    HW112131   2.037   0.799   8.246
 3895SOL    HW212132   1.914   0.906   8.258
 3896SOL     OW12133   1.992   1.821   9.019
 3896SOL    HW112134   1.982   1.806   9.118
 3896SOL    HW212135   1.906   1.857   8.983
 3897SOL     OW12136   2.727   0.348   7.643
 3897SOL    HW112137   2.786   0.411   7.594
 3897SOL    HW212138   2.746   0.254   7.614
 3898SOL     OW12139   3.581   0.585   9.279
 3898SOL    HW112140   3.555   0.674   9.243
 3898SOL    HW212141   3.579   0.517   9.206
 3899SOL     OW12142   3.224   1.144   7.993
 3899SOL    HW112143   3.307   1.115   7.945
 3899SOL    HW212144   3.175   1.211   7.937
 3900SOL     OW12145   2.412   0.196   8.333
 3900SOL    HW112146   2.407   0.191   8.433
 3900SOL    HW212147   2.414   0.292   8.304
 3901SOL     OW12148   2.870   1.456   7.925
 3901SOL    HW112149   2.824   1.528   7.873
 3901SOL    HW212150   2.866   1.476   8.023
 3902SOL     OW12151   2.213   1.801   8.301
 3902SOL    HW112152   2.263   1.715   8.307
 3902SOL    HW212153   2.278   1.878   8.298
 3903SOL     OW12154   3.657   1.066   8.321
 3903SOL    HW112155   3.595   1.051   8.245
 3903SOL    HW212156   3.605   1.077   8.406
 3904SOL     OW12157   3.089   1.550   8.954
 3904SOL    HW112158   3.095   1.473   9.018
 3904SOL    HW212159   3.037   1.524   8.874
 3905SOL     OW12160   2.183   0.943   7.690
 3905SOL    HW112161   2.265   0.982   7.648
 3905SOL    HW212162   2.156   0.861   7.641
 3906SOL     OW12163   3.320   0.735   8.176
 3906SOL    HW112164   3.315   0.670   8.251
 3906SOL    HW212165   3.400   0.794   8.189
 3907SOL     OW12166   2.323   1.266   9.175
 3907SOL    HW112167   2.273   1.267   9.089
 3907SOL    HW212168   2.260   1.248   9.251
 3908SOL     OW12169   2.973   1.776   7.685
 3908SOL    HW112170   2.913   1.714   7.735
 3908SOL    HW212171   3.004   1.732   7.600
 3909SOL     OW12172   2.064   0.285   8.946
 3909SOL    HW112173   1.984   0.345   8.933
 3909SOL    HW212174   2.054   0.236   9.032
 3910SOL     OW12175   3.494   1.377   7.529
 3910SOL    HW112176   3.462   1.471   7.519
 3910SOL    HW212177   3.418   1.314   7.517
 3911SOL     OW12178   2.326   1.743   7.771
 3911SOL    HW112179   2.359   1.782   7.857
 3911SOL    HW212180   2.402   1.736   7.706
 3912SOL     OW12181   3.262   0.107   7.874
 3912SOL    HW112182   3.238   0.070   7.784
 3912SOL    HW212183   3.361   0.123   7.878
 3913SOL     OW12184   2.111   1.785   8.689
 3913SOL    HW112185   2.168   1.720   8.739
 3913SOL    HW212186   2.095   1.752   8.596
 3914SOL     OW12187   2.802   1.698   8.352
 3914SOL    HW112188   2.882   1.641   8.373
 3914SOL    HW212189   2.753   1.658   8.275
 3915SOL     OW12190   2.244   0.700   7.928
 3915SOL    HW112191   2.289   0.610   7.925
 3915SOL    HW212192   2.150   0.689   7.961
 3916SOL     OW12193   3.409   0.222   9.177
 3916SOL    HW112194   3.404   0.259   9.269
 3916SOL    HW212195   3.337   0.153   9.165
 3917SOL     OW12196   2.476   0.122   7.565
 3917SOL    HW112197   2.574   0.100   7.572
 3917SOL    HW212198   2.445   0.105   7.472
 3918SOL     OW12199   2.643   0.264   9.197
 3918SOL    HW112200   2.710   0.203   9.240
 3918SOL    HW212201   2.570   0.283   9.262
 3919SOL     OW12202   2.750   1.514   8.643
 3919SOL    HW112203   2.727   1.489   8.549
 3919SOL    HW212204   2.811   1.445   8.682
 3920SOL     OW12205   3.213   0.590   8.881
 3920SOL    HW112206   3.241   0.547   8.966
 3920SOL    HW212207   3.238   0.686   8.882
 3921SOL     OW12208   2.665   1.402   8.372
 3921SOL    HW112209   2.755   1.416   8.330
 3921SOL    HW212210   2.594   1.404   8.301
 3922SOL     OW12211   2.784   0.503   8.347
 3922SOL    HW112212   2.759   0.494   8.251
 3922SOL    HW212213   2.832   0.421   8.378
 3923SOL     OW12214   2.401   0.064   7.960
 3923SOL    HW112215   2.320   0.065   8.018
 3923SOL    HW212216   2.404   0.147   7.905
 3924SOL     OW12217   3.296   1.188   7.489
 3924SOL    HW112218   3.328   1.112   7.546
 3924SOL    HW212219   3.204   1.215   7.519
 3925SOL     OW12220   2.159   0.035   7.619
 3925SOL    HW112221   2.208   0.119   7.598
 3925SOL    HW212222   2.221  -0.030   7.664
 3926SOL     OW12223   2.797   0.236   7.928
 3926SOL    HW112224   2.749   0.277   7.850
 3926SOL    HW212225   2.896   0.234   7.909
 3927SOL     OW12226   2.938   0.683   8.912
 3927SOL    HW112227   2.858   0.622   8.915
 3927SOL    HW212228   3.019   0.630   8.888
 3928SOL     OW12229   3.089   1.570   8.241
 3928SOL    HW112230   3.110   1.644   8.176
 3928SOL    HW212231   3.157   1.570   8.314
 3929SOL     OW12232   2.321   1.152   8.189
 3929SOL    HW112233   2.250   1.125   8.254
 3929SOL    HW212234   2.295   1.124   8.096
 3930SOL     OW12235   3.133   1.797   8.039
 3930SOL    HW112236   3.177   1.861   7.975
 3930SOL    HW212237   3.083   1.849   8.109
 3931SOL     OW12238   2.894   0.549   7.464
 3931SOL    HW112239   2.853   0.631   7.425
 3931SOL    HW212240   2.958   0.575   7.537
 3932SOL     OW12241   1.940   0.556   8.834
 3932SOL    HW112242   2.032   0.555   8.793
 3932SOL    HW212243   1.934   0.630   8.901
 3933SOL     OW12244   2.423   0.222   8.595
 3933SOL    HW112245   2.461   0.138   8.632
 3933SOL    HW212246   2.335   0.241   8.639
 3934SOL     OW12247   2.728   0.454   8.090
 3934SOL    HW112248   2.696   0.526   8.028
 3934SOL    HW212249   2.752   0.373   8.037
 3935SOL     OW12250   2.879   0.039   8.201
 3935SOL    HW112251   2.807   0.044   8.132
 3935SOL    HW212252   2.855  -0.030   8.270
 3936SOL     OW12253   3.291   1.173   8.315
 3936SOL    HW112254   3.236   1.089   8.308
 3936SOL    HW212255   3.317   1.202   8.223
 3937SOL     OW12256   3.328   0.590   8.440
 3937SOL    HW112257   3.298   0.495   8.447
 3937SOL    HW212258   3.401   0.606   8.506
 3938SOL     OW12259   3.719   0.833   7.825
 3938SOL    HW112260   3.761   0.769   7.889
 3938SOL    HW212261   3.681   0.782   7.747
 3939SOL     OW12262   2.350   1.385   7.622
 3939SOL    HW112263   2.263   1.370   7.669
 3939SOL    HW212264   2.333   1.411   7.527
 3940SOL     OW12265   3.526   1.280   8.105
 3940SOL    HW112266   3.625   1.288   8.119
 3940SOL    HW212267   3.481   1.364   8.136
 3941SOL     OW12268   3.252   0.575   7.526
 3941SOL    HW112269   3.198   0.554   7.607
 3941SOL    HW212270   3.343   0.534   7.535
 3942SOL     OW12271   2.389   0.256   7.776
 3942SOL    HW112272   2.416   0.197   7.701
 3942SOL    HW212273   2.389   0.351   7.745
 3943SOL     OW12274   3.616   1.223   9.036
 3943SOL    HW112275   3.707   1.184   9.023
 3943SOL    HW212276   3.624   1.319   9.060
 3944SOL     OW12277   2.926   1.347   8.788
 3944SOL    HW112278   2.846   1.324   8.843
 3944SOL    HW212279   3.009   1.321   8.837
 3945SOL     OW12280   3.454   1.629   9.073
 3945SOL    HW112281   3.481   1.663   8.983
 3945SOL    HW212282   3.533   1.591   9.119
 3946SOL     OW12283   2.973   1.195   8.548
 3946SOL    HW112284   2.933   1.239   8.629
 3946SOL    HW212285   2.932   1.232   8.465
 3947SOL     OW12286   3.500   1.099   8.527
 3947SOL    HW112287   3.505   1.180   8.586
 3947SOL    HW212288   3.414   1.101   8.476
 3948SOL     OW12289   2.777   0.089   8.850
 3948SOL    HW112290   2.802   0.069   8.755
 3948SOL    HW212291   2.849   0.145   8.892
 3949SOL     OW12292   2.842   1.116   9.167
 3949SOL    HW112293   2.743   1.122   9.177
 3949SOL    HW212294   2.865   1.036   9.111
 3950SOL     OW12295   2.567   1.050   7.816
 3950SOL    HW112296   2.553   1.057   7.915
 3950SOL    HW212297   2.651   0.999   7.798
 3951SOL     OW12298   2.272   0.813   8.699
 3951SOL    HW112299   2.358   0.825   8.749
 3951SOL    HW212300   2.230   0.726   8.726
 3952SOL     OW12301   3.136   0.386   8.710
 3952SOL    HW112302   3.157   0.460   8.774
 3952SOL    HW212303   3.047   0.403   8.667
 3953SOL     OW12304   1.926   1.564   8.779
 3953SOL    HW112305   1.880   1.646   8.745
 3953SOL    HW212306   2.024   1.583   8.788
 3954SOL     OW12307   2.229   1.100   7.949
 3954SOL    HW112308   2.222   1.183   7.893
 3954SOL    HW212309   2.233   1.020   7.889
 3955SOL     OW12310   2.428   0.537   8.313
 3955SOL    HW112311   2.440   0.603   8.239
 3955SOL    HW212312   2.474   0.571   8.396
 3956SOL     OW12313   3.114   1.348   7.836
 3956SOL    HW112314   3.164   1.425   7.876
 3956SOL    HW212315   3.019   1.350   7.868
 3957SOL     OW12316   3.134   1.445   8.590
 3957SOL    HW112317   3.181   1.458   8.677
 3957SOL    HW212318   3.068   1.371   8.599
 3958SOL     OW12319   3.444   0.639   7.920
 3958SOL    HW112320   3.413   0.700   7.993
 3958SOL    HW212321   3.494   0.691   7.851
 3959SOL     OW12322   2.216   1.510   8.777
 3959SOL    HW112323   2.195   1.466   8.690
 3959SOL    HW212324   2.313   1.536   8.780
 3960SOL     OW12325   2.264   0.751   9.046
 3960SOL    HW112326   2.332   0.806   8.999
 3960SOL    HW212327   2.304   0.663   9.073
 3961SOL     OW12328   3.449   0.779   9.118
 3961SOL    HW112329   3.357   0.817   9.113
 3961SOL    HW212330   3.509   0.826   9.053
 3962SOL     OW12331   2.875   0.105   9.218
 3962SOL    HW112332   2.881   0.190   9.166
 3962SOL    HW212333   2.907   0.029   9.161
 3963SOL     OW12334   2.366   0.050   9.188
 3963SOL    HW112335   2.324  -0.007   9.118
 3963SOL    HW212336   2.300   0.119   9.220
 3964SOL     OW12337   2.435   0.870   8.477
 3964SOL    HW112338   2.479   0.959   8.468
 3964SOL    HW212339   2.372   0.870   8.554
 3965SOL     OW12340   3.222   0.862   8.493
 3965SOL    HW112341   3.147   0.862   8.427
 3965SOL    HW212342   3.259   0.770   8.502
 3966SOL     OW12343   3.071   0.525   7.723
 3966SOL    HW112344   3.084   0.441   7.777
 3966SOL    HW212345   3.042   0.599   7.783
 3967SOL     OW12346   2.169   0.213   8.679
 3967SOL    HW112347   2.146   0.250   8.769
 3967SOL    HW212348   2.139   0.118   8.673
 3968SOL     OW12349   1.899   1.310   8.730
 3968SOL    HW112350   1.952   1.261   8.798
 3968SOL    HW212351   1.921   1.408   8.735
 3969SOL     OW12352   2.594   0.634   8.512
 3969SOL    HW112353   2.653   0.608   8.436
 3969SOL    HW212354   2.566   0.730   8.501
 3970SOL     OW12355   3.590   0.935   9.302
 3970SOL    HW112356   3.544   0.928   9.213
 3970SOL    HW212357   3.528   0.979   9.368
 3971SOL     OW12358   2.169   0.063   8.066
 3971SOL    HW112359   2.158   0.157   8.099
 3971SOL    HW212360   2.164   0.000   8.143
 3972SOL     OW12361   3.484   0.367   7.822
 3972SOL    HW112362   3.486   0.291   7.886
 3972SOL    HW212363   3.436   0.444   7.862
 3973SOL     OW12364   2.885   0.766   8.414
 3973SOL    HW112365   2.900   0.787   8.510
 3973SOL    HW212366   2.855   0.671   8.405
 3974SOL     OW12367   2.842   1.573   9.148
 3974SOL    HW112368   2.822   1.617   9.060
 3974SOL    HW212369   2.881   1.482   9.132
 3975SOL     OW12370   3.721   1.518   9.053
 3975SOL    HW112371   3.735   1.545   8.958
 3975SOL    HW212372   3.804   1.540   9.106
 3976SOL     OW12373   2.212   0.898   9.252
 3976SOL    HW112374   2.288   0.942   9.300
 3976SOL    HW212375   2.247   0.851   9.170
 3977SOL     OW12376   3.402   0.274   7.573
 3977SOL    HW112377   3.341   0.199   7.596
 3977SOL    HW212378   3.424   0.326   7.656
 3978SOL     OW12379   3.165   0.838   7.490
 3978SOL    HW112380   3.199   0.745   7.505
 3978SOL    HW212381   3.183   0.865   7.395
 3979SOL     OW12382   2.930   1.333   8.297
 3979SOL    HW112383   2.937   1.249   8.242
 3979SOL    HW212384   2.992   1.402   8.261
 3980SOL     OW12385   2.181   0.810   8.397
 3980SOL    HW112386   2.274   0.846   8.402
 3980SOL    HW212387   2.175   0.725   8.449
 3981SOL     OW12388   2.201   0.509   8.454
 3981SOL    HW112389   2.149   0.426   8.437
 3981SOL    HW212390   2.278   0.514   8.390
 3982SOL     OW12391   3.000   0.380   9.126
 3982SOL    HW112392   2.955   0.443   9.190
 3982SOL    HW212393   3.093   0.411   9.109
 3983SOL     OW12394   3.022   0.207   8.925
 3983SOL    HW112395   3.022   0.271   9.002
 3983SOL    HW212396   3.050   0.255   8.842
 3984SOL     OW12397   1.870   1.326   7.648
 3984SOL    HW112398   1.777   1.347   7.617
 3984SOL    HW212399   1.880   1.227   7.661
 3985SOL     OW12400   1.950   1.801   8.375
 3985SOL    HW112401   1.908   1.715   8.348
 3985SOL    HW212402   2.044   1.804   8.341
 3986SOL     OW12403   2.366   1.568   8.358
 3986SOL    HW112404   2.432   1.642   8.367
 3986SOL    HW212405   2.410   1.489   8.316
 3987SOL     OW12406   2.864   0.796   8.686
 3987SOL    HW112407   2.905   0.764   8.772
 3987SOL    HW212408   2.768   0.769   8.683
 3988SOL     OW12409   1.902   0.544   8.562
 3988SOL    HW112410   1.987   0.511   8.521
 3988SOL    HW212411   1.915   0.559   8.660
 3989SOL     OW12412   2.051   0.520   9.170
 3989SOL    HW112413   2.110   0.480   9.100
 3989SOL    HW212414   1.993   0.591   9.129
 3990SOL     OW12415   3.231   0.950   9.108
 3990SOL    HW112416   3.270   1.039   9.128
 3990SOL    HW212417   3.241   0.930   9.011
 3991SOL     OW12418   2.677   0.572   7.773
 3991SOL    HW112419   2.684   0.483   7.727
 3991SOL    HW212420   2.583   0.606   7.765
 3992SOL     OW12421   3.519   0.604   8.654
 3992SOL    HW112422   3.481   0.535   8.716
 3992SOL    HW212423   3.601   0.568   8.610
 3993SOL     OW12424   2.114   1.564   9.192
 3993SOL    HW112425   2.084   1.621   9.268
 3993SOL    HW212426   2.107   1.467   9.218
 3994SOL     OW12427   2.533   0.464   8.717
 3994SOL    HW112428   2.499   0.375   8.687
 3994SOL    HW212429   2.559   0.518   8.637
 3995SOL     OW12430   2.792   1.678   8.913
 3995SOL    HW112431   2.768   1.660   8.818
 3995SOL    HW212432   2.822   1.772   8.923
 3996SOL     OW12433   2.335   0.500   7.639
 3996SOL    HW112434   2.396   0.580   7.643
 3996SOL    HW212435   2.240   0.531   7.646
 3997SOL     OW12436   2.021   1.137   8.914
 3997SOL    HW112437   2.043   1.076   8.990
 3997SOL    HW212438   2.031   1.088   8.828
 3998SOL     OW12439   3.209   1.059   8.682
 3998SOL    HW112440   3.233   0.996   8.608
 3998SOL    HW212441   3.119   1.099   8.664
 3999SOL     OW12442   3.164   0.855   7.757
 3999SOL    HW112443   3.078   0.824   7.799
 3999SOL    HW212444   3.160   0.841   7.658
 4000SOL     OW12445   3.621   1.747   8.602
 4000SOL    HW112446   3.682   1.777   8.529
 4000SOL    HW212447   3.583   1.658   8.580
 4001SOL     OW12448   3.114   1.731   8.576
 4001SOL    HW112449   3.198   1.736   8.522
 4001SOL    HW212450   3.091   1.635   8.594
 4002SOL     OW12451   1.945   1.258   8.470
 4002SOL    HW112452   1.940   1.257   8.570
 4002SOL    HW212453   1.862   1.217   8.432
 4003SOL     OW12454   2.550   1.662   9.164
 4003SOL    HW112455   2.494   1.743   9.173
 4003SOL    HW212456   2.602   1.666   9.078
 4004SOL     OW12457   3.588   0.135   7.971
 4004SOL    HW112458   3.661   0.118   7.904
 4004SOL    HW212459   3.557   0.048   8.009
 4005SOL     OW12460   3.250   1.573   7.925
 4005SOL    HW112461   3.317   1.585   7.851
 4005SOL    HW212462   3.210   1.662   7.948
 4006SOL     OW12463   1.992   1.794   9.299
 4006SOL    HW112464   1.951   1.720   9.352
 4006SOL    HW212465   2.056   1.845   9.357
 4007SOL     OW12466   3.142   0.927   8.120
 4007SOL    HW112467   3.202   0.846   8.122
 4007SOL    HW212468   3.182   0.996   8.060
 4008SOL     OW12469   2.692   1.273   8.870
 4008SOL    HW112470   2.687   1.306   8.965
 4008SOL    HW212471   2.606   1.292   8.824
 4009SOL     OW12472   2.534   1.616   7.602
 4009SOL    HW112473   2.543   1.626   7.503
 4009SOL    HW212474   2.494   1.527   7.623
 4010SOL     OW12475   3.512   1.720   8.842
 4010SOL    HW112476   3.565   1.730   8.758
 4010SOL    HW212477   3.485   1.810   8.876
 4011SOL     OW12478   3.703   0.175   8.411
 4011SOL    HW112479   3.742   0.090   8.375
 4011SOL    HW212480   3.605   0.177   8.392
 4012SOL     OW12481   2.125   0.326   8.168
 4012SOL    HW112482   2.046   0.377   8.134
 4012SOL    HW212483   2.116   0.311   8.266
 4013SOL     OW12484   3.056   1.612   7.479
 4013SOL    HW112485   3.062   1.519   7.516
 4013SOL    HW212486   2.997   1.612   7.399
 4014SOL     OW12487   2.684   1.002   8.820
 4014SOL    HW112488   2.724   1.001   8.728
 4014SOL    HW212489   2.694   1.094   8.860
 4015SOL     OW12490   2.778   0.910   7.739
 4015SOL    HW112491   2.841   0.948   7.671
 4015SOL    HW212492   2.818   0.827   7.778
 4016SOL     OW12493   3.366   1.607   7.492
 4016SOL    HW112494   3.274   1.644   7.499
 4016SOL    HW212495   3.404   1.627   7.402
 4017SOL     OW12496   2.234   1.288   8.938
 4017SOL    HW112497   2.221   1.381   8.904
 4017SOL    HW212498   2.150   1.236   8.925
 4018SOL     OW12499   3.476   1.292   8.737
 4018SOL    HW112500   3.536   1.295   8.817
 4018SOL    HW212501   3.401   1.356   8.750
 4019SOL     OW12502   2.901   1.098   8.144
 4019SOL    HW112503   2.831   1.051   8.198
 4019SOL    HW212504   2.960   1.030   8.101
 4020SOL     OW12505   2.876   0.236   8.419
 4020SOL    HW112506   2.868   0.200   8.326
 4020SOL    HW212507   2.874   0.160   8.484
 4021SOL     OW12508   2.452   1.487   7.939
 4021SOL    HW112509   2.494   1.429   7.869
 4021SOL    HW212510   2.408   1.566   7.895
 4022SOL     OW12511   3.571   0.385   8.829
 4022SOL    HW112512   3.644   0.454   8.833
 4022SOL    HW212513   3.599   0.310   8.770
 4023SOL     OW12514   2.117   1.348   7.738
 4023SOL    HW112515   2.021   1.349   7.711
 4023SOL    HW212516   2.129   1.401   7.822
 4024SOL     OW12517   1.967   1.013   9.174
 4024SOL    HW112518   1.890   0.980   9.228
 4024SOL    HW212519   2.052   0.983   9.216
 4025SOL     OW12520   2.534   0.203   8.937
 4025SOL    HW112521   2.624   0.187   8.897
 4025SOL    HW212522   2.542   0.208   9.036
 4026SOL     OW12523   1.937   0.345   7.481
 4026SOL    HW112524   1.845   0.317   7.452
 4026SOL    HW212525   1.968   0.422   7.425
 4027SOL     OW12526   3.302   0.856   8.846
 4027SOL    HW112527   3.245   0.908   8.783
 4027SOL    HW212528   3.398   0.868   8.822
 4028SOL     OW12529   1.934   0.166   7.766
 4028SOL    HW112530   1.917   0.249   7.712
 4028SOL    HW212531   2.024   0.129   7.744
 4029SOL     OW12532   3.045   1.335   7.567
 4029SOL    HW112533   2.946   1.324   7.569
 4029SOL    HW212534   3.079   1.350   7.660
 4030SOL     OW12535   2.475   0.842   8.879
 4030SOL    HW112536   2.531   0.923   8.862
 4030SOL    HW212537   2.534   0.762   8.882
 4031SOL     OW12538   3.355   1.767   8.407
 4031SOL    HW112539   3.388   1.831   8.338
 4031SOL    HW212540   3.421   1.761   8.482
 4032SOL     OW12541   2.578   0.565   9.156
 4032SOL    HW112542   2.597   0.630   9.230
 4032SOL    HW212543   2.638   0.485   9.165
 4033SOL     OW12544   3.312   1.220   9.081
 4033SOL    HW112545   3.303   1.210   9.180
 4033SOL    HW212546   3.408   1.213   9.055
 4034SOL     OW12547   2.252   1.741   9.008
 4034SOL    HW112548   2.161   1.782   9.006
 4034SOL    HW212549   2.245   1.647   9.040
 4035SOL     OW12550   3.536   0.883   8.702
 4035SOL    HW112551   3.509   0.794   8.665
 4035SOL    HW212552   3.537   0.951   8.629
 4036SOL     OW12553   3.087   0.325   7.897
 4036SOL    HW112554   3.152   0.251   7.886
 4036SOL    HW212555   3.107   0.375   7.981
 4037SOL     OW12556   2.456   0.745   8.100
 4037SOL    HW112557   2.506   0.830   8.081
 4037SOL    HW212558   2.368   0.747   8.052
 4038SOL     OW12559   3.639   0.342   9.090
 4038SOL    HW112560   3.622   0.373   8.996
 4038SOL    HW212561   3.555   0.305   9.128
 4039SOL     OW12562   3.592   0.934   8.965
 4039SOL    HW112563   3.630   1.025   8.980
 4039SOL    HW212564   3.584   0.917   8.866
 4040SOL     OW12565   2.721   1.374   7.464
 4040SOL    HW112566   2.675   1.389   7.552
 4040SOL    HW212567   2.765   1.459   7.434
 4041SOL     OW12568   2.523   1.790   8.401
 4041SOL    HW112569   2.477   1.878   8.388
 4041SOL    HW212570   2.622   1.802   8.394
 4042SOL     OW12571   2.721   0.956   8.309
 4042SOL    HW112572   2.775   0.887   8.357
 4042SOL    HW212573   2.689   1.025   8.375
 4043SOL     OW12574   2.945   0.984   7.535
 4043SOL    HW112575   2.922   1.037   7.453
 4043SOL    HW212576   3.026   0.928   7.516
 4044SOL     OW12577   3.723   1.569   8.299
 4044SOL    HW112578   3.652   1.557   8.229
 4044SOL    HW212579   3.724   1.490   8.359
 4045SOL     OW12580   2.083   1.314   9.292
 4045SOL    HW112581   2.018   1.241   9.271
 4045SOL    HW212582   2.087   1.328   9.390
 4046SOL     OW12583   1.941   1.240   8.101
 4046SOL    HW112584   1.940   1.193   8.189
 4046SOL    HW212585   2.023   1.212   8.050
 4047SOL     OW12586   2.534   1.391   9.072
 4047SOL    HW112587   2.456   1.341   9.110
 4047SOL    HW212588   2.531   1.486   9.103
 4048SOL     OW12589   3.686   0.192   8.675
 4048SOL    HW112590   3.682   0.102   8.719
 4048SOL    HW212591   3.689   0.181   8.576
 4049SOL     OW12592   2.290   0.424   7.968
 4049SOL    HW112593   2.320   0.352   7.906
 4049SOL    HW212594   2.251   0.384   8.051
 4050SOL     OW12595   3.567   1.487   8.552
 4050SOL    HW112596   3.474   1.462   8.525
 4050SOL    HW212597   3.593   1.437   8.634
 4051SOL     OW12598   2.179   0.547   8.728
 4051SOL    HW112599   2.217   0.488   8.800
 4051SOL    HW212600   2.219   0.521   8.640
 4052SOL     OW12601   2.674   1.586   8.135
 4052SOL    HW112602   2.706   1.596   8.041
 4052SOL    HW212603   2.595   1.524   8.137
 4053SOL     OW12604   3.286   0.214   8.560
 4053SOL    HW112605   3.338   0.149   8.615
 4053SOL    HW212606   3.237   0.277   8.621
 4054SOL     OW12607   2.863   0.034   8.602
 4054SOL    HW112608   2.800  -0.038   8.571
 4054SOL    HW212609   2.956  -0.002   8.602
 4055SOL     OW12610   2.632   1.330   7.749
 4055SOL    HW112611   2.586   1.243   7.766
 4055SOL    HW212612   2.723   1.327   7.790
 4056SOL     OW12613   2.480   1.567   8.732
 4056SOL    HW112614   2.475   1.649   8.789
 4056SOL    HW212615   2.569   1.564   8.687
 4057SOL     OW12616   3.214   0.052   7.616
 4057SOL    HW112617   3.249   0.011   7.532
 4057SOL    HW212618   3.124   0.014   7.636
 4058SOL     OW12619   3.162   0.453   8.139
 4058SOL    HW112620   3.103   0.533   8.143
 4058SOL    HW212621   3.177   0.418   8.232
 4059SOL     OW12622   3.455   0.221   8.330
 4059SOL    HW112623   3.371   0.220   8.384
 4059SOL    HW212624   3.457   0.304   8.274
 4060SOL     OW12625   1.901   1.077   7.748
 4060SOL    HW112626   2.000   1.066   7.739
 4060SOL    HW212627   1.861   0.991   7.780
 4061SOL     OW12628   2.737   1.646   7.785
 4061SOL    HW112629   2.660   1.611   7.731
 4061SOL    HW212630   2.705   1.717   7.847
 4062SOL     OW12631   2.092   0.628   9.423
 4062SOL    HW112632   1.999   0.626   9.460
 4062SOL    HW212633   2.093   0.589   9.331
 4063SOL     OW12634   2.087   0.275  10.306
 4063SOL    HW112635   2.122   0.258  10.398
 4063SOL    HW212636   1.999   0.230  10.294
 4064SOL     OW12637   1.881   0.368   9.957
 4064SOL    HW112638   1.799   0.411   9.996
 4064SOL    HW212639   1.853   0.295   9.894
 4065SOL     OW12640   2.431   1.275  10.475
 4065SOL    HW112641   2.338   1.268  10.438
 4065SOL    HW212642   2.442   1.364  10.519
 4066SOL     OW12643   3.417   1.511  10.013
 4066SOL    HW112644   3.360   1.495  10.094
 4066SOL    HW212645   3.358   1.521   9.933
 4067SOL     OW12646   2.997   0.703  10.027
 4067SOL    HW112647   3.054   0.781  10.002
 4067SOL    HW212648   2.937   0.729  10.103
 4068SOL     OW12649   3.617   0.607   9.541
 4068SOL    HW112650   3.605   0.594   9.442
 4068SOL    HW212651   3.587   0.526   9.590
 4069SOL     OW12652   2.630   1.144  10.333
 4069SOL    HW112653   2.552   1.161  10.393
 4069SOL    HW212654   2.664   1.231  10.297
 4070SOL     OW12655   2.712   0.798  11.133
 4070SOL    HW112656   2.708   0.874  11.198
 4070SOL    HW212657   2.734   0.834  11.042
 4071SOL     OW12658   2.547   1.012   9.975
 4071SOL    HW112659   2.616   0.996  10.045
 4071SOL    HW212660   2.474   1.069  10.013
 4072SOL     OW12661   2.197   1.435  10.371
 4072SOL    HW112662   2.119   1.404  10.318
 4072SOL    HW212663   2.255   1.493  10.314
 4073SOL     OW12664   3.322   1.505  10.649
 4073SOL    HW112665   3.346   1.599  10.675
 4073SOL    HW212666   3.306   1.451  10.731
 4074SOL     OW12667   2.300   0.392  10.809
 4074SOL    HW112668   2.382   0.336  10.818
 4074SOL    HW212669   2.219   0.334  10.813
 4075SOL     OW12670   3.465   0.447  10.047
 4075SOL    HW112671   3.391   0.493   9.997
 4075SOL    HW212672   3.516   0.515  10.100
 4076SOL     OW12673   2.093   1.713   9.793
 4076SOL    HW112674   2.127   1.790   9.847
 4076SOL    HW212675   2.137   1.713   9.703
 4077SOL     OW12676   2.092   1.434   9.848
 4077SOL    HW112677   2.066   1.530   9.848
 4077SOL    HW212678   2.021   1.380   9.893
 4078SOL     OW12679   2.102   1.091  10.196
 4078SOL    HW112680   2.116   1.007  10.248
 4078SOL    HW212681   2.047   1.155  10.251
 4079SOL     OW12682   2.482   1.786  10.749
 4079SOL    HW112683   2.390   1.769  10.784
 4079SOL    HW212684   2.510   1.878  10.775
 4080SOL     OW12685   2.468   0.964   9.433
 4080SOL    HW112686   2.475   1.048   9.379
 4080SOL    HW212687   2.514   0.977   9.521
 4081SOL     OW12688   3.456   0.114  10.790
 4081SOL    HW112689   3.438   0.181  10.718
 4081SOL    HW212690   3.453   0.160  10.879
 4082SOL     OW12691   1.984   0.643   9.873
 4082SOL    HW112692   1.939   0.555   9.890
 4082SOL    HW212693   1.983   0.697   9.957
 4083SOL     OW12694   3.704   1.767   9.669
 4083SOL    HW112695   3.758   1.738   9.749
 4083SOL    HW212696   3.734   1.857   9.640
 4084SOL     OW12697   1.889   1.596   9.427
 4084SOL    HW112698   1.870   1.500   9.448
 4084SOL    HW212699   1.856   1.654   9.502
 4085SOL     OW12700   3.551   0.922   9.922
 4085SOL    HW112701   3.646   0.893   9.930
 4085SOL    HW212702   3.543   0.987   9.847
 4086SOL     OW12703   3.503   1.108   9.742
 4086SOL    HW112704   3.589   1.110   9.690
 4086SOL    HW212705   3.517   1.155   9.830
 4087SOL     OW12706   1.975   0.737  10.907
 4087SOL    HW112707   2.063   0.724  10.952
 4087SOL    HW212708   1.962   0.834  10.885
 4088SOL     OW12709   2.475   1.365  10.036
 4088SOL    HW112710   2.426   1.278  10.045
 4088SOL    HW212711   2.452   1.408   9.949
 4089SOL     OW12712   3.155   1.228  10.733
 4089SOL    HW112713   3.192   1.155  10.675
 4089SOL    HW212714   3.207   1.233  10.818
 4090SOL     OW12715   2.671   0.004   9.812
 4090SOL    HW112716   2.711   0.095   9.803
 4090SOL    HW212717   2.571   0.012   9.818
 4091SOL     OW12718   2.059   0.976  10.574
 4091SOL    HW112719   2.148   0.931  10.560
 4091SOL    HW212720   1.986   0.911  10.555
 4092SOL     OW12721   3.387   0.999   9.500
 4092SOL    HW112722   3.324   0.923   9.513
 4092SOL    HW212723   3.435   1.017   9.586
 4093SOL     OW12724   3.049   1.792  10.926
 4093SOL    HW112725   3.073   1.852  10.850
 4093SOL    HW212726   3.056   1.697  10.896
 4094SOL     OW12727   2.179   0.251  11.111
 4094SOL    HW112728   2.250   0.322  11.117
 4094SOL    HW212729   2.091   0.290  11.139
 4095SOL     OW12730   3.328   1.417  10.263
 4095SOL    HW112731   3.269   1.423  10.343
 4095SOL    HW212732   3.313   1.329  10.217
 4096SOL     OW12733   3.529   1.714   9.882
 4096SOL    HW112734   3.488   1.691   9.794
 4096SOL    HW212735   3.511   1.640   9.947
 4097SOL     OW12736   2.460   0.729   9.580
 4097SOL    HW112737   2.484   0.798   9.512
 4097SOL    HW212738   2.382   0.762   9.634
 4098SOL     OW12739   3.143   0.345  10.254
 4098SOL    HW112740   3.057   0.295  10.241
 4098SOL    HW212741   3.205   0.291  10.310
 4099SOL     OW12742   3.438   1.662   9.617
 4099SOL    HW112743   3.527   1.708   9.620
 4099SOL    HW212744   3.417   1.638   9.522
 4100SOL     OW12745   2.669   0.605  10.775
 4100SOL    HW112746   2.622   0.602  10.864
 4100SOL    HW212747   2.618   0.550  10.709
 4101SOL     OW12748   2.835   0.890  10.882
 4101SOL    HW112749   2.881   0.806  10.853
 4101SOL    HW212750   2.779   0.924  10.807
 4102SOL     OW12751   2.853   0.410  10.552
 4102SOL    HW112752   2.776   0.444  10.606
 4102SOL    HW212753   2.819   0.359  10.473
 4103SOL     OW12754   2.903   0.701   9.739
 4103SOL    HW112755   2.929   0.697   9.835
 4103SOL    HW212756   2.818   0.650   9.725
 4104SOL     OW12757   1.938   0.811  10.099
 4104SOL    HW112758   2.037   0.799  10.108
 4104SOL    HW212759   1.914   0.906  10.120
 4105SOL     OW12760   1.992   1.821  10.881
 4105SOL    HW112761   1.982   1.806  10.980
 4105SOL    HW212762   1.906   1.857  10.845
 4106SOL     OW12763   2.727   0.348   9.505
 4106SOL    HW112764   2.786   0.411   9.456
 4106SOL    HW212765   2.746   0.254   9.476
 4107SOL     OW12766   3.224   1.144   9.855
 4107SOL    HW112767   3.307   1.115   9.807
 4107SOL    HW212768   3.175   1.211   9.799
 4108SOL     OW12769   2.412   0.196  10.195
 4108SOL    HW112770   2.407   0.191  10.295
 4108SOL    HW212771   2.414   0.292  10.166
 4109SOL     OW12772   2.870   1.456   9.787
 4109SOL    HW112773   2.824   1.528   9.735
 4109SOL    HW212774   2.866   1.476   9.885
 4110SOL     OW12775   2.213   1.801  10.163
 4110SOL    HW112776   2.263   1.715  10.169
 4110SOL    HW212777   2.278   1.878  10.160
 4111SOL     OW12778   3.657   1.066  10.183
 4111SOL    HW112779   3.595   1.051  10.107
 4111SOL    HW212780   3.605   1.077  10.268
 4112SOL     OW12781   3.089   1.550  10.816
 4112SOL    HW112782   3.095   1.473  10.880
 4112SOL    HW212783   3.037   1.524  10.736
 4113SOL     OW12784   2.183   0.943   9.552
 4113SOL    HW112785   2.265   0.982   9.510
 4113SOL    HW212786   2.156   0.861   9.503
 4114SOL     OW12787   3.320   0.735  10.038
 4114SOL    HW112788   3.315   0.670  10.113
 4114SOL    HW212789   3.400   0.794  10.051
 4115SOL     OW12790   2.323   1.266  11.037
 4115SOL    HW112791   2.273   1.267  10.951
 4115SOL    HW212792   2.260   1.248  11.113
 4116SOL     OW12793   2.973   1.776   9.547
 4116SOL    HW112794   2.913   1.714   9.597
 4116SOL    HW212795   3.004   1.732   9.462
 4117SOL     OW12796   2.064   0.285  10.808
 4117SOL    HW112797   1.984   0.345  10.795
 4117SOL    HW212798   2.054   0.236  10.894
 4118SOL     OW12799   3.494   1.377   9.391
 4118SOL    HW112800   3.462   1.471   9.381
 4118SOL    HW212801   3.418   1.314   9.379
 4119SOL     OW12802   2.326   1.743   9.633
 4119SOL    HW112803   2.359   1.782   9.719
 4119SOL    HW212804   2.402   1.736   9.568
 4120SOL     OW12805   3.262   0.107   9.736
 4120SOL    HW112806   3.238   0.070   9.646
 4120SOL    HW212807   3.361   0.123   9.740
 4121SOL     OW12808   2.111   1.785  10.551
 4121SOL    HW112809   2.168   1.720  10.601
 4121SOL    HW212810   2.095   1.752  10.458
 4122SOL     OW12811   2.802   1.698  10.214
 4122SOL    HW112812   2.882   1.641  10.235
 4122SOL    HW212813   2.753   1.658  10.137
 4123SOL     OW12814   2.244   0.700   9.790
 4123SOL    HW112815   2.289   0.610   9.787
 4123SOL    HW212816   2.150   0.689   9.823
 4124SOL     OW12817   2.476   0.122   9.427
 4124SOL    HW112818   2.574   0.100   9.434
 4124SOL    HW212819   2.445   0.105   9.334
 4125SOL     OW12820   2.643   0.264  11.059
 4125SOL    HW112821   2.710   0.203  11.102
 4125SOL    HW212822   2.570   0.283  11.124
 4126SOL     OW12823   2.750   1.514  10.505
 4126SOL    HW112824   2.727   1.489  10.411
 4126SOL    HW212825   2.811   1.445  10.544
 4127SOL     OW12826   3.213   0.590  10.743
 4127SOL    HW112827   3.241   0.547  10.828
 4127SOL    HW212828   3.238   0.686  10.744
 4128SOL     OW12829   2.665   1.402  10.234
 4128SOL    HW112830   2.755   1.416  10.192
 4128SOL    HW212831   2.594   1.404  10.163
 4129SOL     OW12832   2.784   0.503  10.209
 4129SOL    HW112833   2.759   0.494  10.113
 4129SOL    HW212834   2.832   0.421  10.240
 4130SOL     OW12835   2.401   0.064   9.822
 4130SOL    HW112836   2.320   0.065   9.880
 4130SOL    HW212837   2.404   0.147   9.767
 4131SOL     OW12838   3.296   1.188   9.351
 4131SOL    HW112839   3.328   1.112   9.408
 4131SOL    HW212840   3.204   1.215   9.381
 4132SOL     OW12841   2.159   0.035   9.481
 4132SOL    HW112842   2.208   0.119   9.460
 4132SOL    HW212843   2.221  -0.030   9.526
 4133SOL     OW12844   2.797   0.236   9.790
 4133SOL    HW112845   2.749   0.277   9.712
 4133SOL    HW212846   2.896   0.234   9.771
 4134SOL     OW12847   2.938   0.683  10.774
 4134SOL    HW112848   2.858   0.622  10.777
 4134SOL    HW212849   3.019   0.630  10.750
 4135SOL     OW12850   3.089   1.570  10.103
 4135SOL    HW112851   3.110   1.644  10.038
 4135SOL    HW212852   3.157   1.570  10.176
 4136SOL     OW12853   2.321   1.152  10.051
 4136SOL    HW112854   2.250   1.125  10.116
 4136SOL    HW212855   2.295   1.124   9.958
 4137SOL     OW12856   3.133   1.797   9.901
 4137SOL    HW112857   3.177   1.861   9.837
 4137SOL    HW212858   3.083   1.849   9.971
 4138SOL     OW12859   2.894   0.549   9.326
 4138SOL    HW112860   2.853   0.631   9.287
 4138SOL    HW212861   2.958   0.575   9.399
 4139SOL     OW12862   1.940   0.556  10.696
 4139SOL    HW112863   2.032   0.555  10.655
 4139SOL    HW212864   1.934   0.630  10.763
 4140SOL     OW12865   2.423   0.222  10.457
 4140SOL    HW112866   2.461   0.138  10.494
 4140SOL    HW212867   2.335   0.241  10.501
 4141SOL     OW12868   2.728   0.454   9.952
 4141SOL    HW112869   2.696   0.526   9.890
 4141SOL    HW212870   2.752   0.373   9.899
 4142SOL     OW12871   2.879   0.039  10.063
 4142SOL    HW112872   2.807   0.044   9.994
 4142SOL    HW212873   2.855  -0.030  10.132
 4143SOL     OW12874   3.291   1.173  10.177
 4143SOL    HW112875   3.236   1.089  10.170
 4143SOL    HW212876   3.317   1.202  10.085
 4144SOL     OW12877   3.328   0.590  10.302
 4144SOL    HW112878   3.298   0.495  10.309
 4144SOL    HW212879   3.401   0.606  10.368
 4145SOL     OW12880   3.719   0.833   9.687
 4145SOL    HW112881   3.761   0.769   9.751
 4145SOL    HW212882   3.681   0.782   9.609
 4146SOL     OW12883   2.350   1.385   9.484
 4146SOL    HW112884   2.263   1.370   9.531
 4146SOL    HW212885   2.333   1.411   9.389
 4147SOL     OW12886   3.526   1.280   9.967
 4147SOL    HW112887   3.625   1.288   9.981
 4147SOL    HW212888   3.481   1.364   9.998
 4148SOL     OW12889   3.252   0.575   9.388
 4148SOL    HW112890   3.198   0.554   9.469
 4148SOL    HW212891   3.343   0.534   9.397
 4149SOL     OW12892   2.389   0.256   9.638
 4149SOL    HW112893   2.416   0.197   9.563
 4149SOL    HW212894   2.389   0.351   9.607
 4150SOL     OW12895   3.616   1.223  10.898
 4150SOL    HW112896   3.707   1.184  10.885
 4150SOL    HW212897   3.624   1.319  10.922
 4151SOL     OW12898   2.926   1.347  10.650
 4151SOL    HW112899   2.846   1.324  10.705
 4151SOL    HW212900   3.009   1.321  10.699
 4152SOL     OW12901   2.973   1.195  10.410
 4152SOL    HW112902   2.933   1.239  10.491
 4152SOL    HW212903   2.932   1.232  10.327
 4153SOL     OW12904   3.500   1.099  10.389
 4153SOL    HW112905   3.505   1.180  10.448
 4153SOL    HW212906   3.414   1.101  10.338
 4154SOL     OW12907   2.777   0.089  10.712
 4154SOL    HW112908   2.802   0.069  10.617
 4154SOL    HW212909   2.849   0.145  10.754
 4155SOL     OW12910   2.567   1.050   9.678
 4155SOL    HW112911   2.553   1.057   9.777
 4155SOL    HW212912   2.651   0.999   9.660
 4156SOL     OW12913   2.272   0.813  10.561
 4156SOL    HW112914   2.358   0.825  10.611
 4156SOL    HW212915   2.230   0.726  10.588
 4157SOL     OW12916   3.136   0.386  10.572
 4157SOL    HW112917   3.157   0.460  10.636
 4157SOL    HW212918   3.047   0.403  10.529
 4158SOL     OW12919   1.926   1.564  10.641
 4158SOL    HW112920   1.880   1.646  10.607
 4158SOL    HW212921   2.024   1.583  10.650
 4159SOL     OW12922   2.229   1.100   9.811
 4159SOL    HW112923   2.222   1.183   9.755
 4159SOL    HW212924   2.233   1.020   9.751
 4160SOL     OW12925   2.428   0.537  10.175
 4160SOL    HW112926   2.440   0.603  10.101
 4160SOL    HW212927   2.474   0.571  10.258
 4161SOL     OW12928   3.114   1.348   9.698
 4161SOL    HW112929   3.164   1.425   9.738
 4161SOL    HW212930   3.019   1.350   9.730
 4162SOL     OW12931   3.134   1.445  10.452
 4162SOL    HW112932   3.181   1.458  10.539
 4162SOL    HW212933   3.068   1.371  10.461
 4163SOL     OW12934   3.444   0.639   9.782
 4163SOL    HW112935   3.413   0.700   9.855
 4163SOL    HW212936   3.494   0.691   9.713
 4164SOL     OW12937   2.216   1.510  10.639
 4164SOL    HW112938   2.195   1.466  10.552
 4164SOL    HW212939   2.313   1.536  10.642
 4165SOL     OW12940   2.264   0.751  10.908
 4165SOL    HW112941   2.332   0.806  10.861
 4165SOL    HW212942   2.304   0.663  10.935
 4166SOL     OW12943   3.449   0.779  10.980
 4166SOL    HW112944   3.357   0.817  10.975
 4166SOL    HW212945   3.509   0.826  10.915
 4167SOL     OW12946   2.435   0.870  10.339
 4167SOL    HW112947   2.479   0.959  10.330
 4167SOL    HW212948   2.372   0.870  10.416
 4168SOL     OW12949   3.222   0.862  10.355
 4168SOL    HW112950   3.147   0.862  10.289
 4168SOL    HW212951   3.259   0.770  10.364
 4169SOL     OW12952   3.071   0.525   9.585
 4169SOL    HW112953   3.084   0.441   9.639
 4169SOL    HW212954   3.042   0.599   9.645
 4170SOL     OW12955   2.169   0.213  10.541
 4170SOL    HW112956   2.146   0.250  10.631
 4170SOL    HW212957   2.139   0.118  10.535
 4171SOL     OW12958   1.899   1.310  10.592
 4171SOL    HW112959   1.952   1.261  10.660
 4171SOL    HW212960   1.921   1.408  10.597
 4172SOL     OW12961   2.594   0.634  10.374
 4172SOL    HW112962   2.653   0.608  10.298
 4172SOL    HW212963   2.566   0.730  10.363
 4173SOL     OW12964   2.169   0.063   9.928
 4173SOL    HW112965   2.158   0.157   9.961
 4173SOL    HW212966   2.164   0.000  10.005
 4174SOL     OW12967   3.484   0.367   9.684
 4174SOL    HW112968   3.486   0.291   9.748
 4174SOL    HW212969   3.436   0.444   9.724
 4175SOL     OW12970   2.885   0.766  10.276
 4175SOL    HW112971   2.900   0.787  10.372
 4175SOL    HW212972   2.855   0.671  10.267
 4176SOL     OW12973   2.842   1.573  11.010
 4176SOL    HW112974   2.822   1.617  10.922
 4176SOL    HW212975   2.881   1.482  10.994
 4177SOL     OW12976   3.721   1.518  10.915
 4177SOL    HW112977   3.735   1.545  10.820
 4177SOL    HW212978   3.804   1.540  10.968
 4178SOL     OW12979   2.212   0.898  11.114
 4178SOL    HW112980   2.288   0.942  11.162
 4178SOL    HW212981   2.247   0.851  11.032
 4179SOL     OW12982   3.402   0.274   9.435
 4179SOL    HW112983   3.341   0.199   9.458
 4179SOL    HW212984   3.424   0.326   9.518
 4180SOL     OW12985   3.165   0.838   9.352
 4180SOL    HW112986   3.199   0.745   9.367
 4180SOL    HW212987   3.183   0.865   9.257
 4181SOL     OW12988   2.930   1.333  10.159
 4181SOL    HW112989   2.937   1.249  10.104
 4181SOL    HW212990   2.992   1.402  10.123
 4182SOL     OW12991   2.181   0.810  10.259
 4182SOL    HW112992   2.274   0.846  10.264
 4182SOL    HW212993   2.175   0.725  10.311
 4183SOL     OW12994   2.201   0.509  10.316
 4183SOL    HW112995   2.149   0.426  10.299
 4183SOL    HW212996   2.278   0.514  10.252
 4184SOL     OW12997   3.022   0.207  10.787
 4184SOL    HW112998   3.022   0.271  10.864
 4184SOL    HW212999   3.050   0.255  10.704
 4185SOL     OW13000   1.870   1.326   9.510
 4185SOL    HW113001   1.777   1.347   9.479
 4185SOL    HW213002   1.880   1.227   9.523
 4186SOL     OW13003   1.950   1.801  10.237
 4186SOL    HW113004   1.908   1.715  10.210
 4186SOL    HW213005   2.044   1.804  10.203
 4187SOL     OW13006   2.366   1.568  10.220
 4187SOL    HW113007   2.432   1.642  10.229
 4187SOL    HW213008   2.410   1.489  10.178
 4188SOL     OW13009   2.864   0.796  10.548
 4188SOL    HW113010   2.905   0.764  10.634
 4188SOL    HW213011   2.768   0.769  10.545
 4189SOL     OW13012   1.902   0.544  10.424
 4189SOL    HW113013   1.987   0.511  10.383
 4189SOL    HW213014   1.915   0.559  10.522
 4190SOL     OW13015   2.677   0.572   9.635
 4190SOL    HW113016   2.684   0.483   9.589
 4190SOL    HW213017   2.583   0.606   9.627
 4191SOL     OW13018   3.519   0.604  10.516
 4191SOL    HW113019   3.481   0.535  10.578
 4191SOL    HW213020   3.601   0.568  10.472
 4192SOL     OW13021   2.114   1.564  11.054
 4192SOL    HW113022   2.084   1.621  11.130
 4192SOL    HW213023   2.107   1.467  11.080
 4193SOL     OW13024   2.533   0.464  10.579
 4193SOL    HW113025   2.499   0.375  10.549
 4193SOL    HW213026   2.559   0.518  10.499
 4194SOL     OW13027   2.792   1.678  10.775
 4194SOL    HW113028   2.768   1.660  10.680
 4194SOL    HW213029   2.822   1.772  10.785
 4195SOL     OW13030   2.335   0.500   9.501
 4195SOL    HW113031   2.396   0.580   9.505
 4195SOL    HW213032   2.240   0.531   9.508
 4196SOL     OW13033   2.021   1.137  10.776
 4196SOL    HW113034   2.043   1.076  10.852
 4196SOL    HW213035   2.031   1.088  10.690
 4197SOL     OW13036   3.209   1.059  10.544
 4197SOL    HW113037   3.233   0.996  10.470
 4197SOL    HW213038   3.119   1.099  10.526
 4198SOL     OW13039   3.164   0.855   9.619
 4198SOL    HW113040   3.078   0.824   9.661
 4198SOL    HW213041   3.160   0.841   9.520
 4199SOL     OW13042   3.621   1.747  10.464
 4199SOL    HW113043   3.682   1.777  10.391
 4199SOL    HW213044   3.583   1.658  10.442
 4200SOL     OW13045   3.114   1.731  10.438
 4200SOL    HW113046   3.198   1.736  10.384
 4200SOL    HW213047   3.091   1.635  10.456
 4201SOL     OW13048   1.945   1.258  10.332
 4201SOL    HW113049   1.940   1.257  10.432
 4201SOL    HW213050   1.862   1.217  10.294
 4202SOL     OW13051   3.588   0.135   9.833
 4202SOL    HW113052   3.661   0.118   9.766
 4202SOL    HW213053   3.557   0.048   9.871
 4203SOL     OW13054   3.250   1.573   9.787
 4203SOL    HW113055   3.317   1.585   9.713
 4203SOL    HW213056   3.210   1.662   9.810
 4204SOL     OW13057   3.142   0.927   9.982
 4204SOL    HW113058   3.202   0.846   9.984
 4204SOL    HW213059   3.182   0.996   9.922
 4205SOL     OW13060   2.692   1.273  10.732
 4205SOL    HW113061   2.687   1.306  10.827
 4205SOL    HW213062   2.606   1.292  10.686
 4206SOL     OW13063   2.534   1.616   9.464
 4206SOL    HW113064   2.543   1.626   9.365
 4206SOL    HW213065   2.494   1.527   9.485
 4207SOL     OW13066   3.512   1.720  10.704
 4207SOL    HW113067   3.565   1.730  10.620
 4207SOL    HW213068   3.485   1.810  10.738
 4208SOL     OW13069   3.703   0.175  10.273
 4208SOL    HW113070   3.742   0.090  10.237
 4208SOL    HW213071   3.605   0.177  10.254
 4209SOL     OW13072   2.125   0.326  10.030
 4209SOL    HW113073   2.046   0.377   9.996
 4209SOL    HW213074   2.116   0.311  10.128
 4210SOL     OW13075   3.056   1.612   9.341
 4210SOL    HW113076   3.062   1.519   9.378
 4210SOL    HW213077   2.997   1.612   9.261
 4211SOL     OW13078   2.684   1.002  10.682
 4211SOL    HW113079   2.724   1.001  10.590
 4211SOL    HW213080   2.694   1.094  10.722
 4212SOL     OW13081   2.778   0.910   9.601
 4212SOL    HW113082   2.841   0.948   9.533
 4212SOL    HW213083   2.818   0.827   9.640
 4213SOL     OW13084   3.366   1.607   9.354
 4213SOL    HW113085   3.274   1.644   9.361
 4213SOL    HW213086   3.404   1.627   9.264
 4214SOL     OW13087   2.234   1.288  10.800
 4214SOL    HW113088   2.221   1.381  10.766
 4214SOL    HW213089   2.150   1.236  10.787
 4215SOL     OW13090   3.476   1.292  10.599
 4215SOL    HW113091   3.536   1.295  10.679
 4215SOL    HW213092   3.401   1.356  10.612
 4216SOL     OW13093   2.901   1.098  10.006
 4216SOL    HW113094   2.831   1.051  10.060
 4216SOL    HW213095   2.960   1.030   9.963
 4217SOL     OW13096   2.876   0.236  10.281
 4217SOL    HW113097   2.868   0.200  10.188
 4217SOL    HW213098   2.874   0.160  10.346
 4218SOL     OW13099   2.452   1.487   9.801
 4218SOL    HW113100   2.494   1.429   9.731
 4218SOL    HW213101   2.408   1.566   9.757
 4219SOL     OW13102   3.571   0.385  10.691
 4219SOL    HW113103   3.644   0.454  10.695
 4219SOL    HW213104   3.599   0.310  10.632
 4220SOL     OW13105   2.117   1.348   9.600
 4220SOL    HW113106   2.021   1.349   9.573
 4220SOL    HW213107   2.129   1.401   9.684
 4221SOL     OW13108   1.967   1.013  11.036
 4221SOL    HW113109   1.890   0.980  11.090
 4221SOL    HW213110   2.052   0.983  11.078
 4222SOL     OW13111   2.534   0.203  10.799
 4222SOL    HW113112   2.624   0.187  10.759
 4222SOL    HW213113   2.542   0.208  10.898
 4223SOL     OW13114   1.937   0.345   9.343
 4223SOL    HW113115   1.845   0.317   9.314
 4223SOL    HW213116   1.968   0.422   9.287
 4224SOL     OW13117   3.302   0.856  10.708
 4224SOL    HW113118   3.245   0.908  10.645
 4224SOL    HW213119   3.398   0.868  10.684
 4225SOL     OW13120   1.934   0.166   9.628
 4225SOL    HW113121   1.917   0.249   9.574
 4225SOL    HW213122   2.024   0.129   9.606
 4226SOL     OW13123   3.045   1.335   9.429
 4226SOL    HW113124   2.946   1.324   9.431
 4226SOL    HW213125   3.079   1.350   9.522
 4227SOL     OW13126   2.475   0.842  10.741
 4227SOL    HW113127   2.531   0.923  10.724
 4227SOL    HW213128   2.534   0.762  10.744
 4228SOL     OW13129   3.355   1.767  10.269
 4228SOL    HW113130   3.388   1.831  10.200
 4228SOL    HW213131   3.421   1.761  10.344
 4229SOL     OW13132   2.578   0.565  11.018
 4229SOL    HW113133   2.597   0.630  11.092
 4229SOL    HW213134   2.638   0.485  11.027
 4230SOL     OW13135   2.252   1.741  10.870
 4230SOL    HW113136   2.161   1.782  10.868
 4230SOL    HW213137   2.245   1.647  10.902
 4231SOL     OW13138   3.536   0.883  10.564
 4231SOL    HW113139   3.509   0.794  10.527
 4231SOL    HW213140   3.537   0.951  10.491
 4232SOL     OW13141   3.087   0.325   9.759
 4232SOL    HW113142   3.152   0.251   9.748
 4232SOL    HW213143   3.107   0.375   9.843
 4233SOL     OW13144   2.456   0.745   9.962
 4233SOL    HW113145   2.506   0.830   9.943
 4233SOL    HW213146   2.368   0.747   9.914
 4234SOL     OW13147   3.639   0.342  10.952
 4234SOL    HW113148   3.622   0.373  10.858
 4234SOL    HW213149   3.555   0.305  10.990
 4235SOL     OW13150   3.592   0.934  10.827
 4235SOL    HW113151   3.630   1.025  10.842
 4235SOL    HW213152   3.584   0.917  10.728
 4236SOL     OW13153   2.721   1.374   9.326
 4236SOL    HW113154   2.675   1.389   9.414
 4236SOL    HW213155   2.765   1.459   9.296
 4237SOL     OW13156   2.523   1.790  10.263
 4237SOL    HW113157   2.477   1.878  10.250
 4237SOL    HW213158   2.622   1.802  10.256
 4238SOL     OW13159   2.721   0.956  10.171
 4238SOL    HW113160   2.775   0.887  10.219
 4238SOL    HW213161   2.689   1.025  10.237
 4239SOL     OW13162   2.945   0.984   9.397
 4239SOL    HW113163   2.922   1.037   9.315
 4239SOL    HW213164   3.026   0.928   9.378
 4240SOL     OW13165   3.723   1.569  10.161
 4240SOL    HW113166   3.652   1.557  10.091
 4240SOL    HW213167   3.724   1.490  10.221
 4241SOL     OW13168   1.941   1.240   9.963
 4241SOL    HW113169   1.940   1.193  10.051
 4241SOL    HW213170   2.023   1.212   9.912
 4242SOL     OW13171   2.534   1.391  10.934
 4242SOL    HW113172   2.456   1.341  10.972
 4242SOL    HW213173   2.531   1.486  10.965
 4243SOL     OW13174   3.686   0.192  10.537
 4243SOL    HW113175   3.682   0.102  10.581
 4243SOL    HW213176   3.689   0.181  10.438
 4244SOL     OW13177   2.290   0.424   9.830
 4244SOL    HW113178   2.320   0.352   9.768
 4244SOL    HW213179   2.251   0.384   9.913
 4245SOL     OW13180   3.567   1.487  10.414
 4245SOL    HW113181   3.474   1.462  10.387
 4245SOL    HW213182   3.593   1.437  10.496
 4246SOL     OW13183   2.179   0.547  10.590
 4246SOL    HW113184   2.217   0.488  10.662
 4246SOL    HW213185   2.219   0.521  10.502
 4247SOL     OW13186   2.674   1.586   9.997
 4247SOL    HW113187   2.706   1.596   9.903
 4247SOL    HW213188   2.595   1.524   9.999
 4248SOL     OW13189   3.286   0.214  10.422
 4248SOL    HW113190   3.338   0.149  10.477
 4248SOL    HW213191   3.237   0.277  10.483
 4249SOL     OW13192   2.863   0.034  10.464
 4249SOL    HW113193   2.800  -0.038  10.433
 4249SOL    HW213194   2.956  -0.002  10.464
 4250SOL     OW13195   2.632   1.330   9.611
 4250SOL    HW113196   2.586   1.243   9.628
 4250SOL    HW213197   2.723   1.327   9.652
 4251SOL     OW13198   2.480   1.567  10.594
 4251SOL    HW113199   2.475   1.649  10.651
 4251SOL    HW213200   2.569   1.564  10.549
 4252SOL     OW13201   3.214   0.052   9.478
 4252SOL    HW113202   3.249   0.011   9.394
 4252SOL    HW213203   3.124   0.014   9.498
 4253SOL     OW13204   3.162   0.453  10.001
 4253SOL    HW113205   3.103   0.533  10.005
 4253SOL    HW213206   3.177   0.418  10.094
 4254SOL     OW13207   3.455   0.221  10.192
 4254SOL    HW113208   3.371   0.220  10.246
 4254SOL    HW213209   3.457   0.304  10.136
 4255SOL     OW13210   1.901   1.077   9.610
 4255SOL    HW113211   2.000   1.066   9.601
 4255SOL    HW213212   1.861   0.991   9.642
 4256SOL     OW13213   2.737   1.646   9.647
 4256SOL    HW113214   2.660   1.611   9.593
 4256SOL    HW213215   2.705   1.717   9.709
 4257SOL     OW13216   2.092   2.490   0.113
 4257SOL    HW113217   1.999   2.488   0.150
 4257SOL    HW213218   2.093   2.451   0.021
 4258SOL     OW13219   1.881   2.230   0.647
 4258SOL    HW113220   1.799   2.273   0.686
 4258SOL    HW213221   1.853   2.157   0.584
 4259SOL     OW13222   2.431   3.137   1.165
 4259SOL    HW113223   2.338   3.130   1.128
 4259SOL    HW213224   2.442   3.226   1.209
 4260SOL     OW13225   3.417   3.373   0.703
 4260SOL    HW113226   3.360   3.357   0.784
 4260SOL    HW213227   3.358   3.383   0.623
 4261SOL     OW13228   2.997   2.565   0.717
 4261SOL    HW113229   3.054   2.643   0.692
 4261SOL    HW213230   2.937   2.591   0.793
 4262SOL     OW13231   3.617   2.469   0.231
 4262SOL    HW113232   3.605   2.456   0.132
 4262SOL    HW213233   3.587   2.388   0.280
 4263SOL     OW13234   2.630   3.006   1.023
 4263SOL    HW113235   2.552   3.023   1.083
 4263SOL    HW213236   2.664   3.093   0.987
 4264SOL     OW13237   2.712   2.660   1.823
 4264SOL    HW113238   2.708   2.736   1.888
 4264SOL    HW213239   2.734   2.696   1.732
 4265SOL     OW13240   2.547   2.874   0.665
 4265SOL    HW113241   2.616   2.858   0.735
 4265SOL    HW213242   2.474   2.931   0.703
 4266SOL     OW13243   2.548   3.023   1.803
 4266SOL    HW113244   2.608   3.102   1.817
 4266SOL    HW213245   2.462   3.054   1.762
 4267SOL     OW13246   2.197   3.297   1.061
 4267SOL    HW113247   2.119   3.266   1.008
 4267SOL    HW213248   2.255   3.355   1.004
 4268SOL     OW13249   3.322   3.367   1.339
 4268SOL    HW113250   3.346   3.461   1.365
 4268SOL    HW213251   3.306   3.313   1.421
 4269SOL     OW13252   3.465   2.309   0.737
 4269SOL    HW113253   3.391   2.355   0.687
 4269SOL    HW213254   3.516   2.377   0.790
 4270SOL     OW13255   2.093   3.575   0.483
 4270SOL    HW113256   2.127   3.652   0.537
 4270SOL    HW213257   2.137   3.575   0.393
 4271SOL     OW13258   2.989   3.203   1.690
 4271SOL    HW113259   3.036   3.203   1.778
 4271SOL    HW213260   2.941   3.116   1.679
 4272SOL     OW13261   2.092   3.296   0.538
 4272SOL    HW113262   2.066   3.392   0.538
 4272SOL    HW213263   2.021   3.242   0.583
 4273SOL     OW13264   2.102   2.953   0.886
 4273SOL    HW113265   2.116   2.869   0.938
 4273SOL    HW213266   2.047   3.017   0.941
 4274SOL     OW13267   2.482   3.648   1.439
 4274SOL    HW113268   2.390   3.631   1.474
 4274SOL    HW213269   2.510   3.740   1.465
 4275SOL     OW13270   2.468   2.826   0.123
 4275SOL    HW113271   2.475   2.910   0.069
 4275SOL    HW213272   2.514   2.839   0.211
 4276SOL     OW13273   3.456   1.976   1.480
 4276SOL    HW113274   3.438   2.043   1.408
 4276SOL    HW213275   3.453   2.022   1.569
 4277SOL     OW13276   1.984   2.505   0.563
 4277SOL    HW113277   1.939   2.417   0.580
 4277SOL    HW213278   1.983   2.559   0.647
 4278SOL     OW13279   3.704   3.629   0.359
 4278SOL    HW113280   3.758   3.600   0.439
 4278SOL    HW213281   3.734   3.719   0.330
 4279SOL     OW13282   1.889   3.458   0.117
 4279SOL    HW113283   1.870   3.362   0.138
 4279SOL    HW213284   1.856   3.516   0.192
 4280SOL     OW13285   3.551   2.784   0.612
 4280SOL    HW113286   3.646   2.755   0.620
 4280SOL    HW213287   3.543   2.849   0.537
 4281SOL     OW13288   3.503   2.970   0.432
 4281SOL    HW113289   3.589   2.972   0.380
 4281SOL    HW213290   3.517   3.017   0.520
 4282SOL     OW13291   1.975   2.599   1.597
 4282SOL    HW113292   2.063   2.586   1.642
 4282SOL    HW213293   1.962   2.696   1.575
 4283SOL     OW13294   2.475   3.227   0.726
 4283SOL    HW113295   2.426   3.140   0.735
 4283SOL    HW213296   2.452   3.270   0.639
 4284SOL     OW13297   3.155   3.090   1.423
 4284SOL    HW113298   3.192   3.017   1.365
 4284SOL    HW213299   3.207   3.095   1.508
 4285SOL     OW13300   2.671   1.866   0.502
 4285SOL    HW113301   2.711   1.957   0.493
 4285SOL    HW213302   2.571   1.874   0.508
 4286SOL     OW13303   2.059   2.838   1.264
 4286SOL    HW113304   2.148   2.793   1.250
 4286SOL    HW213305   1.986   2.773   1.245
 4287SOL     OW13306   3.387   2.861   0.190
 4287SOL    HW113307   3.324   2.785   0.203
 4287SOL    HW213308   3.435   2.879   0.276
 4288SOL     OW13309   3.049   3.654   1.616
 4288SOL    HW113310   3.073   3.714   1.540
 4288SOL    HW213311   3.056   3.559   1.586
 4289SOL     OW13312   3.328   3.279   0.953
 4289SOL    HW113313   3.269   3.285   1.033
 4289SOL    HW213314   3.313   3.191   0.907
 4290SOL     OW13315   3.529   3.576   0.572
 4290SOL    HW113316   3.488   3.553   0.484
 4290SOL    HW213317   3.511   3.502   0.637
 4291SOL     OW13318   2.460   2.591   0.270
 4291SOL    HW113319   2.484   2.660   0.202
 4291SOL    HW213320   2.382   2.624   0.324
 4292SOL     OW13321   3.143   2.207   0.944
 4292SOL    HW113322   3.057   2.157   0.931
 4292SOL    HW213323   3.205   2.153   1.000
 4293SOL     OW13324   3.438   3.524   0.307
 4293SOL    HW113325   3.527   3.570   0.310
 4293SOL    HW213326   3.417   3.500   0.212
 4294SOL     OW13327   2.669   2.467   1.465
 4294SOL    HW113328   2.622   2.464   1.554
 4294SOL    HW213329   2.618   2.412   1.399
 4295SOL     OW13330   3.256   2.331   1.674
 4295SOL    HW113331   3.236   2.374   1.762
 4295SOL    HW213332   3.334   2.269   1.683
 4296SOL     OW13333   2.835   2.752   1.572
 4296SOL    HW113334   2.881   2.668   1.543
 4296SOL    HW213335   2.779   2.786   1.497
 4297SOL     OW13336   2.853   2.272   1.242
 4297SOL    HW113337   2.776   2.306   1.296
 4297SOL    HW213338   2.819   2.221   1.163
 4298SOL     OW13339   2.903   2.563   0.429
 4298SOL    HW113340   2.929   2.559   0.525
 4298SOL    HW213341   2.818   2.512   0.415
 4299SOL     OW13342   1.938   2.673   0.789
 4299SOL    HW113343   2.037   2.661   0.798
 4299SOL    HW213344   1.914   2.768   0.810
 4300SOL     OW13345   1.992   3.683   1.571
 4300SOL    HW113346   1.982   3.668   1.670
 4300SOL    HW213347   1.906   3.719   1.535
 4301SOL     OW13348   2.727   2.210   0.195
 4301SOL    HW113349   2.786   2.273   0.146
 4301SOL    HW213350   2.746   2.116   0.166
 4302SOL     OW13351   3.581   2.447   1.831
 4302SOL    HW113352   3.555   2.536   1.795
 4302SOL    HW213353   3.579   2.379   1.758
 4303SOL     OW13354   3.224   3.006   0.545
 4303SOL    HW113355   3.307   2.977   0.497
 4303SOL    HW213356   3.175   3.073   0.489
 4304SOL     OW13357   2.870   3.318   0.477
 4304SOL    HW113358   2.824   3.390   0.425
 4304SOL    HW213359   2.866   3.338   0.575
 4305SOL     OW13360   2.213   3.663   0.853
 4305SOL    HW113361   2.263   3.577   0.859
 4305SOL    HW213362   2.278   3.740   0.850
 4306SOL     OW13363   3.657   2.928   0.873
 4306SOL    HW113364   3.595   2.913   0.797
 4306SOL    HW213365   3.605   2.939   0.958
 4307SOL     OW13366   3.089   3.412   1.506
 4307SOL    HW113367   3.095   3.335   1.570
 4307SOL    HW213368   3.037   3.386   1.426
 4308SOL     OW13369   2.183   2.805   0.242
 4308SOL    HW113370   2.265   2.844   0.200
 4308SOL    HW213371   2.156   2.723   0.193
 4309SOL     OW13372   3.320   2.597   0.728
 4309SOL    HW113373   3.315   2.532   0.803
 4309SOL    HW213374   3.400   2.656   0.741
 4310SOL     OW13375   2.323   3.128   1.727
 4310SOL    HW113376   2.273   3.129   1.641
 4310SOL    HW213377   2.260   3.110   1.803
 4311SOL     OW13378   2.973   3.638   0.237
 4311SOL    HW113379   2.913   3.576   0.287
 4311SOL    HW213380   3.004   3.594   0.152
 4312SOL     OW13381   2.064   2.147   1.498
 4312SOL    HW113382   1.984   2.207   1.485
 4312SOL    HW213383   2.054   2.098   1.584
 4313SOL     OW13384   3.494   3.239   0.081
 4313SOL    HW113385   3.462   3.333   0.071
 4313SOL    HW213386   3.418   3.176   0.069
 4314SOL     OW13387   2.326   3.605   0.323
 4314SOL    HW113388   2.359   3.644   0.409
 4314SOL    HW213389   2.402   3.598   0.258
 4315SOL     OW13390   3.262   1.969   0.426
 4315SOL    HW113391   3.238   1.932   0.336
 4315SOL    HW213392   3.361   1.985   0.430
 4316SOL     OW13393   2.111   3.647   1.241
 4316SOL    HW113394   2.168   3.582   1.291
 4316SOL    HW213395   2.095   3.614   1.148
 4317SOL     OW13396   2.802   3.560   0.904
 4317SOL    HW113397   2.882   3.503   0.925
 4317SOL    HW213398   2.753   3.520   0.827
 4318SOL     OW13399   2.244   2.562   0.480
 4318SOL    HW113400   2.289   2.472   0.477
 4318SOL    HW213401   2.150   2.551   0.513
 4319SOL     OW13402   3.409   2.084   1.729
 4319SOL    HW113403   3.404   2.121   1.821
 4319SOL    HW213404   3.337   2.015   1.717
 4320SOL     OW13405   2.476   1.984   0.117
 4320SOL    HW113406   2.574   1.962   0.124
 4320SOL    HW213407   2.445   1.967   0.024
 4321SOL     OW13408   2.643   2.126   1.749
 4321SOL    HW113409   2.710   2.065   1.792
 4321SOL    HW213410   2.570   2.145   1.814
 4322SOL     OW13411   2.750   3.376   1.195
 4322SOL    HW113412   2.727   3.351   1.101
 4322SOL    HW213413   2.811   3.307   1.234
 4323SOL     OW13414   3.213   2.452   1.433
 4323SOL    HW113415   3.241   2.409   1.518
 4323SOL    HW213416   3.238   2.548   1.434
 4324SOL     OW13417   2.665   3.264   0.924
 4324SOL    HW113418   2.755   3.278   0.882
 4324SOL    HW213419   2.594   3.266   0.853
 4325SOL     OW13420   2.784   2.365   0.899
 4325SOL    HW113421   2.759   2.356   0.803
 4325SOL    HW213422   2.832   2.283   0.930
 4326SOL     OW13423   2.401   1.926   0.512
 4326SOL    HW113424   2.320   1.927   0.570
 4326SOL    HW213425   2.404   2.009   0.457
 4327SOL     OW13426   3.296   3.050   0.041
 4327SOL    HW113427   3.328   2.974   0.098
 4327SOL    HW213428   3.204   3.077   0.071
 4328SOL     OW13429   2.159   1.897   0.171
 4328SOL    HW113430   2.208   1.981   0.150
 4328SOL    HW213431   2.221   1.832   0.216
 4329SOL     OW13432   2.797   2.098   0.480
 4329SOL    HW113433   2.749   2.139   0.402
 4329SOL    HW213434   2.896   2.096   0.461
 4330SOL     OW13435   2.938   2.545   1.464
 4330SOL    HW113436   2.858   2.484   1.467
 4330SOL    HW213437   3.019   2.492   1.440
 4331SOL     OW13438   3.089   3.432   0.793
 4331SOL    HW113439   3.110   3.506   0.728
 4331SOL    HW213440   3.157   3.432   0.866
 4332SOL     OW13441   2.321   3.014   0.741
 4332SOL    HW113442   2.250   2.987   0.806
 4332SOL    HW213443   2.295   2.986   0.648
 4333SOL     OW13444   3.133   3.659   0.591
 4333SOL    HW113445   3.177   3.723   0.527
 4333SOL    HW213446   3.083   3.711   0.661
 4334SOL     OW13447   2.894   2.411   0.016
 4334SOL    HW113448   2.853   2.493  -0.023
 4334SOL    HW213449   2.958   2.437   0.089
 4335SOL     OW13450   1.940   2.418   1.386
 4335SOL    HW113451   2.032   2.417   1.345
 4335SOL    HW213452   1.934   2.492   1.453
 4336SOL     OW13453   2.423   2.084   1.147
 4336SOL    HW113454   2.461   2.000   1.184
 4336SOL    HW213455   2.335   2.103   1.191
 4337SOL     OW13456   2.728   2.316   0.642
 4337SOL    HW113457   2.696   2.388   0.580
 4337SOL    HW213458   2.752   2.235   0.589
 4338SOL     OW13459   2.879   1.901   0.753
 4338SOL    HW113460   2.807   1.906   0.684
 4338SOL    HW213461   2.855   1.832   0.822
 4339SOL     OW13462   3.291   3.035   0.867
 4339SOL    HW113463   3.236   2.951   0.860
 4339SOL    HW213464   3.317   3.064   0.775
 4340SOL     OW13465   3.328   2.452   0.992
 4340SOL    HW113466   3.298   2.357   0.999
 4340SOL    HW213467   3.401   2.468   1.058
 4341SOL     OW13468   3.719   2.695   0.377
 4341SOL    HW113469   3.761   2.631   0.441
 4341SOL    HW213470   3.681   2.644   0.299
 4342SOL     OW13471   2.350   3.247   0.174
 4342SOL    HW113472   2.263   3.232   0.221
 4342SOL    HW213473   2.333   3.273   0.079
 4343SOL     OW13474   3.526   3.142   0.657
 4343SOL    HW113475   3.625   3.150   0.671
 4343SOL    HW213476   3.481   3.226   0.688
 4344SOL     OW13477   3.252   2.437   0.078
 4344SOL    HW113478   3.198   2.416   0.159
 4344SOL    HW213479   3.343   2.396   0.087
 4345SOL     OW13480   3.616   3.085   1.588
 4345SOL    HW113481   3.707   3.046   1.575
 4345SOL    HW213482   3.624   3.181   1.612
 4346SOL     OW13483   2.926   3.209   1.340
 4346SOL    HW113484   2.846   3.186   1.395
 4346SOL    HW213485   3.009   3.183   1.389
 4347SOL     OW13486   3.454   3.491   1.625
 4347SOL    HW113487   3.481   3.525   1.535
 4347SOL    HW213488   3.533   3.453   1.671
 4348SOL     OW13489   2.973   3.057   1.100
 4348SOL    HW113490   2.933   3.101   1.181
 4348SOL    HW213491   2.932   3.094   1.017
 4349SOL     OW13492   3.500   2.961   1.079
 4349SOL    HW113493   3.505   3.042   1.138
 4349SOL    HW213494   3.414   2.963   1.028
 4350SOL     OW13495   2.777   1.951   1.402
 4350SOL    HW113496   2.802   1.931   1.307
 4350SOL    HW213497   2.849   2.007   1.444
 4351SOL     OW13498   2.842   2.978   1.719
 4351SOL    HW113499   2.743   2.984   1.729
 4351SOL    HW213500   2.865   2.898   1.663
 4352SOL     OW13501   2.567   2.912   0.368
 4352SOL    HW113502   2.553   2.919   0.467
 4352SOL    HW213503   2.651   2.861   0.350
 4353SOL     OW13504   2.272   2.675   1.251
 4353SOL    HW113505   2.358   2.687   1.301
 4353SOL    HW213506   2.230   2.588   1.278
 4354SOL     OW13507   3.136   2.248   1.262
 4354SOL    HW113508   3.157   2.322   1.326
 4354SOL    HW213509   3.047   2.265   1.219
 4355SOL     OW13510   1.926   3.426   1.331
 4355SOL    HW113511   1.880   3.508   1.297
 4355SOL    HW213512   2.024   3.445   1.340
 4356SOL     OW13513   2.229   2.962   0.501
 4356SOL    HW113514   2.222   3.045   0.445
 4356SOL    HW213515   2.233   2.882   0.441
 4357SOL     OW13516   3.114   3.210   0.388
 4357SOL    HW113517   3.164   3.287   0.428
 4357SOL    HW213518   3.019   3.212   0.420
 4358SOL     OW13519   3.134   3.307   1.142
 4358SOL    HW113520   3.181   3.320   1.229
 4358SOL    HW213521   3.068   3.233   1.151
 4359SOL     OW13522   3.444   2.501   0.472
 4359SOL    HW113523   3.413   2.562   0.545
 4359SOL    HW213524   3.494   2.553   0.403
 4360SOL     OW13525   2.216   3.372   1.329
 4360SOL    HW113526   2.195   3.328   1.242
 4360SOL    HW213527   2.313   3.398   1.332
 4361SOL     OW13528   2.264   2.613   1.598
 4361SOL    HW113529   2.332   2.668   1.551
 4361SOL    HW213530   2.304   2.525   1.625
 4362SOL     OW13531   3.449   2.641   1.670
 4362SOL    HW113532   3.357   2.679   1.665
 4362SOL    HW213533   3.509   2.688   1.605
 4363SOL     OW13534   2.875   1.967   1.770
 4363SOL    HW113535   2.881   2.052   1.718
 4363SOL    HW213536   2.907   1.891   1.713
 4364SOL     OW13537   2.366   1.912   1.740
 4364SOL    HW113538   2.324   1.855   1.670
 4364SOL    HW213539   2.300   1.981   1.772
 4365SOL     OW13540   2.435   2.732   1.029
 4365SOL    HW113541   2.479   2.821   1.020
 4365SOL    HW213542   2.372   2.732   1.106
 4366SOL     OW13543   3.222   2.724   1.045
 4366SOL    HW113544   3.147   2.724   0.979
 4366SOL    HW213545   3.259   2.632   1.054
 4367SOL     OW13546   3.071   2.387   0.275
 4367SOL    HW113547   3.084   2.303   0.329
 4367SOL    HW213548   3.042   2.461   0.335
 4368SOL     OW13549   1.899   3.172   1.282
 4368SOL    HW113550   1.952   3.123   1.350
 4368SOL    HW213551   1.921   3.270   1.287
 4369SOL     OW13552   2.594   2.496   1.064
 4369SOL    HW113553   2.653   2.470   0.988
 4369SOL    HW213554   2.566   2.592   1.053
 4370SOL     OW13555   3.590   2.797   1.854
 4370SOL    HW113556   3.544   2.790   1.765
 4370SOL    HW213557   3.528   2.841   1.920
 4371SOL     OW13558   2.169   1.925   0.618
 4371SOL    HW113559   2.158   2.019   0.651
 4371SOL    HW213560   2.164   1.862   0.695
 4372SOL     OW13561   3.484   2.229   0.374
 4372SOL    HW113562   3.486   2.153   0.438
 4372SOL    HW213563   3.436   2.306   0.414
 4373SOL     OW13564   2.885   2.628   0.966
 4373SOL    HW113565   2.900   2.649   1.062
 4373SOL    HW213566   2.855   2.533   0.957
 4374SOL     OW13567   2.842   3.435   1.700
 4374SOL    HW113568   2.822   3.479   1.612
 4374SOL    HW213569   2.881   3.344   1.684
 4375SOL     OW13570   3.721   3.380   1.605
 4375SOL    HW113571   3.735   3.407   1.510
 4375SOL    HW213572   3.804   3.402   1.658
 4376SOL     OW13573   2.212   2.760   1.804
 4376SOL    HW113574   2.288   2.804   1.852
 4376SOL    HW213575   2.247   2.713   1.722
 4377SOL     OW13576   3.402   2.136   0.125
 4377SOL    HW113577   3.341   2.061   0.148
 4377SOL    HW213578   3.424   2.188   0.208
 4378SOL     OW13579   3.165   2.700   0.042
 4378SOL    HW113580   3.199   2.607   0.057
 4378SOL    HW213581   3.183   2.727  -0.053
 4379SOL     OW13582   2.930   3.195   0.849
 4379SOL    HW113583   2.937   3.111   0.794
 4379SOL    HW213584   2.992   3.264   0.813
 4380SOL     OW13585   2.181   2.672   0.949
 4380SOL    HW113586   2.274   2.708   0.954
 4380SOL    HW213587   2.175   2.587   1.001
 4381SOL     OW13588   3.000   2.242   1.678
 4381SOL    HW113589   2.955   2.305   1.742
 4381SOL    HW213590   3.093   2.273   1.661
 4382SOL     OW13591   3.022   2.069   1.477
 4382SOL    HW113592   3.022   2.133   1.554
 4382SOL    HW213593   3.050   2.117   1.394
 4383SOL     OW13594   1.870   3.188   0.200
 4383SOL    HW113595   1.777   3.209   0.169
 4383SOL    HW213596   1.880   3.089   0.213
 4384SOL     OW13597   1.950   3.663   0.927
 4384SOL    HW113598   1.908   3.577   0.900
 4384SOL    HW213599   2.044   3.666   0.893
 4385SOL     OW13600   2.366   3.430   0.910
 4385SOL    HW113601   2.432   3.504   0.919
 4385SOL    HW213602   2.410   3.351   0.868
 4386SOL     OW13603   2.864   2.658   1.238
 4386SOL    HW113604   2.905   2.626   1.324
 4386SOL    HW213605   2.768   2.631   1.235
 4387SOL     OW13606   1.902   2.406   1.114
 4387SOL    HW113607   1.987   2.373   1.073
 4387SOL    HW213608   1.915   2.421   1.212
 4388SOL     OW13609   3.231   2.812   1.660
 4388SOL    HW113610   3.270   2.901   1.680
 4388SOL    HW213611   3.241   2.792   1.563
 4389SOL     OW13612   2.677   2.434   0.325
 4389SOL    HW113613   2.684   2.345   0.279
 4389SOL    HW213614   2.583   2.468   0.317
 4390SOL     OW13615   3.519   2.466   1.206
 4390SOL    HW113616   3.481   2.397   1.268
 4390SOL    HW213617   3.601   2.430   1.162
 4391SOL     OW13618   2.114   3.426   1.744
 4391SOL    HW113619   2.084   3.483   1.820
 4391SOL    HW213620   2.107   3.329   1.770
 4392SOL     OW13621   2.533   2.326   1.269
 4392SOL    HW113622   2.499   2.237   1.239
 4392SOL    HW213623   2.559   2.380   1.189
 4393SOL     OW13624   2.792   3.540   1.465
 4393SOL    HW113625   2.768   3.522   1.370
 4393SOL    HW213626   2.822   3.634   1.475
 4394SOL     OW13627   2.021   2.999   1.466
 4394SOL    HW113628   2.043   2.938   1.542
 4394SOL    HW213629   2.031   2.950   1.380
 4395SOL     OW13630   3.209   2.921   1.234
 4395SOL    HW113631   3.233   2.858   1.160
 4395SOL    HW213632   3.119   2.961   1.216
 4396SOL     OW13633   3.164   2.717   0.309
 4396SOL    HW113634   3.078   2.686   0.351
 4396SOL    HW213635   3.160   2.703   0.210
 4397SOL     OW13636   3.621   3.609   1.154
 4397SOL    HW113637   3.682   3.639   1.081
 4397SOL    HW213638   3.583   3.520   1.132
 4398SOL     OW13639   3.114   3.593   1.128
 4398SOL    HW113640   3.198   3.598   1.074
 4398SOL    HW213641   3.091   3.497   1.146
 4399SOL     OW13642   1.945   3.120   1.022
 4399SOL    HW113643   1.940   3.119   1.122
 4399SOL    HW213644   1.862   3.079   0.984
 4400SOL     OW13645   2.550   3.524   1.716
 4400SOL    HW113646   2.494   3.605   1.725
 4400SOL    HW213647   2.602   3.528   1.630
 4401SOL     OW13648   2.765   1.948   0.133
 4401SOL    HW113649   2.816   1.949   0.047
 4401SOL    HW213650   2.821   1.906   0.204
 4402SOL     OW13651   3.588   1.997   0.523
 4402SOL    HW113652   3.661   1.980   0.456
 4402SOL    HW213653   3.557   1.910   0.561
 4403SOL     OW13654   3.250   3.435   0.477
 4403SOL    HW113655   3.317   3.447   0.403
 4403SOL    HW213656   3.210   3.524   0.500
 4404SOL     OW13657   1.992   3.656   1.851
 4404SOL    HW113658   1.951   3.582   1.904
 4404SOL    HW213659   2.056   3.707   1.909
 4405SOL     OW13660   3.142   2.789   0.672
 4405SOL    HW113661   3.202   2.708   0.674
 4405SOL    HW213662   3.182   2.858   0.612
 4406SOL     OW13663   2.692   3.135   1.422
 4406SOL    HW113664   2.687   3.168   1.517
 4406SOL    HW213665   2.606   3.154   1.376
 4407SOL     OW13666   2.534   3.478   0.154
 4407SOL    HW113667   2.543   3.488   0.055
 4407SOL    HW213668   2.494   3.389   0.175
 4408SOL     OW13669   3.512   3.582   1.394
 4408SOL    HW113670   3.565   3.592   1.310
 4408SOL    HW213671   3.485   3.672   1.428
 4409SOL     OW13672   3.703   2.037   0.963
 4409SOL    HW113673   3.742   1.952   0.927
 4409SOL    HW213674   3.605   2.039   0.944
 4410SOL     OW13675   3.056   3.474   0.031
 4410SOL    HW113676   3.062   3.381   0.068
 4410SOL    HW213677   2.997   3.474  -0.049
 4411SOL     OW13678   2.684   2.864   1.372
 4411SOL    HW113679   2.724   2.863   1.280
 4411SOL    HW213680   2.694   2.956   1.412
 4412SOL     OW13681   2.778   2.772   0.291
 4412SOL    HW113682   2.841   2.810   0.223
 4412SOL    HW213683   2.818   2.689   0.330
 4413SOL     OW13684   3.366   3.469   0.044
 4413SOL    HW113685   3.274   3.506   0.051
 4413SOL    HW213686   3.404   3.489  -0.046
 4414SOL     OW13687   2.234   3.150   1.490
 4414SOL    HW113688   2.221   3.243   1.456
 4414SOL    HW213689   2.150   3.098   1.477
 4415SOL     OW13690   3.476   3.154   1.289
 4415SOL    HW113691   3.536   3.157   1.369
 4415SOL    HW213692   3.401   3.218   1.302
 4416SOL     OW13693   2.901   2.960   0.696
 4416SOL    HW113694   2.831   2.913   0.750
 4416SOL    HW213695   2.960   2.892   0.653
 4417SOL     OW13696   2.876   2.098   0.971
 4417SOL    HW113697   2.868   2.062   0.878
 4417SOL    HW213698   2.874   2.022   1.036
 4418SOL     OW13699   2.452   3.349   0.491
 4418SOL    HW113700   2.494   3.291   0.421
 4418SOL    HW213701   2.408   3.428   0.447
 4419SOL     OW13702   3.571   2.247   1.381
 4419SOL    HW113703   3.644   2.316   1.385
 4419SOL    HW213704   3.599   2.172   1.322
 4420SOL     OW13705   2.117   3.210   0.290
 4420SOL    HW113706   2.021   3.211   0.263
 4420SOL    HW213707   2.129   3.263   0.374
 4421SOL     OW13708   1.967   2.875   1.726
 4421SOL    HW113709   1.890   2.842   1.780
 4421SOL    HW213710   2.052   2.845   1.768
 4422SOL     OW13711   2.534   2.065   1.489
 4422SOL    HW113712   2.624   2.049   1.449
 4422SOL    HW213713   2.542   2.070   1.588
 4423SOL     OW13714   1.937   2.207   0.033
 4423SOL    HW113715   1.845   2.179   0.004
 4423SOL    HW213716   1.968   2.284  -0.023
 4424SOL     OW13717   3.302   2.718   1.398
 4424SOL    HW113718   3.245   2.770   1.335
 4424SOL    HW213719   3.398   2.730   1.374
 4425SOL     OW13720   1.934   2.028   0.318
 4425SOL    HW113721   1.917   2.111   0.264
 4425SOL    HW213722   2.024   1.991   0.296
 4426SOL     OW13723   3.045   3.197   0.119
 4426SOL    HW113724   2.946   3.186   0.121
 4426SOL    HW213725   3.079   3.212   0.212
 4427SOL     OW13726   2.475   2.704   1.431
 4427SOL    HW113727   2.531   2.785   1.414
 4427SOL    HW213728   2.534   2.624   1.434
 4428SOL     OW13729   3.355   3.629   0.959
 4428SOL    HW113730   3.388   3.693   0.890
 4428SOL    HW213731   3.421   3.623   1.034
 4429SOL     OW13732   2.578   2.427   1.708
 4429SOL    HW113733   2.597   2.492   1.782
 4429SOL    HW213734   2.638   2.347   1.717
 4430SOL     OW13735   3.312   3.082   1.633
 4430SOL    HW113736   3.303   3.072   1.732
 4430SOL    HW213737   3.408   3.075   1.607
 4431SOL     OW13738   2.252   3.603   1.560
 4431SOL    HW113739   2.161   3.644   1.558
 4431SOL    HW213740   2.245   3.509   1.592
 4432SOL     OW13741   3.536   2.745   1.254
 4432SOL    HW113742   3.509   2.656   1.217
 4432SOL    HW213743   3.537   2.813   1.181
 4433SOL     OW13744   3.087   2.187   0.449
 4433SOL    HW113745   3.152   2.113   0.438
 4433SOL    HW213746   3.107   2.237   0.533
 4434SOL     OW13747   2.456   2.607   0.652
 4434SOL    HW113748   2.506   2.692   0.633
 4434SOL    HW213749   2.368   2.609   0.604
 4435SOL     OW13750   3.639   2.204   1.642
 4435SOL    HW113751   3.622   2.235   1.548
 4435SOL    HW213752   3.555   2.167   1.680
 4436SOL     OW13753   3.592   2.796   1.517
 4436SOL    HW113754   3.630   2.887   1.532
 4436SOL    HW213755   3.584   2.779   1.418
 4437SOL     OW13756   2.721   3.236   0.016
 4437SOL    HW113757   2.675   3.251   0.104
 4437SOL    HW213758   2.765   3.321  -0.014
 4438SOL     OW13759   2.523   3.652   0.953
 4438SOL    HW113760   2.477   3.740   0.940
 4438SOL    HW213761   2.622   3.664   0.946
 4439SOL     OW13762   2.721   2.818   0.861
 4439SOL    HW113763   2.775   2.749   0.909
 4439SOL    HW213764   2.689   2.887   0.927
 4440SOL     OW13765   2.945   2.846   0.087
 4440SOL    HW113766   2.922   2.899   0.005
 4440SOL    HW213767   3.026   2.790   0.068
 4441SOL     OW13768   3.723   3.431   0.851
 4441SOL    HW113769   3.652   3.419   0.781
 4441SOL    HW213770   3.724   3.352   0.911
 4442SOL     OW13771   2.083   3.176   1.844
 4442SOL    HW113772   2.018   3.103   1.823
 4442SOL    HW213773   2.087   3.190   1.942
 4443SOL     OW13774   1.941   3.102   0.653
 4443SOL    HW113775   1.940   3.055   0.741
 4443SOL    HW213776   2.023   3.074   0.602
 4444SOL     OW13777   2.534   3.253   1.624
 4444SOL    HW113778   2.456   3.203   1.662
 4444SOL    HW213779   2.531   3.348   1.655
 4445SOL     OW13780   3.686   2.054   1.227
 4445SOL    HW113781   3.682   1.964   1.271
 4445SOL    HW213782   3.689   2.043   1.128
 4446SOL     OW13783   3.567   3.349   1.104
 4446SOL    HW113784   3.474   3.324   1.077
 4446SOL    HW213785   3.593   3.299   1.186
 4447SOL     OW13786   2.674   3.448   0.687
 4447SOL    HW113787   2.706   3.458   0.593
 4447SOL    HW213788   2.595   3.386   0.689
 4448SOL     OW13789   3.286   2.076   1.112
 4448SOL    HW113790   3.338   2.011   1.167
 4448SOL    HW213791   3.237   2.139   1.173
 4449SOL     OW13792   2.863   1.896   1.154
 4449SOL    HW113793   2.800   1.824   1.123
 4449SOL    HW213794   2.956   1.860   1.154
 4450SOL     OW13795   2.632   3.192   0.301
 4450SOL    HW113796   2.586   3.105   0.318
 4450SOL    HW213797   2.723   3.189   0.342
 4451SOL     OW13798   2.480   3.429   1.284
 4451SOL    HW113799   2.475   3.511   1.341
 4451SOL    HW213800   2.569   3.426   1.239
 4452SOL     OW13801   3.214   1.914   0.168
 4452SOL    HW113802   3.249   1.873   0.084
 4452SOL    HW213803   3.124   1.876   0.188
 4453SOL     OW13804   3.162   2.315   0.691
 4453SOL    HW113805   3.103   2.395   0.695
 4453SOL    HW213806   3.177   2.280   0.784
 4454SOL     OW13807   3.455   2.083   0.882
 4454SOL    HW113808   3.371   2.082   0.936
 4454SOL    HW213809   3.457   2.166   0.826
 4455SOL     OW13810   1.901   2.939   0.300
 4455SOL    HW113811   2.000   2.928   0.291
 4455SOL    HW213812   1.861   2.853   0.332
 4456SOL     OW13813   2.737   3.508   0.337
 4456SOL    HW113814   2.660   3.473   0.283
 4456SOL    HW213815   2.705   3.579   0.399
 4457SOL     OW13816   2.092   2.490   1.975
 4457SOL    HW113817   1.999   2.488   2.012
 4457SOL    HW213818   2.093   2.451   1.883
 4458SOL     OW13819   2.087   2.137   2.858
 4458SOL    HW113820   2.122   2.120   2.950
 4458SOL    HW213821   1.999   2.092   2.846
 4459SOL     OW13822   1.881   2.230   2.509
 4459SOL    HW113823   1.799   2.273   2.548
 4459SOL    HW213824   1.853   2.157   2.446
 4460SOL     OW13825   2.431   3.137   3.027
 4460SOL    HW113826   2.338   3.130   2.990
 4460SOL    HW213827   2.442   3.226   3.071
 4461SOL     OW13828   3.417   3.373   2.565
 4461SOL    HW113829   3.360   3.357   2.646
 4461SOL    HW213830   3.358   3.383   2.485
 4462SOL     OW13831   2.997   2.565   2.579
 4462SOL    HW113832   3.054   2.643   2.554
 4462SOL    HW213833   2.937   2.591   2.655
 4463SOL     OW13834   3.617   2.469   2.093
 4463SOL    HW113835   3.605   2.456   1.994
 4463SOL    HW213836   3.587   2.388   2.142
 4464SOL     OW13837   2.630   3.006   2.885
 4464SOL    HW113838   2.552   3.023   2.945
 4464SOL    HW213839   2.664   3.093   2.849
 4465SOL     OW13840   2.712   2.660   3.685
 4465SOL    HW113841   2.708   2.736   3.750
 4465SOL    HW213842   2.734   2.696   3.594
 4466SOL     OW13843   2.547   2.874   2.527
 4466SOL    HW113844   2.616   2.858   2.597
 4466SOL    HW213845   2.474   2.931   2.565
 4467SOL     OW13846   2.548   3.023   3.665
 4467SOL    HW113847   2.608   3.102   3.679
 4467SOL    HW213848   2.462   3.054   3.624
 4468SOL     OW13849   2.197   3.297   2.923
 4468SOL    HW113850   2.119   3.266   2.870
 4468SOL    HW213851   2.255   3.355   2.866
 4469SOL     OW13852   3.322   3.367   3.201
 4469SOL    HW113853   3.346   3.461   3.227
 4469SOL    HW213854   3.306   3.313   3.283
 4470SOL     OW13855   3.465   2.309   2.599
 4470SOL    HW113856   3.391   2.355   2.549
 4470SOL    HW213857   3.516   2.377   2.652
 4471SOL     OW13858   2.093   3.575   2.345
 4471SOL    HW113859   2.127   3.652   2.399
 4471SOL    HW213860   2.137   3.575   2.255
 4472SOL     OW13861   2.989   3.203   3.552
 4472SOL    HW113862   3.036   3.203   3.640
 4472SOL    HW213863   2.941   3.116   3.541
 4473SOL     OW13864   2.092   3.296   2.400
 4473SOL    HW113865   2.066   3.392   2.400
 4473SOL    HW213866   2.021   3.242   2.445
 4474SOL     OW13867   2.102   2.953   2.748
 4474SOL    HW113868   2.116   2.869   2.800
 4474SOL    HW213869   2.047   3.017   2.803
 4475SOL     OW13870   2.482   3.648   3.301
 4475SOL    HW113871   2.390   3.631   3.336
 4475SOL    HW213872   2.510   3.740   3.327
 4476SOL     OW13873   2.468   2.826   1.985
 4476SOL    HW113874   2.475   2.910   1.931
 4476SOL    HW213875   2.514   2.839   2.073
 4477SOL     OW13876   3.456   1.976   3.342
 4477SOL    HW113877   3.438   2.043   3.270
 4477SOL    HW213878   3.453   2.022   3.431
 4478SOL     OW13879   1.984   2.505   2.425
 4478SOL    HW113880   1.939   2.417   2.442
 4478SOL    HW213881   1.983   2.559   2.509
 4479SOL     OW13882   3.704   3.629   2.221
 4479SOL    HW113883   3.758   3.600   2.301
 4479SOL    HW213884   3.734   3.719   2.192
 4480SOL     OW13885   1.889   3.458   1.979
 4480SOL    HW113886   1.870   3.362   2.000
 4480SOL    HW213887   1.856   3.516   2.054
 4481SOL     OW13888   3.551   2.784   2.474
 4481SOL    HW113889   3.646   2.755   2.482
 4481SOL    HW213890   3.543   2.849   2.399
 4482SOL     OW13891   3.503   2.970   2.294
 4482SOL    HW113892   3.589   2.972   2.242
 4482SOL    HW213893   3.517   3.017   2.382
 4483SOL     OW13894   1.975   2.599   3.459
 4483SOL    HW113895   2.063   2.586   3.504
 4483SOL    HW213896   1.962   2.696   3.437
 4484SOL     OW13897   2.475   3.227   2.588
 4484SOL    HW113898   2.426   3.140   2.597
 4484SOL    HW213899   2.452   3.270   2.501
 4485SOL     OW13900   3.155   3.090   3.285
 4485SOL    HW113901   3.192   3.017   3.227
 4485SOL    HW213902   3.207   3.095   3.370
 4486SOL     OW13903   2.671   1.866   2.364
 4486SOL    HW113904   2.711   1.957   2.355
 4486SOL    HW213905   2.571   1.874   2.370
 4487SOL     OW13906   2.059   2.838   3.126
 4487SOL    HW113907   2.148   2.793   3.112
 4487SOL    HW213908   1.986   2.773   3.107
 4488SOL     OW13909   3.387   2.861   2.052
 4488SOL    HW113910   3.324   2.785   2.065
 4488SOL    HW213911   3.435   2.879   2.138
 4489SOL     OW13912   3.049   3.654   3.478
 4489SOL    HW113913   3.073   3.714   3.402
 4489SOL    HW213914   3.056   3.559   3.448
 4490SOL     OW13915   3.328   3.279   2.815
 4490SOL    HW113916   3.269   3.285   2.895
 4490SOL    HW213917   3.313   3.191   2.769
 4491SOL     OW13918   3.529   3.576   2.434
 4491SOL    HW113919   3.488   3.553   2.346
 4491SOL    HW213920   3.511   3.502   2.499
 4492SOL     OW13921   2.460   2.591   2.132
 4492SOL    HW113922   2.484   2.660   2.064
 4492SOL    HW213923   2.382   2.624   2.186
 4493SOL     OW13924   3.143   2.207   2.806
 4493SOL    HW113925   3.057   2.157   2.793
 4493SOL    HW213926   3.205   2.153   2.862
 4494SOL     OW13927   3.438   3.524   2.169
 4494SOL    HW113928   3.527   3.570   2.172
 4494SOL    HW213929   3.417   3.500   2.074
 4495SOL     OW13930   2.669   2.467   3.327
 4495SOL    HW113931   2.622   2.464   3.416
 4495SOL    HW213932   2.618   2.412   3.261
 4496SOL     OW13933   3.256   2.331   3.536
 4496SOL    HW113934   3.236   2.374   3.624
 4496SOL    HW213935   3.334   2.269   3.545
 4497SOL     OW13936   2.835   2.752   3.434
 4497SOL    HW113937   2.881   2.668   3.405
 4497SOL    HW213938   2.779   2.786   3.359
 4498SOL     OW13939   2.853   2.272   3.104
 4498SOL    HW113940   2.776   2.306   3.158
 4498SOL    HW213941   2.819   2.221   3.025
 4499SOL     OW13942   2.903   2.563   2.291
 4499SOL    HW113943   2.929   2.559   2.387
 4499SOL    HW213944   2.818   2.512   2.277
 4500SOL     OW13945   1.938   2.673   2.651
 4500SOL    HW113946   2.037   2.661   2.660
 4500SOL    HW213947   1.914   2.768   2.672
 4501SOL     OW13948   1.992   3.683   3.433
 4501SOL    HW113949   1.982   3.668   3.532
 4501SOL    HW213950   1.906   3.719   3.397
 4502SOL     OW13951   2.727   2.210   2.057
 4502SOL    HW113952   2.786   2.273   2.008
 4502SOL    HW213953   2.746   2.116   2.028
 4503SOL     OW13954   3.581   2.447   3.693
 4503SOL    HW113955   3.555   2.536   3.657
 4503SOL    HW213956   3.579   2.379   3.620
 4504SOL     OW13957   3.224   3.006   2.407
 4504SOL    HW113958   3.307   2.977   2.359
 4504SOL    HW213959   3.175   3.073   2.351
 4505SOL     OW13960   2.412   2.058   2.747
 4505SOL    HW113961   2.407   2.053   2.847
 4505SOL    HW213962   2.414   2.154   2.718
 4506SOL     OW13963   2.870   3.318   2.339
 4506SOL    HW113964   2.824   3.390   2.287
 4506SOL    HW213965   2.866   3.338   2.437
 4507SOL     OW13966   2.213   3.663   2.715
 4507SOL    HW113967   2.263   3.577   2.721
 4507SOL    HW213968   2.278   3.740   2.712
 4508SOL     OW13969   3.657   2.928   2.735
 4508SOL    HW113970   3.595   2.913   2.659
 4508SOL    HW213971   3.605   2.939   2.820
 4509SOL     OW13972   3.089   3.412   3.368
 4509SOL    HW113973   3.095   3.335   3.432
 4509SOL    HW213974   3.037   3.386   3.288
 4510SOL     OW13975   2.183   2.805   2.104
 4510SOL    HW113976   2.265   2.844   2.062
 4510SOL    HW213977   2.156   2.723   2.055
 4511SOL     OW13978   3.320   2.597   2.590
 4511SOL    HW113979   3.315   2.532   2.665
 4511SOL    HW213980   3.400   2.656   2.603
 4512SOL     OW13981   2.323   3.128   3.589
 4512SOL    HW113982   2.273   3.129   3.503
 4512SOL    HW213983   2.260   3.110   3.665
 4513SOL     OW13984   2.973   3.638   2.099
 4513SOL    HW113985   2.913   3.576   2.149
 4513SOL    HW213986   3.004   3.594   2.014
 4514SOL     OW13987   2.064   2.147   3.360
 4514SOL    HW113988   1.984   2.207   3.347
 4514SOL    HW213989   2.054   2.098   3.446
 4515SOL     OW13990   3.494   3.239   1.943
 4515SOL    HW113991   3.462   3.333   1.933
 4515SOL    HW213992   3.418   3.176   1.931
 4516SOL     OW13993   2.326   3.605   2.185
 4516SOL    HW113994   2.359   3.644   2.271
 4516SOL    HW213995   2.402   3.598   2.120
 4517SOL     OW13996   3.262   1.969   2.288
 4517SOL    HW113997   3.238   1.932   2.198
 4517SOL    HW213998   3.361   1.985   2.292
 4518SOL     OW13999   2.111   3.647   3.103
 4518SOL    HW114000   2.168   3.582   3.153
 4518SOL    HW214001   2.095   3.614   3.010
 4519SOL     OW14002   2.802   3.560   2.766
 4519SOL    HW114003   2.882   3.503   2.787
 4519SOL    HW214004   2.753   3.520   2.689
 4520SOL     OW14005   3.409   2.084   3.591
 4520SOL    HW114006   3.404   2.121   3.683
 4520SOL    HW214007   3.337   2.015   3.579
 4521SOL     OW14008   2.476   1.984   1.979
 4521SOL    HW114009   2.574   1.962   1.986
 4521SOL    HW214010   2.445   1.967   1.886
 4522SOL     OW14011   2.643   2.126   3.611
 4522SOL    HW114012   2.710   2.065   3.654
 4522SOL    HW214013   2.570   2.145   3.676
 4523SOL     OW14014   2.750   3.376   3.057
 4523SOL    HW114015   2.727   3.351   2.963
 4523SOL    HW214016   2.811   3.307   3.096
 4524SOL     OW14017   3.213   2.452   3.295
 4524SOL    HW114018   3.241   2.409   3.380
 4524SOL    HW214019   3.238   2.548   3.296
 4525SOL     OW14020   2.665   3.264   2.786
 4525SOL    HW114021   2.755   3.278   2.744
 4525SOL    HW214022   2.594   3.266   2.715
 4526SOL     OW14023   2.784   2.365   2.761
 4526SOL    HW114024   2.759   2.356   2.665
 4526SOL    HW214025   2.832   2.283   2.792
 4527SOL     OW14026   2.401   1.926   2.374
 4527SOL    HW114027   2.320   1.927   2.432
 4527SOL    HW214028   2.404   2.009   2.319
 4528SOL     OW14029   3.296   3.050   1.903
 4528SOL    HW114030   3.328   2.974   1.960
 4528SOL    HW214031   3.204   3.077   1.933
 4529SOL     OW14032   2.797   2.098   2.342
 4529SOL    HW114033   2.749   2.139   2.264
 4529SOL    HW214034   2.896   2.096   2.323
 4530SOL     OW14035   2.938   2.545   3.326
 4530SOL    HW114036   2.858   2.484   3.329
 4530SOL    HW214037   3.019   2.492   3.302
 4531SOL     OW14038   3.089   3.432   2.655
 4531SOL    HW114039   3.110   3.506   2.590
 4531SOL    HW214040   3.157   3.432   2.728
 4532SOL     OW14041   2.321   3.014   2.603
 4532SOL    HW114042   2.250   2.987   2.668
 4532SOL    HW214043   2.295   2.986   2.510
 4533SOL     OW14044   3.133   3.659   2.453
 4533SOL    HW114045   3.177   3.723   2.389
 4533SOL    HW214046   3.083   3.711   2.523
 4534SOL     OW14047   2.894   2.411   1.878
 4534SOL    HW114048   2.853   2.493   1.839
 4534SOL    HW214049   2.958   2.437   1.951
 4535SOL     OW14050   1.940   2.418   3.248
 4535SOL    HW114051   2.032   2.417   3.207
 4535SOL    HW214052   1.934   2.492   3.315
 4536SOL     OW14053   2.423   2.084   3.009
 4536SOL    HW114054   2.461   2.000   3.046
 4536SOL    HW214055   2.335   2.103   3.053
 4537SOL     OW14056   2.728   2.316   2.504
 4537SOL    HW114057   2.696   2.388   2.442
 4537SOL    HW214058   2.752   2.235   2.451
 4538SOL     OW14059   2.879   1.901   2.615
 4538SOL    HW114060   2.807   1.906   2.546
 4538SOL    HW214061   2.855   1.832   2.684
 4539SOL     OW14062   3.291   3.035   2.729
 4539SOL    HW114063   3.236   2.951   2.722
 4539SOL    HW214064   3.317   3.064   2.637
 4540SOL     OW14065   3.328   2.452   2.854
 4540SOL    HW114066   3.298   2.357   2.861
 4540SOL    HW214067   3.401   2.468   2.920
 4541SOL     OW14068   3.719   2.695   2.239
 4541SOL    HW114069   3.761   2.631   2.303
 4541SOL    HW214070   3.681   2.644   2.161
 4542SOL     OW14071   2.350   3.247   2.036
 4542SOL    HW114072   2.263   3.232   2.083
 4542SOL    HW214073   2.333   3.273   1.941
 4543SOL     OW14074   3.526   3.142   2.519
 4543SOL    HW114075   3.625   3.150   2.533
 4543SOL    HW214076   3.481   3.226   2.550
 4544SOL     OW14077   3.252   2.437   1.940
 4544SOL    HW114078   3.198   2.416   2.021
 4544SOL    HW214079   3.343   2.396   1.949
 4545SOL     OW14080   3.616   3.085   3.450
 4545SOL    HW114081   3.707   3.046   3.437
 4545SOL    HW214082   3.624   3.181   3.474
 4546SOL     OW14083   2.926   3.209   3.202
 4546SOL    HW114084   2.846   3.186   3.257
 4546SOL    HW214085   3.009   3.183   3.251
 4547SOL     OW14086   3.454   3.491   3.487
 4547SOL    HW114087   3.481   3.525   3.397
 4547SOL    HW214088   3.533   3.453   3.533
 4548SOL     OW14089   2.973   3.057   2.962
 4548SOL    HW114090   2.933   3.101   3.043
 4548SOL    HW214091   2.932   3.094   2.879
 4549SOL     OW14092   3.500   2.961   2.941
 4549SOL    HW114093   3.505   3.042   3.000
 4549SOL    HW214094   3.414   2.963   2.890
 4550SOL     OW14095   2.777   1.951   3.264
 4550SOL    HW114096   2.802   1.931   3.169
 4550SOL    HW214097   2.849   2.007   3.306
 4551SOL     OW14098   2.842   2.978   3.581
 4551SOL    HW114099   2.743   2.984   3.591
 4551SOL    HW214100   2.865   2.898   3.525
 4552SOL     OW14101   2.567   2.912   2.230
 4552SOL    HW114102   2.553   2.919   2.329
 4552SOL    HW214103   2.651   2.861   2.212
 4553SOL     OW14104   2.272   2.675   3.113
 4553SOL    HW114105   2.358   2.687   3.163
 4553SOL    HW214106   2.230   2.588   3.140
 4554SOL     OW14107   3.136   2.248   3.124
 4554SOL    HW114108   3.157   2.322   3.188
 4554SOL    HW214109   3.047   2.265   3.081
 4555SOL     OW14110   1.926   3.426   3.193
 4555SOL    HW114111   1.880   3.508   3.159
 4555SOL    HW214112   2.024   3.445   3.202
 4556SOL     OW14113   2.229   2.962   2.363
 4556SOL    HW114114   2.222   3.045   2.307
 4556SOL    HW214115   2.233   2.882   2.303
 4557SOL     OW14116   2.428   2.399   2.727
 4557SOL    HW114117   2.440   2.465   2.653
 4557SOL    HW214118   2.474   2.433   2.810
 4558SOL     OW14119   3.114   3.210   2.250
 4558SOL    HW114120   3.164   3.287   2.290
 4558SOL    HW214121   3.019   3.212   2.282
 4559SOL     OW14122   3.134   3.307   3.004
 4559SOL    HW114123   3.181   3.320   3.091
 4559SOL    HW214124   3.068   3.233   3.013
 4560SOL     OW14125   3.444   2.501   2.334
 4560SOL    HW114126   3.413   2.562   2.407
 4560SOL    HW214127   3.494   2.553   2.265
 4561SOL     OW14128   2.216   3.372   3.191
 4561SOL    HW114129   2.195   3.328   3.104
 4561SOL    HW214130   2.313   3.398   3.194
 4562SOL     OW14131   2.264   2.613   3.460
 4562SOL    HW114132   2.332   2.668   3.413
 4562SOL    HW214133   2.304   2.525   3.487
 4563SOL     OW14134   3.449   2.641   3.532
 4563SOL    HW114135   3.357   2.679   3.527
 4563SOL    HW214136   3.509   2.688   3.467
 4564SOL     OW14137   2.875   1.967   3.632
 4564SOL    HW114138   2.881   2.052   3.580
 4564SOL    HW214139   2.907   1.891   3.575
 4565SOL     OW14140   2.366   1.912   3.602
 4565SOL    HW114141   2.324   1.855   3.532
 4565SOL    HW214142   2.300   1.981   3.634
 4566SOL     OW14143   2.435   2.732   2.891
 4566SOL    HW114144   2.479   2.821   2.882
 4566SOL    HW214145   2.372   2.732   2.968
 4567SOL     OW14146   3.222   2.724   2.907
 4567SOL    HW114147   3.147   2.724   2.841
 4567SOL    HW214148   3.259   2.632   2.916
 4568SOL     OW14149   3.071   2.387   2.137
 4568SOL    HW114150   3.084   2.303   2.191
 4568SOL    HW214151   3.042   2.461   2.197
 4569SOL     OW14152   1.899   3.172   3.144
 4569SOL    HW114153   1.952   3.123   3.212
 4569SOL    HW214154   1.921   3.270   3.149
 4570SOL     OW14155   2.594   2.496   2.926
 4570SOL    HW114156   2.653   2.470   2.850
 4570SOL    HW214157   2.566   2.592   2.915
 4571SOL     OW14158   3.590   2.797   3.716
 4571SOL    HW114159   3.544   2.790   3.627
 4571SOL    HW214160   3.528   2.841   3.782
 4572SOL     OW14161   3.484   2.229   2.236
 4572SOL    HW114162   3.486   2.153   2.300
 4572SOL    HW214163   3.436   2.306   2.276
 4573SOL     OW14164   2.885   2.628   2.828
 4573SOL    HW114165   2.900   2.649   2.924
 4573SOL    HW214166   2.855   2.533   2.819
 4574SOL     OW14167   2.842   3.435   3.562
 4574SOL    HW114168   2.822   3.479   3.474
 4574SOL    HW214169   2.881   3.344   3.546
 4575SOL     OW14170   3.721   3.380   3.467
 4575SOL    HW114171   3.735   3.407   3.372
 4575SOL    HW214172   3.804   3.402   3.520
 4576SOL     OW14173   2.212   2.760   3.666
 4576SOL    HW114174   2.288   2.804   3.714
 4576SOL    HW214175   2.247   2.713   3.584
 4577SOL     OW14176   3.402   2.136   1.987
 4577SOL    HW114177   3.341   2.061   2.010
 4577SOL    HW214178   3.424   2.188   2.070
 4578SOL     OW14179   3.165   2.700   1.904
 4578SOL    HW114180   3.199   2.607   1.919
 4578SOL    HW214181   3.183   2.727   1.809
 4579SOL     OW14182   2.930   3.195   2.711
 4579SOL    HW114183   2.937   3.111   2.656
 4579SOL    HW214184   2.992   3.264   2.675
 4580SOL     OW14185   2.181   2.672   2.811
 4580SOL    HW114186   2.274   2.708   2.816
 4580SOL    HW214187   2.175   2.587   2.863
 4581SOL     OW14188   3.000   2.242   3.540
 4581SOL    HW114189   2.955   2.305   3.604
 4581SOL    HW214190   3.093   2.273   3.523
 4582SOL     OW14191   3.022   2.069   3.339
 4582SOL    HW114192   3.022   2.133   3.416
 4582SOL    HW214193   3.050   2.117   3.256
 4583SOL     OW14194   1.870   3.188   2.062
 4583SOL    HW114195   1.777   3.209   2.031
 4583SOL    HW214196   1.880   3.089   2.075
 4584SOL     OW14197   1.950   3.663   2.789
 4584SOL    HW114198   1.908   3.577   2.762
 4584SOL    HW214199   2.044   3.666   2.755
 4585SOL     OW14200   2.366   3.430   2.772
 4585SOL    HW114201   2.432   3.504   2.781
 4585SOL    HW214202   2.410   3.351   2.730
 4586SOL     OW14203   2.864   2.658   3.100
 4586SOL    HW114204   2.905   2.626   3.186
 4586SOL    HW214205   2.768   2.631   3.097
 4587SOL     OW14206   1.902   2.406   2.976
 4587SOL    HW114207   1.987   2.373   2.935
 4587SOL    HW214208   1.915   2.421   3.074
 4588SOL     OW14209   3.231   2.812   3.522
 4588SOL    HW114210   3.270   2.901   3.542
 4588SOL    HW214211   3.241   2.792   3.425
 4589SOL     OW14212   2.677   2.434   2.187
 4589SOL    HW114213   2.684   2.345   2.141
 4589SOL    HW214214   2.583   2.468   2.179
 4590SOL     OW14215   3.519   2.466   3.068
 4590SOL    HW114216   3.481   2.397   3.130
 4590SOL    HW214217   3.601   2.430   3.024
 4591SOL     OW14218   2.114   3.426   3.606
 4591SOL    HW114219   2.084   3.483   3.682
 4591SOL    HW214220   2.107   3.329   3.632
 4592SOL     OW14221   2.792   3.540   3.327
 4592SOL    HW114222   2.768   3.522   3.232
 4592SOL    HW214223   2.822   3.634   3.337
 4593SOL     OW14224   2.021   2.999   3.328
 4593SOL    HW114225   2.043   2.938   3.404
 4593SOL    HW214226   2.031   2.950   3.242
 4594SOL     OW14227   3.209   2.921   3.096
 4594SOL    HW114228   3.233   2.858   3.022
 4594SOL    HW214229   3.119   2.961   3.078
 4595SOL     OW14230   3.164   2.717   2.171
 4595SOL    HW114231   3.078   2.686   2.213
 4595SOL    HW214232   3.160   2.703   2.072
 4596SOL     OW14233   3.621   3.609   3.016
 4596SOL    HW114234   3.682   3.639   2.943
 4596SOL    HW214235   3.583   3.520   2.994
 4597SOL     OW14236   3.114   3.593   2.990
 4597SOL    HW114237   3.198   3.598   2.936
 4597SOL    HW214238   3.091   3.497   3.008
 4598SOL     OW14239   1.945   3.120   2.884
 4598SOL    HW114240   1.940   3.119   2.984
 4598SOL    HW214241   1.862   3.079   2.846
 4599SOL     OW14242   2.550   3.524   3.578
 4599SOL    HW114243   2.494   3.605   3.587
 4599SOL    HW214244   2.602   3.528   3.492
 4600SOL     OW14245   3.588   1.997   2.385
 4600SOL    HW114246   3.661   1.980   2.318
 4600SOL    HW214247   3.557   1.910   2.423
 4601SOL     OW14248   3.250   3.435   2.339
 4601SOL    HW114249   3.317   3.447   2.265
 4601SOL    HW214250   3.210   3.524   2.362
 4602SOL     OW14251   1.992   3.656   3.713
 4602SOL    HW114252   1.951   3.582   3.766
 4602SOL    HW214253   2.056   3.707   3.771
 4603SOL     OW14254   3.142   2.789   2.534
 4603SOL    HW114255   3.202   2.708   2.536
 4603SOL    HW214256   3.182   2.858   2.474
 4604SOL     OW14257   2.692   3.135   3.284
 4604SOL    HW114258   2.687   3.168   3.379
 4604SOL    HW214259   2.606   3.154   3.238
 4605SOL     OW14260   2.534   3.478   2.016
 4605SOL    HW114261   2.543   3.488   1.917
 4605SOL    HW214262   2.494   3.389   2.037
 4606SOL     OW14263   3.512   3.582   3.256
 4606SOL    HW114264   3.565   3.592   3.172
 4606SOL    HW214265   3.485   3.672   3.290
 4607SOL     OW14266   3.703   2.037   2.825
 4607SOL    HW114267   3.742   1.952   2.789
 4607SOL    HW214268   3.605   2.039   2.806
 4608SOL     OW14269   3.056   3.474   1.893
 4608SOL    HW114270   3.062   3.381   1.930
 4608SOL    HW214271   2.997   3.474   1.813
 4609SOL     OW14272   2.684   2.864   3.234
 4609SOL    HW114273   2.724   2.863   3.142
 4609SOL    HW214274   2.694   2.956   3.274
 4610SOL     OW14275   2.778   2.772   2.153
 4610SOL    HW114276   2.841   2.810   2.085
 4610SOL    HW214277   2.818   2.689   2.192
 4611SOL     OW14278   3.366   3.469   1.906
 4611SOL    HW114279   3.274   3.506   1.913
 4611SOL    HW214280   3.404   3.489   1.816
 4612SOL     OW14281   2.234   3.150   3.352
 4612SOL    HW114282   2.221   3.243   3.318
 4612SOL    HW214283   2.150   3.098   3.339
 4613SOL     OW14284   3.476   3.154   3.151
 4613SOL    HW114285   3.536   3.157   3.231
 4613SOL    HW214286   3.401   3.218   3.164
 4614SOL     OW14287   2.901   2.960   2.558
 4614SOL    HW114288   2.831   2.913   2.612
 4614SOL    HW214289   2.960   2.892   2.515
 4615SOL     OW14290   2.876   2.098   2.833
 4615SOL    HW114291   2.868   2.062   2.740
 4615SOL    HW214292   2.874   2.022   2.898
 4616SOL     OW14293   2.452   3.349   2.353
 4616SOL    HW114294   2.494   3.291   2.283
 4616SOL    HW214295   2.408   3.428   2.309
 4617SOL     OW14296   3.571   2.247   3.243
 4617SOL    HW114297   3.644   2.316   3.247
 4617SOL    HW214298   3.599   2.172   3.184
 4618SOL     OW14299   2.117   3.210   2.152
 4618SOL    HW114300   2.021   3.211   2.125
 4618SOL    HW214301   2.129   3.263   2.236
 4619SOL     OW14302   1.967   2.875   3.588
 4619SOL    HW114303   1.890   2.842   3.642
 4619SOL    HW214304   2.052   2.845   3.630
 4620SOL     OW14305   2.534   2.065   3.351
 4620SOL    HW114306   2.624   2.049   3.311
 4620SOL    HW214307   2.542   2.070   3.450
 4621SOL     OW14308   1.937   2.207   1.895
 4621SOL    HW114309   1.845   2.179   1.866
 4621SOL    HW214310   1.968   2.284   1.839
 4622SOL     OW14311   3.302   2.718   3.260
 4622SOL    HW114312   3.245   2.770   3.197
 4622SOL    HW214313   3.398   2.730   3.236
 4623SOL     OW14314   1.934   2.028   2.180
 4623SOL    HW114315   1.917   2.111   2.126
 4623SOL    HW214316   2.024   1.991   2.158
 4624SOL     OW14317   3.045   3.197   1.981
 4624SOL    HW114318   2.946   3.186   1.983
 4624SOL    HW214319   3.079   3.212   2.074
 4625SOL     OW14320   2.475   2.704   3.293
 4625SOL    HW114321   2.531   2.785   3.276
 4625SOL    HW214322   2.534   2.624   3.296
 4626SOL     OW14323   3.355   3.629   2.821
 4626SOL    HW114324   3.388   3.693   2.752
 4626SOL    HW214325   3.421   3.623   2.896
 4627SOL     OW14326   2.578   2.427   3.570
 4627SOL    HW114327   2.597   2.492   3.644
 4627SOL    HW214328   2.638   2.347   3.579
 4628SOL     OW14329   3.312   3.082   3.495
 4628SOL    HW114330   3.303   3.072   3.594
 4628SOL    HW214331   3.408   3.075   3.469
 4629SOL     OW14332   2.252   3.603   3.422
 4629SOL    HW114333   2.161   3.644   3.420
 4629SOL    HW214334   2.245   3.509   3.454
 4630SOL     OW14335   3.536   2.745   3.116
 4630SOL    HW114336   3.509   2.656   3.079
 4630SOL    HW214337   3.537   2.813   3.043
 4631SOL     OW14338   3.087   2.187   2.311
 4631SOL    HW114339   3.152   2.113   2.300
 4631SOL    HW214340   3.107   2.237   2.395
 4632SOL     OW14341   2.456   2.607   2.514
 4632SOL    HW114342   2.506   2.692   2.495
 4632SOL    HW214343   2.368   2.609   2.466
 4633SOL     OW14344   3.639   2.204   3.504
 4633SOL    HW114345   3.622   2.235   3.410
 4633SOL    HW214346   3.555   2.167   3.542
 4634SOL     OW14347   3.592   2.796   3.379
 4634SOL    HW114348   3.630   2.887   3.394
 4634SOL    HW214349   3.584   2.779   3.280
 4635SOL     OW14350   2.721   3.236   1.878
 4635SOL    HW114351   2.675   3.251   1.966
 4635SOL    HW214352   2.765   3.321   1.848
 4636SOL     OW14353   2.523   3.652   2.815
 4636SOL    HW114354   2.477   3.740   2.802
 4636SOL    HW214355   2.622   3.664   2.808
 4637SOL     OW14356   2.721   2.818   2.723
 4637SOL    HW114357   2.775   2.749   2.771
 4637SOL    HW214358   2.689   2.887   2.789
 4638SOL     OW14359   2.945   2.846   1.949
 4638SOL    HW114360   2.922   2.899   1.867
 4638SOL    HW214361   3.026   2.790   1.930
 4639SOL     OW14362   3.723   3.431   2.713
 4639SOL    HW114363   3.652   3.419   2.643
 4639SOL    HW214364   3.724   3.352   2.773
 4640SOL     OW14365   2.083   3.176   3.706
 4640SOL    HW114366   2.018   3.103   3.685
 4640SOL    HW214367   2.087   3.190   3.804
 4641SOL     OW14368   1.941   3.102   2.515
 4641SOL    HW114369   1.940   3.055   2.603
 4641SOL    HW214370   2.023   3.074   2.464
 4642SOL     OW14371   2.534   3.253   3.486
 4642SOL    HW114372   2.456   3.203   3.524
 4642SOL    HW214373   2.531   3.348   3.517
 4643SOL     OW14374   3.686   2.054   3.089
 4643SOL    HW114375   3.682   1.964   3.133
 4643SOL    HW214376   3.689   2.043   2.990
 4644SOL     OW14377   3.567   3.349   2.966
 4644SOL    HW114378   3.474   3.324   2.939
 4644SOL    HW214379   3.593   3.299   3.048
 4645SOL     OW14380   2.674   3.448   2.549
 4645SOL    HW114381   2.706   3.458   2.455
 4645SOL    HW214382   2.595   3.386   2.551
 4646SOL     OW14383   3.286   2.076   2.974
 4646SOL    HW114384   3.338   2.011   3.029
 4646SOL    HW214385   3.237   2.139   3.035
 4647SOL     OW14386   2.863   1.896   3.016
 4647SOL    HW114387   2.800   1.824   2.985
 4647SOL    HW214388   2.956   1.860   3.016
 4648SOL     OW14389   2.632   3.192   2.163
 4648SOL    HW114390   2.586   3.105   2.180
 4648SOL    HW214391   2.723   3.189   2.204
 4649SOL     OW14392   2.480   3.429   3.146
 4649SOL    HW114393   2.475   3.511   3.203
 4649SOL    HW214394   2.569   3.426   3.101
 4650SOL     OW14395   3.214   1.914   2.030
 4650SOL    HW114396   3.249   1.873   1.946
 4650SOL    HW214397   3.124   1.876   2.050
 4651SOL     OW14398   3.162   2.315   2.553
 4651SOL    HW114399   3.103   2.395   2.557
 4651SOL    HW214400   3.177   2.280   2.646
 4652SOL     OW14401   3.455   2.083   2.744
 4652SOL    HW114402   3.371   2.082   2.798
 4652SOL    HW214403   3.457   2.166   2.688
 4653SOL     OW14404   1.901   2.939   2.162
 4653SOL    HW114405   2.000   2.928   2.153
 4653SOL    HW214406   1.861   2.853   2.194
 4654SOL     OW14407   2.737   3.508   2.199
 4654SOL    HW114408   2.660   3.473   2.145
 4654SOL    HW214409   2.705   3.579   2.261
 4655SOL     OW14410   2.092   2.490   3.837
 4655SOL    HW114411   1.999   2.488   3.874
 4655SOL    HW214412   2.093   2.451   3.745
 4656SOL     OW14413   1.881   2.230   4.371
 4656SOL    HW114414   1.799   2.273   4.410
 4656SOL    HW214415   1.853   2.157   4.308
 4657SOL     OW14416   2.431   3.137   4.889
 4657SOL    HW114417   2.338   3.130   4.852
 4657SOL    HW214418   2.442   3.226   4.933
 4658SOL     OW14419   3.417   3.373   4.427
 4658SOL    HW114420   3.360   3.357   4.508
 4658SOL    HW214421   3.358   3.383   4.347
 4659SOL     OW14422   2.997   2.565   4.441
 4659SOL    HW114423   3.054   2.643   4.416
 4659SOL    HW214424   2.937   2.591   4.517
 4660SOL     OW14425   3.617   2.469   3.955
 4660SOL    HW114426   3.605   2.456   3.856
 4660SOL    HW214427   3.587   2.388   4.004
 4661SOL     OW14428   2.630   3.006   4.747
 4661SOL    HW114429   2.552   3.023   4.807
 4661SOL    HW214430   2.664   3.093   4.711
 4662SOL     OW14431   2.547   2.874   4.389
 4662SOL    HW114432   2.616   2.858   4.459
 4662SOL    HW214433   2.474   2.931   4.427
 4663SOL     OW14434   2.197   3.297   4.785
 4663SOL    HW114435   2.119   3.266   4.732
 4663SOL    HW214436   2.255   3.355   4.728
 4664SOL     OW14437   3.322   3.367   5.063
 4664SOL    HW114438   3.346   3.461   5.089
 4664SOL    HW214439   3.306   3.313   5.145
 4665SOL     OW14440   3.465   2.309   4.461
 4665SOL    HW114441   3.391   2.355   4.411
 4665SOL    HW214442   3.516   2.377   4.514
 4666SOL     OW14443   2.093   3.575   4.207
 4666SOL    HW114444   2.127   3.652   4.261
 4666SOL    HW214445   2.137   3.575   4.117
 4667SOL     OW14446   2.989   3.203   5.414
 4667SOL    HW114447   3.036   3.203   5.502
 4667SOL    HW214448   2.941   3.116   5.403
 4668SOL     OW14449   2.092   3.296   4.262
 4668SOL    HW114450   2.066   3.392   4.262
 4668SOL    HW214451   2.021   3.242   4.307
 4669SOL     OW14452   2.102   2.953   4.610
 4669SOL    HW114453   2.116   2.869   4.662
 4669SOL    HW214454   2.047   3.017   4.665
 4670SOL     OW14455   2.482   3.648   5.163
 4670SOL    HW114456   2.390   3.631   5.198
 4670SOL    HW214457   2.510   3.740   5.189
 4671SOL     OW14458   2.468   2.826   3.847
 4671SOL    HW114459   2.475   2.910   3.793
 4671SOL    HW214460   2.514   2.839   3.935
 4672SOL     OW14461   3.456   1.976   5.204
 4672SOL    HW114462   3.438   2.043   5.132
 4672SOL    HW214463   3.453   2.022   5.293
 4673SOL     OW14464   1.984   2.505   4.287
 4673SOL    HW114465   1.939   2.417   4.304
 4673SOL    HW214466   1.983   2.559   4.371
 4674SOL     OW14467   3.704   3.629   4.083
 4674SOL    HW114468   3.758   3.600   4.163
 4674SOL    HW214469   3.734   3.719   4.054
 4675SOL     OW14470   1.889   3.458   3.841
 4675SOL    HW114471   1.870   3.362   3.862
 4675SOL    HW214472   1.856   3.516   3.916
 4676SOL     OW14473   3.551   2.784   4.336
 4676SOL    HW114474   3.646   2.755   4.344
 4676SOL    HW214475   3.543   2.849   4.261
 4677SOL     OW14476   3.503   2.970   4.156
 4677SOL    HW114477   3.589   2.972   4.104
 4677SOL    HW214478   3.517   3.017   4.244
 4678SOL     OW14479   1.975   2.599   5.321
 4678SOL    HW114480   2.063   2.586   5.366
 4678SOL    HW214481   1.962   2.696   5.299
 4679SOL     OW14482   2.475   3.227   4.450
 4679SOL    HW114483   2.426   3.140   4.459
 4679SOL    HW214484   2.452   3.270   4.363
 4680SOL     OW14485   3.155   3.090   5.147
 4680SOL    HW114486   3.192   3.017   5.089
 4680SOL    HW214487   3.207   3.095   5.232
 4681SOL     OW14488   2.671   1.866   4.226
 4681SOL    HW114489   2.711   1.957   4.217
 4681SOL    HW214490   2.571   1.874   4.232
 4682SOL     OW14491   3.387   2.861   3.914
 4682SOL    HW114492   3.324   2.785   3.927
 4682SOL    HW214493   3.435   2.879   4.000
 4683SOL     OW14494   3.049   3.654   5.340
 4683SOL    HW114495   3.073   3.714   5.264
 4683SOL    HW214496   3.056   3.559   5.310
 4684SOL     OW14497   3.328   3.279   4.677
 4684SOL    HW114498   3.269   3.285   4.757
 4684SOL    HW214499   3.313   3.191   4.631
 4685SOL     OW14500   3.529   3.576   4.296
 4685SOL    HW114501   3.488   3.553   4.208
 4685SOL    HW214502   3.511   3.502   4.361
 4686SOL     OW14503   2.460   2.591   3.994
 4686SOL    HW114504   2.484   2.660   3.926
 4686SOL    HW214505   2.382   2.624   4.048
 4687SOL     OW14506   3.143   2.207   4.668
 4687SOL    HW114507   3.057   2.157   4.655
 4687SOL    HW214508   3.205   2.153   4.724
 4688SOL     OW14509   3.438   3.524   4.031
 4688SOL    HW114510   3.527   3.570   4.034
 4688SOL    HW214511   3.417   3.500   3.936
 4689SOL     OW14512   2.853   2.272   4.966
 4689SOL    HW114513   2.776   2.306   5.020
 4689SOL    HW214514   2.819   2.221   4.887
 4690SOL     OW14515   2.903   2.563   4.153
 4690SOL    HW114516   2.929   2.559   4.249
 4690SOL    HW214517   2.818   2.512   4.139
 4691SOL     OW14518   1.938   2.673   4.513
 4691SOL    HW114519   2.037   2.661   4.522
 4691SOL    HW214520   1.914   2.768   4.534
 4692SOL     OW14521   1.992   3.683   5.295
 4692SOL    HW114522   1.982   3.668   5.394
 4692SOL    HW214523   1.906   3.719   5.259
 4693SOL     OW14524   2.727   2.210   3.919
 4693SOL    HW114525   2.786   2.273   3.870
 4693SOL    HW214526   2.746   2.116   3.890
 4694SOL     OW14527   3.581   2.447   5.555
 4694SOL    HW114528   3.555   2.536   5.519
 4694SOL    HW214529   3.579   2.379   5.482
 4695SOL     OW14530   3.224   3.006   4.269
 4695SOL    HW114531   3.307   2.977   4.221
 4695SOL    HW214532   3.175   3.073   4.213
 4696SOL     OW14533   2.870   3.318   4.201
 4696SOL    HW114534   2.824   3.390   4.149
 4696SOL    HW214535   2.866   3.338   4.299
 4697SOL     OW14536   2.213   3.663   4.577
 4697SOL    HW114537   2.263   3.577   4.583
 4697SOL    HW214538   2.278   3.740   4.574
 4698SOL     OW14539   3.657   2.928   4.597
 4698SOL    HW114540   3.595   2.913   4.521
 4698SOL    HW214541   3.605   2.939   4.682
 4699SOL     OW14542   3.089   3.412   5.230
 4699SOL    HW114543   3.095   3.335   5.294
 4699SOL    HW214544   3.037   3.386   5.150
 4700SOL     OW14545   2.183   2.805   3.966
 4700SOL    HW114546   2.265   2.844   3.924
 4700SOL    HW214547   2.156   2.723   3.917
 4701SOL     OW14548   3.320   2.597   4.452
 4701SOL    HW114549   3.315   2.532   4.527
 4701SOL    HW214550   3.400   2.656   4.465
 4702SOL     OW14551   2.323   3.128   5.451
 4702SOL    HW114552   2.273   3.129   5.365
 4702SOL    HW214553   2.260   3.110   5.527
 4703SOL     OW14554   2.973   3.638   3.961
 4703SOL    HW114555   2.913   3.576   4.011
 4703SOL    HW214556   3.004   3.594   3.876
 4704SOL     OW14557   2.064   2.147   5.222
 4704SOL    HW114558   1.984   2.207   5.209
 4704SOL    HW214559   2.054   2.098   5.308
 4705SOL     OW14560   3.494   3.239   3.805
 4705SOL    HW114561   3.462   3.333   3.795
 4705SOL    HW214562   3.418   3.176   3.793
 4706SOL     OW14563   2.326   3.605   4.047
 4706SOL    HW114564   2.359   3.644   4.133
 4706SOL    HW214565   2.402   3.598   3.982
 4707SOL     OW14566   3.262   1.969   4.150
 4707SOL    HW114567   3.238   1.932   4.060
 4707SOL    HW214568   3.361   1.985   4.154
 4708SOL     OW14569   2.111   3.647   4.965
 4708SOL    HW114570   2.168   3.582   5.015
 4708SOL    HW214571   2.095   3.614   4.872
 4709SOL     OW14572   2.802   3.560   4.628
 4709SOL    HW114573   2.882   3.503   4.649
 4709SOL    HW214574   2.753   3.520   4.551
 4710SOL     OW14575   2.244   2.562   4.204
 4710SOL    HW114576   2.289   2.472   4.201
 4710SOL    HW214577   2.150   2.551   4.237
 4711SOL     OW14578   3.409   2.084   5.453
 4711SOL    HW114579   3.404   2.121   5.545
 4711SOL    HW214580   3.337   2.015   5.441
 4712SOL     OW14581   2.476   1.984   3.841
 4712SOL    HW114582   2.574   1.962   3.848
 4712SOL    HW214583   2.445   1.967   3.748
 4713SOL     OW14584   2.750   3.376   4.919
 4713SOL    HW114585   2.727   3.351   4.825
 4713SOL    HW214586   2.811   3.307   4.958
 4714SOL     OW14587   3.213   2.452   5.157
 4714SOL    HW114588   3.241   2.409   5.242
 4714SOL    HW214589   3.238   2.548   5.158
 4715SOL     OW14590   2.665   3.264   4.648
 4715SOL    HW114591   2.755   3.278   4.606
 4715SOL    HW214592   2.594   3.266   4.577
 4716SOL     OW14593   2.784   2.365   4.623
 4716SOL    HW114594   2.759   2.356   4.527
 4716SOL    HW214595   2.832   2.283   4.654
 4717SOL     OW14596   2.401   1.926   4.236
 4717SOL    HW114597   2.320   1.927   4.294
 4717SOL    HW214598   2.404   2.009   4.181
 4718SOL     OW14599   3.296   3.050   3.765
 4718SOL    HW114600   3.328   2.974   3.822
 4718SOL    HW214601   3.204   3.077   3.795
 4719SOL     OW14602   2.159   1.897   3.895
 4719SOL    HW114603   2.208   1.981   3.874
 4719SOL    HW214604   2.221   1.832   3.940
 4720SOL     OW14605   2.797   2.098   4.204
 4720SOL    HW114606   2.749   2.139   4.126
 4720SOL    HW214607   2.896   2.096   4.185
 4721SOL     OW14608   3.089   3.432   4.517
 4721SOL    HW114609   3.110   3.506   4.452
 4721SOL    HW214610   3.157   3.432   4.590
 4722SOL     OW14611   2.321   3.014   4.465
 4722SOL    HW114612   2.250   2.987   4.530
 4722SOL    HW214613   2.295   2.986   4.372
 4723SOL     OW14614   3.133   3.659   4.315
 4723SOL    HW114615   3.177   3.723   4.251
 4723SOL    HW214616   3.083   3.711   4.385
 4724SOL     OW14617   2.894   2.411   3.740
 4724SOL    HW114618   2.853   2.493   3.701
 4724SOL    HW214619   2.958   2.437   3.813
 4725SOL     OW14620   1.940   2.418   5.110
 4725SOL    HW114621   2.032   2.417   5.069
 4725SOL    HW214622   1.934   2.492   5.177
 4726SOL     OW14623   2.728   2.316   4.366
 4726SOL    HW114624   2.696   2.388   4.304
 4726SOL    HW214625   2.752   2.235   4.313
 4727SOL     OW14626   2.879   1.901   4.477
 4727SOL    HW114627   2.807   1.906   4.408
 4727SOL    HW214628   2.855   1.832   4.546
 4728SOL     OW14629   3.291   3.035   4.591
 4728SOL    HW114630   3.236   2.951   4.584
 4728SOL    HW214631   3.317   3.064   4.499
 4729SOL     OW14632   3.328   2.452   4.716
 4729SOL    HW114633   3.298   2.357   4.723
 4729SOL    HW214634   3.401   2.468   4.782
 4730SOL     OW14635   3.719   2.695   4.101
 4730SOL    HW114636   3.761   2.631   4.165
 4730SOL    HW214637   3.681   2.644   4.023
 4731SOL     OW14638   2.350   3.247   3.898
 4731SOL    HW114639   2.263   3.232   3.945
 4731SOL    HW214640   2.333   3.273   3.803
 4732SOL     OW14641   3.526   3.142   4.381
 4732SOL    HW114642   3.625   3.150   4.395
 4732SOL    HW214643   3.481   3.226   4.412
 4733SOL     OW14644   3.252   2.437   3.802
 4733SOL    HW114645   3.198   2.416   3.883
 4733SOL    HW214646   3.343   2.396   3.811
 4734SOL     OW14647   3.616   3.085   5.312
 4734SOL    HW114648   3.707   3.046   5.299
 4734SOL    HW214649   3.624   3.181   5.336
 4735SOL     OW14650   2.926   3.209   5.064
 4735SOL    HW114651   2.846   3.186   5.119
 4735SOL    HW214652   3.009   3.183   5.113
 4736SOL     OW14653   3.454   3.491   5.349
 4736SOL    HW114654   3.481   3.525   5.259
 4736SOL    HW214655   3.533   3.453   5.395
 4737SOL     OW14656   2.973   3.057   4.824
 4737SOL    HW114657   2.933   3.101   4.905
 4737SOL    HW214658   2.932   3.094   4.741
 4738SOL     OW14659   3.500   2.961   4.803
 4738SOL    HW114660   3.505   3.042   4.862
 4738SOL    HW214661   3.414   2.963   4.752
 4739SOL     OW14662   2.777   1.951   5.126
 4739SOL    HW114663   2.802   1.931   5.031
 4739SOL    HW214664   2.849   2.007   5.168
 4740SOL     OW14665   2.842   2.978   5.443
 4740SOL    HW114666   2.743   2.984   5.453
 4740SOL    HW214667   2.865   2.898   5.387
 4741SOL     OW14668   2.567   2.912   4.092
 4741SOL    HW114669   2.553   2.919   4.191
 4741SOL    HW214670   2.651   2.861   4.074
 4742SOL     OW14671   2.272   2.675   4.975
 4742SOL    HW114672   2.358   2.687   5.025
 4742SOL    HW214673   2.230   2.588   5.002
 4743SOL     OW14674   3.136   2.248   4.986
 4743SOL    HW114675   3.157   2.322   5.050
 4743SOL    HW214676   3.047   2.265   4.943
 4744SOL     OW14677   1.926   3.426   5.055
 4744SOL    HW114678   1.880   3.508   5.021
 4744SOL    HW214679   2.024   3.445   5.064
 4745SOL     OW14680   2.229   2.962   4.225
 4745SOL    HW114681   2.222   3.045   4.169
 4745SOL    HW214682   2.233   2.882   4.165
 4746SOL     OW14683   3.114   3.210   4.112
 4746SOL    HW114684   3.164   3.287   4.152
 4746SOL    HW214685   3.019   3.212   4.144
 4747SOL     OW14686   3.134   3.307   4.866
 4747SOL    HW114687   3.181   3.320   4.953
 4747SOL    HW214688   3.068   3.233   4.875
 4748SOL     OW14689   3.444   2.501   4.196
 4748SOL    HW114690   3.413   2.562   4.269
 4748SOL    HW214691   3.494   2.553   4.127
 4749SOL     OW14692   2.216   3.372   5.053
 4749SOL    HW114693   2.195   3.328   4.966
 4749SOL    HW214694   2.313   3.398   5.056
 4750SOL     OW14695   3.449   2.641   5.394
 4750SOL    HW114696   3.357   2.679   5.389
 4750SOL    HW214697   3.509   2.688   5.329
 4751SOL     OW14698   2.366   1.912   5.464
 4751SOL    HW114699   2.324   1.855   5.394
 4751SOL    HW214700   2.300   1.981   5.496
 4752SOL     OW14701   2.435   2.732   4.753
 4752SOL    HW114702   2.479   2.821   4.744
 4752SOL    HW214703   2.372   2.732   4.830
 4753SOL     OW14704   3.222   2.724   4.769
 4753SOL    HW114705   3.147   2.724   4.703
 4753SOL    HW214706   3.259   2.632   4.778
 4754SOL     OW14707   3.071   2.387   3.999
 4754SOL    HW114708   3.084   2.303   4.053
 4754SOL    HW214709   3.042   2.461   4.059
 4755SOL     OW14710   1.899   3.172   5.006
 4755SOL    HW114711   1.952   3.123   5.074
 4755SOL    HW214712   1.921   3.270   5.011
 4756SOL     OW14713   2.594   2.496   4.788
 4756SOL    HW114714   2.653   2.470   4.712
 4756SOL    HW214715   2.566   2.592   4.777
 4757SOL     OW14716   3.590   2.797   5.578
 4757SOL    HW114717   3.544   2.790   5.489
 4757SOL    HW214718   3.528   2.841   5.644
 4758SOL     OW14719   2.169   1.925   4.342
 4758SOL    HW114720   2.158   2.019   4.375
 4758SOL    HW214721   2.164   1.862   4.419
 4759SOL     OW14722   3.484   2.229   4.098
 4759SOL    HW114723   3.486   2.153   4.162
 4759SOL    HW214724   3.436   2.306   4.138
 4760SOL     OW14725   2.885   2.628   4.690
 4760SOL    HW114726   2.900   2.649   4.786
 4760SOL    HW214727   2.855   2.533   4.681
 4761SOL     OW14728   2.842   3.435   5.424
 4761SOL    HW114729   2.822   3.479   5.336
 4761SOL    HW214730   2.881   3.344   5.408
 4762SOL     OW14731   3.721   3.380   5.329
 4762SOL    HW114732   3.735   3.407   5.234
 4762SOL    HW214733   3.804   3.402   5.382
 4763SOL     OW14734   3.402   2.136   3.849
 4763SOL    HW114735   3.341   2.061   3.872
 4763SOL    HW214736   3.424   2.188   3.932
 4764SOL     OW14737   3.165   2.700   3.766
 4764SOL    HW114738   3.199   2.607   3.781
 4764SOL    HW214739   3.183   2.727   3.671
 4765SOL     OW14740   2.930   3.195   4.573
 4765SOL    HW114741   2.937   3.111   4.518
 4765SOL    HW214742   2.992   3.264   4.537
 4766SOL     OW14743   2.181   2.672   4.673
 4766SOL    HW114744   2.274   2.708   4.678
 4766SOL    HW214745   2.175   2.587   4.725
 4767SOL     OW14746   3.022   2.069   5.201
 4767SOL    HW114747   3.022   2.133   5.278
 4767SOL    HW214748   3.050   2.117   5.118
 4768SOL     OW14749   1.870   3.188   3.924
 4768SOL    HW114750   1.777   3.209   3.893
 4768SOL    HW214751   1.880   3.089   3.937
 4769SOL     OW14752   1.950   3.663   4.651
 4769SOL    HW114753   1.908   3.577   4.624
 4769SOL    HW214754   2.044   3.666   4.617
 4770SOL     OW14755   2.366   3.430   4.634
 4770SOL    HW114756   2.432   3.504   4.643
 4770SOL    HW214757   2.410   3.351   4.592
 4771SOL     OW14758   2.864   2.658   4.962
 4771SOL    HW114759   2.905   2.626   5.048
 4771SOL    HW214760   2.768   2.631   4.959
 4772SOL     OW14761   1.902   2.406   4.838
 4772SOL    HW114762   1.987   2.373   4.797
 4772SOL    HW214763   1.915   2.421   4.936
 4773SOL     OW14764   3.231   2.812   5.384
 4773SOL    HW114765   3.270   2.901   5.404
 4773SOL    HW214766   3.241   2.792   5.287
 4774SOL     OW14767   2.677   2.434   4.049
 4774SOL    HW114768   2.684   2.345   4.003
 4774SOL    HW214769   2.583   2.468   4.041
 4775SOL     OW14770   3.519   2.466   4.930
 4775SOL    HW114771   3.481   2.397   4.992
 4775SOL    HW214772   3.601   2.430   4.886
 4776SOL     OW14773   2.114   3.426   5.468
 4776SOL    HW114774   2.084   3.483   5.544
 4776SOL    HW214775   2.107   3.329   5.494
 4777SOL     OW14776   2.533   2.326   4.993
 4777SOL    HW114777   2.499   2.237   4.963
 4777SOL    HW214778   2.559   2.380   4.913
 4778SOL     OW14779   2.792   3.540   5.189
 4778SOL    HW114780   2.768   3.522   5.094
 4778SOL    HW214781   2.822   3.634   5.199
 4779SOL     OW14782   3.209   2.921   4.958
 4779SOL    HW114783   3.233   2.858   4.884
 4779SOL    HW214784   3.119   2.961   4.940
 4780SOL     OW14785   3.164   2.717   4.033
 4780SOL    HW114786   3.078   2.686   4.075
 4780SOL    HW214787   3.160   2.703   3.934
 4781SOL     OW14788   3.621   3.609   4.878
 4781SOL    HW114789   3.682   3.639   4.805
 4781SOL    HW214790   3.583   3.520   4.856
 4782SOL     OW14791   3.114   3.593   4.852
 4782SOL    HW114792   3.198   3.598   4.798
 4782SOL    HW214793   3.091   3.497   4.870
 4783SOL     OW14794   1.945   3.120   4.746
 4783SOL    HW114795   1.940   3.119   4.846
 4783SOL    HW214796   1.862   3.079   4.708
 4784SOL     OW14797   2.550   3.524   5.440
 4784SOL    HW114798   2.494   3.605   5.449
 4784SOL    HW214799   2.602   3.528   5.354
 4785SOL     OW14800   3.588   1.997   4.247
 4785SOL    HW114801   3.661   1.980   4.180
 4785SOL    HW214802   3.557   1.910   4.285
 4786SOL     OW14803   3.250   3.435   4.201
 4786SOL    HW114804   3.317   3.447   4.127
 4786SOL    HW214805   3.210   3.524   4.224
 4787SOL     OW14806   1.992   3.656   5.575
 4787SOL    HW114807   1.951   3.582   5.628
 4787SOL    HW214808   2.056   3.707   5.633
 4788SOL     OW14809   3.142   2.789   4.396
 4788SOL    HW114810   3.202   2.708   4.398
 4788SOL    HW214811   3.182   2.858   4.336
 4789SOL     OW14812   2.692   3.135   5.146
 4789SOL    HW114813   2.687   3.168   5.241
 4789SOL    HW214814   2.606   3.154   5.100
 4790SOL     OW14815   2.534   3.478   3.878
 4790SOL    HW114816   2.543   3.488   3.779
 4790SOL    HW214817   2.494   3.389   3.899
 4791SOL     OW14818   3.512   3.582   5.118
 4791SOL    HW114819   3.565   3.592   5.034
 4791SOL    HW214820   3.485   3.672   5.152
 4792SOL     OW14821   3.703   2.037   4.687
 4792SOL    HW114822   3.742   1.952   4.651
 4792SOL    HW214823   3.605   2.039   4.668
 4793SOL     OW14824   3.056   3.474   3.755
 4793SOL    HW114825   3.062   3.381   3.792
 4793SOL    HW214826   2.997   3.474   3.675
 4794SOL     OW14827   2.684   2.864   5.096
 4794SOL    HW114828   2.724   2.863   5.004
 4794SOL    HW214829   2.694   2.956   5.136
 4795SOL     OW14830   2.778   2.772   4.015
 4795SOL    HW114831   2.841   2.810   3.947
 4795SOL    HW214832   2.818   2.689   4.054
 4796SOL     OW14833   3.366   3.469   3.768
 4796SOL    HW114834   3.274   3.506   3.775
 4796SOL    HW214835   3.404   3.489   3.678
 4797SOL     OW14836   2.234   3.150   5.214
 4797SOL    HW114837   2.221   3.243   5.180
 4797SOL    HW214838   2.150   3.098   5.201
 4798SOL     OW14839   3.476   3.154   5.013
 4798SOL    HW114840   3.536   3.157   5.093
 4798SOL    HW214841   3.401   3.218   5.026
 4799SOL     OW14842   2.901   2.960   4.420
 4799SOL    HW114843   2.831   2.913   4.474
 4799SOL    HW214844   2.960   2.892   4.377
 4800SOL     OW14845   2.876   2.098   4.695
 4800SOL    HW114846   2.868   2.062   4.602
 4800SOL    HW214847   2.874   2.022   4.760
 4801SOL     OW14848   2.452   3.349   4.215
 4801SOL    HW114849   2.494   3.291   4.145
 4801SOL    HW214850   2.408   3.428   4.171
 4802SOL     OW14851   3.571   2.247   5.105
 4802SOL    HW114852   3.644   2.316   5.109
 4802SOL    HW214853   3.599   2.172   5.046
 4803SOL     OW14854   2.117   3.210   4.014
 4803SOL    HW114855   2.021   3.211   3.987
 4803SOL    HW214856   2.129   3.263   4.098
 4804SOL     OW14857   2.534   2.065   5.213
 4804SOL    HW114858   2.624   2.049   5.173
 4804SOL    HW214859   2.542   2.070   5.312
 4805SOL     OW14860   1.937   2.207   3.757
 4805SOL    HW114861   1.845   2.179   3.728
 4805SOL    HW214862   1.968   2.284   3.701
 4806SOL     OW14863   3.302   2.718   5.122
 4806SOL    HW114864   3.245   2.770   5.059
 4806SOL    HW214865   3.398   2.730   5.098
 4807SOL     OW14866   1.934   2.028   4.042
 4807SOL    HW114867   1.917   2.111   3.988
 4807SOL    HW214868   2.024   1.991   4.020
 4808SOL     OW14869   3.045   3.197   3.843
 4808SOL    HW114870   2.946   3.186   3.845
 4808SOL    HW214871   3.079   3.212   3.936
 4809SOL     OW14872   3.355   3.629   4.683
 4809SOL    HW114873   3.388   3.693   4.614
 4809SOL    HW214874   3.421   3.623   4.758
 4810SOL     OW14875   3.312   3.082   5.357
 4810SOL    HW114876   3.303   3.072   5.456
 4810SOL    HW214877   3.408   3.075   5.331
 4811SOL     OW14878   2.252   3.603   5.284
 4811SOL    HW114879   2.161   3.644   5.282
 4811SOL    HW214880   2.245   3.509   5.316
 4812SOL     OW14881   3.536   2.745   4.978
 4812SOL    HW114882   3.509   2.656   4.941
 4812SOL    HW214883   3.537   2.813   4.905
 4813SOL     OW14884   3.087   2.187   4.173
 4813SOL    HW114885   3.152   2.113   4.162
 4813SOL    HW214886   3.107   2.237   4.257
 4814SOL     OW14887   2.456   2.607   4.376
 4814SOL    HW114888   2.506   2.692   4.357
 4814SOL    HW214889   2.368   2.609   4.328
 4815SOL     OW14890   3.639   2.204   5.366
 4815SOL    HW114891   3.622   2.235   5.272
 4815SOL    HW214892   3.555   2.167   5.404
 4816SOL     OW14893   3.592   2.796   5.241
 4816SOL    HW114894   3.630   2.887   5.256
 4816SOL    HW214895   3.584   2.779   5.142
 4817SOL     OW14896   2.721   3.236   3.740
 4817SOL    HW114897   2.675   3.251   3.828
 4817SOL    HW214898   2.765   3.321   3.710
 4818SOL     OW14899   2.523   3.652   4.677
 4818SOL    HW114900   2.477   3.740   4.664
 4818SOL    HW214901   2.622   3.664   4.670
 4819SOL     OW14902   2.721   2.818   4.585
 4819SOL    HW114903   2.775   2.749   4.633
 4819SOL    HW214904   2.689   2.887   4.651
 4820SOL     OW14905   2.945   2.846   3.811
 4820SOL    HW114906   2.922   2.899   3.729
 4820SOL    HW214907   3.026   2.790   3.792
 4821SOL     OW14908   3.723   3.431   4.575
 4821SOL    HW114909   3.652   3.419   4.505
 4821SOL    HW214910   3.724   3.352   4.635
 4822SOL     OW14911   2.083   3.176   5.568
 4822SOL    HW114912   2.018   3.103   5.547
 4822SOL    HW214913   2.087   3.190   5.666
 4823SOL     OW14914   1.941   3.102   4.377
 4823SOL    HW114915   1.940   3.055   4.465
 4823SOL    HW214916   2.023   3.074   4.326
 4824SOL     OW14917   2.534   3.253   5.348
 4824SOL    HW114918   2.456   3.203   5.386
 4824SOL    HW214919   2.531   3.348   5.379
 4825SOL     OW14920   3.686   2.054   4.951
 4825SOL    HW114921   3.682   1.964   4.995
 4825SOL    HW214922   3.689   2.043   4.852
 4826SOL     OW14923   3.567   3.349   4.828
 4826SOL    HW114924   3.474   3.324   4.801
 4826SOL    HW214925   3.593   3.299   4.910
 4827SOL     OW14926   2.674   3.448   4.411
 4827SOL    HW114927   2.706   3.458   4.317
 4827SOL    HW214928   2.595   3.386   4.413
 4828SOL     OW14929   3.286   2.076   4.836
 4828SOL    HW114930   3.338   2.011   4.891
 4828SOL    HW214931   3.237   2.139   4.897
 4829SOL     OW14932   2.863   1.896   4.878
 4829SOL    HW114933   2.800   1.824   4.847
 4829SOL    HW214934   2.956   1.860   4.878
 4830SOL     OW14935   2.632   3.192   4.025
 4830SOL    HW114936   2.586   3.105   4.042
 4830SOL    HW214937   2.723   3.189   4.066
 4831SOL     OW14938   2.480   3.429   5.008
 4831SOL    HW114939   2.475   3.511   5.065
 4831SOL    HW214940   2.569   3.426   4.963
 4832SOL     OW14941   3.214   1.914   3.892
 4832SOL    HW114942   3.249   1.873   3.808
 4832SOL    HW214943   3.124   1.876   3.912
 4833SOL     OW14944   3.162   2.315   4.415
 4833SOL    HW114945   3.103   2.395   4.419
 4833SOL    HW214946   3.177   2.280   4.508
 4834SOL     OW14947   3.455   2.083   4.606
 4834SOL    HW114948   3.371   2.082   4.660
 4834SOL    HW214949   3.457   2.166   4.550
 4835SOL     OW14950   1.901   2.939   4.024
 4835SOL    HW114951   2.000   2.928   4.015
 4835SOL    HW214952   1.861   2.853   4.056
 4836SOL     OW14953   2.737   3.508   4.061
 4836SOL    HW114954   2.660   3.473   4.007
 4836SOL    HW214955   2.705   3.579   4.123
 4837SOL     OW14956   1.881   2.230   6.233
 4837SOL    HW114957   1.799   2.273   6.272
 4837SOL    HW214958   1.853   2.157   6.170
 4838SOL     OW14959   2.431   3.137   6.751
 4838SOL    HW114960   2.338   3.130   6.714
 4838SOL    HW214961   2.442   3.226   6.795
 4839SOL     OW14962   3.417   3.373   6.289
 4839SOL    HW114963   3.360   3.357   6.370
 4839SOL    HW214964   3.358   3.383   6.209
 4840SOL     OW14965   2.997   2.565   6.303
 4840SOL    HW114966   3.054   2.643   6.278
 4840SOL    HW214967   2.937   2.591   6.379
 4841SOL     OW14968   3.617   2.469   5.817
 4841SOL    HW114969   3.605   2.456   5.718
 4841SOL    HW214970   3.587   2.388   5.866
 4842SOL     OW14971   2.630   3.006   6.609
 4842SOL    HW114972   2.552   3.023   6.669
 4842SOL    HW214973   2.664   3.093   6.573
 4843SOL     OW14974   2.712   2.660   7.409
 4843SOL    HW114975   2.708   2.736   7.474
 4843SOL    HW214976   2.734   2.696   7.318
 4844SOL     OW14977   2.547   2.874   6.251
 4844SOL    HW114978   2.616   2.858   6.321
 4844SOL    HW214979   2.474   2.931   6.289
 4845SOL     OW14980   2.548   3.023   7.389
 4845SOL    HW114981   2.608   3.102   7.403
 4845SOL    HW214982   2.462   3.054   7.348
 4846SOL     OW14983   2.197   3.297   6.647
 4846SOL    HW114984   2.119   3.266   6.594
 4846SOL    HW214985   2.255   3.355   6.590
 4847SOL     OW14986   3.322   3.367   6.925
 4847SOL    HW114987   3.346   3.461   6.951
 4847SOL    HW214988   3.306   3.313   7.007
 4848SOL     OW14989   3.465   2.309   6.323
 4848SOL    HW114990   3.391   2.355   6.273
 4848SOL    HW214991   3.516   2.377   6.376
 4849SOL     OW14992   2.093   3.575   6.069
 4849SOL    HW114993   2.127   3.652   6.123
 4849SOL    HW214994   2.137   3.575   5.979
 4850SOL     OW14995   2.989   3.203   7.276
 4850SOL    HW114996   3.036   3.203   7.364
 4850SOL    HW214997   2.941   3.116   7.265
 4851SOL     OW14998   2.092   3.296   6.124
 4851SOL    HW114999   2.066   3.392   6.124
 4851SOL    HW215000   2.021   3.242   6.169
 4852SOL     OW15001   2.102   2.953   6.472
 4852SOL    HW115002   2.116   2.869   6.524
 4852SOL    HW215003   2.047   3.017   6.527
 4853SOL     OW15004   2.482   3.648   7.025
 4853SOL    HW115005   2.390   3.631   7.060
 4853SOL    HW215006   2.510   3.740   7.051
 4854SOL     OW15007   3.456   1.976   7.066
 4854SOL    HW115008   3.438   2.043   6.994
 4854SOL    HW215009   3.453   2.022   7.155
 4855SOL     OW15010   3.704   3.629   5.945
 4855SOL    HW115011   3.758   3.600   6.025
 4855SOL    HW215012   3.734   3.719   5.916
 4856SOL     OW15013   1.889   3.458   5.703
 4856SOL    HW115014   1.870   3.362   5.724
 4856SOL    HW215015   1.856   3.516   5.778
 4857SOL     OW15016   3.551   2.784   6.198
 4857SOL    HW115017   3.646   2.755   6.206
 4857SOL    HW215018   3.543   2.849   6.123
 4858SOL     OW15019   3.503   2.970   6.018
 4858SOL    HW115020   3.589   2.972   5.966
 4858SOL    HW215021   3.517   3.017   6.106
 4859SOL     OW15022   1.975   2.599   7.183
 4859SOL    HW115023   2.063   2.586   7.228
 4859SOL    HW215024   1.962   2.696   7.161
 4860SOL     OW15025   2.475   3.227   6.312
 4860SOL    HW115026   2.426   3.140   6.321
 4860SOL    HW215027   2.452   3.270   6.225
 4861SOL     OW15028   3.155   3.090   7.009
 4861SOL    HW115029   3.192   3.017   6.951
 4861SOL    HW215030   3.207   3.095   7.094
 4862SOL     OW15031   2.059   2.838   6.850
 4862SOL    HW115032   2.148   2.793   6.836
 4862SOL    HW215033   1.986   2.773   6.831
 4863SOL     OW15034   3.387   2.861   5.776
 4863SOL    HW115035   3.324   2.785   5.789
 4863SOL    HW215036   3.435   2.879   5.862
 4864SOL     OW15037   3.049   3.654   7.202
 4864SOL    HW115038   3.073   3.714   7.126
 4864SOL    HW215039   3.056   3.559   7.172
 4865SOL     OW15040   3.328   3.279   6.539
 4865SOL    HW115041   3.269   3.285   6.619
 4865SOL    HW215042   3.313   3.191   6.493
 4866SOL     OW15043   3.529   3.576   6.158
 4866SOL    HW115044   3.488   3.553   6.070
 4866SOL    HW215045   3.511   3.502   6.223
 4867SOL     OW15046   3.143   2.207   6.530
 4867SOL    HW115047   3.057   2.157   6.517
 4867SOL    HW215048   3.205   2.153   6.586
 4868SOL     OW15049   3.438   3.524   5.893
 4868SOL    HW115050   3.527   3.570   5.896
 4868SOL    HW215051   3.417   3.500   5.798
 4869SOL     OW15052   2.669   2.467   7.051
 4869SOL    HW115053   2.622   2.464   7.140
 4869SOL    HW215054   2.618   2.412   6.985
 4870SOL     OW15055   3.256   2.331   7.260
 4870SOL    HW115056   3.236   2.374   7.348
 4870SOL    HW215057   3.334   2.269   7.269
 4871SOL     OW15058   2.835   2.752   7.158
 4871SOL    HW115059   2.881   2.668   7.129
 4871SOL    HW215060   2.779   2.786   7.083
 4872SOL     OW15061   2.853   2.272   6.828
 4872SOL    HW115062   2.776   2.306   6.882
 4872SOL    HW215063   2.819   2.221   6.749
 4873SOL     OW15064   1.938   2.673   6.375
 4873SOL    HW115065   2.037   2.661   6.384
 4873SOL    HW215066   1.914   2.768   6.396
 4874SOL     OW15067   1.992   3.683   7.157
 4874SOL    HW115068   1.982   3.668   7.256
 4874SOL    HW215069   1.906   3.719   7.121
 4875SOL     OW15070   3.581   2.447   7.417
 4875SOL    HW115071   3.555   2.536   7.381
 4875SOL    HW215072   3.579   2.379   7.344
 4876SOL     OW15073   3.224   3.006   6.131
 4876SOL    HW115074   3.307   2.977   6.083
 4876SOL    HW215075   3.175   3.073   6.075
 4877SOL     OW15076   2.412   2.058   6.471
 4877SOL    HW115077   2.407   2.053   6.571
 4877SOL    HW215078   2.414   2.154   6.442
 4878SOL     OW15079   2.870   3.318   6.063
 4878SOL    HW115080   2.824   3.390   6.011
 4878SOL    HW215081   2.866   3.338   6.161
 4879SOL     OW15082   2.213   3.663   6.439
 4879SOL    HW115083   2.263   3.577   6.445
 4879SOL    HW215084   2.278   3.740   6.436
 4880SOL     OW15085   3.657   2.928   6.459
 4880SOL    HW115086   3.595   2.913   6.383
 4880SOL    HW215087   3.605   2.939   6.544
 4881SOL     OW15088   3.089   3.412   7.092
 4881SOL    HW115089   3.095   3.335   7.156
 4881SOL    HW215090   3.037   3.386   7.012
 4882SOL     OW15091   3.320   2.597   6.314
 4882SOL    HW115092   3.315   2.532   6.389
 4882SOL    HW215093   3.400   2.656   6.327
 4883SOL     OW15094   2.323   3.128   7.313
 4883SOL    HW115095   2.273   3.129   7.227
 4883SOL    HW215096   2.260   3.110   7.389
 4884SOL     OW15097   2.973   3.638   5.823
 4884SOL    HW115098   2.913   3.576   5.873
 4884SOL    HW215099   3.004   3.594   5.738
 4885SOL     OW15100   3.494   3.239   5.667
 4885SOL    HW115101   3.462   3.333   5.657
 4885SOL    HW215102   3.418   3.176   5.655
 4886SOL     OW15103   2.326   3.605   5.909
 4886SOL    HW115104   2.359   3.644   5.995
 4886SOL    HW215105   2.402   3.598   5.844
 4887SOL     OW15106   3.262   1.969   6.012
 4887SOL    HW115107   3.238   1.932   5.922
 4887SOL    HW215108   3.361   1.985   6.016
 4888SOL     OW15109   2.111   3.647   6.827
 4888SOL    HW115110   2.168   3.582   6.877
 4888SOL    HW215111   2.095   3.614   6.734
 4889SOL     OW15112   2.802   3.560   6.490
 4889SOL    HW115113   2.882   3.503   6.511
 4889SOL    HW215114   2.753   3.520   6.413
 4890SOL     OW15115   3.409   2.084   7.315
 4890SOL    HW115116   3.404   2.121   7.407
 4890SOL    HW215117   3.337   2.015   7.303
 4891SOL     OW15118   2.643   2.126   7.335
 4891SOL    HW115119   2.710   2.065   7.378
 4891SOL    HW215120   2.570   2.145   7.400
 4892SOL     OW15121   2.750   3.376   6.781
 4892SOL    HW115122   2.727   3.351   6.687
 4892SOL    HW215123   2.811   3.307   6.820
 4893SOL     OW15124   3.213   2.452   7.019
 4893SOL    HW115125   3.241   2.409   7.104
 4893SOL    HW215126   3.238   2.548   7.020
 4894SOL     OW15127   2.665   3.264   6.510
 4894SOL    HW115128   2.755   3.278   6.468
 4894SOL    HW215129   2.594   3.266   6.439
 4895SOL     OW15130   2.784   2.365   6.485
 4895SOL    HW115131   2.759   2.356   6.389
 4895SOL    HW215132   2.832   2.283   6.516
 4896SOL     OW15133   2.401   1.926   6.098
 4896SOL    HW115134   2.320   1.927   6.156
 4896SOL    HW215135   2.404   2.009   6.043
 4897SOL     OW15136   3.296   3.050   5.627
 4897SOL    HW115137   3.328   2.974   5.684
 4897SOL    HW215138   3.204   3.077   5.657
 4898SOL     OW15139   2.797   2.098   6.066
 4898SOL    HW115140   2.749   2.139   5.988
 4898SOL    HW215141   2.896   2.096   6.047
 4899SOL     OW15142   2.938   2.545   7.050
 4899SOL    HW115143   2.858   2.484   7.053
 4899SOL    HW215144   3.019   2.492   7.026
 4900SOL     OW15145   3.089   3.432   6.379
 4900SOL    HW115146   3.110   3.506   6.314
 4900SOL    HW215147   3.157   3.432   6.452
 4901SOL     OW15148   2.321   3.014   6.327
 4901SOL    HW115149   2.250   2.987   6.392
 4901SOL    HW215150   2.295   2.986   6.234
 4902SOL     OW15151   3.133   3.659   6.177
 4902SOL    HW115152   3.177   3.723   6.113
 4902SOL    HW215153   3.083   3.711   6.247
 4903SOL     OW15154   1.940   2.418   6.972
 4903SOL    HW115155   2.032   2.417   6.931
 4903SOL    HW215156   1.934   2.492   7.039
 4904SOL     OW15157   2.423   2.084   6.733
 4904SOL    HW115158   2.461   2.000   6.770
 4904SOL    HW215159   2.335   2.103   6.777
 4905SOL     OW15160   2.728   2.316   6.228
 4905SOL    HW115161   2.696   2.388   6.166
 4905SOL    HW215162   2.752   2.235   6.175
 4906SOL     OW15163   2.879   1.901   6.339
 4906SOL    HW115164   2.807   1.906   6.270
 4906SOL    HW215165   2.855   1.832   6.408
 4907SOL     OW15166   3.291   3.035   6.453
 4907SOL    HW115167   3.236   2.951   6.446
 4907SOL    HW215168   3.317   3.064   6.361
 4908SOL     OW15169   3.328   2.452   6.578
 4908SOL    HW115170   3.298   2.357   6.585
 4908SOL    HW215171   3.401   2.468   6.644
 4909SOL     OW15172   3.719   2.695   5.963
 4909SOL    HW115173   3.761   2.631   6.027
 4909SOL    HW215174   3.681   2.644   5.885
 4910SOL     OW15175   2.350   3.247   5.760
 4910SOL    HW115176   2.263   3.232   5.807
 4910SOL    HW215177   2.333   3.273   5.665
 4911SOL     OW15178   3.526   3.142   6.243
 4911SOL    HW115179   3.625   3.150   6.257
 4911SOL    HW215180   3.481   3.226   6.274
 4912SOL     OW15181   3.252   2.437   5.664
 4912SOL    HW115182   3.198   2.416   5.745
 4912SOL    HW215183   3.343   2.396   5.673
 4913SOL     OW15184   3.616   3.085   7.174
 4913SOL    HW115185   3.707   3.046   7.161
 4913SOL    HW215186   3.624   3.181   7.198
 4914SOL     OW15187   2.926   3.209   6.926
 4914SOL    HW115188   2.846   3.186   6.981
 4914SOL    HW215189   3.009   3.183   6.975
 4915SOL     OW15190   3.454   3.491   7.211
 4915SOL    HW115191   3.481   3.525   7.121
 4915SOL    HW215192   3.533   3.453   7.257
 4916SOL     OW15193   2.973   3.057   6.686
 4916SOL    HW115194   2.933   3.101   6.767
 4916SOL    HW215195   2.932   3.094   6.603
 4917SOL     OW15196   3.500   2.961   6.665
 4917SOL    HW115197   3.505   3.042   6.724
 4917SOL    HW215198   3.414   2.963   6.614
 4918SOL     OW15199   2.777   1.951   6.988
 4918SOL    HW115200   2.802   1.931   6.893
 4918SOL    HW215201   2.849   2.007   7.030
 4919SOL     OW15202   2.842   2.978   7.305
 4919SOL    HW115203   2.743   2.984   7.315
 4919SOL    HW215204   2.865   2.898   7.249
 4920SOL     OW15205   2.567   2.912   5.954
 4920SOL    HW115206   2.553   2.919   6.053
 4920SOL    HW215207   2.651   2.861   5.936
 4921SOL     OW15208   2.272   2.675   6.837
 4921SOL    HW115209   2.358   2.687   6.887
 4921SOL    HW215210   2.230   2.588   6.864
 4922SOL     OW15211   3.136   2.248   6.848
 4922SOL    HW115212   3.157   2.322   6.912
 4922SOL    HW215213   3.047   2.265   6.805
 4923SOL     OW15214   1.926   3.426   6.917
 4923SOL    HW115215   1.880   3.508   6.883
 4923SOL    HW215216   2.024   3.445   6.926
 4924SOL     OW15217   2.229   2.962   6.087
 4924SOL    HW115218   2.222   3.045   6.031
 4924SOL    HW215219   2.233   2.882   6.027
 4925SOL     OW15220   2.428   2.399   6.451
 4925SOL    HW115221   2.440   2.465   6.377
 4925SOL    HW215222   2.474   2.433   6.534
 4926SOL     OW15223   3.114   3.210   5.974
 4926SOL    HW115224   3.164   3.287   6.014
 4926SOL    HW215225   3.019   3.212   6.006
 4927SOL     OW15226   3.134   3.307   6.728
 4927SOL    HW115227   3.181   3.320   6.815
 4927SOL    HW215228   3.068   3.233   6.737
 4928SOL     OW15229   3.444   2.501   6.058
 4928SOL    HW115230   3.413   2.562   6.131
 4928SOL    HW215231   3.494   2.553   5.989
 4929SOL     OW15232   2.216   3.372   6.915
 4929SOL    HW115233   2.195   3.328   6.828
 4929SOL    HW215234   2.313   3.398   6.918
 4930SOL     OW15235   2.264   2.613   7.184
 4930SOL    HW115236   2.332   2.668   7.137
 4930SOL    HW215237   2.304   2.525   7.211
 4931SOL     OW15238   3.449   2.641   7.256
 4931SOL    HW115239   3.357   2.679   7.251
 4931SOL    HW215240   3.509   2.688   7.191
 4932SOL     OW15241   2.875   1.967   7.356
 4932SOL    HW115242   2.881   2.052   7.304
 4932SOL    HW215243   2.907   1.891   7.299
 4933SOL     OW15244   2.366   1.912   7.326
 4933SOL    HW115245   2.324   1.855   7.256
 4933SOL    HW215246   2.300   1.981   7.358
 4934SOL     OW15247   2.435   2.732   6.615
 4934SOL    HW115248   2.479   2.821   6.606
 4934SOL    HW215249   2.372   2.732   6.692
 4935SOL     OW15250   3.222   2.724   6.631
 4935SOL    HW115251   3.147   2.724   6.565
 4935SOL    HW215252   3.259   2.632   6.640
 4936SOL     OW15253   1.899   3.172   6.868
 4936SOL    HW115254   1.952   3.123   6.936
 4936SOL    HW215255   1.921   3.270   6.873
 4937SOL     OW15256   2.594   2.496   6.650
 4937SOL    HW115257   2.653   2.470   6.574
 4937SOL    HW215258   2.566   2.592   6.639
 4938SOL     OW15259   3.590   2.797   7.440
 4938SOL    HW115260   3.544   2.790   7.351
 4938SOL    HW215261   3.528   2.841   7.506
 4939SOL     OW15262   3.484   2.229   5.960
 4939SOL    HW115263   3.486   2.153   6.024
 4939SOL    HW215264   3.436   2.306   6.000
 4940SOL     OW15265   2.885   2.628   6.552
 4940SOL    HW115266   2.900   2.649   6.648
 4940SOL    HW215267   2.855   2.533   6.543
 4941SOL     OW15268   2.842   3.435   7.286
 4941SOL    HW115269   2.822   3.479   7.198
 4941SOL    HW215270   2.881   3.344   7.270
 4942SOL     OW15271   3.721   3.380   7.191
 4942SOL    HW115272   3.735   3.407   7.096
 4942SOL    HW215273   3.804   3.402   7.244
 4943SOL     OW15274   2.212   2.760   7.390
 4943SOL    HW115275   2.288   2.804   7.438
 4943SOL    HW215276   2.247   2.713   7.308
 4944SOL     OW15277   3.402   2.136   5.711
 4944SOL    HW115278   3.341   2.061   5.734
 4944SOL    HW215279   3.424   2.188   5.794
 4945SOL     OW15280   3.165   2.700   5.628
 4945SOL    HW115281   3.199   2.607   5.643
 4945SOL    HW215282   3.183   2.727   5.533
 4946SOL     OW15283   2.930   3.195   6.435
 4946SOL    HW115284   2.937   3.111   6.380
 4946SOL    HW215285   2.992   3.264   6.399
 4947SOL     OW15286   2.181   2.672   6.535
 4947SOL    HW115287   2.274   2.708   6.540
 4947SOL    HW215288   2.175   2.587   6.587
 4948SOL     OW15289   3.000   2.242   7.264
 4948SOL    HW115290   2.955   2.305   7.328
 4948SOL    HW215291   3.093   2.273   7.247
 4949SOL     OW15292   3.022   2.069   7.063
 4949SOL    HW115293   3.022   2.133   7.140
 4949SOL    HW215294   3.050   2.117   6.980
 4950SOL     OW15295   1.870   3.188   5.786
 4950SOL    HW115296   1.777   3.209   5.755
 4950SOL    HW215297   1.880   3.089   5.799
 4951SOL     OW15298   1.950   3.663   6.513
 4951SOL    HW115299   1.908   3.577   6.486
 4951SOL    HW215300   2.044   3.666   6.479
 4952SOL     OW15301   2.366   3.430   6.496
 4952SOL    HW115302   2.432   3.504   6.505
 4952SOL    HW215303   2.410   3.351   6.454
 4953SOL     OW15304   2.864   2.658   6.824
 4953SOL    HW115305   2.905   2.626   6.910
 4953SOL    HW215306   2.768   2.631   6.821
 4954SOL     OW15307   1.902   2.406   6.700
 4954SOL    HW115308   1.987   2.373   6.659
 4954SOL    HW215309   1.915   2.421   6.798
 4955SOL     OW15310   3.231   2.812   7.246
 4955SOL    HW115311   3.270   2.901   7.266
 4955SOL    HW215312   3.241   2.792   7.149
 4956SOL     OW15313   3.519   2.466   6.792
 4956SOL    HW115314   3.481   2.397   6.854
 4956SOL    HW215315   3.601   2.430   6.748
 4957SOL     OW15316   2.114   3.426   7.330
 4957SOL    HW115317   2.084   3.483   7.406
 4957SOL    HW215318   2.107   3.329   7.356
 4958SOL     OW15319   2.792   3.540   7.051
 4958SOL    HW115320   2.768   3.522   6.956
 4958SOL    HW215321   2.822   3.634   7.061
 4959SOL     OW15322   2.021   2.999   7.052
 4959SOL    HW115323   2.043   2.938   7.128
 4959SOL    HW215324   2.031   2.950   6.966
 4960SOL     OW15325   3.209   2.921   6.820
 4960SOL    HW115326   3.233   2.858   6.746
 4960SOL    HW215327   3.119   2.961   6.802
 4961SOL     OW15328   3.164   2.717   5.895
 4961SOL    HW115329   3.078   2.686   5.937
 4961SOL    HW215330   3.160   2.703   5.796
 4962SOL     OW15331   3.621   3.609   6.740
 4962SOL    HW115332   3.682   3.639   6.667
 4962SOL    HW215333   3.583   3.520   6.718
 4963SOL     OW15334   3.114   3.593   6.714
 4963SOL    HW115335   3.198   3.598   6.660
 4963SOL    HW215336   3.091   3.497   6.732
 4964SOL     OW15337   1.945   3.120   6.608
 4964SOL    HW115338   1.940   3.119   6.708
 4964SOL    HW215339   1.862   3.079   6.570
 4965SOL     OW15340   2.550   3.524   7.302
 4965SOL    HW115341   2.494   3.605   7.311
 4965SOL    HW215342   2.602   3.528   7.216
 4966SOL     OW15343   3.588   1.997   6.109
 4966SOL    HW115344   3.661   1.980   6.042
 4966SOL    HW215345   3.557   1.910   6.147
 4967SOL     OW15346   3.250   3.435   6.063
 4967SOL    HW115347   3.317   3.447   5.989
 4967SOL    HW215348   3.210   3.524   6.086
 4968SOL     OW15349   1.992   3.656   7.437
 4968SOL    HW115350   1.951   3.582   7.490
 4968SOL    HW215351   2.056   3.707   7.495
 4969SOL     OW15352   3.142   2.789   6.258
 4969SOL    HW115353   3.202   2.708   6.260
 4969SOL    HW215354   3.182   2.858   6.198
 4970SOL     OW15355   2.692   3.135   7.008
 4970SOL    HW115356   2.687   3.168   7.103
 4970SOL    HW215357   2.606   3.154   6.962
 4971SOL     OW15358   2.534   3.478   5.740
 4971SOL    HW115359   2.543   3.488   5.641
 4971SOL    HW215360   2.494   3.389   5.761
 4972SOL     OW15361   3.512   3.582   6.980
 4972SOL    HW115362   3.565   3.592   6.896
 4972SOL    HW215363   3.485   3.672   7.014
 4973SOL     OW15364   3.703   2.037   6.549
 4973SOL    HW115365   3.742   1.952   6.513
 4973SOL    HW215366   3.605   2.039   6.530
 4974SOL     OW15367   3.056   3.474   5.617
 4974SOL    HW115368   3.062   3.381   5.654
 4974SOL    HW215369   2.997   3.474   5.537
 4975SOL     OW15370   2.684   2.864   6.958
 4975SOL    HW115371   2.724   2.863   6.866
 4975SOL    HW215372   2.694   2.956   6.998
 4976SOL     OW15373   2.778   2.772   5.877
 4976SOL    HW115374   2.841   2.810   5.809
 4976SOL    HW215375   2.818   2.689   5.916
 4977SOL     OW15376   3.366   3.469   5.630
 4977SOL    HW115377   3.274   3.506   5.637
 4977SOL    HW215378   3.404   3.489   5.540
 4978SOL     OW15379   2.234   3.150   7.076
 4978SOL    HW115380   2.221   3.243   7.042
 4978SOL    HW215381   2.150   3.098   7.063
 4979SOL     OW15382   3.476   3.154   6.875
 4979SOL    HW115383   3.536   3.157   6.955
 4979SOL    HW215384   3.401   3.218   6.888
 4980SOL     OW15385   2.901   2.960   6.282
 4980SOL    HW115386   2.831   2.913   6.336
 4980SOL    HW215387   2.960   2.892   6.239
 4981SOL     OW15388   2.876   2.098   6.557
 4981SOL    HW115389   2.868   2.062   6.464
 4981SOL    HW215390   2.874   2.022   6.622
 4982SOL     OW15391   2.452   3.349   6.077
 4982SOL    HW115392   2.494   3.291   6.007
 4982SOL    HW215393   2.408   3.428   6.033
 4983SOL     OW15394   3.571   2.247   6.967
 4983SOL    HW115395   3.644   2.316   6.971
 4983SOL    HW215396   3.599   2.172   6.908
 4984SOL     OW15397   2.117   3.210   5.876
 4984SOL    HW115398   2.021   3.211   5.849
 4984SOL    HW215399   2.129   3.263   5.960
 4985SOL     OW15400   1.967   2.875   7.312
 4985SOL    HW115401   1.890   2.842   7.366
 4985SOL    HW215402   2.052   2.845   7.354
 4986SOL     OW15403   2.534   2.065   7.075
 4986SOL    HW115404   2.624   2.049   7.035
 4986SOL    HW215405   2.542   2.070   7.174
 4987SOL     OW15406   1.937   2.207   5.619
 4987SOL    HW115407   1.845   2.179   5.590
 4987SOL    HW215408   1.968   2.284   5.563
 4988SOL     OW15409   3.302   2.718   6.984
 4988SOL    HW115410   3.245   2.770   6.921
 4988SOL    HW215411   3.398   2.730   6.960
 4989SOL     OW15412   1.934   2.028   5.904
 4989SOL    HW115413   1.917   2.111   5.850
 4989SOL    HW215414   2.024   1.991   5.882
 4990SOL     OW15415   3.045   3.197   5.705
 4990SOL    HW115416   2.946   3.186   5.707
 4990SOL    HW215417   3.079   3.212   5.798
 4991SOL     OW15418   2.475   2.704   7.017
 4991SOL    HW115419   2.531   2.785   7.000
 4991SOL    HW215420   2.534   2.624   7.020
 4992SOL     OW15421   3.355   3.629   6.545
 4992SOL    HW115422   3.388   3.693   6.476
 4992SOL    HW215423   3.421   3.623   6.620
 4993SOL     OW15424   2.578   2.427   7.294
 4993SOL    HW115425   2.597   2.492   7.368
 4993SOL    HW215426   2.638   2.347   7.303
 4994SOL     OW15427   3.312   3.082   7.219
 4994SOL    HW115428   3.303   3.072   7.318
 4994SOL    HW215429   3.408   3.075   7.193
 4995SOL     OW15430   2.252   3.603   7.146
 4995SOL    HW115431   2.161   3.644   7.144
 4995SOL    HW215432   2.245   3.509   7.178
 4996SOL     OW15433   3.536   2.745   6.840
 4996SOL    HW115434   3.509   2.656   6.803
 4996SOL    HW215435   3.537   2.813   6.767
 4997SOL     OW15436   3.087   2.187   6.035
 4997SOL    HW115437   3.152   2.113   6.024
 4997SOL    HW215438   3.107   2.237   6.119
 4998SOL     OW15439   2.456   2.607   6.238
 4998SOL    HW115440   2.506   2.692   6.219
 4998SOL    HW215441   2.368   2.609   6.190
 4999SOL     OW15442   3.639   2.204   7.228
 4999SOL    HW115443   3.622   2.235   7.134
 4999SOL    HW215444   3.555   2.167   7.266
 5000SOL     OW15445   3.592   2.796   7.103
 5000SOL    HW115446   3.630   2.887   7.118
 5000SOL    HW215447   3.584   2.779   7.004
 5001SOL     OW15448   2.523   3.652   6.539
 5001SOL    HW115449   2.477   3.740   6.526
 5001SOL    HW215450   2.622   3.664   6.532
 5002SOL     OW15451   2.721   2.818   6.447
 5002SOL    HW115452   2.775   2.749   6.495
 5002SOL    HW215453   2.689   2.887   6.513
 5003SOL     OW15454   2.945   2.846   5.673
 5003SOL    HW115455   2.922   2.899   5.591
 5003SOL    HW215456   3.026   2.790   5.654
 5004SOL     OW15457   3.723   3.431   6.437
 5004SOL    HW115458   3.652   3.419   6.367
 5004SOL    HW215459   3.724   3.352   6.497
 5005SOL     OW15460   2.083   3.176   7.430
 5005SOL    HW115461   2.018   3.103   7.409
 5005SOL    HW215462   2.087   3.190   7.528
 5006SOL     OW15463   1.941   3.102   6.239
 5006SOL    HW115464   1.940   3.055   6.327
 5006SOL    HW215465   2.023   3.074   6.188
 5007SOL     OW15466   2.534   3.253   7.210
 5007SOL    HW115467   2.456   3.203   7.248
 5007SOL    HW215468   2.531   3.348   7.241
 5008SOL     OW15469   3.686   2.054   6.813
 5008SOL    HW115470   3.682   1.964   6.857
 5008SOL    HW215471   3.689   2.043   6.714
 5009SOL     OW15472   3.567   3.349   6.690
 5009SOL    HW115473   3.474   3.324   6.663
 5009SOL    HW215474   3.593   3.299   6.772
 5010SOL     OW15475   2.674   3.448   6.273
 5010SOL    HW115476   2.706   3.458   6.179
 5010SOL    HW215477   2.595   3.386   6.275
 5011SOL     OW15478   3.286   2.076   6.698
 5011SOL    HW115479   3.338   2.011   6.753
 5011SOL    HW215480   3.237   2.139   6.759
 5012SOL     OW15481   2.863   1.896   6.740
 5012SOL    HW115482   2.800   1.824   6.709
 5012SOL    HW215483   2.956   1.860   6.740
 5013SOL     OW15484   2.480   3.429   6.870
 5013SOL    HW115485   2.475   3.511   6.927
 5013SOL    HW215486   2.569   3.426   6.825
 5014SOL     OW15487   3.214   1.914   5.754
 5014SOL    HW115488   3.249   1.873   5.670
 5014SOL    HW215489   3.124   1.876   5.774
 5015SOL     OW15490   3.162   2.315   6.277
 5015SOL    HW115491   3.103   2.395   6.281
 5015SOL    HW215492   3.177   2.280   6.370
 5016SOL     OW15493   3.455   2.083   6.468
 5016SOL    HW115494   3.371   2.082   6.522
 5016SOL    HW215495   3.457   2.166   6.412
 5017SOL     OW15496   1.901   2.939   5.886
 5017SOL    HW115497   2.000   2.928   5.877
 5017SOL    HW215498   1.861   2.853   5.918
 5018SOL     OW15499   2.737   3.508   5.923
 5018SOL    HW115500   2.660   3.473   5.869
 5018SOL    HW215501   2.705   3.579   5.985
 5019SOL     OW15502   2.092   2.490   7.561
 5019SOL    HW115503   1.999   2.488   7.598
 5019SOL    HW215504   2.093   2.451   7.469
 5020SOL     OW15505   1.881   2.230   8.095
 5020SOL    HW115506   1.799   2.273   8.134
 5020SOL    HW215507   1.853   2.157   8.032
 5021SOL     OW15508   2.431   3.137   8.613
 5021SOL    HW115509   2.338   3.130   8.576
 5021SOL    HW215510   2.442   3.226   8.657
 5022SOL     OW15511   3.417   3.373   8.151
 5022SOL    HW115512   3.360   3.357   8.232
 5022SOL    HW215513   3.358   3.383   8.071
 5023SOL     OW15514   2.997   2.565   8.165
 5023SOL    HW115515   3.054   2.643   8.140
 5023SOL    HW215516   2.937   2.591   8.241
 5024SOL     OW15517   3.617   2.469   7.679
 5024SOL    HW115518   3.605   2.456   7.580
 5024SOL    HW215519   3.587   2.388   7.728
 5025SOL     OW15520   2.630   3.006   8.471
 5025SOL    HW115521   2.552   3.023   8.531
 5025SOL    HW215522   2.664   3.093   8.435
 5026SOL     OW15523   2.712   2.660   9.271
 5026SOL    HW115524   2.708   2.736   9.336
 5026SOL    HW215525   2.734   2.696   9.180
 5027SOL     OW15526   2.547   2.874   8.113
 5027SOL    HW115527   2.616   2.858   8.183
 5027SOL    HW215528   2.474   2.931   8.151
 5028SOL     OW15529   2.548   3.023   9.251
 5028SOL    HW115530   2.608   3.102   9.265
 5028SOL    HW215531   2.462   3.054   9.210
 5029SOL     OW15532   2.197   3.297   8.509
 5029SOL    HW115533   2.119   3.266   8.456
 5029SOL    HW215534   2.255   3.355   8.452
 5030SOL     OW15535   3.322   3.367   8.787
 5030SOL    HW115536   3.346   3.461   8.813
 5030SOL    HW215537   3.306   3.313   8.869
 5031SOL     OW15538   3.465   2.309   8.185
 5031SOL    HW115539   3.391   2.355   8.135
 5031SOL    HW215540   3.516   2.377   8.238
 5032SOL     OW15541   2.093   3.575   7.931
 5032SOL    HW115542   2.127   3.652   7.985
 5032SOL    HW215543   2.137   3.575   7.841
 5033SOL     OW15544   2.989   3.203   9.138
 5033SOL    HW115545   3.036   3.203   9.226
 5033SOL    HW215546   2.941   3.116   9.127
 5034SOL     OW15547   2.092   3.296   7.986
 5034SOL    HW115548   2.066   3.392   7.986
 5034SOL    HW215549   2.021   3.242   8.031
 5035SOL     OW15550   2.102   2.953   8.334
 5035SOL    HW115551   2.116   2.869   8.386
 5035SOL    HW215552   2.047   3.017   8.389
 5036SOL     OW15553   2.482   3.648   8.887
 5036SOL    HW115554   2.390   3.631   8.922
 5036SOL    HW215555   2.510   3.740   8.913
 5037SOL     OW15556   2.468   2.826   7.571
 5037SOL    HW115557   2.475   2.910   7.517
 5037SOL    HW215558   2.514   2.839   7.659
 5038SOL     OW15559   3.456   1.976   8.928
 5038SOL    HW115560   3.438   2.043   8.856
 5038SOL    HW215561   3.453   2.022   9.017
 5039SOL     OW15562   1.984   2.505   8.011
 5039SOL    HW115563   1.939   2.417   8.028
 5039SOL    HW215564   1.983   2.559   8.095
 5040SOL     OW15565   3.704   3.629   7.807
 5040SOL    HW115566   3.758   3.600   7.887
 5040SOL    HW215567   3.734   3.719   7.778
 5041SOL     OW15568   1.889   3.458   7.565
 5041SOL    HW115569   1.870   3.362   7.586
 5041SOL    HW215570   1.856   3.516   7.640
 5042SOL     OW15571   3.551   2.784   8.060
 5042SOL    HW115572   3.646   2.755   8.068
 5042SOL    HW215573   3.543   2.849   7.985
 5043SOL     OW15574   3.503   2.970   7.880
 5043SOL    HW115575   3.589   2.972   7.828
 5043SOL    HW215576   3.517   3.017   7.968
 5044SOL     OW15577   1.975   2.599   9.045
 5044SOL    HW115578   2.063   2.586   9.090
 5044SOL    HW215579   1.962   2.696   9.023
 5045SOL     OW15580   2.475   3.227   8.174
 5045SOL    HW115581   2.426   3.140   8.183
 5045SOL    HW215582   2.452   3.270   8.087
 5046SOL     OW15583   3.155   3.090   8.871
 5046SOL    HW115584   3.192   3.017   8.813
 5046SOL    HW215585   3.207   3.095   8.956
 5047SOL     OW15586   2.671   1.866   7.950
 5047SOL    HW115587   2.711   1.957   7.941
 5047SOL    HW215588   2.571   1.874   7.956
 5048SOL     OW15589   2.059   2.838   8.712
 5048SOL    HW115590   2.148   2.793   8.698
 5048SOL    HW215591   1.986   2.773   8.693
 5049SOL     OW15592   3.387   2.861   7.638
 5049SOL    HW115593   3.324   2.785   7.651
 5049SOL    HW215594   3.435   2.879   7.724
 5050SOL     OW15595   3.049   3.654   9.064
 5050SOL    HW115596   3.073   3.714   8.988
 5050SOL    HW215597   3.056   3.559   9.034
 5051SOL     OW15598   3.328   3.279   8.401
 5051SOL    HW115599   3.269   3.285   8.481
 5051SOL    HW215600   3.313   3.191   8.355
 5052SOL     OW15601   3.529   3.576   8.020
 5052SOL    HW115602   3.488   3.553   7.932
 5052SOL    HW215603   3.511   3.502   8.085
 5053SOL     OW15604   2.460   2.591   7.718
 5053SOL    HW115605   2.484   2.660   7.650
 5053SOL    HW215606   2.382   2.624   7.772
 5054SOL     OW15607   3.143   2.207   8.392
 5054SOL    HW115608   3.057   2.157   8.379
 5054SOL    HW215609   3.205   2.153   8.448
 5055SOL     OW15610   3.438   3.524   7.755
 5055SOL    HW115611   3.527   3.570   7.758
 5055SOL    HW215612   3.417   3.500   7.660
 5056SOL     OW15613   2.669   2.467   8.913
 5056SOL    HW115614   2.622   2.464   9.002
 5056SOL    HW215615   2.618   2.412   8.847
 5057SOL     OW15616   3.256   2.331   9.122
 5057SOL    HW115617   3.236   2.374   9.210
 5057SOL    HW215618   3.334   2.269   9.131
 5058SOL     OW15619   2.835   2.752   9.020
 5058SOL    HW115620   2.881   2.668   8.991
 5058SOL    HW215621   2.779   2.786   8.945
 5059SOL     OW15622   2.853   2.272   8.690
 5059SOL    HW115623   2.776   2.306   8.744
 5059SOL    HW215624   2.819   2.221   8.611
 5060SOL     OW15625   2.903   2.563   7.877
 5060SOL    HW115626   2.929   2.559   7.973
 5060SOL    HW215627   2.818   2.512   7.863
 5061SOL     OW15628   1.938   2.673   8.237
 5061SOL    HW115629   2.037   2.661   8.246
 5061SOL    HW215630   1.914   2.768   8.258
 5062SOL     OW15631   1.992   3.683   9.019
 5062SOL    HW115632   1.982   3.668   9.118
 5062SOL    HW215633   1.906   3.719   8.983
 5063SOL     OW15634   2.727   2.210   7.643
 5063SOL    HW115635   2.786   2.273   7.594
 5063SOL    HW215636   2.746   2.116   7.614
 5064SOL     OW15637   3.581   2.447   9.279
 5064SOL    HW115638   3.555   2.536   9.243
 5064SOL    HW215639   3.579   2.379   9.206
 5065SOL     OW15640   3.224   3.006   7.993
 5065SOL    HW115641   3.307   2.977   7.945
 5065SOL    HW215642   3.175   3.073   7.937
 5066SOL     OW15643   2.870   3.318   7.925
 5066SOL    HW115644   2.824   3.390   7.873
 5066SOL    HW215645   2.866   3.338   8.023
 5067SOL     OW15646   2.213   3.663   8.301
 5067SOL    HW115647   2.263   3.577   8.307
 5067SOL    HW215648   2.278   3.740   8.298
 5068SOL     OW15649   3.657   2.928   8.321
 5068SOL    HW115650   3.595   2.913   8.245
 5068SOL    HW215651   3.605   2.939   8.406
 5069SOL     OW15652   3.089   3.412   8.954
 5069SOL    HW115653   3.095   3.335   9.018
 5069SOL    HW215654   3.037   3.386   8.874
 5070SOL     OW15655   2.183   2.805   7.690
 5070SOL    HW115656   2.265   2.844   7.648
 5070SOL    HW215657   2.156   2.723   7.641
 5071SOL     OW15658   3.320   2.597   8.176
 5071SOL    HW115659   3.315   2.532   8.251
 5071SOL    HW215660   3.400   2.656   8.189
 5072SOL     OW15661   2.323   3.128   9.175
 5072SOL    HW115662   2.273   3.129   9.089
 5072SOL    HW215663   2.260   3.110   9.251
 5073SOL     OW15664   2.973   3.638   7.685
 5073SOL    HW115665   2.913   3.576   7.735
 5073SOL    HW215666   3.004   3.594   7.600
 5074SOL     OW15667   2.064   2.147   8.946
 5074SOL    HW115668   1.984   2.207   8.933
 5074SOL    HW215669   2.054   2.098   9.032
 5075SOL     OW15670   3.494   3.239   7.529
 5075SOL    HW115671   3.462   3.333   7.519
 5075SOL    HW215672   3.418   3.176   7.517
 5076SOL     OW15673   2.326   3.605   7.771
 5076SOL    HW115674   2.359   3.644   7.857
 5076SOL    HW215675   2.402   3.598   7.706
 5077SOL     OW15676   3.262   1.969   7.874
 5077SOL    HW115677   3.238   1.932   7.784
 5077SOL    HW215678   3.361   1.985   7.878
 5078SOL     OW15679   2.111   3.647   8.689
 5078SOL    HW115680   2.168   3.582   8.739
 5078SOL    HW215681   2.095   3.614   8.596
 5079SOL     OW15682   2.802   3.560   8.352
 5079SOL    HW115683   2.882   3.503   8.373
 5079SOL    HW215684   2.753   3.520   8.275
 5080SOL     OW15685   3.409   2.084   9.177
 5080SOL    HW115686   3.404   2.121   9.269
 5080SOL    HW215687   3.337   2.015   9.165
 5081SOL     OW15688   2.476   1.984   7.565
 5081SOL    HW115689   2.574   1.962   7.572
 5081SOL    HW215690   2.445   1.967   7.472
 5082SOL     OW15691   2.643   2.126   9.197
 5082SOL    HW115692   2.710   2.065   9.240
 5082SOL    HW215693   2.570   2.145   9.262
 5083SOL     OW15694   2.750   3.376   8.643
 5083SOL    HW115695   2.727   3.351   8.549
 5083SOL    HW215696   2.811   3.307   8.682
 5084SOL     OW15697   3.213   2.452   8.881
 5084SOL    HW115698   3.241   2.409   8.966
 5084SOL    HW215699   3.238   2.548   8.882
 5085SOL     OW15700   2.665   3.264   8.372
 5085SOL    HW115701   2.755   3.278   8.330
 5085SOL    HW215702   2.594   3.266   8.301
 5086SOL     OW15703   2.784   2.365   8.347
 5086SOL    HW115704   2.759   2.356   8.251
 5086SOL    HW215705   2.832   2.283   8.378
 5087SOL     OW15706   2.401   1.926   7.960
 5087SOL    HW115707   2.320   1.927   8.018
 5087SOL    HW215708   2.404   2.009   7.905
 5088SOL     OW15709   3.296   3.050   7.489
 5088SOL    HW115710   3.328   2.974   7.546
 5088SOL    HW215711   3.204   3.077   7.519
 5089SOL     OW15712   2.159   1.897   7.619
 5089SOL    HW115713   2.208   1.981   7.598
 5089SOL    HW215714   2.221   1.832   7.664
 5090SOL     OW15715   2.797   2.098   7.928
 5090SOL    HW115716   2.749   2.139   7.850
 5090SOL    HW215717   2.896   2.096   7.909
 5091SOL     OW15718   2.938   2.545   8.912
 5091SOL    HW115719   2.858   2.484   8.915
 5091SOL    HW215720   3.019   2.492   8.888
 5092SOL     OW15721   3.089   3.432   8.241
 5092SOL    HW115722   3.110   3.506   8.176
 5092SOL    HW215723   3.157   3.432   8.314
 5093SOL     OW15724   2.321   3.014   8.189
 5093SOL    HW115725   2.250   2.987   8.254
 5093SOL    HW215726   2.295   2.986   8.096
 5094SOL     OW15727   3.133   3.659   8.039
 5094SOL    HW115728   3.177   3.723   7.975
 5094SOL    HW215729   3.083   3.711   8.109
 5095SOL     OW15730   2.894   2.411   7.464
 5095SOL    HW115731   2.853   2.493   7.425
 5095SOL    HW215732   2.958   2.437   7.537
 5096SOL     OW15733   1.940   2.418   8.834
 5096SOL    HW115734   2.032   2.417   8.793
 5096SOL    HW215735   1.934   2.492   8.901
 5097SOL     OW15736   2.728   2.316   8.090
 5097SOL    HW115737   2.696   2.388   8.028
 5097SOL    HW215738   2.752   2.235   8.037
 5098SOL     OW15739   2.879   1.901   8.201
 5098SOL    HW115740   2.807   1.906   8.132
 5098SOL    HW215741   2.855   1.832   8.270
 5099SOL     OW15742   3.291   3.035   8.315
 5099SOL    HW115743   3.236   2.951   8.308
 5099SOL    HW215744   3.317   3.064   8.223
 5100SOL     OW15745   3.328   2.452   8.440
 5100SOL    HW115746   3.298   2.357   8.447
 5100SOL    HW215747   3.401   2.468   8.506
 5101SOL     OW15748   3.719   2.695   7.825
 5101SOL    HW115749   3.761   2.631   7.889
 5101SOL    HW215750   3.681   2.644   7.747
 5102SOL     OW15751   2.350   3.247   7.622
 5102SOL    HW115752   2.263   3.232   7.669
 5102SOL    HW215753   2.333   3.273   7.527
 5103SOL     OW15754   3.526   3.142   8.105
 5103SOL    HW115755   3.625   3.150   8.119
 5103SOL    HW215756   3.481   3.226   8.136
 5104SOL     OW15757   3.252   2.437   7.526
 5104SOL    HW115758   3.198   2.416   7.607
 5104SOL    HW215759   3.343   2.396   7.535
 5105SOL     OW15760   3.616   3.085   9.036
 5105SOL    HW115761   3.707   3.046   9.023
 5105SOL    HW215762   3.624   3.181   9.060
 5106SOL     OW15763   2.926   3.209   8.788
 5106SOL    HW115764   2.846   3.186   8.843
 5106SOL    HW215765   3.009   3.183   8.837
 5107SOL     OW15766   3.454   3.491   9.073
 5107SOL    HW115767   3.481   3.525   8.983
 5107SOL    HW215768   3.533   3.453   9.119
 5108SOL     OW15769   2.973   3.057   8.548
 5108SOL    HW115770   2.933   3.101   8.629
 5108SOL    HW215771   2.932   3.094   8.465
 5109SOL     OW15772   3.500   2.961   8.527
 5109SOL    HW115773   3.505   3.042   8.586
 5109SOL    HW215774   3.414   2.963   8.476
 5110SOL     OW15775   2.777   1.951   8.850
 5110SOL    HW115776   2.802   1.931   8.755
 5110SOL    HW215777   2.849   2.007   8.892
 5111SOL     OW15778   2.842   2.978   9.167
 5111SOL    HW115779   2.743   2.984   9.177
 5111SOL    HW215780   2.865   2.898   9.111
 5112SOL     OW15781   2.567   2.912   7.816
 5112SOL    HW115782   2.553   2.919   7.915
 5112SOL    HW215783   2.651   2.861   7.798
 5113SOL     OW15784   2.272   2.675   8.699
 5113SOL    HW115785   2.358   2.687   8.749
 5113SOL    HW215786   2.230   2.588   8.726
 5114SOL     OW15787   3.136   2.248   8.710
 5114SOL    HW115788   3.157   2.322   8.774
 5114SOL    HW215789   3.047   2.265   8.667
 5115SOL     OW15790   1.926   3.426   8.779
 5115SOL    HW115791   1.880   3.508   8.745
 5115SOL    HW215792   2.024   3.445   8.788
 5116SOL     OW15793   2.229   2.962   7.949
 5116SOL    HW115794   2.222   3.045   7.893
 5116SOL    HW215795   2.233   2.882   7.889
 5117SOL     OW15796   3.114   3.210   7.836
 5117SOL    HW115797   3.164   3.287   7.876
 5117SOL    HW215798   3.019   3.212   7.868
 5118SOL     OW15799   3.134   3.307   8.590
 5118SOL    HW115800   3.181   3.320   8.677
 5118SOL    HW215801   3.068   3.233   8.599
 5119SOL     OW15802   3.444   2.501   7.920
 5119SOL    HW115803   3.413   2.562   7.993
 5119SOL    HW215804   3.494   2.553   7.851
 5120SOL     OW15805   2.216   3.372   8.777
 5120SOL    HW115806   2.195   3.328   8.690
 5120SOL    HW215807   2.313   3.398   8.780
 5121SOL     OW15808   2.264   2.613   9.046
 5121SOL    HW115809   2.332   2.668   8.999
 5121SOL    HW215810   2.304   2.525   9.073
 5122SOL     OW15811   3.449   2.641   9.118
 5122SOL    HW115812   3.357   2.679   9.113
 5122SOL    HW215813   3.509   2.688   9.053
 5123SOL     OW15814   2.875   1.967   9.218
 5123SOL    HW115815   2.881   2.052   9.166
 5123SOL    HW215816   2.907   1.891   9.161
 5124SOL     OW15817   2.366   1.912   9.188
 5124SOL    HW115818   2.324   1.855   9.118
 5124SOL    HW215819   2.300   1.981   9.220
 5125SOL     OW15820   2.435   2.732   8.477
 5125SOL    HW115821   2.479   2.821   8.468
 5125SOL    HW215822   2.372   2.732   8.554
 5126SOL     OW15823   3.222   2.724   8.493
 5126SOL    HW115824   3.147   2.724   8.427
 5126SOL    HW215825   3.259   2.632   8.502
 5127SOL     OW15826   3.071   2.387   7.723
 5127SOL    HW115827   3.084   2.303   7.777
 5127SOL    HW215828   3.042   2.461   7.783
 5128SOL     OW15829   1.899   3.172   8.730
 5128SOL    HW115830   1.952   3.123   8.798
 5128SOL    HW215831   1.921   3.270   8.735
 5129SOL     OW15832   2.594   2.496   8.512
 5129SOL    HW115833   2.653   2.470   8.436
 5129SOL    HW215834   2.566   2.592   8.501
 5130SOL     OW15835   3.590   2.797   9.302
 5130SOL    HW115836   3.544   2.790   9.213
 5130SOL    HW215837   3.528   2.841   9.368
 5131SOL     OW15838   2.169   1.925   8.066
 5131SOL    HW115839   2.158   2.019   8.099
 5131SOL    HW215840   2.164   1.862   8.143
 5132SOL     OW15841   3.484   2.229   7.822
 5132SOL    HW115842   3.486   2.153   7.886
 5132SOL    HW215843   3.436   2.306   7.862
 5133SOL     OW15844   2.885   2.628   8.414
 5133SOL    HW115845   2.900   2.649   8.510
 5133SOL    HW215846   2.855   2.533   8.405
 5134SOL     OW15847   2.842   3.435   9.148
 5134SOL    HW115848   2.822   3.479   9.060
 5134SOL    HW215849   2.881   3.344   9.132
 5135SOL     OW15850   3.721   3.380   9.053
 5135SOL    HW115851   3.735   3.407   8.958
 5135SOL    HW215852   3.804   3.402   9.106
 5136SOL     OW15853   2.212   2.760   9.252
 5136SOL    HW115854   2.288   2.804   9.300
 5136SOL    HW215855   2.247   2.713   9.170
 5137SOL     OW15856   3.402   2.136   7.573
 5137SOL    HW115857   3.341   2.061   7.596
 5137SOL    HW215858   3.424   2.188   7.656
 5138SOL     OW15859   3.165   2.700   7.490
 5138SOL    HW115860   3.199   2.607   7.505
 5138SOL    HW215861   3.183   2.727   7.395
 5139SOL     OW15862   2.930   3.195   8.297
 5139SOL    HW115863   2.937   3.111   8.242
 5139SOL    HW215864   2.992   3.264   8.261
 5140SOL     OW15865   2.181   2.672   8.397
 5140SOL    HW115866   2.274   2.708   8.402
 5140SOL    HW215867   2.175   2.587   8.449
 5141SOL     OW15868   3.000   2.242   9.126
 5141SOL    HW115869   2.955   2.305   9.190
 5141SOL    HW215870   3.093   2.273   9.109
 5142SOL     OW15871   3.022   2.069   8.925
 5142SOL    HW115872   3.022   2.133   9.002
 5142SOL    HW215873   3.050   2.117   8.842
 5143SOL     OW15874   1.870   3.188   7.648
 5143SOL    HW115875   1.777   3.209   7.617
 5143SOL    HW215876   1.880   3.089   7.661
 5144SOL     OW15877   1.950   3.663   8.375
 5144SOL    HW115878   1.908   3.577   8.348
 5144SOL    HW215879   2.044   3.666   8.341
 5145SOL     OW15880   2.366   3.430   8.358
 5145SOL    HW115881   2.432   3.504   8.367
 5145SOL    HW215882   2.410   3.351   8.316
 5146SOL     OW15883   2.864   2.658   8.686
 5146SOL    HW115884   2.905   2.626   8.772
 5146SOL    HW215885   2.768   2.631   8.683
 5147SOL     OW15886   1.902   2.406   8.562
 5147SOL    HW115887   1.987   2.373   8.521
 5147SOL    HW215888   1.915   2.421   8.660
 5148SOL     OW15889   3.231   2.812   9.108
 5148SOL    HW115890   3.270   2.901   9.128
 5148SOL    HW215891   3.241   2.792   9.011
 5149SOL     OW15892   2.677   2.434   7.773
 5149SOL    HW115893   2.684   2.345   7.727
 5149SOL    HW215894   2.583   2.468   7.765
 5150SOL     OW15895   3.519   2.466   8.654
 5150SOL    HW115896   3.481   2.397   8.716
 5150SOL    HW215897   3.601   2.430   8.610
 5151SOL     OW15898   2.114   3.426   9.192
 5151SOL    HW115899   2.084   3.483   9.268
 5151SOL    HW215900   2.107   3.329   9.218
 5152SOL     OW15901   2.792   3.540   8.913
 5152SOL    HW115902   2.768   3.522   8.818
 5152SOL    HW215903   2.822   3.634   8.923
 5153SOL     OW15904   2.021   2.999   8.914
 5153SOL    HW115905   2.043   2.938   8.990
 5153SOL    HW215906   2.031   2.950   8.828
 5154SOL     OW15907   3.209   2.921   8.682
 5154SOL    HW115908   3.233   2.858   8.608
 5154SOL    HW215909   3.119   2.961   8.664
 5155SOL     OW15910   3.164   2.717   7.757
 5155SOL    HW115911   3.078   2.686   7.799
 5155SOL    HW215912   3.160   2.703   7.658
 5156SOL     OW15913   3.621   3.609   8.602
 5156SOL    HW115914   3.682   3.639   8.529
 5156SOL    HW215915   3.583   3.520   8.580
 5157SOL     OW15916   3.114   3.593   8.576
 5157SOL    HW115917   3.198   3.598   8.522
 5157SOL    HW215918   3.091   3.497   8.594
 5158SOL     OW15919   1.945   3.120   8.470
 5158SOL    HW115920   1.940   3.119   8.570
 5158SOL    HW215921   1.862   3.079   8.432
 5159SOL     OW15922   2.550   3.524   9.164
 5159SOL    HW115923   2.494   3.605   9.173
 5159SOL    HW215924   2.602   3.528   9.078
 5160SOL     OW15925   3.588   1.997   7.971
 5160SOL    HW115926   3.661   1.980   7.904
 5160SOL    HW215927   3.557   1.910   8.009
 5161SOL     OW15928   3.250   3.435   7.925
 5161SOL    HW115929   3.317   3.447   7.851
 5161SOL    HW215930   3.210   3.524   7.948
 5162SOL     OW15931   1.992   3.656   9.299
 5162SOL    HW115932   1.951   3.582   9.352
 5162SOL    HW215933   2.056   3.707   9.357
 5163SOL     OW15934   3.142   2.789   8.120
 5163SOL    HW115935   3.202   2.708   8.122
 5163SOL    HW215936   3.182   2.858   8.060
 5164SOL     OW15937   2.692   3.135   8.870
 5164SOL    HW115938   2.687   3.168   8.965
 5164SOL    HW215939   2.606   3.154   8.824
 5165SOL     OW15940   2.534   3.478   7.602
 5165SOL    HW115941   2.543   3.488   7.503
 5165SOL    HW215942   2.494   3.389   7.623
 5166SOL     OW15943   3.512   3.582   8.842
 5166SOL    HW115944   3.565   3.592   8.758
 5166SOL    HW215945   3.485   3.672   8.876
 5167SOL     OW15946   3.703   2.037   8.411
 5167SOL    HW115947   3.742   1.952   8.375
 5167SOL    HW215948   3.605   2.039   8.392
 5168SOL     OW15949   3.056   3.474   7.479
 5168SOL    HW115950   3.062   3.381   7.516
 5168SOL    HW215951   2.997   3.474   7.399
 5169SOL     OW15952   2.684   2.864   8.820
 5169SOL    HW115953   2.724   2.863   8.728
 5169SOL    HW215954   2.694   2.956   8.860
 5170SOL     OW15955   2.778   2.772   7.739
 5170SOL    HW115956   2.841   2.810   7.671
 5170SOL    HW215957   2.818   2.689   7.778
 5171SOL     OW15958   3.366   3.469   7.492
 5171SOL    HW115959   3.274   3.506   7.499
 5171SOL    HW215960   3.404   3.489   7.402
 5172SOL     OW15961   2.234   3.150   8.938
 5172SOL    HW115962   2.221   3.243   8.904
 5172SOL    HW215963   2.150   3.098   8.925
 5173SOL     OW15964   3.476   3.154   8.737
 5173SOL    HW115965   3.536   3.157   8.817
 5173SOL    HW215966   3.401   3.218   8.750
 5174SOL     OW15967   2.901   2.960   8.144
 5174SOL    HW115968   2.831   2.913   8.198
 5174SOL    HW215969   2.960   2.892   8.101
 5175SOL     OW15970   2.876   2.098   8.419
 5175SOL    HW115971   2.868   2.062   8.326
 5175SOL    HW215972   2.874   2.022   8.484
 5176SOL     OW15973   2.452   3.349   7.939
 5176SOL    HW115974   2.494   3.291   7.869
 5176SOL    HW215975   2.408   3.428   7.895
 5177SOL     OW15976   3.571   2.247   8.829
 5177SOL    HW115977   3.644   2.316   8.833
 5177SOL    HW215978   3.599   2.172   8.770
 5178SOL     OW15979   2.117   3.210   7.738
 5178SOL    HW115980   2.021   3.211   7.711
 5178SOL    HW215981   2.129   3.263   7.822
 5179SOL     OW15982   1.967   2.875   9.174
 5179SOL    HW115983   1.890   2.842   9.228
 5179SOL    HW215984   2.052   2.845   9.216
 5180SOL     OW15985   2.534   2.065   8.937
 5180SOL    HW115986   2.624   2.049   8.897
 5180SOL    HW215987   2.542   2.070   9.036
 5181SOL     OW15988   1.937   2.207   7.481
 5181SOL    HW115989   1.845   2.179   7.452
 5181SOL    HW215990   1.968   2.284   7.425
 5182SOL     OW15991   3.302   2.718   8.846
 5182SOL    HW115992   3.245   2.770   8.783
 5182SOL    HW215993   3.398   2.730   8.822
 5183SOL     OW15994   1.934   2.028   7.766
 5183SOL    HW115995   1.917   2.111   7.712
 5183SOL    HW215996   2.024   1.991   7.744
 5184SOL     OW15997   3.045   3.197   7.567
 5184SOL    HW115998   2.946   3.186   7.569
 5184SOL    HW215999   3.079   3.212   7.660
 5185SOL     OW16000   2.475   2.704   8.879
 5185SOL    HW116001   2.531   2.785   8.862
 5185SOL    HW216002   2.534   2.624   8.882
 5186SOL     OW16003   3.355   3.629   8.407
 5186SOL    HW116004   3.388   3.693   8.338
 5186SOL    HW216005   3.421   3.623   8.482
 5187SOL     OW16006   2.578   2.427   9.156
 5187SOL    HW116007   2.597   2.492   9.230
 5187SOL    HW216008   2.638   2.347   9.165
 5188SOL     OW16009   3.312   3.082   9.081
 5188SOL    HW116010   3.303   3.072   9.180
 5188SOL    HW216011   3.408   3.075   9.055
 5189SOL     OW16012   2.252   3.603   9.008
 5189SOL    HW116013   2.161   3.644   9.006
 5189SOL    HW216014   2.245   3.509   9.040
 5190SOL     OW16015   3.536   2.745   8.702
 5190SOL    HW116016   3.509   2.656   8.665
 5190SOL    HW216017   3.537   2.813   8.629
 5191SOL     OW16018   3.087   2.187   7.897
 5191SOL    HW116019   3.152   2.113   7.886
 5191SOL    HW216020   3.107   2.237   7.981
 5192SOL     OW16021   2.456   2.607   8.100
 5192SOL    HW116022   2.506   2.692   8.081
 5192SOL    HW216023   2.368   2.609   8.052
 5193SOL     OW16024   3.639   2.204   9.090
 5193SOL    HW116025   3.622   2.235   8.996
 5193SOL    HW216026   3.555   2.167   9.128
 5194SOL     OW16027   3.592   2.796   8.965
 5194SOL    HW116028   3.630   2.887   8.980
 5194SOL    HW216029   3.584   2.779   8.866
 5195SOL     OW16030   2.721   3.236   7.464
 5195SOL    HW116031   2.675   3.251   7.552
 5195SOL    HW216032   2.765   3.321   7.434
 5196SOL     OW16033   2.523   3.652   8.401
 5196SOL    HW116034   2.477   3.740   8.388
 5196SOL    HW216035   2.622   3.664   8.394
 5197SOL     OW16036   2.721   2.818   8.309
 5197SOL    HW116037   2.775   2.749   8.357
 5197SOL    HW216038   2.689   2.887   8.375
 5198SOL     OW16039   2.945   2.846   7.535
 5198SOL    HW116040   2.922   2.899   7.453
 5198SOL    HW216041   3.026   2.790   7.516
 5199SOL     OW16042   3.723   3.431   8.299
 5199SOL    HW116043   3.652   3.419   8.229
 5199SOL    HW216044   3.724   3.352   8.359
 5200SOL     OW16045   2.083   3.176   9.292
 5200SOL    HW116046   2.018   3.103   9.271
 5200SOL    HW216047   2.087   3.190   9.390
 5201SOL     OW16048   1.941   3.102   8.101
 5201SOL    HW116049   1.940   3.055   8.189
 5201SOL    HW216050   2.023   3.074   8.050
 5202SOL     OW16051   2.534   3.253   9.072
 5202SOL    HW116052   2.456   3.203   9.110
 5202SOL    HW216053   2.531   3.348   9.103
 5203SOL     OW16054   3.686   2.054   8.675
 5203SOL    HW116055   3.682   1.964   8.719
 5203SOL    HW216056   3.689   2.043   8.576
 5204SOL     OW16057   3.567   3.349   8.552
 5204SOL    HW116058   3.474   3.324   8.525
 5204SOL    HW216059   3.593   3.299   8.634
 5205SOL     OW16060   2.674   3.448   8.135
 5205SOL    HW116061   2.706   3.458   8.041
 5205SOL    HW216062   2.595   3.386   8.137
 5206SOL     OW16063   3.286   2.076   8.560
 5206SOL    HW116064   3.338   2.011   8.615
 5206SOL    HW216065   3.237   2.139   8.621
 5207SOL     OW16066   2.863   1.896   8.602
 5207SOL    HW116067   2.800   1.824   8.571
 5207SOL    HW216068   2.956   1.860   8.602
 5208SOL     OW16069   2.632   3.192   7.749
 5208SOL    HW116070   2.586   3.105   7.766
 5208SOL    HW216071   2.723   3.189   7.790
 5209SOL     OW16072   2.480   3.429   8.732
 5209SOL    HW116073   2.475   3.511   8.789
 5209SOL    HW216074   2.569   3.426   8.687
 5210SOL     OW16075   3.214   1.914   7.616
 5210SOL    HW116076   3.249   1.873   7.532
 5210SOL    HW216077   3.124   1.876   7.636
 5211SOL     OW16078   3.162   2.315   8.139
 5211SOL    HW116079   3.103   2.395   8.143
 5211SOL    HW216080   3.177   2.280   8.232
 5212SOL     OW16081   3.455   2.083   8.330
 5212SOL    HW116082   3.371   2.082   8.384
 5212SOL    HW216083   3.457   2.166   8.274
 5213SOL     OW16084   1.901   2.939   7.748
 5213SOL    HW116085   2.000   2.928   7.739
 5213SOL    HW216086   1.861   2.853   7.780
 5214SOL     OW16087   2.737   3.508   7.785
 5214SOL    HW116088   2.660   3.473   7.731
 5214SOL    HW216089   2.705   3.579   7.847
 5215SOL     OW16090   2.092   2.490   9.423
 5215SOL    HW116091   1.999   2.488   9.460
 5215SOL    HW216092   2.093   2.451   9.331
 5216SOL     OW16093   1.881   2.230   9.957
 5216SOL    HW116094   1.799   2.273   9.996
 5216SOL    HW216095   1.853   2.157   9.894
 5217SOL     OW16096   2.431   3.137  10.475
 5217SOL    HW116097   2.338   3.130  10.438
 5217SOL    HW216098   2.442   3.226  10.519
 5218SOL     OW16099   3.417   3.373  10.013
 5218SOL    HW116100   3.360   3.357  10.094
 5218SOL    HW216101   3.358   3.383   9.933
 5219SOL     OW16102   2.997   2.565  10.027
 5219SOL    HW116103   3.054   2.643  10.002
 5219SOL    HW216104   2.937   2.591  10.103
 5220SOL     OW16105   3.617   2.469   9.541
 5220SOL    HW116106   3.605   2.456   9.442
 5220SOL    HW216107   3.587   2.388   9.590
 5221SOL     OW16108   2.630   3.006  10.333
 5221SOL    HW116109   2.552   3.023  10.393
 5221SOL    HW216110   2.664   3.093  10.297
 5222SOL     OW16111   2.712   2.660  11.133
 5222SOL    HW116112   2.708   2.736  11.198
 5222SOL    HW216113   2.734   2.696  11.042
 5223SOL     OW16114   2.547   2.874   9.975
 5223SOL    HW116115   2.616   2.858  10.045
 5223SOL    HW216116   2.474   2.931  10.013
 5224SOL     OW16117   2.197   3.297  10.371
 5224SOL    HW116118   2.119   3.266  10.318
 5224SOL    HW216119   2.255   3.355  10.314
 5225SOL     OW16120   3.322   3.367  10.649
 5225SOL    HW116121   3.346   3.461  10.675
 5225SOL    HW216122   3.306   3.313  10.731
 5226SOL     OW16123   3.465   2.309  10.047
 5226SOL    HW116124   3.391   2.355   9.997
 5226SOL    HW216125   3.516   2.377  10.100
 5227SOL     OW16126   2.093   3.575   9.793
 5227SOL    HW116127   2.127   3.652   9.847
 5227SOL    HW216128   2.137   3.575   9.703
 5228SOL     OW16129   2.092   3.296   9.848
 5228SOL    HW116130   2.066   3.392   9.848
 5228SOL    HW216131   2.021   3.242   9.893
 5229SOL     OW16132   2.102   2.953  10.196
 5229SOL    HW116133   2.116   2.869  10.248
 5229SOL    HW216134   2.047   3.017  10.251
 5230SOL     OW16135   2.482   3.648  10.749
 5230SOL    HW116136   2.390   3.631  10.784
 5230SOL    HW216137   2.510   3.740  10.775
 5231SOL     OW16138   2.468   2.826   9.433
 5231SOL    HW116139   2.475   2.910   9.379
 5231SOL    HW216140   2.514   2.839   9.521
 5232SOL     OW16141   3.456   1.976  10.790
 5232SOL    HW116142   3.438   2.043  10.718
 5232SOL    HW216143   3.453   2.022  10.879
 5233SOL     OW16144   1.984   2.505   9.873
 5233SOL    HW116145   1.939   2.417   9.890
 5233SOL    HW216146   1.983   2.559   9.957
 5234SOL     OW16147   3.704   3.629   9.669
 5234SOL    HW116148   3.758   3.600   9.749
 5234SOL    HW216149   3.734   3.719   9.640
 5235SOL     OW16150   1.889   3.458   9.427
 5235SOL    HW116151   1.870   3.362   9.448
 5235SOL    HW216152   1.856   3.516   9.502
 5236SOL     OW16153   3.551   2.784   9.922
 5236SOL    HW116154   3.646   2.755   9.930
 5236SOL    HW216155   3.543   2.849   9.847
 5237SOL     OW16156   3.503   2.970   9.742
 5237SOL    HW116157   3.589   2.972   9.690
 5237SOL    HW216158   3.517   3.017   9.830
 5238SOL     OW16159   1.975   2.599  10.907
 5238SOL    HW116160   2.063   2.586  10.952
 5238SOL    HW216161   1.962   2.696  10.885
 5239SOL     OW16162   2.475   3.227  10.036
 5239SOL    HW116163   2.426   3.140  10.045
 5239SOL    HW216164   2.452   3.270   9.949
 5240SOL     OW16165   3.155   3.090  10.733
 5240SOL    HW116166   3.192   3.017  10.675
 5240SOL    HW216167   3.207   3.095  10.818
 5241SOL     OW16168   2.671   1.866   9.812
 5241SOL    HW116169   2.711   1.957   9.803
 5241SOL    HW216170   2.571   1.874   9.818
 5242SOL     OW16171   2.059   2.838  10.574
 5242SOL    HW116172   2.148   2.793  10.560
 5242SOL    HW216173   1.986   2.773  10.555
 5243SOL     OW16174   3.387   2.861   9.500
 5243SOL    HW116175   3.324   2.785   9.513
 5243SOL    HW216176   3.435   2.879   9.586
 5244SOL     OW16177   3.049   3.654  10.926
 5244SOL    HW116178   3.073   3.714  10.850
 5244SOL    HW216179   3.056   3.559  10.896
 5245SOL     OW16180   3.328   3.279  10.263
 5245SOL    HW116181   3.269   3.285  10.343
 5245SOL    HW216182   3.313   3.191  10.217
 5246SOL     OW16183   3.529   3.576   9.882
 5246SOL    HW116184   3.488   3.553   9.794
 5246SOL    HW216185   3.511   3.502   9.947
 5247SOL     OW16186   2.460   2.591   9.580
 5247SOL    HW116187   2.484   2.660   9.512
 5247SOL    HW216188   2.382   2.624   9.634
 5248SOL     OW16189   3.143   2.207  10.254
 5248SOL    HW116190   3.057   2.157  10.241
 5248SOL    HW216191   3.205   2.153  10.310
 5249SOL     OW16192   3.438   3.524   9.617
 5249SOL    HW116193   3.527   3.570   9.620
 5249SOL    HW216194   3.417   3.500   9.522
 5250SOL     OW16195   2.669   2.467  10.775
 5250SOL    HW116196   2.622   2.464  10.864
 5250SOL    HW216197   2.618   2.412  10.709
 5251SOL     OW16198   2.835   2.752  10.882
 5251SOL    HW116199   2.881   2.668  10.853
 5251SOL    HW216200   2.779   2.786  10.807
 5252SOL     OW16201   2.853   2.272  10.552
 5252SOL    HW116202   2.776   2.306  10.606
 5252SOL    HW216203   2.819   2.221  10.473
 5253SOL     OW16204   2.903   2.563   9.739
 5253SOL    HW116205   2.929   2.559   9.835
 5253SOL    HW216206   2.818   2.512   9.725
 5254SOL     OW16207   1.938   2.673  10.099
 5254SOL    HW116208   2.037   2.661  10.108
 5254SOL    HW216209   1.914   2.768  10.120
 5255SOL     OW16210   1.992   3.683  10.881
 5255SOL    HW116211   1.982   3.668  10.980
 5255SOL    HW216212   1.906   3.719  10.845
 5256SOL     OW16213   2.727   2.210   9.505
 5256SOL    HW116214   2.786   2.273   9.456
 5256SOL    HW216215   2.746   2.116   9.476
 5257SOL     OW16216   3.224   3.006   9.855
 5257SOL    HW116217   3.307   2.977   9.807
 5257SOL    HW216218   3.175   3.073   9.799
 5258SOL     OW16219   2.870   3.318   9.787
 5258SOL    HW116220   2.824   3.390   9.735
 5258SOL    HW216221   2.866   3.338   9.885
 5259SOL     OW16222   2.213   3.663  10.163
 5259SOL    HW116223   2.263   3.577  10.169
 5259SOL    HW216224   2.278   3.740  10.160
 5260SOL     OW16225   3.657   2.928  10.183
 5260SOL    HW116226   3.595   2.913  10.107
 5260SOL    HW216227   3.605   2.939  10.268
 5261SOL     OW16228   3.089   3.412  10.816
 5261SOL    HW116229   3.095   3.335  10.880
 5261SOL    HW216230   3.037   3.386  10.736
 5262SOL     OW16231   2.183   2.805   9.552
 5262SOL    HW116232   2.265   2.844   9.510
 5262SOL    HW216233   2.156   2.723   9.503
 5263SOL     OW16234   3.320   2.597  10.038
 5263SOL    HW116235   3.315   2.532  10.113
 5263SOL    HW216236   3.400   2.656  10.051
 5264SOL     OW16237   2.323   3.128  11.037
 5264SOL    HW116238   2.273   3.129  10.951
 5264SOL    HW216239   2.260   3.110  11.113
 5265SOL     OW16240   2.973   3.638   9.547
 5265SOL    HW116241   2.913   3.576   9.597
 5265SOL    HW216242   3.004   3.594   9.462
 5266SOL     OW16243   3.494   3.239   9.391
 5266SOL    HW116244   3.462   3.333   9.381
 5266SOL    HW216245   3.418   3.176   9.379
 5267SOL     OW16246   2.326   3.605   9.633
 5267SOL    HW116247   2.359   3.644   9.719
 5267SOL    HW216248   2.402   3.598   9.568
 5268SOL     OW16249   3.262   1.969   9.736
 5268SOL    HW116250   3.238   1.932   9.646
 5268SOL    HW216251   3.361   1.985   9.740
 5269SOL     OW16252   2.111   3.647  10.551
 5269SOL    HW116253   2.168   3.582  10.601
 5269SOL    HW216254   2.095   3.614  10.458
 5270SOL     OW16255   2.802   3.560  10.214
 5270SOL    HW116256   2.882   3.503  10.235
 5270SOL    HW216257   2.753   3.520  10.137
 5271SOL     OW16258   2.476   1.984   9.427
 5271SOL    HW116259   2.574   1.962   9.434
 5271SOL    HW216260   2.445   1.967   9.334
 5272SOL     OW16261   2.643   2.126  11.059
 5272SOL    HW116262   2.710   2.065  11.102
 5272SOL    HW216263   2.570   2.145  11.124
 5273SOL     OW16264   2.750   3.376  10.505
 5273SOL    HW116265   2.727   3.351  10.411
 5273SOL    HW216266   2.811   3.307  10.544
 5274SOL     OW16267   3.213   2.452  10.743
 5274SOL    HW116268   3.241   2.409  10.828
 5274SOL    HW216269   3.238   2.548  10.744
 5275SOL     OW16270   2.665   3.264  10.234
 5275SOL    HW116271   2.755   3.278  10.192
 5275SOL    HW216272   2.594   3.266  10.163
 5276SOL     OW16273   2.784   2.365  10.209
 5276SOL    HW116274   2.759   2.356  10.113
 5276SOL    HW216275   2.832   2.283  10.240
 5277SOL     OW16276   2.401   1.926   9.822
 5277SOL    HW116277   2.320   1.927   9.880
 5277SOL    HW216278   2.404   2.009   9.767
 5278SOL     OW16279   3.296   3.050   9.351
 5278SOL    HW116280   3.328   2.974   9.408
 5278SOL    HW216281   3.204   3.077   9.381
 5279SOL     OW16282   2.159   1.897   9.481
 5279SOL    HW116283   2.208   1.981   9.460
 5279SOL    HW216284   2.221   1.832   9.526
 5280SOL     OW16285   2.797   2.098   9.790
 5280SOL    HW116286   2.749   2.139   9.712
 5280SOL    HW216287   2.896   2.096   9.771
 5281SOL     OW16288   2.938   2.545  10.774
 5281SOL    HW116289   2.858   2.484  10.777
 5281SOL    HW216290   3.019   2.492  10.750
 5282SOL     OW16291   3.089   3.432  10.103
 5282SOL    HW116292   3.110   3.506  10.038
 5282SOL    HW216293   3.157   3.432  10.176
 5283SOL     OW16294   2.321   3.014  10.051
 5283SOL    HW116295   2.250   2.987  10.116
 5283SOL    HW216296   2.295   2.986   9.958
 5284SOL     OW16297   3.133   3.659   9.901
 5284SOL    HW116298   3.177   3.723   9.837
 5284SOL    HW216299   3.083   3.711   9.971
 5285SOL     OW16300   2.894   2.411   9.326
 5285SOL    HW116301   2.853   2.493   9.287
 5285SOL    HW216302   2.958   2.437   9.399
 5286SOL     OW16303   1.940   2.418  10.696
 5286SOL    HW116304   2.032   2.417  10.655
 5286SOL    HW216305   1.934   2.492  10.763
 5287SOL     OW16306   2.423   2.084  10.457
 5287SOL    HW116307   2.461   2.000  10.494
 5287SOL    HW216308   2.335   2.103  10.501
 5288SOL     OW16309   2.728   2.316   9.952
 5288SOL    HW116310   2.696   2.388   9.890
 5288SOL    HW216311   2.752   2.235   9.899
 5289SOL     OW16312   2.879   1.901  10.063
 5289SOL    HW116313   2.807   1.906   9.994
 5289SOL    HW216314   2.855   1.832  10.132
 5290SOL     OW16315   3.291   3.035  10.177
 5290SOL    HW116316   3.236   2.951  10.170
 5290SOL    HW216317   3.317   3.064  10.085
 5291SOL     OW16318   3.328   2.452  10.302
 5291SOL    HW116319   3.298   2.357  10.309
 5291SOL    HW216320   3.401   2.468  10.368
 5292SOL     OW16321   3.719   2.695   9.687
 5292SOL    HW116322   3.761   2.631   9.751
 5292SOL    HW216323   3.681   2.644   9.609
 5293SOL     OW16324   2.350   3.247   9.484
 5293SOL    HW116325   2.263   3.232   9.531
 5293SOL    HW216326   2.333   3.273   9.389
 5294SOL     OW16327   3.526   3.142   9.967
 5294SOL    HW116328   3.625   3.150   9.981
 5294SOL    HW216329   3.481   3.226   9.998
 5295SOL     OW16330   3.252   2.437   9.388
 5295SOL    HW116331   3.198   2.416   9.469
 5295SOL    HW216332   3.343   2.396   9.397
 5296SOL     OW16333   3.616   3.085  10.898
 5296SOL    HW116334   3.707   3.046  10.885
 5296SOL    HW216335   3.624   3.181  10.922
 5297SOL     OW16336   2.926   3.209  10.650
 5297SOL    HW116337   2.846   3.186  10.705
 5297SOL    HW216338   3.009   3.183  10.699
 5298SOL     OW16339   2.973   3.057  10.410
 5298SOL    HW116340   2.933   3.101  10.491
 5298SOL    HW216341   2.932   3.094  10.327
 5299SOL     OW16342   3.500   2.961  10.389
 5299SOL    HW116343   3.505   3.042  10.448
 5299SOL    HW216344   3.414   2.963  10.338
 5300SOL     OW16345   2.777   1.951  10.712
 5300SOL    HW116346   2.802   1.931  10.617
 5300SOL    HW216347   2.849   2.007  10.754
 5301SOL     OW16348   2.567   2.912   9.678
 5301SOL    HW116349   2.553   2.919   9.777
 5301SOL    HW216350   2.651   2.861   9.660
 5302SOL     OW16351   2.272   2.675  10.561
 5302SOL    HW116352   2.358   2.687  10.611
 5302SOL    HW216353   2.230   2.588  10.588
 5303SOL     OW16354   3.136   2.248  10.572
 5303SOL    HW116355   3.157   2.322  10.636
 5303SOL    HW216356   3.047   2.265  10.529
 5304SOL     OW16357   1.926   3.426  10.641
 5304SOL    HW116358   1.880   3.508  10.607
 5304SOL    HW216359   2.024   3.445  10.650
 5305SOL     OW16360   2.229   2.962   9.811
 5305SOL    HW116361   2.222   3.045   9.755
 5305SOL    HW216362   2.233   2.882   9.751
 5306SOL     OW16363   2.428   2.399  10.175
 5306SOL    HW116364   2.440   2.465  10.101
 5306SOL    HW216365   2.474   2.433  10.258
 5307SOL     OW16366   3.114   3.210   9.698
 5307SOL    HW116367   3.164   3.287   9.738
 5307SOL    HW216368   3.019   3.212   9.730
 5308SOL     OW16369   3.134   3.307  10.452
 5308SOL    HW116370   3.181   3.320  10.539
 5308SOL    HW216371   3.068   3.233  10.461
 5309SOL     OW16372   3.444   2.501   9.782
 5309SOL    HW116373   3.413   2.562   9.855
 5309SOL    HW216374   3.494   2.553   9.713
 5310SOL     OW16375   2.216   3.372  10.639
 5310SOL    HW116376   2.195   3.328  10.552
 5310SOL    HW216377   2.313   3.398  10.642
 5311SOL     OW16378   2.264   2.613  10.908
 5311SOL    HW116379   2.332   2.668  10.861
 5311SOL    HW216380   2.304   2.525  10.935
 5312SOL     OW16381   3.449   2.641  10.980
 5312SOL    HW116382   3.357   2.679  10.975
 5312SOL    HW216383   3.509   2.688  10.915
 5313SOL     OW16384   2.435   2.732  10.339
 5313SOL    HW116385   2.479   2.821  10.330
 5313SOL    HW216386   2.372   2.732  10.416
 5314SOL     OW16387   3.222   2.724  10.355
 5314SOL    HW116388   3.147   2.724  10.289
 5314SOL    HW216389   3.259   2.632  10.364
 5315SOL     OW16390   3.071   2.387   9.585
 5315SOL    HW116391   3.084   2.303   9.639
 5315SOL    HW216392   3.042   2.461   9.645
 5316SOL     OW16393   1.899   3.172  10.592
 5316SOL    HW116394   1.952   3.123  10.660
 5316SOL    HW216395   1.921   3.270  10.597
 5317SOL     OW16396   2.594   2.496  10.374
 5317SOL    HW116397   2.653   2.470  10.298
 5317SOL    HW216398   2.566   2.592  10.363
 5318SOL     OW16399   2.169   1.925   9.928
 5318SOL    HW116400   2.158   2.019   9.961
 5318SOL    HW216401   2.164   1.862  10.005
 5319SOL     OW16402   3.484   2.229   9.684
 5319SOL    HW116403   3.486   2.153   9.748
 5319SOL    HW216404   3.436   2.306   9.724
 5320SOL     OW16405   2.885   2.628  10.276
 5320SOL    HW116406   2.900   2.649  10.372
 5320SOL    HW216407   2.855   2.533  10.267
 5321SOL     OW16408   2.842   3.435  11.010
 5321SOL    HW116409   2.822   3.479  10.922
 5321SOL    HW216410   2.881   3.344  10.994
 5322SOL     OW16411   3.721   3.380  10.915
 5322SOL    HW116412   3.735   3.407  10.820
 5322SOL    HW216413   3.804   3.402  10.968
 5323SOL     OW16414   2.212   2.760  11.114
 5323SOL    HW116415   2.288   2.804  11.162
 5323SOL    HW216416   2.247   2.713  11.032
 5324SOL     OW16417   3.402   2.136   9.435
 5324SOL    HW116418   3.341   2.061   9.458
 5324SOL    HW216419   3.424   2.188   9.518
 5325SOL     OW16420   3.165   2.700   9.352
 5325SOL    HW116421   3.199   2.607   9.367
 5325SOL    HW216422   3.183   2.727   9.257
 5326SOL     OW16423   2.930   3.195  10.159
 5326SOL    HW116424   2.937   3.111  10.104
 5326SOL    HW216425   2.992   3.264  10.123
 5327SOL     OW16426   2.181   2.672  10.259
 5327SOL    HW116427   2.274   2.708  10.264
 5327SOL    HW216428   2.175   2.587  10.311
 5328SOL     OW16429   3.022   2.069  10.787
 5328SOL    HW116430   3.022   2.133  10.864
 5328SOL    HW216431   3.050   2.117  10.704
 5329SOL     OW16432   1.870   3.188   9.510
 5329SOL    HW116433   1.777   3.209   9.479
 5329SOL    HW216434   1.880   3.089   9.523
 5330SOL     OW16435   1.950   3.663  10.237
 5330SOL    HW116436   1.908   3.577  10.210
 5330SOL    HW216437   2.044   3.666  10.203
 5331SOL     OW16438   2.366   3.430  10.220
 5331SOL    HW116439   2.432   3.504  10.229
 5331SOL    HW216440   2.410   3.351  10.178
 5332SOL     OW16441   2.864   2.658  10.548
 5332SOL    HW116442   2.905   2.626  10.634
 5332SOL    HW216443   2.768   2.631  10.545
 5333SOL     OW16444   1.902   2.406  10.424
 5333SOL    HW116445   1.987   2.373  10.383
 5333SOL    HW216446   1.915   2.421  10.522
 5334SOL     OW16447   2.677   2.434   9.635
 5334SOL    HW116448   2.684   2.345   9.589
 5334SOL    HW216449   2.583   2.468   9.627
 5335SOL     OW16450   3.519   2.466  10.516
 5335SOL    HW116451   3.481   2.397  10.578
 5335SOL    HW216452   3.601   2.430  10.472
 5336SOL     OW16453   2.114   3.426  11.054
 5336SOL    HW116454   2.084   3.483  11.130
 5336SOL    HW216455   2.107   3.329  11.080
 5337SOL     OW16456   2.792   3.540  10.775
 5337SOL    HW116457   2.768   3.522  10.680
 5337SOL    HW216458   2.822   3.634  10.785
 5338SOL     OW16459   2.021   2.999  10.776
 5338SOL    HW116460   2.043   2.938  10.852
 5338SOL    HW216461   2.031   2.950  10.690
 5339SOL     OW16462   3.209   2.921  10.544
 5339SOL    HW116463   3.233   2.858  10.470
 5339SOL    HW216464   3.119   2.961  10.526
 5340SOL     OW16465   3.164   2.717   9.619
 5340SOL    HW116466   3.078   2.686   9.661
 5340SOL    HW216467   3.160   2.703   9.520
 5341SOL     OW16468   3.621   3.609  10.464
 5341SOL    HW116469   3.682   3.639  10.391
 5341SOL    HW216470   3.583   3.520  10.442
 5342SOL     OW16471   3.114   3.593  10.438
 5342SOL    HW116472   3.198   3.598  10.384
 5342SOL    HW216473   3.091   3.497  10.456
 5343SOL     OW16474   1.945   3.120  10.332
 5343SOL    HW116475   1.940   3.119  10.432
 5343SOL    HW216476   1.862   3.079  10.294
 5344SOL     OW16477   3.588   1.997   9.833
 5344SOL    HW116478   3.661   1.980   9.766
 5344SOL    HW216479   3.557   1.910   9.871
 5345SOL     OW16480   3.250   3.435   9.787
 5345SOL    HW116481   3.317   3.447   9.713
 5345SOL    HW216482   3.210   3.524   9.810
 5346SOL     OW16483   3.142   2.789   9.982
 5346SOL    HW116484   3.202   2.708   9.984
 5346SOL    HW216485   3.182   2.858   9.922
 5347SOL     OW16486   2.692   3.135  10.732
 5347SOL    HW116487   2.687   3.168  10.827
 5347SOL    HW216488   2.606   3.154  10.686
 5348SOL     OW16489   2.534   3.478   9.464
 5348SOL    HW116490   2.543   3.488   9.365
 5348SOL    HW216491   2.494   3.389   9.485
 5349SOL     OW16492   3.512   3.582  10.704
 5349SOL    HW116493   3.565   3.592  10.620
 5349SOL    HW216494   3.485   3.672  10.738
 5350SOL     OW16495   3.703   2.037  10.273
 5350SOL    HW116496   3.742   1.952  10.237
 5350SOL    HW216497   3.605   2.039  10.254
 5351SOL     OW16498   3.056   3.474   9.341
 5351SOL    HW116499   3.062   3.381   9.378
 5351SOL    HW216500   2.997   3.474   9.261
 5352SOL     OW16501   2.684   2.864  10.682
 5352SOL    HW116502   2.724   2.863  10.590
 5352SOL    HW216503   2.694   2.956  10.722
 5353SOL     OW16504   2.778   2.772   9.601
 5353SOL    HW116505   2.841   2.810   9.533
 5353SOL    HW216506   2.818   2.689   9.640
 5354SOL     OW16507   3.366   3.469   9.354
 5354SOL    HW116508   3.274   3.506   9.361
 5354SOL    HW216509   3.404   3.489   9.264
 5355SOL     OW16510   2.234   3.150  10.800
 5355SOL    HW116511   2.221   3.243  10.766
 5355SOL    HW216512   2.150   3.098  10.787
 5356SOL     OW16513   3.476   3.154  10.599
 5356SOL    HW116514   3.536   3.157  10.679
 5356SOL    HW216515   3.401   3.218  10.612
 5357SOL     OW16516   2.901   2.960  10.006
 5357SOL    HW116517   2.831   2.913  10.060
 5357SOL    HW216518   2.960   2.892   9.963
 5358SOL     OW16519   2.876   2.098  10.281
 5358SOL    HW116520   2.868   2.062  10.188
 5358SOL    HW216521   2.874   2.022  10.346
 5359SOL     OW16522   2.452   3.349   9.801
 5359SOL    HW116523   2.494   3.291   9.731
 5359SOL    HW216524   2.408   3.428   9.757
 5360SOL     OW16525   3.571   2.247  10.691
 5360SOL    HW116526   3.644   2.316  10.695
 5360SOL    HW216527   3.599   2.172  10.632
 5361SOL     OW16528   2.117   3.210   9.600
 5361SOL    HW116529   2.021   3.211   9.573
 5361SOL    HW216530   2.129   3.263   9.684
 5362SOL     OW16531   1.967   2.875  11.036
 5362SOL    HW116532   1.890   2.842  11.090
 5362SOL    HW216533   2.052   2.845  11.078
 5363SOL     OW16534   2.534   2.065  10.799
 5363SOL    HW116535   2.624   2.049  10.759
 5363SOL    HW216536   2.542   2.070  10.898
 5364SOL     OW16537   1.937   2.207   9.343
 5364SOL    HW116538   1.845   2.179   9.314
 5364SOL    HW216539   1.968   2.284   9.287
 5365SOL     OW16540   3.302   2.718  10.708
 5365SOL    HW116541   3.245   2.770  10.645
 5365SOL    HW216542   3.398   2.730  10.684
 5366SOL     OW16543   1.934   2.028   9.628
 5366SOL    HW116544   1.917   2.111   9.574
 5366SOL    HW216545   2.024   1.991   9.606
 5367SOL     OW16546   3.045   3.197   9.429
 5367SOL    HW116547   2.946   3.186   9.431
 5367SOL    HW216548   3.079   3.212   9.522
 5368SOL     OW16549   2.475   2.704  10.741
 5368SOL    HW116550   2.531   2.785  10.724
 5368SOL    HW216551   2.534   2.624  10.744
 5369SOL     OW16552   3.355   3.629  10.269
 5369SOL    HW116553   3.388   3.693  10.200
 5369SOL    HW216554   3.421   3.623  10.344
 5370SOL     OW16555   2.578   2.427  11.018
 5370SOL    HW116556   2.597   2.492  11.092
 5370SOL    HW216557   2.638   2.347  11.027
 5371SOL     OW16558   2.252   3.603  10.870
 5371SOL    HW116559   2.161   3.644  10.868
 5371SOL    HW216560   2.245   3.509  10.902
 5372SOL     OW16561   3.536   2.745  10.564
 5372SOL    HW116562   3.509   2.656  10.527
 5372SOL    HW216563   3.537   2.813  10.491
 5373SOL     OW16564   3.087   2.187   9.759
 5373SOL    HW116565   3.152   2.113   9.748
 5373SOL    HW216566   3.107   2.237   9.843
 5374SOL     OW16567   2.456   2.607   9.962
 5374SOL    HW116568   2.506   2.692   9.943
 5374SOL    HW216569   2.368   2.609   9.914
 5375SOL     OW16570   3.639   2.204  10.952
 5375SOL    HW116571   3.622   2.235  10.858
 5375SOL    HW216572   3.555   2.167  10.990
 5376SOL     OW16573   3.592   2.796  10.827
 5376SOL    HW116574   3.630   2.887  10.842
 5376SOL    HW216575   3.584   2.779  10.728
 5377SOL     OW16576   2.721   3.236   9.326
 5377SOL    HW116577   2.675   3.251   9.414
 5377SOL    HW216578   2.765   3.321   9.296
 5378SOL     OW16579   2.523   3.652  10.263
 5378SOL    HW116580   2.477   3.740  10.250
 5378SOL    HW216581   2.622   3.664  10.256
 5379SOL     OW16582   2.721   2.818  10.171
 5379SOL    HW116583   2.775   2.749  10.219
 5379SOL    HW216584   2.689   2.887  10.237
 5380SOL     OW16585   2.945   2.846   9.397
 5380SOL    HW116586   2.922   2.899   9.315
 5380SOL    HW216587   3.026   2.790   9.378
 5381SOL     OW16588   3.723   3.431  10.161
 5381SOL    HW116589   3.652   3.419  10.091
 5381SOL    HW216590   3.724   3.352  10.221
 5382SOL     OW16591   1.941   3.102   9.963
 5382SOL    HW116592   1.940   3.055  10.051
 5382SOL    HW216593   2.023   3.074   9.912
 5383SOL     OW16594   2.534   3.253  10.934
 5383SOL    HW116595   2.456   3.203  10.972
 5383SOL    HW216596   2.531   3.348  10.965
 5384SOL     OW16597   3.686   2.054  10.537
 5384SOL    HW116598   3.682   1.964  10.581
 5384SOL    HW216599   3.689   2.043  10.438
 5385SOL     OW16600   3.567   3.349  10.414
 5385SOL    HW116601   3.474   3.324  10.387
 5385SOL    HW216602   3.593   3.299  10.496
 5386SOL     OW16603   2.674   3.448   9.997
 5386SOL    HW116604   2.706   3.458   9.903
 5386SOL    HW216605   2.595   3.386   9.999
 5387SOL     OW16606   3.286   2.076  10.422
 5387SOL    HW116607   3.338   2.011  10.477
 5387SOL    HW216608   3.237   2.139  10.483
 5388SOL     OW16609   2.863   1.896  10.464
 5388SOL    HW116610   2.800   1.824  10.433
 5388SOL    HW216611   2.956   1.860  10.464
 5389SOL     OW16612   2.632   3.192   9.611
 5389SOL    HW116613   2.586   3.105   9.628
 5389SOL    HW216614   2.723   3.189   9.652
 5390SOL     OW16615   2.480   3.429  10.594
 5390SOL    HW116616   2.475   3.511  10.651
 5390SOL    HW216617   2.569   3.426  10.549
 5391SOL     OW16618   3.214   1.914   9.478
 5391SOL    HW116619   3.249   1.873   9.394
 5391SOL    HW216620   3.124   1.876   9.498
 5392SOL     OW16621   3.162   2.315  10.001
 5392SOL    HW116622   3.103   2.395  10.005
 5392SOL    HW216623   3.177   2.280  10.094
 5393SOL     OW16624   3.455   2.083  10.192
 5393SOL    HW116625   3.371   2.082  10.246
 5393SOL    HW216626   3.457   2.166  10.136
 5394SOL     OW16627   1.901   2.939   9.610
 5394SOL    HW116628   2.000   2.928   9.601
 5394SOL    HW216629   1.861   2.853   9.642
 5395SOL     OW16630   2.737   3.508   9.647
 5395SOL    HW116631   2.660   3.473   9.593
 5395SOL    HW216632   2.705   3.579   9.709
 5396SOL     OW16633   2.092   4.352   0.113
 5396SOL    HW116634   1.999   4.350   0.150
 5396SOL    HW216635   2.093   4.313   0.021
 5397SOL     OW16636   2.087   3.999   0.996
 5397SOL    HW116637   2.122   3.982   1.088
 5397SOL    HW216638   1.999   3.954   0.984
 5398SOL     OW16639   1.881   4.092   0.647
 5398SOL    HW116640   1.799   4.135   0.686
 5398SOL    HW216641   1.853   4.019   0.584
 5399SOL     OW16642   3.617   4.331   0.231
 5399SOL    HW116643   3.605   4.318   0.132
 5399SOL    HW216644   3.587   4.250   0.280
 5400SOL     OW16645   2.547   4.736   0.665
 5400SOL    HW116646   2.616   4.720   0.735
 5400SOL    HW216647   2.474   4.793   0.703
 5401SOL     OW16648   2.300   4.116   1.499
 5401SOL    HW116649   2.382   4.060   1.508
 5401SOL    HW216650   2.219   4.058   1.503
 5402SOL     OW16651   3.465   4.171   0.737
 5402SOL    HW116652   3.391   4.217   0.687
 5402SOL    HW216653   3.516   4.239   0.790
 5403SOL     OW16654   3.456   3.838   1.480
 5403SOL    HW116655   3.438   3.905   1.408
 5403SOL    HW216656   3.453   3.884   1.569
 5404SOL     OW16657   1.984   4.367   0.563
 5404SOL    HW116658   1.939   4.279   0.580
 5404SOL    HW216659   1.983   4.421   0.647
 5405SOL     OW16660   1.975   4.461   1.597
 5405SOL    HW116661   2.063   4.448   1.642
 5405SOL    HW216662   1.962   4.558   1.575
 5406SOL     OW16663   2.671   3.728   0.502
 5406SOL    HW116664   2.711   3.819   0.493
 5406SOL    HW216665   2.571   3.736   0.508
 5407SOL     OW16666   2.179   3.975   1.801
 5407SOL    HW116667   2.250   4.046   1.807
 5407SOL    HW216668   2.091   4.014   1.829
 5408SOL     OW16669   3.143   4.069   0.944
 5408SOL    HW116670   3.057   4.019   0.931
 5408SOL    HW216671   3.205   4.015   1.000
 5409SOL     OW16672   2.669   4.329   1.465
 5409SOL    HW116673   2.622   4.326   1.554
 5409SOL    HW216674   2.618   4.274   1.399
 5410SOL     OW16675   3.256   4.193   1.674
 5410SOL    HW116676   3.236   4.236   1.762
 5410SOL    HW216677   3.334   4.131   1.683
 5411SOL     OW16678   2.853   4.134   1.242
 5411SOL    HW116679   2.776   4.168   1.296
 5411SOL    HW216680   2.819   4.083   1.163
 5412SOL     OW16681   2.903   4.425   0.429
 5412SOL    HW116682   2.929   4.421   0.525
 5412SOL    HW216683   2.818   4.374   0.415
 5413SOL     OW16684   2.727   4.072   0.195
 5413SOL    HW116685   2.786   4.135   0.146
 5413SOL    HW216686   2.746   3.978   0.166
 5414SOL     OW16687   3.581   4.309   1.831
 5414SOL    HW116688   3.555   4.398   1.795
 5414SOL    HW216689   3.579   4.241   1.758
 5415SOL     OW16690   2.412   3.920   0.885
 5415SOL    HW116691   2.407   3.915   0.985
 5415SOL    HW216692   2.414   4.016   0.856
 5416SOL     OW16693   3.320   4.459   0.728
 5416SOL    HW116694   3.315   4.394   0.803
 5416SOL    HW216695   3.400   4.518   0.741
 5417SOL     OW16696   2.064   4.009   1.498
 5417SOL    HW116697   1.984   4.069   1.485
 5417SOL    HW216698   2.054   3.960   1.584
 5418SOL     OW16699   3.262   3.831   0.426
 5418SOL    HW116700   3.238   3.794   0.336
 5418SOL    HW216701   3.361   3.847   0.430
 5419SOL     OW16702   2.244   4.424   0.480
 5419SOL    HW116703   2.289   4.334   0.477
 5419SOL    HW216704   2.150   4.413   0.513
 5420SOL     OW16705   3.409   3.946   1.729
 5420SOL    HW116706   3.404   3.983   1.821
 5420SOL    HW216707   3.337   3.877   1.717
 5421SOL     OW16708   2.476   3.846   0.117
 5421SOL    HW116709   2.574   3.824   0.124
 5421SOL    HW216710   2.445   3.829   0.024
 5422SOL     OW16711   2.643   3.988   1.749
 5422SOL    HW116712   2.710   3.927   1.792
 5422SOL    HW216713   2.570   4.007   1.814
 5423SOL     OW16714   3.213   4.314   1.433
 5423SOL    HW116715   3.241   4.271   1.518
 5423SOL    HW216716   3.238   4.410   1.434
 5424SOL     OW16717   2.784   4.227   0.899
 5424SOL    HW116718   2.759   4.218   0.803
 5424SOL    HW216719   2.832   4.145   0.930
 5425SOL     OW16720   2.401   3.788   0.512
 5425SOL    HW116721   2.320   3.789   0.570
 5425SOL    HW216722   2.404   3.871   0.457
 5426SOL     OW16723   2.159   3.759   0.171
 5426SOL    HW116724   2.208   3.843   0.150
 5426SOL    HW216725   2.221   3.694   0.216
 5427SOL     OW16726   2.797   3.960   0.480
 5427SOL    HW116727   2.749   4.001   0.402
 5427SOL    HW216728   2.896   3.958   0.461
 5428SOL     OW16729   2.938   4.407   1.464
 5428SOL    HW116730   2.858   4.346   1.467
 5428SOL    HW216731   3.019   4.354   1.440
 5429SOL     OW16732   2.894   4.273   0.016
 5429SOL    HW116733   2.853   4.355  -0.023
 5429SOL    HW216734   2.958   4.299   0.089
 5430SOL     OW16735   1.940   4.280   1.386
 5430SOL    HW116736   2.032   4.279   1.345
 5430SOL    HW216737   1.934   4.354   1.453
 5431SOL     OW16738   2.423   3.946   1.147
 5431SOL    HW116739   2.461   3.862   1.184
 5431SOL    HW216740   2.335   3.965   1.191
 5432SOL     OW16741   2.728   4.178   0.642
 5432SOL    HW116742   2.696   4.250   0.580
 5432SOL    HW216743   2.752   4.097   0.589
 5433SOL     OW16744   2.879   3.763   0.753
 5433SOL    HW116745   2.807   3.768   0.684
 5433SOL    HW216746   2.855   3.694   0.822
 5434SOL     OW16747   3.328   4.314   0.992
 5434SOL    HW116748   3.298   4.219   0.999
 5434SOL    HW216749   3.401   4.330   1.058
 5435SOL     OW16750   3.252   4.299   0.078
 5435SOL    HW116751   3.198   4.278   0.159
 5435SOL    HW216752   3.343   4.258   0.087
 5436SOL     OW16753   2.389   3.980   0.328
 5436SOL    HW116754   2.416   3.921   0.253
 5436SOL    HW216755   2.389   4.075   0.297
 5437SOL     OW16756   2.777   3.813   1.402
 5437SOL    HW116757   2.802   3.793   1.307
 5437SOL    HW216758   2.849   3.869   1.444
 5438SOL     OW16759   2.272   4.537   1.251
 5438SOL    HW116760   2.358   4.549   1.301
 5438SOL    HW216761   2.230   4.450   1.278
 5439SOL     OW16762   3.136   4.110   1.262
 5439SOL    HW116763   3.157   4.184   1.326
 5439SOL    HW216764   3.047   4.127   1.219
 5440SOL     OW16765   2.428   4.261   0.865
 5440SOL    HW116766   2.440   4.327   0.791
 5440SOL    HW216767   2.474   4.295   0.948
 5441SOL     OW16768   3.444   4.363   0.472
 5441SOL    HW116769   3.413   4.424   0.545
 5441SOL    HW216770   3.494   4.415   0.403
 5442SOL     OW16771   2.875   3.829   1.770
 5442SOL    HW116772   2.881   3.914   1.718
 5442SOL    HW216773   2.907   3.753   1.713
 5443SOL     OW16774   2.366   3.774   1.740
 5443SOL    HW116775   2.324   3.717   1.670
 5443SOL    HW216776   2.300   3.843   1.772
 5444SOL     OW16777   3.071   4.249   0.275
 5444SOL    HW116778   3.084   4.165   0.329
 5444SOL    HW216779   3.042   4.323   0.335
 5445SOL     OW16780   2.169   3.937   1.231
 5445SOL    HW116781   2.146   3.974   1.321
 5445SOL    HW216782   2.139   3.842   1.225
 5446SOL     OW16783   2.594   4.358   1.064
 5446SOL    HW116784   2.653   4.332   0.988
 5446SOL    HW216785   2.566   4.454   1.053
 5447SOL     OW16786   3.590   4.659   1.854
 5447SOL    HW116787   3.544   4.652   1.765
 5447SOL    HW216788   3.528   4.703   1.920
 5448SOL     OW16789   2.169   3.787   0.618
 5448SOL    HW116790   2.158   3.881   0.651
 5448SOL    HW216791   2.164   3.724   0.695
 5449SOL     OW16792   3.484   4.091   0.374
 5449SOL    HW116793   3.486   4.015   0.438
 5449SOL    HW216794   3.436   4.168   0.414
 5450SOL     OW16795   3.402   3.998   0.125
 5450SOL    HW116796   3.341   3.923   0.148
 5450SOL    HW216797   3.424   4.050   0.208
 5451SOL     OW16798   2.181   4.534   0.949
 5451SOL    HW116799   2.274   4.570   0.954
 5451SOL    HW216800   2.175   4.449   1.001
 5452SOL     OW16801   2.201   4.233   1.006
 5452SOL    HW116802   2.149   4.150   0.989
 5452SOL    HW216803   2.278   4.238   0.942
 5453SOL     OW16804   3.000   4.104   1.678
 5453SOL    HW116805   2.955   4.167   1.742
 5453SOL    HW216806   3.093   4.135   1.661
 5454SOL     OW16807   3.022   3.931   1.477
 5454SOL    HW116808   3.022   3.995   1.554
 5454SOL    HW216809   3.050   3.979   1.394
 5455SOL     OW16810   1.902   4.268   1.114
 5455SOL    HW116811   1.987   4.235   1.073
 5455SOL    HW216812   1.915   4.283   1.212
 5456SOL     OW16813   2.051   4.244   1.722
 5456SOL    HW116814   2.110   4.204   1.652
 5456SOL    HW216815   1.993   4.315   1.681
 5457SOL     OW16816   2.677   4.296   0.325
 5457SOL    HW116817   2.684   4.207   0.279
 5457SOL    HW216818   2.583   4.330   0.317
 5458SOL     OW16819   3.519   4.328   1.206
 5458SOL    HW116820   3.481   4.259   1.268
 5458SOL    HW216821   3.601   4.292   1.162
 5459SOL     OW16822   2.533   4.188   1.269
 5459SOL    HW116823   2.499   4.099   1.239
 5459SOL    HW216824   2.559   4.242   1.189
 5460SOL     OW16825   2.335   4.224   0.191
 5460SOL    HW116826   2.396   4.304   0.195
 5460SOL    HW216827   2.240   4.255   0.198
 5461SOL     OW16828   2.765   3.810   0.133
 5461SOL    HW116829   2.816   3.811   0.047
 5461SOL    HW216830   2.821   3.768   0.204
 5462SOL     OW16831   3.588   3.859   0.523
 5462SOL    HW116832   3.661   3.842   0.456
 5462SOL    HW216833   3.557   3.772   0.561
 5463SOL     OW16834   3.142   4.651   0.672
 5463SOL    HW116835   3.202   4.570   0.674
 5463SOL    HW216836   3.182   4.720   0.612
 5464SOL     OW16837   3.703   3.899   0.963
 5464SOL    HW116838   3.742   3.814   0.927
 5464SOL    HW216839   3.605   3.901   0.944
 5465SOL     OW16840   2.125   4.050   0.720
 5465SOL    HW116841   2.046   4.101   0.686
 5465SOL    HW216842   2.116   4.035   0.818
 5466SOL     OW16843   2.901   4.822   0.696
 5466SOL    HW116844   2.831   4.775   0.750
 5466SOL    HW216845   2.960   4.754   0.653
 5467SOL     OW16846   2.876   3.960   0.971
 5467SOL    HW116847   2.868   3.924   0.878
 5467SOL    HW216848   2.874   3.884   1.036
 5468SOL     OW16849   3.571   4.109   1.381
 5468SOL    HW116850   3.644   4.178   1.385
 5468SOL    HW216851   3.599   4.034   1.322
 5469SOL     OW16852   2.534   3.927   1.489
 5469SOL    HW116853   2.624   3.911   1.449
 5469SOL    HW216854   2.542   3.932   1.588
 5470SOL     OW16855   1.937   4.069   0.033
 5470SOL    HW116856   1.845   4.041   0.004
 5470SOL    HW216857   1.968   4.146  -0.023
 5471SOL     OW16858   1.934   3.890   0.318
 5471SOL    HW116859   1.917   3.973   0.264
 5471SOL    HW216860   2.024   3.853   0.296
 5472SOL     OW16861   2.578   4.289   1.708
 5472SOL    HW116862   2.597   4.354   1.782
 5472SOL    HW216863   2.638   4.209   1.717
 5473SOL     OW16864   3.087   4.049   0.449
 5473SOL    HW116865   3.152   3.975   0.438
 5473SOL    HW216866   3.107   4.099   0.533
 5474SOL     OW16867   3.639   4.066   1.642
 5474SOL    HW116868   3.622   4.097   1.548
 5474SOL    HW216869   3.555   4.029   1.680
 5475SOL     OW16870   2.945   4.708   0.087
 5475SOL    HW116871   2.922   4.761   0.005
 5475SOL    HW216872   3.026   4.652   0.068
 5476SOL     OW16873   3.686   3.916   1.227
 5476SOL    HW116874   3.682   3.826   1.271
 5476SOL    HW216875   3.689   3.905   1.128
 5477SOL     OW16876   2.290   4.148   0.520
 5477SOL    HW116877   2.320   4.076   0.458
 5477SOL    HW216878   2.251   4.108   0.603
 5478SOL     OW16879   2.179   4.271   1.280
 5478SOL    HW116880   2.217   4.212   1.352
 5478SOL    HW216881   2.219   4.245   1.192
 5479SOL     OW16882   3.286   3.938   1.112
 5479SOL    HW116883   3.338   3.873   1.167
 5479SOL    HW216884   3.237   4.001   1.173
 5480SOL     OW16885   2.863   3.758   1.154
 5480SOL    HW116886   2.800   3.686   1.123
 5480SOL    HW216887   2.956   3.722   1.154
 5481SOL     OW16888   3.214   3.776   0.168
 5481SOL    HW116889   3.249   3.735   0.084
 5481SOL    HW216890   3.124   3.738   0.188
 5482SOL     OW16891   3.162   4.177   0.691
 5482SOL    HW116892   3.103   4.257   0.695
 5482SOL    HW216893   3.177   4.142   0.784
 5483SOL     OW16894   3.455   3.945   0.882
 5483SOL    HW116895   3.371   3.944   0.936
 5483SOL    HW216896   3.457   4.028   0.826
 5484SOL     OW16897   2.092   4.352   1.975
 5484SOL    HW116898   1.999   4.350   2.012
 5484SOL    HW216899   2.093   4.313   1.883
 5485SOL     OW16900   2.087   3.999   2.858
 5485SOL    HW116901   2.122   3.982   2.950
 5485SOL    HW216902   1.999   3.954   2.846
 5486SOL     OW16903   1.881   4.092   2.509
 5486SOL    HW116904   1.799   4.135   2.548
 5486SOL    HW216905   1.853   4.019   2.446
 5487SOL     OW16906   3.617   4.331   2.093
 5487SOL    HW116907   3.605   4.318   1.994
 5487SOL    HW216908   3.587   4.250   2.142
 5488SOL     OW16909   2.547   4.736   2.527
 5488SOL    HW116910   2.616   4.720   2.597
 5488SOL    HW216911   2.474   4.793   2.565
 5489SOL     OW16912   2.300   4.116   3.361
 5489SOL    HW116913   2.382   4.060   3.370
 5489SOL    HW216914   2.219   4.058   3.365
 5490SOL     OW16915   3.465   4.171   2.599
 5490SOL    HW116916   3.391   4.217   2.549
 5490SOL    HW216917   3.516   4.239   2.652
 5491SOL     OW16918   3.456   3.838   3.342
 5491SOL    HW116919   3.438   3.905   3.270
 5491SOL    HW216920   3.453   3.884   3.431
 5492SOL     OW16921   1.984   4.367   2.425
 5492SOL    HW116922   1.939   4.279   2.442
 5492SOL    HW216923   1.983   4.421   2.509
 5493SOL     OW16924   1.975   4.461   3.459
 5493SOL    HW116925   2.063   4.448   3.504
 5493SOL    HW216926   1.962   4.558   3.437
 5494SOL     OW16927   2.671   3.728   2.364
 5494SOL    HW116928   2.711   3.819   2.355
 5494SOL    HW216929   2.571   3.736   2.370
 5495SOL     OW16930   2.179   3.975   3.663
 5495SOL    HW116931   2.250   4.046   3.669
 5495SOL    HW216932   2.091   4.014   3.691
 5496SOL     OW16933   3.143   4.069   2.806
 5496SOL    HW116934   3.057   4.019   2.793
 5496SOL    HW216935   3.205   4.015   2.862
 5497SOL     OW16936   2.669   4.329   3.327
 5497SOL    HW116937   2.622   4.326   3.416
 5497SOL    HW216938   2.618   4.274   3.261
 5498SOL     OW16939   3.256   4.193   3.536
 5498SOL    HW116940   3.236   4.236   3.624
 5498SOL    HW216941   3.334   4.131   3.545
 5499SOL     OW16942   2.853   4.134   3.104
 5499SOL    HW116943   2.776   4.168   3.158
 5499SOL    HW216944   2.819   4.083   3.025
 5500SOL     OW16945   2.903   4.425   2.291
 5500SOL    HW116946   2.929   4.421   2.387
 5500SOL    HW216947   2.818   4.374   2.277
 5501SOL     OW16948   2.727   4.072   2.057
 5501SOL    HW116949   2.786   4.135   2.008
 5501SOL    HW216950   2.746   3.978   2.028
 5502SOL     OW16951   3.581   4.309   3.693
 5502SOL    HW116952   3.555   4.398   3.657
 5502SOL    HW216953   3.579   4.241   3.620
 5503SOL     OW16954   2.412   3.920   2.747
 5503SOL    HW116955   2.407   3.915   2.847
 5503SOL    HW216956   2.414   4.016   2.718
 5504SOL     OW16957   3.320   4.459   2.590
 5504SOL    HW116958   3.315   4.394   2.665
 5504SOL    HW216959   3.400   4.518   2.603
 5505SOL     OW16960   2.064   4.009   3.360
 5505SOL    HW116961   1.984   4.069   3.347
 5505SOL    HW216962   2.054   3.960   3.446
 5506SOL     OW16963   3.262   3.831   2.288
 5506SOL    HW116964   3.238   3.794   2.198
 5506SOL    HW216965   3.361   3.847   2.292
 5507SOL     OW16966   2.244   4.424   2.342
 5507SOL    HW116967   2.289   4.334   2.339
 5507SOL    HW216968   2.150   4.413   2.375
 5508SOL     OW16969   3.409   3.946   3.591
 5508SOL    HW116970   3.404   3.983   3.683
 5508SOL    HW216971   3.337   3.877   3.579
 5509SOL     OW16972   2.476   3.846   1.979
 5509SOL    HW116973   2.574   3.824   1.986
 5509SOL    HW216974   2.445   3.829   1.886
 5510SOL     OW16975   2.643   3.988   3.611
 5510SOL    HW116976   2.710   3.927   3.654
 5510SOL    HW216977   2.570   4.007   3.676
 5511SOL     OW16978   3.213   4.314   3.295
 5511SOL    HW116979   3.241   4.271   3.380
 5511SOL    HW216980   3.238   4.410   3.296
 5512SOL     OW16981   2.784   4.227   2.761
 5512SOL    HW116982   2.759   4.218   2.665
 5512SOL    HW216983   2.832   4.145   2.792
 5513SOL     OW16984   2.401   3.788   2.374
 5513SOL    HW116985   2.320   3.789   2.432
 5513SOL    HW216986   2.404   3.871   2.319
 5514SOL     OW16987   2.159   3.759   2.033
 5514SOL    HW116988   2.208   3.843   2.012
 5514SOL    HW216989   2.221   3.694   2.078
 5515SOL     OW16990   2.797   3.960   2.342
 5515SOL    HW116991   2.749   4.001   2.264
 5515SOL    HW216992   2.896   3.958   2.323
 5516SOL     OW16993   2.938   4.407   3.326
 5516SOL    HW116994   2.858   4.346   3.329
 5516SOL    HW216995   3.019   4.354   3.302
 5517SOL     OW16996   2.894   4.273   1.878
 5517SOL    HW116997   2.853   4.355   1.839
 5517SOL    HW216998   2.958   4.299   1.951
 5518SOL     OW16999   1.940   4.280   3.248
 5518SOL    HW117000   2.032   4.279   3.207
 5518SOL    HW217001   1.934   4.354   3.315
 5519SOL     OW17002   2.423   3.946   3.009
 5519SOL    HW117003   2.461   3.862   3.046
 5519SOL    HW217004   2.335   3.965   3.053
 5520SOL     OW17005   2.728   4.178   2.504
 5520SOL    HW117006   2.696   4.250   2.442
 5520SOL    HW217007   2.752   4.097   2.451
 5521SOL     OW17008   2.879   3.763   2.615
 5521SOL    HW117009   2.807   3.768   2.546
 5521SOL    HW217010   2.855   3.694   2.684
 5522SOL     OW17011   3.328   4.314   2.854
 5522SOL    HW117012   3.298   4.219   2.861
 5522SOL    HW217013   3.401   4.330   2.920
 5523SOL     OW17014   3.252   4.299   1.940
 5523SOL    HW117015   3.198   4.278   2.021
 5523SOL    HW217016   3.343   4.258   1.949
 5524SOL     OW17017   2.389   3.980   2.190
 5524SOL    HW117018   2.416   3.921   2.115
 5524SOL    HW217019   2.389   4.075   2.159
 5525SOL     OW17020   2.777   3.813   3.264
 5525SOL    HW117021   2.802   3.793   3.169
 5525SOL    HW217022   2.849   3.869   3.306
 5526SOL     OW17023   2.272   4.537   3.113
 5526SOL    HW117024   2.358   4.549   3.163
 5526SOL    HW217025   2.230   4.450   3.140
 5527SOL     OW17026   3.136   4.110   3.124
 5527SOL    HW117027   3.157   4.184   3.188
 5527SOL    HW217028   3.047   4.127   3.081
 5528SOL     OW17029   2.428   4.261   2.727
 5528SOL    HW117030   2.440   4.327   2.653
 5528SOL    HW217031   2.474   4.295   2.810
 5529SOL     OW17032   3.444   4.363   2.334
 5529SOL    HW117033   3.413   4.424   2.407
 5529SOL    HW217034   3.494   4.415   2.265
 5530SOL     OW17035   2.875   3.829   3.632
 5530SOL    HW117036   2.881   3.914   3.580
 5530SOL    HW217037   2.907   3.753   3.575
 5531SOL     OW17038   2.366   3.774   3.602
 5531SOL    HW117039   2.324   3.717   3.532
 5531SOL    HW217040   2.300   3.843   3.634
 5532SOL     OW17041   3.071   4.249   2.137
 5532SOL    HW117042   3.084   4.165   2.191
 5532SOL    HW217043   3.042   4.323   2.197
 5533SOL     OW17044   2.169   3.937   3.093
 5533SOL    HW117045   2.146   3.974   3.183
 5533SOL    HW217046   2.139   3.842   3.087
 5534SOL     OW17047   2.594   4.358   2.926
 5534SOL    HW117048   2.653   4.332   2.850
 5534SOL    HW217049   2.566   4.454   2.915
 5535SOL     OW17050   3.590   4.659   3.716
 5535SOL    HW117051   3.544   4.652   3.627
 5535SOL    HW217052   3.528   4.703   3.782
 5536SOL     OW17053   2.169   3.787   2.480
 5536SOL    HW117054   2.158   3.881   2.513
 5536SOL    HW217055   2.164   3.724   2.557
 5537SOL     OW17056   3.484   4.091   2.236
 5537SOL    HW117057   3.486   4.015   2.300
 5537SOL    HW217058   3.436   4.168   2.276
 5538SOL     OW17059   3.402   3.998   1.987
 5538SOL    HW117060   3.341   3.923   2.010
 5538SOL    HW217061   3.424   4.050   2.070
 5539SOL     OW17062   2.181   4.534   2.811
 5539SOL    HW117063   2.274   4.570   2.816
 5539SOL    HW217064   2.175   4.449   2.863
 5540SOL     OW17065   2.201   4.233   2.868
 5540SOL    HW117066   2.149   4.150   2.851
 5540SOL    HW217067   2.278   4.238   2.804
 5541SOL     OW17068   3.000   4.104   3.540
 5541SOL    HW117069   2.955   4.167   3.604
 5541SOL    HW217070   3.093   4.135   3.523
 5542SOL     OW17071   3.022   3.931   3.339
 5542SOL    HW117072   3.022   3.995   3.416
 5542SOL    HW217073   3.050   3.979   3.256
 5543SOL     OW17074   1.902   4.268   2.976
 5543SOL    HW117075   1.987   4.235   2.935
 5543SOL    HW217076   1.915   4.283   3.074
 5544SOL     OW17077   2.051   4.244   3.584
 5544SOL    HW117078   2.110   4.204   3.514
 5544SOL    HW217079   1.993   4.315   3.543
 5545SOL     OW17080   2.677   4.296   2.187
 5545SOL    HW117081   2.684   4.207   2.141
 5545SOL    HW217082   2.583   4.330   2.179
 5546SOL     OW17083   3.519   4.328   3.068
 5546SOL    HW117084   3.481   4.259   3.130
 5546SOL    HW217085   3.601   4.292   3.024
 5547SOL     OW17086   2.533   4.188   3.131
 5547SOL    HW117087   2.499   4.099   3.101
 5547SOL    HW217088   2.559   4.242   3.051
 5548SOL     OW17089   2.335   4.224   2.053
 5548SOL    HW117090   2.396   4.304   2.057
 5548SOL    HW217091   2.240   4.255   2.060
 5549SOL     OW17092   3.588   3.859   2.385
 5549SOL    HW117093   3.661   3.842   2.318
 5549SOL    HW217094   3.557   3.772   2.423
 5550SOL     OW17095   3.142   4.651   2.534
 5550SOL    HW117096   3.202   4.570   2.536
 5550SOL    HW217097   3.182   4.720   2.474
 5551SOL     OW17098   3.703   3.899   2.825
 5551SOL    HW117099   3.742   3.814   2.789
 5551SOL    HW217100   3.605   3.901   2.806
 5552SOL     OW17101   2.125   4.050   2.582
 5552SOL    HW117102   2.046   4.101   2.548
 5552SOL    HW217103   2.116   4.035   2.680
 5553SOL     OW17104   2.778   4.634   2.153
 5553SOL    HW117105   2.841   4.672   2.085
 5553SOL    HW217106   2.818   4.551   2.192
 5554SOL     OW17107   2.901   4.822   2.558
 5554SOL    HW117108   2.831   4.775   2.612
 5554SOL    HW217109   2.960   4.754   2.515
 5555SOL     OW17110   2.876   3.960   2.833
 5555SOL    HW117111   2.868   3.924   2.740
 5555SOL    HW217112   2.874   3.884   2.898
 5556SOL     OW17113   3.571   4.109   3.243
 5556SOL    HW117114   3.644   4.178   3.247
 5556SOL    HW217115   3.599   4.034   3.184
 5557SOL     OW17116   2.534   3.927   3.351
 5557SOL    HW117117   2.624   3.911   3.311
 5557SOL    HW217118   2.542   3.932   3.450
 5558SOL     OW17119   1.937   4.069   1.895
 5558SOL    HW117120   1.845   4.041   1.866
 5558SOL    HW217121   1.968   4.146   1.839
 5559SOL     OW17122   1.934   3.890   2.180
 5559SOL    HW117123   1.917   3.973   2.126
 5559SOL    HW217124   2.024   3.853   2.158
 5560SOL     OW17125   2.578   4.289   3.570
 5560SOL    HW117126   2.597   4.354   3.644
 5560SOL    HW217127   2.638   4.209   3.579
 5561SOL     OW17128   3.087   4.049   2.311
 5561SOL    HW117129   3.152   3.975   2.300
 5561SOL    HW217130   3.107   4.099   2.395
 5562SOL     OW17131   3.639   4.066   3.504
 5562SOL    HW117132   3.622   4.097   3.410
 5562SOL    HW217133   3.555   4.029   3.542
 5563SOL     OW17134   2.945   4.708   1.949
 5563SOL    HW117135   2.922   4.761   1.867
 5563SOL    HW217136   3.026   4.652   1.930
 5564SOL     OW17137   3.686   3.916   3.089
 5564SOL    HW117138   3.682   3.826   3.133
 5564SOL    HW217139   3.689   3.905   2.990
 5565SOL     OW17140   2.290   4.148   2.382
 5565SOL    HW117141   2.320   4.076   2.320
 5565SOL    HW217142   2.251   4.108   2.465
 5566SOL     OW17143   2.179   4.271   3.142
 5566SOL    HW117144   2.217   4.212   3.214
 5566SOL    HW217145   2.219   4.245   3.054
 5567SOL     OW17146   3.286   3.938   2.974
 5567SOL    HW117147   3.338   3.873   3.029
 5567SOL    HW217148   3.237   4.001   3.035
 5568SOL     OW17149   2.863   3.758   3.016
 5568SOL    HW117150   2.800   3.686   2.985
 5568SOL    HW217151   2.956   3.722   3.016
 5569SOL     OW17152   3.214   3.776   2.030
 5569SOL    HW117153   3.249   3.735   1.946
 5569SOL    HW217154   3.124   3.738   2.050
 5570SOL     OW17155   3.162   4.177   2.553
 5570SOL    HW117156   3.103   4.257   2.557
 5570SOL    HW217157   3.177   4.142   2.646
 5571SOL     OW17158   3.455   3.945   2.744
 5571SOL    HW117159   3.371   3.944   2.798
 5571SOL    HW217160   3.457   4.028   2.688
 5572SOL     OW17161   2.092   4.352   3.837
 5572SOL    HW117162   1.999   4.350   3.874
 5572SOL    HW217163   2.093   4.313   3.745
 5573SOL     OW17164   2.087   3.999   4.720
 5573SOL    HW117165   2.122   3.982   4.812
 5573SOL    HW217166   1.999   3.954   4.708
 5574SOL     OW17167   1.881   4.092   4.371
 5574SOL    HW117168   1.799   4.135   4.410
 5574SOL    HW217169   1.853   4.019   4.308
 5575SOL     OW17170   3.617   4.331   3.955
 5575SOL    HW117171   3.605   4.318   3.856
 5575SOL    HW217172   3.587   4.250   4.004
 5576SOL     OW17173   2.547   4.736   4.389
 5576SOL    HW117174   2.616   4.720   4.459
 5576SOL    HW217175   2.474   4.793   4.427
 5577SOL     OW17176   2.300   4.116   5.223
 5577SOL    HW117177   2.382   4.060   5.232
 5577SOL    HW217178   2.219   4.058   5.227
 5578SOL     OW17179   3.465   4.171   4.461
 5578SOL    HW117180   3.391   4.217   4.411
 5578SOL    HW217181   3.516   4.239   4.514
 5579SOL     OW17182   3.456   3.838   5.204
 5579SOL    HW117183   3.438   3.905   5.132
 5579SOL    HW217184   3.453   3.884   5.293
 5580SOL     OW17185   1.984   4.367   4.287
 5580SOL    HW117186   1.939   4.279   4.304
 5580SOL    HW217187   1.983   4.421   4.371
 5581SOL     OW17188   1.975   4.461   5.321
 5581SOL    HW117189   2.063   4.448   5.366
 5581SOL    HW217190   1.962   4.558   5.299
 5582SOL     OW17191   2.671   3.728   4.226
 5582SOL    HW117192   2.711   3.819   4.217
 5582SOL    HW217193   2.571   3.736   4.232
 5583SOL     OW17194   2.179   3.975   5.525
 5583SOL    HW117195   2.250   4.046   5.531
 5583SOL    HW217196   2.091   4.014   5.553
 5584SOL     OW17197   3.143   4.069   4.668
 5584SOL    HW117198   3.057   4.019   4.655
 5584SOL    HW217199   3.205   4.015   4.724
 5585SOL     OW17200   2.669   4.329   5.189
 5585SOL    HW117201   2.622   4.326   5.278
 5585SOL    HW217202   2.618   4.274   5.123
 5586SOL     OW17203   3.256   4.193   5.398
 5586SOL    HW117204   3.236   4.236   5.486
 5586SOL    HW217205   3.334   4.131   5.407
 5587SOL     OW17206   2.853   4.134   4.966
 5587SOL    HW117207   2.776   4.168   5.020
 5587SOL    HW217208   2.819   4.083   4.887
 5588SOL     OW17209   2.903   4.425   4.153
 5588SOL    HW117210   2.929   4.421   4.249
 5588SOL    HW217211   2.818   4.374   4.139
 5589SOL     OW17212   2.727   4.072   3.919
 5589SOL    HW117213   2.786   4.135   3.870
 5589SOL    HW217214   2.746   3.978   3.890
 5590SOL     OW17215   3.581   4.309   5.555
 5590SOL    HW117216   3.555   4.398   5.519
 5590SOL    HW217217   3.579   4.241   5.482
 5591SOL     OW17218   2.412   3.920   4.609
 5591SOL    HW117219   2.407   3.915   4.709
 5591SOL    HW217220   2.414   4.016   4.580
 5592SOL     OW17221   3.320   4.459   4.452
 5592SOL    HW117222   3.315   4.394   4.527
 5592SOL    HW217223   3.400   4.518   4.465
 5593SOL     OW17224   2.064   4.009   5.222
 5593SOL    HW117225   1.984   4.069   5.209
 5593SOL    HW217226   2.054   3.960   5.308
 5594SOL     OW17227   3.262   3.831   4.150
 5594SOL    HW117228   3.238   3.794   4.060
 5594SOL    HW217229   3.361   3.847   4.154
 5595SOL     OW17230   2.244   4.424   4.204
 5595SOL    HW117231   2.289   4.334   4.201
 5595SOL    HW217232   2.150   4.413   4.237
 5596SOL     OW17233   3.409   3.946   5.453
 5596SOL    HW117234   3.404   3.983   5.545
 5596SOL    HW217235   3.337   3.877   5.441
 5597SOL     OW17236   2.476   3.846   3.841
 5597SOL    HW117237   2.574   3.824   3.848
 5597SOL    HW217238   2.445   3.829   3.748
 5598SOL     OW17239   2.643   3.988   5.473
 5598SOL    HW117240   2.710   3.927   5.516
 5598SOL    HW217241   2.570   4.007   5.538
 5599SOL     OW17242   3.213   4.314   5.157
 5599SOL    HW117243   3.241   4.271   5.242
 5599SOL    HW217244   3.238   4.410   5.158
 5600SOL     OW17245   2.784   4.227   4.623
 5600SOL    HW117246   2.759   4.218   4.527
 5600SOL    HW217247   2.832   4.145   4.654
 5601SOL     OW17248   2.401   3.788   4.236
 5601SOL    HW117249   2.320   3.789   4.294
 5601SOL    HW217250   2.404   3.871   4.181
 5602SOL     OW17251   2.159   3.759   3.895
 5602SOL    HW117252   2.208   3.843   3.874
 5602SOL    HW217253   2.221   3.694   3.940
 5603SOL     OW17254   2.797   3.960   4.204
 5603SOL    HW117255   2.749   4.001   4.126
 5603SOL    HW217256   2.896   3.958   4.185
 5604SOL     OW17257   2.938   4.407   5.188
 5604SOL    HW117258   2.858   4.346   5.191
 5604SOL    HW217259   3.019   4.354   5.164
 5605SOL     OW17260   2.894   4.273   3.740
 5605SOL    HW117261   2.853   4.355   3.701
 5605SOL    HW217262   2.958   4.299   3.813
 5606SOL     OW17263   1.940   4.280   5.110
 5606SOL    HW117264   2.032   4.279   5.069
 5606SOL    HW217265   1.934   4.354   5.177
 5607SOL     OW17266   2.423   3.946   4.871
 5607SOL    HW117267   2.461   3.862   4.908
 5607SOL    HW217268   2.335   3.965   4.915
 5608SOL     OW17269   2.728   4.178   4.366
 5608SOL    HW117270   2.696   4.250   4.304
 5608SOL    HW217271   2.752   4.097   4.313
 5609SOL     OW17272   2.879   3.763   4.477
 5609SOL    HW117273   2.807   3.768   4.408
 5609SOL    HW217274   2.855   3.694   4.546
 5610SOL     OW17275   3.328   4.314   4.716
 5610SOL    HW117276   3.298   4.219   4.723
 5610SOL    HW217277   3.401   4.330   4.782
 5611SOL     OW17278   3.252   4.299   3.802
 5611SOL    HW117279   3.198   4.278   3.883
 5611SOL    HW217280   3.343   4.258   3.811
 5612SOL     OW17281   2.389   3.980   4.052
 5612SOL    HW117282   2.416   3.921   3.977
 5612SOL    HW217283   2.389   4.075   4.021
 5613SOL     OW17284   2.777   3.813   5.126
 5613SOL    HW117285   2.802   3.793   5.031
 5613SOL    HW217286   2.849   3.869   5.168
 5614SOL     OW17287   2.272   4.537   4.975
 5614SOL    HW117288   2.358   4.549   5.025
 5614SOL    HW217289   2.230   4.450   5.002
 5615SOL     OW17290   3.136   4.110   4.986
 5615SOL    HW117291   3.157   4.184   5.050
 5615SOL    HW217292   3.047   4.127   4.943
 5616SOL     OW17293   2.428   4.261   4.589
 5616SOL    HW117294   2.440   4.327   4.515
 5616SOL    HW217295   2.474   4.295   4.672
 5617SOL     OW17296   3.444   4.363   4.196
 5617SOL    HW117297   3.413   4.424   4.269
 5617SOL    HW217298   3.494   4.415   4.127
 5618SOL     OW17299   2.875   3.829   5.494
 5618SOL    HW117300   2.881   3.914   5.442
 5618SOL    HW217301   2.907   3.753   5.437
 5619SOL     OW17302   2.366   3.774   5.464
 5619SOL    HW117303   2.324   3.717   5.394
 5619SOL    HW217304   2.300   3.843   5.496
 5620SOL     OW17305   3.071   4.249   3.999
 5620SOL    HW117306   3.084   4.165   4.053
 5620SOL    HW217307   3.042   4.323   4.059
 5621SOL     OW17308   2.169   3.937   4.955
 5621SOL    HW117309   2.146   3.974   5.045
 5621SOL    HW217310   2.139   3.842   4.949
 5622SOL     OW17311   2.594   4.358   4.788
 5622SOL    HW117312   2.653   4.332   4.712
 5622SOL    HW217313   2.566   4.454   4.777
 5623SOL     OW17314   3.590   4.659   5.578
 5623SOL    HW117315   3.544   4.652   5.489
 5623SOL    HW217316   3.528   4.703   5.644
 5624SOL     OW17317   2.169   3.787   4.342
 5624SOL    HW117318   2.158   3.881   4.375
 5624SOL    HW217319   2.164   3.724   4.419
 5625SOL     OW17320   3.484   4.091   4.098
 5625SOL    HW117321   3.486   4.015   4.162
 5625SOL    HW217322   3.436   4.168   4.138
 5626SOL     OW17323   3.402   3.998   3.849
 5626SOL    HW117324   3.341   3.923   3.872
 5626SOL    HW217325   3.424   4.050   3.932
 5627SOL     OW17326   2.181   4.534   4.673
 5627SOL    HW117327   2.274   4.570   4.678
 5627SOL    HW217328   2.175   4.449   4.725
 5628SOL     OW17329   2.201   4.233   4.730
 5628SOL    HW117330   2.149   4.150   4.713
 5628SOL    HW217331   2.278   4.238   4.666
 5629SOL     OW17332   3.000   4.104   5.402
 5629SOL    HW117333   2.955   4.167   5.466
 5629SOL    HW217334   3.093   4.135   5.385
 5630SOL     OW17335   3.022   3.931   5.201
 5630SOL    HW117336   3.022   3.995   5.278
 5630SOL    HW217337   3.050   3.979   5.118
 5631SOL     OW17338   1.902   4.268   4.838
 5631SOL    HW117339   1.987   4.235   4.797
 5631SOL    HW217340   1.915   4.283   4.936
 5632SOL     OW17341   2.051   4.244   5.446
 5632SOL    HW117342   2.110   4.204   5.376
 5632SOL    HW217343   1.993   4.315   5.405
 5633SOL     OW17344   2.677   4.296   4.049
 5633SOL    HW117345   2.684   4.207   4.003
 5633SOL    HW217346   2.583   4.330   4.041
 5634SOL     OW17347   3.519   4.328   4.930
 5634SOL    HW117348   3.481   4.259   4.992
 5634SOL    HW217349   3.601   4.292   4.886
 5635SOL     OW17350   2.533   4.188   4.993
 5635SOL    HW117351   2.499   4.099   4.963
 5635SOL    HW217352   2.559   4.242   4.913
 5636SOL     OW17353   2.335   4.224   3.915
 5636SOL    HW117354   2.396   4.304   3.919
 5636SOL    HW217355   2.240   4.255   3.922
 5637SOL     OW17356   3.588   3.859   4.247
 5637SOL    HW117357   3.661   3.842   4.180
 5637SOL    HW217358   3.557   3.772   4.285
 5638SOL     OW17359   3.142   4.651   4.396
 5638SOL    HW117360   3.202   4.570   4.398
 5638SOL    HW217361   3.182   4.720   4.336
 5639SOL     OW17362   3.703   3.899   4.687
 5639SOL    HW117363   3.742   3.814   4.651
 5639SOL    HW217364   3.605   3.901   4.668
 5640SOL     OW17365   2.125   4.050   4.444
 5640SOL    HW117366   2.046   4.101   4.410
 5640SOL    HW217367   2.116   4.035   4.542
 5641SOL     OW17368   2.778   4.634   4.015
 5641SOL    HW117369   2.841   4.672   3.947
 5641SOL    HW217370   2.818   4.551   4.054
 5642SOL     OW17371   2.901   4.822   4.420
 5642SOL    HW117372   2.831   4.775   4.474
 5642SOL    HW217373   2.960   4.754   4.377
 5643SOL     OW17374   2.876   3.960   4.695
 5643SOL    HW117375   2.868   3.924   4.602
 5643SOL    HW217376   2.874   3.884   4.760
 5644SOL     OW17377   3.571   4.109   5.105
 5644SOL    HW117378   3.644   4.178   5.109
 5644SOL    HW217379   3.599   4.034   5.046
 5645SOL     OW17380   2.534   3.927   5.213
 5645SOL    HW117381   2.624   3.911   5.173
 5645SOL    HW217382   2.542   3.932   5.312
 5646SOL     OW17383   1.937   4.069   3.757
 5646SOL    HW117384   1.845   4.041   3.728
 5646SOL    HW217385   1.968   4.146   3.701
 5647SOL     OW17386   1.934   3.890   4.042
 5647SOL    HW117387   1.917   3.973   3.988
 5647SOL    HW217388   2.024   3.853   4.020
 5648SOL     OW17389   2.578   4.289   5.432
 5648SOL    HW117390   2.597   4.354   5.506
 5648SOL    HW217391   2.638   4.209   5.441
 5649SOL     OW17392   3.087   4.049   4.173
 5649SOL    HW117393   3.152   3.975   4.162
 5649SOL    HW217394   3.107   4.099   4.257
 5650SOL     OW17395   3.639   4.066   5.366
 5650SOL    HW117396   3.622   4.097   5.272
 5650SOL    HW217397   3.555   4.029   5.404
 5651SOL     OW17398   2.945   4.708   3.811
 5651SOL    HW117399   2.922   4.761   3.729
 5651SOL    HW217400   3.026   4.652   3.792
 5652SOL     OW17401   3.686   3.916   4.951
 5652SOL    HW117402   3.682   3.826   4.995
 5652SOL    HW217403   3.689   3.905   4.852
 5653SOL     OW17404   2.290   4.148   4.244
 5653SOL    HW117405   2.320   4.076   4.182
 5653SOL    HW217406   2.251   4.108   4.327
 5654SOL     OW17407   2.179   4.271   5.004
 5654SOL    HW117408   2.217   4.212   5.076
 5654SOL    HW217409   2.219   4.245   4.916
 5655SOL     OW17410   3.286   3.938   4.836
 5655SOL    HW117411   3.338   3.873   4.891
 5655SOL    HW217412   3.237   4.001   4.897
 5656SOL     OW17413   2.863   3.758   4.878
 5656SOL    HW117414   2.800   3.686   4.847
 5656SOL    HW217415   2.956   3.722   4.878
 5657SOL     OW17416   3.214   3.776   3.892
 5657SOL    HW117417   3.249   3.735   3.808
 5657SOL    HW217418   3.124   3.738   3.912
 5658SOL     OW17419   3.162   4.177   4.415
 5658SOL    HW117420   3.103   4.257   4.419
 5658SOL    HW217421   3.177   4.142   4.508
 5659SOL     OW17422   3.455   3.945   4.606
 5659SOL    HW117423   3.371   3.944   4.660
 5659SOL    HW217424   3.457   4.028   4.550
 5660SOL     OW17425   2.092   4.352   5.699
 5660SOL    HW117426   1.999   4.350   5.736
 5660SOL    HW217427   2.093   4.313   5.607
 5661SOL     OW17428   2.087   3.999   6.582
 5661SOL    HW117429   2.122   3.982   6.674
 5661SOL    HW217430   1.999   3.954   6.570
 5662SOL     OW17431   1.881   4.092   6.233
 5662SOL    HW117432   1.799   4.135   6.272
 5662SOL    HW217433   1.853   4.019   6.170
 5663SOL     OW17434   3.617   4.331   5.817
 5663SOL    HW117435   3.605   4.318   5.718
 5663SOL    HW217436   3.587   4.250   5.866
 5664SOL     OW17437   2.547   4.736   6.251
 5664SOL    HW117438   2.616   4.720   6.321
 5664SOL    HW217439   2.474   4.793   6.289
 5665SOL     OW17440   2.300   4.116   7.085
 5665SOL    HW117441   2.382   4.060   7.094
 5665SOL    HW217442   2.219   4.058   7.089
 5666SOL     OW17443   3.465   4.171   6.323
 5666SOL    HW117444   3.391   4.217   6.273
 5666SOL    HW217445   3.516   4.239   6.376
 5667SOL     OW17446   3.456   3.838   7.066
 5667SOL    HW117447   3.438   3.905   6.994
 5667SOL    HW217448   3.453   3.884   7.155
 5668SOL     OW17449   1.984   4.367   6.149
 5668SOL    HW117450   1.939   4.279   6.166
 5668SOL    HW217451   1.983   4.421   6.233
 5669SOL     OW17452   1.975   4.461   7.183
 5669SOL    HW117453   2.063   4.448   7.228
 5669SOL    HW217454   1.962   4.558   7.161
 5670SOL     OW17455   2.671   3.728   6.088
 5670SOL    HW117456   2.711   3.819   6.079
 5670SOL    HW217457   2.571   3.736   6.094
 5671SOL     OW17458   2.179   3.975   7.387
 5671SOL    HW117459   2.250   4.046   7.393
 5671SOL    HW217460   2.091   4.014   7.415
 5672SOL     OW17461   3.143   4.069   6.530
 5672SOL    HW117462   3.057   4.019   6.517
 5672SOL    HW217463   3.205   4.015   6.586
 5673SOL     OW17464   2.669   4.329   7.051
 5673SOL    HW117465   2.622   4.326   7.140
 5673SOL    HW217466   2.618   4.274   6.985
 5674SOL     OW17467   3.256   4.193   7.260
 5674SOL    HW117468   3.236   4.236   7.348
 5674SOL    HW217469   3.334   4.131   7.269
 5675SOL     OW17470   2.853   4.134   6.828
 5675SOL    HW117471   2.776   4.168   6.882
 5675SOL    HW217472   2.819   4.083   6.749
 5676SOL     OW17473   2.903   4.425   6.015
 5676SOL    HW117474   2.929   4.421   6.111
 5676SOL    HW217475   2.818   4.374   6.001
 5677SOL     OW17476   2.727   4.072   5.781
 5677SOL    HW117477   2.786   4.135   5.732
 5677SOL    HW217478   2.746   3.978   5.752
 5678SOL     OW17479   3.581   4.309   7.417
 5678SOL    HW117480   3.555   4.398   7.381
 5678SOL    HW217481   3.579   4.241   7.344
 5679SOL     OW17482   2.412   3.920   6.471
 5679SOL    HW117483   2.407   3.915   6.571
 5679SOL    HW217484   2.414   4.016   6.442
 5680SOL     OW17485   3.320   4.459   6.314
 5680SOL    HW117486   3.315   4.394   6.389
 5680SOL    HW217487   3.400   4.518   6.327
 5681SOL     OW17488   2.064   4.009   7.084
 5681SOL    HW117489   1.984   4.069   7.071
 5681SOL    HW217490   2.054   3.960   7.170
 5682SOL     OW17491   3.262   3.831   6.012
 5682SOL    HW117492   3.238   3.794   5.922
 5682SOL    HW217493   3.361   3.847   6.016
 5683SOL     OW17494   2.244   4.424   6.066
 5683SOL    HW117495   2.289   4.334   6.063
 5683SOL    HW217496   2.150   4.413   6.099
 5684SOL     OW17497   3.409   3.946   7.315
 5684SOL    HW117498   3.404   3.983   7.407
 5684SOL    HW217499   3.337   3.877   7.303
 5685SOL     OW17500   2.476   3.846   5.703
 5685SOL    HW117501   2.574   3.824   5.710
 5685SOL    HW217502   2.445   3.829   5.610
 5686SOL     OW17503   2.643   3.988   7.335
 5686SOL    HW117504   2.710   3.927   7.378
 5686SOL    HW217505   2.570   4.007   7.400
 5687SOL     OW17506   3.213   4.314   7.019
 5687SOL    HW117507   3.241   4.271   7.104
 5687SOL    HW217508   3.238   4.410   7.020
 5688SOL     OW17509   2.784   4.227   6.485
 5688SOL    HW117510   2.759   4.218   6.389
 5688SOL    HW217511   2.832   4.145   6.516
 5689SOL     OW17512   2.401   3.788   6.098
 5689SOL    HW117513   2.320   3.789   6.156
 5689SOL    HW217514   2.404   3.871   6.043
 5690SOL     OW17515   2.159   3.759   5.757
 5690SOL    HW117516   2.208   3.843   5.736
 5690SOL    HW217517   2.221   3.694   5.802
 5691SOL     OW17518   2.797   3.960   6.066
 5691SOL    HW117519   2.749   4.001   5.988
 5691SOL    HW217520   2.896   3.958   6.047
 5692SOL     OW17521   2.938   4.407   7.050
 5692SOL    HW117522   2.858   4.346   7.053
 5692SOL    HW217523   3.019   4.354   7.026
 5693SOL     OW17524   2.894   4.273   5.602
 5693SOL    HW117525   2.853   4.355   5.563
 5693SOL    HW217526   2.958   4.299   5.675
 5694SOL     OW17527   1.940   4.280   6.972
 5694SOL    HW117528   2.032   4.279   6.931
 5694SOL    HW217529   1.934   4.354   7.039
 5695SOL     OW17530   2.423   3.946   6.733
 5695SOL    HW117531   2.461   3.862   6.770
 5695SOL    HW217532   2.335   3.965   6.777
 5696SOL     OW17533   2.728   4.178   6.228
 5696SOL    HW117534   2.696   4.250   6.166
 5696SOL    HW217535   2.752   4.097   6.175
 5697SOL     OW17536   2.879   3.763   6.339
 5697SOL    HW117537   2.807   3.768   6.270
 5697SOL    HW217538   2.855   3.694   6.408
 5698SOL     OW17539   3.328   4.314   6.578
 5698SOL    HW117540   3.298   4.219   6.585
 5698SOL    HW217541   3.401   4.330   6.644
 5699SOL     OW17542   3.252   4.299   5.664
 5699SOL    HW117543   3.198   4.278   5.745
 5699SOL    HW217544   3.343   4.258   5.673
 5700SOL     OW17545   2.389   3.980   5.914
 5700SOL    HW117546   2.416   3.921   5.839
 5700SOL    HW217547   2.389   4.075   5.883
 5701SOL     OW17548   2.777   3.813   6.988
 5701SOL    HW117549   2.802   3.793   6.893
 5701SOL    HW217550   2.849   3.869   7.030
 5702SOL     OW17551   2.272   4.537   6.837
 5702SOL    HW117552   2.358   4.549   6.887
 5702SOL    HW217553   2.230   4.450   6.864
 5703SOL     OW17554   3.136   4.110   6.848
 5703SOL    HW117555   3.157   4.184   6.912
 5703SOL    HW217556   3.047   4.127   6.805
 5704SOL     OW17557   2.428   4.261   6.451
 5704SOL    HW117558   2.440   4.327   6.377
 5704SOL    HW217559   2.474   4.295   6.534
 5705SOL     OW17560   3.444   4.363   6.058
 5705SOL    HW117561   3.413   4.424   6.131
 5705SOL    HW217562   3.494   4.415   5.989
 5706SOL     OW17563   2.875   3.829   7.356
 5706SOL    HW117564   2.881   3.914   7.304
 5706SOL    HW217565   2.907   3.753   7.299
 5707SOL     OW17566   2.366   3.774   7.326
 5707SOL    HW117567   2.324   3.717   7.256
 5707SOL    HW217568   2.300   3.843   7.358
 5708SOL     OW17569   3.071   4.249   5.861
 5708SOL    HW117570   3.084   4.165   5.915
 5708SOL    HW217571   3.042   4.323   5.921
 5709SOL     OW17572   2.169   3.937   6.817
 5709SOL    HW117573   2.146   3.974   6.907
 5709SOL    HW217574   2.139   3.842   6.811
 5710SOL     OW17575   2.594   4.358   6.650
 5710SOL    HW117576   2.653   4.332   6.574
 5710SOL    HW217577   2.566   4.454   6.639
 5711SOL     OW17578   3.590   4.659   7.440
 5711SOL    HW117579   3.544   4.652   7.351
 5711SOL    HW217580   3.528   4.703   7.506
 5712SOL     OW17581   2.169   3.787   6.204
 5712SOL    HW117582   2.158   3.881   6.237
 5712SOL    HW217583   2.164   3.724   6.281
 5713SOL     OW17584   3.484   4.091   5.960
 5713SOL    HW117585   3.486   4.015   6.024
 5713SOL    HW217586   3.436   4.168   6.000
 5714SOL     OW17587   3.402   3.998   5.711
 5714SOL    HW117588   3.341   3.923   5.734
 5714SOL    HW217589   3.424   4.050   5.794
 5715SOL     OW17590   2.181   4.534   6.535
 5715SOL    HW117591   2.274   4.570   6.540
 5715SOL    HW217592   2.175   4.449   6.587
 5716SOL     OW17593   2.201   4.233   6.592
 5716SOL    HW117594   2.149   4.150   6.575
 5716SOL    HW217595   2.278   4.238   6.528
 5717SOL     OW17596   3.000   4.104   7.264
 5717SOL    HW117597   2.955   4.167   7.328
 5717SOL    HW217598   3.093   4.135   7.247
 5718SOL     OW17599   3.022   3.931   7.063
 5718SOL    HW117600   3.022   3.995   7.140
 5718SOL    HW217601   3.050   3.979   6.980
 5719SOL     OW17602   1.902   4.268   6.700
 5719SOL    HW117603   1.987   4.235   6.659
 5719SOL    HW217604   1.915   4.283   6.798
 5720SOL     OW17605   2.051   4.244   7.308
 5720SOL    HW117606   2.110   4.204   7.238
 5720SOL    HW217607   1.993   4.315   7.267
 5721SOL     OW17608   2.677   4.296   5.911
 5721SOL    HW117609   2.684   4.207   5.865
 5721SOL    HW217610   2.583   4.330   5.903
 5722SOL     OW17611   3.519   4.328   6.792
 5722SOL    HW117612   3.481   4.259   6.854
 5722SOL    HW217613   3.601   4.292   6.748
 5723SOL     OW17614   2.533   4.188   6.855
 5723SOL    HW117615   2.499   4.099   6.825
 5723SOL    HW217616   2.559   4.242   6.775
 5724SOL     OW17617   2.335   4.224   5.777
 5724SOL    HW117618   2.396   4.304   5.781
 5724SOL    HW217619   2.240   4.255   5.784
 5725SOL     OW17620   3.588   3.859   6.109
 5725SOL    HW117621   3.661   3.842   6.042
 5725SOL    HW217622   3.557   3.772   6.147
 5726SOL     OW17623   3.142   4.651   6.258
 5726SOL    HW117624   3.202   4.570   6.260
 5726SOL    HW217625   3.182   4.720   6.198
 5727SOL     OW17626   3.703   3.899   6.549
 5727SOL    HW117627   3.742   3.814   6.513
 5727SOL    HW217628   3.605   3.901   6.530
 5728SOL     OW17629   2.125   4.050   6.306
 5728SOL    HW117630   2.046   4.101   6.272
 5728SOL    HW217631   2.116   4.035   6.404
 5729SOL     OW17632   2.778   4.634   5.877
 5729SOL    HW117633   2.841   4.672   5.809
 5729SOL    HW217634   2.818   4.551   5.916
 5730SOL     OW17635   2.901   4.822   6.282
 5730SOL    HW117636   2.831   4.775   6.336
 5730SOL    HW217637   2.960   4.754   6.239
 5731SOL     OW17638   2.876   3.960   6.557
 5731SOL    HW117639   2.868   3.924   6.464
 5731SOL    HW217640   2.874   3.884   6.622
 5732SOL     OW17641   3.571   4.109   6.967
 5732SOL    HW117642   3.644   4.178   6.971
 5732SOL    HW217643   3.599   4.034   6.908
 5733SOL     OW17644   2.534   3.927   7.075
 5733SOL    HW117645   2.624   3.911   7.035
 5733SOL    HW217646   2.542   3.932   7.174
 5734SOL     OW17647   1.937   4.069   5.619
 5734SOL    HW117648   1.845   4.041   5.590
 5734SOL    HW217649   1.968   4.146   5.563
 5735SOL     OW17650   1.934   3.890   5.904
 5735SOL    HW117651   1.917   3.973   5.850
 5735SOL    HW217652   2.024   3.853   5.882
 5736SOL     OW17653   2.578   4.289   7.294
 5736SOL    HW117654   2.597   4.354   7.368
 5736SOL    HW217655   2.638   4.209   7.303
 5737SOL     OW17656   3.087   4.049   6.035
 5737SOL    HW117657   3.152   3.975   6.024
 5737SOL    HW217658   3.107   4.099   6.119
 5738SOL     OW17659   3.639   4.066   7.228
 5738SOL    HW117660   3.622   4.097   7.134
 5738SOL    HW217661   3.555   4.029   7.266
 5739SOL     OW17662   2.945   4.708   5.673
 5739SOL    HW117663   2.922   4.761   5.591
 5739SOL    HW217664   3.026   4.652   5.654
 5740SOL     OW17665   3.686   3.916   6.813
 5740SOL    HW117666   3.682   3.826   6.857
 5740SOL    HW217667   3.689   3.905   6.714
 5741SOL     OW17668   2.290   4.148   6.106
 5741SOL    HW117669   2.320   4.076   6.044
 5741SOL    HW217670   2.251   4.108   6.189
 5742SOL     OW17671   2.179   4.271   6.866
 5742SOL    HW117672   2.217   4.212   6.938
 5742SOL    HW217673   2.219   4.245   6.778
 5743SOL     OW17674   3.286   3.938   6.698
 5743SOL    HW117675   3.338   3.873   6.753
 5743SOL    HW217676   3.237   4.001   6.759
 5744SOL     OW17677   2.863   3.758   6.740
 5744SOL    HW117678   2.800   3.686   6.709
 5744SOL    HW217679   2.956   3.722   6.740
 5745SOL     OW17680   3.214   3.776   5.754
 5745SOL    HW117681   3.249   3.735   5.670
 5745SOL    HW217682   3.124   3.738   5.774
 5746SOL     OW17683   3.162   4.177   6.277
 5746SOL    HW117684   3.103   4.257   6.281
 5746SOL    HW217685   3.177   4.142   6.370
 5747SOL     OW17686   3.455   3.945   6.468
 5747SOL    HW117687   3.371   3.944   6.522
 5747SOL    HW217688   3.457   4.028   6.412
 5748SOL     OW17689   2.092   4.352   7.561
 5748SOL    HW117690   1.999   4.350   7.598
 5748SOL    HW217691   2.093   4.313   7.469
 5749SOL     OW17692   2.087   3.999   8.444
 5749SOL    HW117693   2.122   3.982   8.536
 5749SOL    HW217694   1.999   3.954   8.432
 5750SOL     OW17695   1.881   4.092   8.095
 5750SOL    HW117696   1.799   4.135   8.134
 5750SOL    HW217697   1.853   4.019   8.032
 5751SOL     OW17698   3.617   4.331   7.679
 5751SOL    HW117699   3.605   4.318   7.580
 5751SOL    HW217700   3.587   4.250   7.728
 5752SOL     OW17701   2.547   4.736   8.113
 5752SOL    HW117702   2.616   4.720   8.183
 5752SOL    HW217703   2.474   4.793   8.151
 5753SOL     OW17704   2.300   4.116   8.947
 5753SOL    HW117705   2.382   4.060   8.956
 5753SOL    HW217706   2.219   4.058   8.951
 5754SOL     OW17707   3.465   4.171   8.185
 5754SOL    HW117708   3.391   4.217   8.135
 5754SOL    HW217709   3.516   4.239   8.238
 5755SOL     OW17710   3.456   3.838   8.928
 5755SOL    HW117711   3.438   3.905   8.856
 5755SOL    HW217712   3.453   3.884   9.017
 5756SOL     OW17713   1.984   4.367   8.011
 5756SOL    HW117714   1.939   4.279   8.028
 5756SOL    HW217715   1.983   4.421   8.095
 5757SOL     OW17716   1.975   4.461   9.045
 5757SOL    HW117717   2.063   4.448   9.090
 5757SOL    HW217718   1.962   4.558   9.023
 5758SOL     OW17719   2.671   3.728   7.950
 5758SOL    HW117720   2.711   3.819   7.941
 5758SOL    HW217721   2.571   3.736   7.956
 5759SOL     OW17722   2.179   3.975   9.249
 5759SOL    HW117723   2.250   4.046   9.255
 5759SOL    HW217724   2.091   4.014   9.277
 5760SOL     OW17725   3.143   4.069   8.392
 5760SOL    HW117726   3.057   4.019   8.379
 5760SOL    HW217727   3.205   4.015   8.448
 5761SOL     OW17728   2.669   4.329   8.913
 5761SOL    HW117729   2.622   4.326   9.002
 5761SOL    HW217730   2.618   4.274   8.847
 5762SOL     OW17731   3.256   4.193   9.122
 5762SOL    HW117732   3.236   4.236   9.210
 5762SOL    HW217733   3.334   4.131   9.131
 5763SOL     OW17734   2.853   4.134   8.690
 5763SOL    HW117735   2.776   4.168   8.744
 5763SOL    HW217736   2.819   4.083   8.611
 5764SOL     OW17737   2.903   4.425   7.877
 5764SOL    HW117738   2.929   4.421   7.973
 5764SOL    HW217739   2.818   4.374   7.863
 5765SOL     OW17740   2.727   4.072   7.643
 5765SOL    HW117741   2.786   4.135   7.594
 5765SOL    HW217742   2.746   3.978   7.614
 5766SOL     OW17743   3.581   4.309   9.279
 5766SOL    HW117744   3.555   4.398   9.243
 5766SOL    HW217745   3.579   4.241   9.206
 5767SOL     OW17746   2.412   3.920   8.333
 5767SOL    HW117747   2.407   3.915   8.433
 5767SOL    HW217748   2.414   4.016   8.304
 5768SOL     OW17749   3.320   4.459   8.176
 5768SOL    HW117750   3.315   4.394   8.251
 5768SOL    HW217751   3.400   4.518   8.189
 5769SOL     OW17752   2.064   4.009   8.946
 5769SOL    HW117753   1.984   4.069   8.933
 5769SOL    HW217754   2.054   3.960   9.032
 5770SOL     OW17755   3.262   3.831   7.874
 5770SOL    HW117756   3.238   3.794   7.784
 5770SOL    HW217757   3.361   3.847   7.878
 5771SOL     OW17758   2.244   4.424   7.928
 5771SOL    HW117759   2.289   4.334   7.925
 5771SOL    HW217760   2.150   4.413   7.961
 5772SOL     OW17761   3.409   3.946   9.177
 5772SOL    HW117762   3.404   3.983   9.269
 5772SOL    HW217763   3.337   3.877   9.165
 5773SOL     OW17764   2.476   3.846   7.565
 5773SOL    HW117765   2.574   3.824   7.572
 5773SOL    HW217766   2.445   3.829   7.472
 5774SOL     OW17767   2.643   3.988   9.197
 5774SOL    HW117768   2.710   3.927   9.240
 5774SOL    HW217769   2.570   4.007   9.262
 5775SOL     OW17770   3.213   4.314   8.881
 5775SOL    HW117771   3.241   4.271   8.966
 5775SOL    HW217772   3.238   4.410   8.882
 5776SOL     OW17773   2.784   4.227   8.347
 5776SOL    HW117774   2.759   4.218   8.251
 5776SOL    HW217775   2.832   4.145   8.378
 5777SOL     OW17776   2.401   3.788   7.960
 5777SOL    HW117777   2.320   3.789   8.018
 5777SOL    HW217778   2.404   3.871   7.905
 5778SOL     OW17779   2.159   3.759   7.619
 5778SOL    HW117780   2.208   3.843   7.598
 5778SOL    HW217781   2.221   3.694   7.664
 5779SOL     OW17782   2.797   3.960   7.928
 5779SOL    HW117783   2.749   4.001   7.850
 5779SOL    HW217784   2.896   3.958   7.909
 5780SOL     OW17785   2.938   4.407   8.912
 5780SOL    HW117786   2.858   4.346   8.915
 5780SOL    HW217787   3.019   4.354   8.888
 5781SOL     OW17788   2.894   4.273   7.464
 5781SOL    HW117789   2.853   4.355   7.425
 5781SOL    HW217790   2.958   4.299   7.537
 5782SOL     OW17791   1.940   4.280   8.834
 5782SOL    HW117792   2.032   4.279   8.793
 5782SOL    HW217793   1.934   4.354   8.901
 5783SOL     OW17794   2.423   3.946   8.595
 5783SOL    HW117795   2.461   3.862   8.632
 5783SOL    HW217796   2.335   3.965   8.639
 5784SOL     OW17797   2.728   4.178   8.090
 5784SOL    HW117798   2.696   4.250   8.028
 5784SOL    HW217799   2.752   4.097   8.037
 5785SOL     OW17800   2.879   3.763   8.201
 5785SOL    HW117801   2.807   3.768   8.132
 5785SOL    HW217802   2.855   3.694   8.270
 5786SOL     OW17803   3.328   4.314   8.440
 5786SOL    HW117804   3.298   4.219   8.447
 5786SOL    HW217805   3.401   4.330   8.506
 5787SOL     OW17806   3.252   4.299   7.526
 5787SOL    HW117807   3.198   4.278   7.607
 5787SOL    HW217808   3.343   4.258   7.535
 5788SOL     OW17809   2.389   3.980   7.776
 5788SOL    HW117810   2.416   3.921   7.701
 5788SOL    HW217811   2.389   4.075   7.745
 5789SOL     OW17812   2.777   3.813   8.850
 5789SOL    HW117813   2.802   3.793   8.755
 5789SOL    HW217814   2.849   3.869   8.892
 5790SOL     OW17815   2.272   4.537   8.699
 5790SOL    HW117816   2.358   4.549   8.749
 5790SOL    HW217817   2.230   4.450   8.726
 5791SOL     OW17818   3.136   4.110   8.710
 5791SOL    HW117819   3.157   4.184   8.774
 5791SOL    HW217820   3.047   4.127   8.667
 5792SOL     OW17821   2.428   4.261   8.313
 5792SOL    HW117822   2.440   4.327   8.239
 5792SOL    HW217823   2.474   4.295   8.396
 5793SOL     OW17824   3.444   4.363   7.920
 5793SOL    HW117825   3.413   4.424   7.993
 5793SOL    HW217826   3.494   4.415   7.851
 5794SOL     OW17827   2.875   3.829   9.218
 5794SOL    HW117828   2.881   3.914   9.166
 5794SOL    HW217829   2.907   3.753   9.161
 5795SOL     OW17830   2.366   3.774   9.188
 5795SOL    HW117831   2.324   3.717   9.118
 5795SOL    HW217832   2.300   3.843   9.220
 5796SOL     OW17833   3.071   4.249   7.723
 5796SOL    HW117834   3.084   4.165   7.777
 5796SOL    HW217835   3.042   4.323   7.783
 5797SOL     OW17836   2.169   3.937   8.679
 5797SOL    HW117837   2.146   3.974   8.769
 5797SOL    HW217838   2.139   3.842   8.673
 5798SOL     OW17839   2.594   4.358   8.512
 5798SOL    HW117840   2.653   4.332   8.436
 5798SOL    HW217841   2.566   4.454   8.501
 5799SOL     OW17842   3.590   4.659   9.302
 5799SOL    HW117843   3.544   4.652   9.213
 5799SOL    HW217844   3.528   4.703   9.368
 5800SOL     OW17845   2.169   3.787   8.066
 5800SOL    HW117846   2.158   3.881   8.099
 5800SOL    HW217847   2.164   3.724   8.143
 5801SOL     OW17848   3.484   4.091   7.822
 5801SOL    HW117849   3.486   4.015   7.886
 5801SOL    HW217850   3.436   4.168   7.862
 5802SOL     OW17851   3.402   3.998   7.573
 5802SOL    HW117852   3.341   3.923   7.596
 5802SOL    HW217853   3.424   4.050   7.656
 5803SOL     OW17854   2.181   4.534   8.397
 5803SOL    HW117855   2.274   4.570   8.402
 5803SOL    HW217856   2.175   4.449   8.449
 5804SOL     OW17857   2.201   4.233   8.454
 5804SOL    HW117858   2.149   4.150   8.437
 5804SOL    HW217859   2.278   4.238   8.390
 5805SOL     OW17860   3.000   4.104   9.126
 5805SOL    HW117861   2.955   4.167   9.190
 5805SOL    HW217862   3.093   4.135   9.109
 5806SOL     OW17863   3.022   3.931   8.925
 5806SOL    HW117864   3.022   3.995   9.002
 5806SOL    HW217865   3.050   3.979   8.842
 5807SOL     OW17866   1.902   4.268   8.562
 5807SOL    HW117867   1.987   4.235   8.521
 5807SOL    HW217868   1.915   4.283   8.660
 5808SOL     OW17869   2.051   4.244   9.170
 5808SOL    HW117870   2.110   4.204   9.100
 5808SOL    HW217871   1.993   4.315   9.129
 5809SOL     OW17872   2.677   4.296   7.773
 5809SOL    HW117873   2.684   4.207   7.727
 5809SOL    HW217874   2.583   4.330   7.765
 5810SOL     OW17875   3.519   4.328   8.654
 5810SOL    HW117876   3.481   4.259   8.716
 5810SOL    HW217877   3.601   4.292   8.610
 5811SOL     OW17878   2.533   4.188   8.717
 5811SOL    HW117879   2.499   4.099   8.687
 5811SOL    HW217880   2.559   4.242   8.637
 5812SOL     OW17881   2.335   4.224   7.639
 5812SOL    HW117882   2.396   4.304   7.643
 5812SOL    HW217883   2.240   4.255   7.646
 5813SOL     OW17884   3.588   3.859   7.971
 5813SOL    HW117885   3.661   3.842   7.904
 5813SOL    HW217886   3.557   3.772   8.009
 5814SOL     OW17887   3.142   4.651   8.120
 5814SOL    HW117888   3.202   4.570   8.122
 5814SOL    HW217889   3.182   4.720   8.060
 5815SOL     OW17890   3.703   3.899   8.411
 5815SOL    HW117891   3.742   3.814   8.375
 5815SOL    HW217892   3.605   3.901   8.392
 5816SOL     OW17893   2.125   4.050   8.168
 5816SOL    HW117894   2.046   4.101   8.134
 5816SOL    HW217895   2.116   4.035   8.266
 5817SOL     OW17896   2.778   4.634   7.739
 5817SOL    HW117897   2.841   4.672   7.671
 5817SOL    HW217898   2.818   4.551   7.778
 5818SOL     OW17899   2.901   4.822   8.144
 5818SOL    HW117900   2.831   4.775   8.198
 5818SOL    HW217901   2.960   4.754   8.101
 5819SOL     OW17902   2.876   3.960   8.419
 5819SOL    HW117903   2.868   3.924   8.326
 5819SOL    HW217904   2.874   3.884   8.484
 5820SOL     OW17905   3.571   4.109   8.829
 5820SOL    HW117906   3.644   4.178   8.833
 5820SOL    HW217907   3.599   4.034   8.770
 5821SOL     OW17908   2.534   3.927   8.937
 5821SOL    HW117909   2.624   3.911   8.897
 5821SOL    HW217910   2.542   3.932   9.036
 5822SOL     OW17911   1.937   4.069   7.481
 5822SOL    HW117912   1.845   4.041   7.452
 5822SOL    HW217913   1.968   4.146   7.425
 5823SOL     OW17914   1.934   3.890   7.766
 5823SOL    HW117915   1.917   3.973   7.712
 5823SOL    HW217916   2.024   3.853   7.744
 5824SOL     OW17917   2.578   4.289   9.156
 5824SOL    HW117918   2.597   4.354   9.230
 5824SOL    HW217919   2.638   4.209   9.165
 5825SOL     OW17920   3.087   4.049   7.897
 5825SOL    HW117921   3.152   3.975   7.886
 5825SOL    HW217922   3.107   4.099   7.981
 5826SOL     OW17923   3.639   4.066   9.090
 5826SOL    HW117924   3.622   4.097   8.996
 5826SOL    HW217925   3.555   4.029   9.128
 5827SOL     OW17926   2.945   4.708   7.535
 5827SOL    HW117927   2.922   4.761   7.453
 5827SOL    HW217928   3.026   4.652   7.516
 5828SOL     OW17929   3.686   3.916   8.675
 5828SOL    HW117930   3.682   3.826   8.719
 5828SOL    HW217931   3.689   3.905   8.576
 5829SOL     OW17932   2.290   4.148   7.968
 5829SOL    HW117933   2.320   4.076   7.906
 5829SOL    HW217934   2.251   4.108   8.051
 5830SOL     OW17935   2.179   4.271   8.728
 5830SOL    HW117936   2.217   4.212   8.800
 5830SOL    HW217937   2.219   4.245   8.640
 5831SOL     OW17938   3.286   3.938   8.560
 5831SOL    HW117939   3.338   3.873   8.615
 5831SOL    HW217940   3.237   4.001   8.621
 5832SOL     OW17941   2.863   3.758   8.602
 5832SOL    HW117942   2.800   3.686   8.571
 5832SOL    HW217943   2.956   3.722   8.602
 5833SOL     OW17944   3.214   3.776   7.616
 5833SOL    HW117945   3.249   3.735   7.532
 5833SOL    HW217946   3.124   3.738   7.636
 5834SOL     OW17947   3.162   4.177   8.139
 5834SOL    HW117948   3.103   4.257   8.143
 5834SOL    HW217949   3.177   4.142   8.232
 5835SOL     OW17950   3.455   3.945   8.330
 5835SOL    HW117951   3.371   3.944   8.384
 5835SOL    HW217952   3.457   4.028   8.274
 5836SOL     OW17953   2.092   4.352   9.423
 5836SOL    HW117954   1.999   4.350   9.460
 5836SOL    HW217955   2.093   4.313   9.331
 5837SOL     OW17956   2.087   3.999  10.306
 5837SOL    HW117957   2.122   3.982  10.398
 5837SOL    HW217958   1.999   3.954  10.294
 5838SOL     OW17959   1.881   4.092   9.957
 5838SOL    HW117960   1.799   4.135   9.996
 5838SOL    HW217961   1.853   4.019   9.894
 5839SOL     OW17962   3.617   4.331   9.541
 5839SOL    HW117963   3.605   4.318   9.442
 5839SOL    HW217964   3.587   4.250   9.590
 5840SOL     OW17965   2.547   4.736   9.975
 5840SOL    HW117966   2.616   4.720  10.045
 5840SOL    HW217967   2.474   4.793  10.013
 5841SOL     OW17968   2.300   4.116  10.809
 5841SOL    HW117969   2.382   4.060  10.818
 5841SOL    HW217970   2.219   4.058  10.813
 5842SOL     OW17971   3.465   4.171  10.047
 5842SOL    HW117972   3.391   4.217   9.997
 5842SOL    HW217973   3.516   4.239  10.100
 5843SOL     OW17974   3.456   3.838  10.790
 5843SOL    HW117975   3.438   3.905  10.718
 5843SOL    HW217976   3.453   3.884  10.879
 5844SOL     OW17977   1.984   4.367   9.873
 5844SOL    HW117978   1.939   4.279   9.890
 5844SOL    HW217979   1.983   4.421   9.957
 5845SOL     OW17980   1.975   4.461  10.907
 5845SOL    HW117981   2.063   4.448  10.952
 5845SOL    HW217982   1.962   4.558  10.885
 5846SOL     OW17983   2.671   3.728   9.812
 5846SOL    HW117984   2.711   3.819   9.803
 5846SOL    HW217985   2.571   3.736   9.818
 5847SOL     OW17986   2.179   3.975  11.111
 5847SOL    HW117987   2.250   4.046  11.117
 5847SOL    HW217988   2.091   4.014  11.139
 5848SOL     OW17989   3.143   4.069  10.254
 5848SOL    HW117990   3.057   4.019  10.241
 5848SOL    HW217991   3.205   4.015  10.310
 5849SOL     OW17992   2.669   4.329  10.775
 5849SOL    HW117993   2.622   4.326  10.864
 5849SOL    HW217994   2.618   4.274  10.709
 5850SOL     OW17995   2.853   4.134  10.552
 5850SOL    HW117996   2.776   4.168  10.606
 5850SOL    HW217997   2.819   4.083  10.473
 5851SOL     OW17998   2.903   4.425   9.739
 5851SOL    HW117999   2.929   4.421   9.835
 5851SOL    HW218000   2.818   4.374   9.725
 5852SOL     OW18001   2.727   4.072   9.505
 5852SOL    HW118002   2.786   4.135   9.456
 5852SOL    HW218003   2.746   3.978   9.476
 5853SOL     OW18004   2.412   3.920  10.195
 5853SOL    HW118005   2.407   3.915  10.295
 5853SOL    HW218006   2.414   4.016  10.166
 5854SOL     OW18007   3.320   4.459  10.038
 5854SOL    HW118008   3.315   4.394  10.113
 5854SOL    HW218009   3.400   4.518  10.051
 5855SOL     OW18010   2.064   4.009  10.808
 5855SOL    HW118011   1.984   4.069  10.795
 5855SOL    HW218012   2.054   3.960  10.894
 5856SOL     OW18013   3.262   3.831   9.736
 5856SOL    HW118014   3.238   3.794   9.646
 5856SOL    HW218015   3.361   3.847   9.740
 5857SOL     OW18016   2.244   4.424   9.790
 5857SOL    HW118017   2.289   4.334   9.787
 5857SOL    HW218018   2.150   4.413   9.823
 5858SOL     OW18019   2.476   3.846   9.427
 5858SOL    HW118020   2.574   3.824   9.434
 5858SOL    HW218021   2.445   3.829   9.334
 5859SOL     OW18022   2.643   3.988  11.059
 5859SOL    HW118023   2.710   3.927  11.102
 5859SOL    HW218024   2.570   4.007  11.124
 5860SOL     OW18025   3.213   4.314  10.743
 5860SOL    HW118026   3.241   4.271  10.828
 5860SOL    HW218027   3.238   4.410  10.744
 5861SOL     OW18028   2.784   4.227  10.209
 5861SOL    HW118029   2.759   4.218  10.113
 5861SOL    HW218030   2.832   4.145  10.240
 5862SOL     OW18031   2.401   3.788   9.822
 5862SOL    HW118032   2.320   3.789   9.880
 5862SOL    HW218033   2.404   3.871   9.767
 5863SOL     OW18034   2.159   3.759   9.481
 5863SOL    HW118035   2.208   3.843   9.460
 5863SOL    HW218036   2.221   3.694   9.526
 5864SOL     OW18037   2.797   3.960   9.790
 5864SOL    HW118038   2.749   4.001   9.712
 5864SOL    HW218039   2.896   3.958   9.771
 5865SOL     OW18040   2.938   4.407  10.774
 5865SOL    HW118041   2.858   4.346  10.777
 5865SOL    HW218042   3.019   4.354  10.750
 5866SOL     OW18043   2.894   4.273   9.326
 5866SOL    HW118044   2.853   4.355   9.287
 5866SOL    HW218045   2.958   4.299   9.399
 5867SOL     OW18046   1.940   4.280  10.696
 5867SOL    HW118047   2.032   4.279  10.655
 5867SOL    HW218048   1.934   4.354  10.763
 5868SOL     OW18049   2.423   3.946  10.457
 5868SOL    HW118050   2.461   3.862  10.494
 5868SOL    HW218051   2.335   3.965  10.501
 5869SOL     OW18052   2.728   4.178   9.952
 5869SOL    HW118053   2.696   4.250   9.890
 5869SOL    HW218054   2.752   4.097   9.899
 5870SOL     OW18055   2.879   3.763  10.063
 5870SOL    HW118056   2.807   3.768   9.994
 5870SOL    HW218057   2.855   3.694  10.132
 5871SOL     OW18058   3.328   4.314  10.302
 5871SOL    HW118059   3.298   4.219  10.309
 5871SOL    HW218060   3.401   4.330  10.368
 5872SOL     OW18061   3.252   4.299   9.388
 5872SOL    HW118062   3.198   4.278   9.469
 5872SOL    HW218063   3.343   4.258   9.397
 5873SOL     OW18064   2.389   3.980   9.638
 5873SOL    HW118065   2.416   3.921   9.563
 5873SOL    HW218066   2.389   4.075   9.607
 5874SOL     OW18067   2.777   3.813  10.712
 5874SOL    HW118068   2.802   3.793  10.617
 5874SOL    HW218069   2.849   3.869  10.754
 5875SOL     OW18070   2.272   4.537  10.561
 5875SOL    HW118071   2.358   4.549  10.611
 5875SOL    HW218072   2.230   4.450  10.588
 5876SOL     OW18073   3.136   4.110  10.572
 5876SOL    HW118074   3.157   4.184  10.636
 5876SOL    HW218075   3.047   4.127  10.529
 5877SOL     OW18076   2.428   4.261  10.175
 5877SOL    HW118077   2.440   4.327  10.101
 5877SOL    HW218078   2.474   4.295  10.258
 5878SOL     OW18079   3.444   4.363   9.782
 5878SOL    HW118080   3.413   4.424   9.855
 5878SOL    HW218081   3.494   4.415   9.713
 5879SOL     OW18082   2.264   4.475  10.908
 5879SOL    HW118083   2.332   4.530  10.861
 5879SOL    HW218084   2.304   4.387  10.935
 5880SOL     OW18085   3.071   4.249   9.585
 5880SOL    HW118086   3.084   4.165   9.639
 5880SOL    HW218087   3.042   4.323   9.645
 5881SOL     OW18088   2.169   3.937  10.541
 5881SOL    HW118089   2.146   3.974  10.631
 5881SOL    HW218090   2.139   3.842  10.535
 5882SOL     OW18091   2.594   4.358  10.374
 5882SOL    HW118092   2.653   4.332  10.298
 5882SOL    HW218093   2.566   4.454  10.363
 5883SOL     OW18094   2.169   3.787   9.928
 5883SOL    HW118095   2.158   3.881   9.961
 5883SOL    HW218096   2.164   3.724  10.005
 5884SOL     OW18097   3.484   4.091   9.684
 5884SOL    HW118098   3.486   4.015   9.748
 5884SOL    HW218099   3.436   4.168   9.724
 5885SOL     OW18100   3.402   3.998   9.435
 5885SOL    HW118101   3.341   3.923   9.458
 5885SOL    HW218102   3.424   4.050   9.518
 5886SOL     OW18103   2.181   4.534  10.259
 5886SOL    HW118104   2.274   4.570  10.264
 5886SOL    HW218105   2.175   4.449  10.311
 5887SOL     OW18106   2.201   4.233  10.316
 5887SOL    HW118107   2.149   4.150  10.299
 5887SOL    HW218108   2.278   4.238  10.252
 5888SOL     OW18109   3.022   3.931  10.787
 5888SOL    HW118110   3.022   3.995  10.864
 5888SOL    HW218111   3.050   3.979  10.704
 5889SOL     OW18112   1.902   4.268  10.424
 5889SOL    HW118113   1.987   4.235  10.383
 5889SOL    HW218114   1.915   4.283  10.522
 5890SOL     OW18115   3.231   4.674  10.970
 5890SOL    HW118116   3.270   4.763  10.990
 5890SOL    HW218117   3.241   4.654  10.873
 5891SOL     OW18118   2.677   4.296   9.635
 5891SOL    HW118119   2.684   4.207   9.589
 5891SOL    HW218120   2.583   4.330   9.627
 5892SOL     OW18121   3.519   4.328  10.516
 5892SOL    HW118122   3.481   4.259  10.578
 5892SOL    HW218123   3.601   4.292  10.472
 5893SOL     OW18124   2.533   4.188  10.579
 5893SOL    HW118125   2.499   4.099  10.549
 5893SOL    HW218126   2.559   4.242  10.499
 5894SOL     OW18127   2.335   4.224   9.501
 5894SOL    HW118128   2.396   4.304   9.505
 5894SOL    HW218129   2.240   4.255   9.508
 5895SOL     OW18130   3.588   3.859   9.833
 5895SOL    HW118131   3.661   3.842   9.766
 5895SOL    HW218132   3.557   3.772   9.871
 5896SOL     OW18133   3.142   4.651   9.982
 5896SOL    HW118134   3.202   4.570   9.984
 5896SOL    HW218135   3.182   4.720   9.922
 5897SOL     OW18136   3.703   3.899  10.273
 5897SOL    HW118137   3.742   3.814  10.237
 5897SOL    HW218138   3.605   3.901  10.254
 5898SOL     OW18139   2.125   4.050  10.030
 5898SOL    HW118140   2.046   4.101   9.996
 5898SOL    HW218141   2.116   4.035  10.128
 5899SOL     OW18142   2.778   4.634   9.601
 5899SOL    HW118143   2.841   4.672   9.533
 5899SOL    HW218144   2.818   4.551   9.640
 5900SOL     OW18145   2.901   4.822  10.006
 5900SOL    HW118146   2.831   4.775  10.060
 5900SOL    HW218147   2.960   4.754   9.963
 5901SOL     OW18148   2.876   3.960  10.281
 5901SOL    HW118149   2.868   3.924  10.188
 5901SOL    HW218150   2.874   3.884  10.346
 5902SOL     OW18151   3.571   4.109  10.691
 5902SOL    HW118152   3.644   4.178  10.695
 5902SOL    HW218153   3.599   4.034  10.632
 5903SOL     OW18154   2.534   3.927  10.799
 5903SOL    HW118155   2.624   3.911  10.759
 5903SOL    HW218156   2.542   3.932  10.898
 5904SOL     OW18157   1.937   4.069   9.343
 5904SOL    HW118158   1.845   4.041   9.314
 5904SOL    HW218159   1.968   4.146   9.287
 5905SOL     OW18160   1.934   3.890   9.628
 5905SOL    HW118161   1.917   3.973   9.574
 5905SOL    HW218162   2.024   3.853   9.606
 5906SOL     OW18163   2.578   4.289  11.018
 5906SOL    HW118164   2.597   4.354  11.092
 5906SOL    HW218165   2.638   4.209  11.027
 5907SOL     OW18166   3.087   4.049   9.759
 5907SOL    HW118167   3.152   3.975   9.748
 5907SOL    HW218168   3.107   4.099   9.843
 5908SOL     OW18169   3.639   4.066  10.952
 5908SOL    HW118170   3.622   4.097  10.858
 5908SOL    HW218171   3.555   4.029  10.990
 5909SOL     OW18172   2.945   4.708   9.397
 5909SOL    HW118173   2.922   4.761   9.315
 5909SOL    HW218174   3.026   4.652   9.378
 5910SOL     OW18175   3.686   3.916  10.537
 5910SOL    HW118176   3.682   3.826  10.581
 5910SOL    HW218177   3.689   3.905  10.438
 5911SOL     OW18178   2.290   4.148   9.830
 5911SOL    HW118179   2.320   4.076   9.768
 5911SOL    HW218180   2.251   4.108   9.913
 5912SOL     OW18181   2.179   4.271  10.590
 5912SOL    HW118182   2.217   4.212  10.662
 5912SOL    HW218183   2.219   4.245  10.502
 5913SOL     OW18184   3.286   3.938  10.422
 5913SOL    HW118185   3.338   3.873  10.477
 5913SOL    HW218186   3.237   4.001  10.483
 5914SOL     OW18187   2.863   3.758  10.464
 5914SOL    HW118188   2.800   3.686  10.433
 5914SOL    HW218189   2.956   3.722  10.464
 5915SOL     OW18190   3.214   3.776   9.478
 5915SOL    HW118191   3.249   3.735   9.394
 5915SOL    HW218192   3.124   3.738   9.498
 5916SOL     OW18193   3.162   4.177  10.001
 5916SOL    HW118194   3.103   4.257  10.005
 5916SOL    HW218195   3.177   4.142  10.094
 5917SOL     OW18196   3.455   3.945  10.192
 5917SOL    HW118197   3.371   3.944  10.246
 5917SOL    HW218198   3.457   4.028  10.136
 5918SOL     OW18199   3.954   0.628   0.113
 5918SOL    HW118200   3.861   0.626   0.150
 5918SOL    HW218201   3.955   0.589   0.021
 5919SOL     OW18202   3.949   0.275   0.996
 5919SOL    HW118203   3.984   0.258   1.088
 5919SOL    HW218204   3.861   0.230   0.984
 5920SOL     OW18205   3.743   0.368   0.647
 5920SOL    HW118206   3.661   0.411   0.686
 5920SOL    HW218207   3.715   0.295   0.584
 5921SOL     OW18208   4.293   1.275   1.165
 5921SOL    HW118209   4.200   1.268   1.128
 5921SOL    HW218210   4.304   1.364   1.209
 5922SOL     OW18211   4.574   0.798   1.823
 5922SOL    HW118212   4.570   0.874   1.888
 5922SOL    HW218213   4.596   0.834   1.732
 5923SOL     OW18214   4.409   1.012   0.665
 5923SOL    HW118215   4.478   0.996   0.735
 5923SOL    HW218216   4.336   1.069   0.703
 5924SOL     OW18217   4.410   1.161   1.803
 5924SOL    HW118218   4.470   1.240   1.817
 5924SOL    HW218219   4.324   1.192   1.762
 5925SOL     OW18220   4.059   1.435   1.061
 5925SOL    HW118221   3.981   1.404   1.008
 5925SOL    HW218222   4.117   1.493   1.004
 5926SOL     OW18223   4.162   0.392   1.499
 5926SOL    HW118224   4.244   0.336   1.508
 5926SOL    HW218225   4.081   0.334   1.503
 5927SOL     OW18226   3.955   1.713   0.483
 5927SOL    HW118227   3.989   1.790   0.537
 5927SOL    HW218228   3.999   1.713   0.393
 5928SOL     OW18229   3.954   1.434   0.538
 5928SOL    HW118230   3.928   1.530   0.538
 5928SOL    HW218231   3.883   1.380   0.583
 5929SOL     OW18232   3.964   1.091   0.886
 5929SOL    HW118233   3.978   1.007   0.938
 5929SOL    HW218234   3.909   1.155   0.941
 5930SOL     OW18235   4.344   1.786   1.439
 5930SOL    HW118236   4.252   1.769   1.474
 5930SOL    HW218237   4.372   1.878   1.465
 5931SOL     OW18238   4.330   0.964   0.123
 5931SOL    HW118239   4.337   1.048   0.069
 5931SOL    HW218240   4.376   0.977   0.211
 5932SOL     OW18241   3.846   0.643   0.563
 5932SOL    HW118242   3.801   0.555   0.580
 5932SOL    HW218243   3.845   0.697   0.647
 5933SOL     OW18244   3.751   1.596   0.117
 5933SOL    HW118245   3.732   1.500   0.138
 5933SOL    HW218246   3.718   1.654   0.192
 5934SOL     OW18247   3.837   0.737   1.597
 5934SOL    HW118248   3.925   0.724   1.642
 5934SOL    HW218249   3.824   0.834   1.575
 5935SOL     OW18250   4.337   1.365   0.726
 5935SOL    HW118251   4.288   1.278   0.735
 5935SOL    HW218252   4.314   1.408   0.639
 5936SOL     OW18253   4.533   0.004   0.502
 5936SOL    HW118254   4.573   0.095   0.493
 5936SOL    HW218255   4.433   0.012   0.508
 5937SOL     OW18256   3.921   0.976   1.264
 5937SOL    HW118257   4.010   0.931   1.250
 5937SOL    HW218258   3.848   0.911   1.245
 5938SOL     OW18259   4.041   0.251   1.801
 5938SOL    HW118260   4.112   0.322   1.807
 5938SOL    HW218261   3.953   0.290   1.829
 5939SOL     OW18262   4.322   0.729   0.270
 5939SOL    HW118263   4.346   0.798   0.202
 5939SOL    HW218264   4.244   0.762   0.324
 5940SOL     OW18265   3.800   0.811   0.789
 5940SOL    HW118266   3.899   0.799   0.798
 5940SOL    HW218267   3.776   0.906   0.810
 5941SOL     OW18268   3.854   1.821   1.571
 5941SOL    HW118269   3.844   1.806   1.670
 5941SOL    HW218270   3.768   1.857   1.535
 5942SOL     OW18271   4.274   0.196   0.885
 5942SOL    HW118272   4.269   0.191   0.985
 5942SOL    HW218273   4.276   0.292   0.856
 5943SOL     OW18274   4.075   1.801   0.853
 5943SOL    HW118275   4.125   1.715   0.859
 5943SOL    HW218276   4.140   1.878   0.850
 5944SOL     OW18277   4.045   0.943   0.242
 5944SOL    HW118278   4.127   0.982   0.200
 5944SOL    HW218279   4.018   0.861   0.193
 5945SOL     OW18280   4.185   1.266   1.727
 5945SOL    HW118281   4.135   1.267   1.641
 5945SOL    HW218282   4.122   1.248   1.803
 5946SOL     OW18283   3.926   0.285   1.498
 5946SOL    HW118284   3.846   0.345   1.485
 5946SOL    HW218285   3.916   0.236   1.584
 5947SOL     OW18286   4.188   1.743   0.323
 5947SOL    HW118287   4.221   1.782   0.409
 5947SOL    HW218288   4.264   1.736   0.258
 5948SOL     OW18289   3.973   1.785   1.241
 5948SOL    HW118290   4.030   1.720   1.291
 5948SOL    HW218291   3.957   1.752   1.148
 5949SOL     OW18292   4.106   0.700   0.480
 5949SOL    HW118293   4.151   0.610   0.477
 5949SOL    HW218294   4.012   0.689   0.513
 5950SOL     OW18295   4.338   0.122   0.117
 5950SOL    HW118296   4.436   0.100   0.124
 5950SOL    HW218297   4.307   0.105   0.024
 5951SOL     OW18298   4.527   1.402   0.924
 5951SOL    HW118299   4.617   1.416   0.882
 5951SOL    HW218300   4.456   1.404   0.853
 5952SOL     OW18301   4.263   0.064   0.512
 5952SOL    HW118302   4.182   0.065   0.570
 5952SOL    HW218303   4.266   0.147   0.457
 5953SOL     OW18304   4.021   0.035   0.171
 5953SOL    HW118305   4.070   0.119   0.150
 5953SOL    HW218306   4.083  -0.030   0.216
 5954SOL     OW18307   4.800   0.683   1.464
 5954SOL    HW118308   4.720   0.622   1.467
 5954SOL    HW218309   4.881   0.630   1.440
 5955SOL     OW18310   4.183   1.152   0.741
 5955SOL    HW118311   4.112   1.125   0.806
 5955SOL    HW218312   4.157   1.124   0.648
 5956SOL     OW18313   3.802   0.556   1.386
 5956SOL    HW118314   3.894   0.555   1.345
 5956SOL    HW218315   3.796   0.630   1.453
 5957SOL     OW18316   4.285   0.222   1.147
 5957SOL    HW118317   4.323   0.138   1.184
 5957SOL    HW218318   4.197   0.241   1.191
 5958SOL     OW18319   4.212   1.385   0.174
 5958SOL    HW118320   4.125   1.370   0.221
 5958SOL    HW218321   4.195   1.411   0.079
 5959SOL     OW18322   4.251   0.256   0.328
 5959SOL    HW118323   4.278   0.197   0.253
 5959SOL    HW218324   4.251   0.351   0.297
 5960SOL     OW18325   4.134   0.813   1.251
 5960SOL    HW118326   4.220   0.825   1.301
 5960SOL    HW218327   4.092   0.726   1.278
 5961SOL     OW18328   3.788   1.564   1.331
 5961SOL    HW118329   3.742   1.646   1.297
 5961SOL    HW218330   3.886   1.583   1.340
 5962SOL     OW18331   4.091   1.100   0.501
 5962SOL    HW118332   4.084   1.183   0.445
 5962SOL    HW218333   4.095   1.020   0.441
 5963SOL     OW18334   4.290   0.537   0.865
 5963SOL    HW118335   4.302   0.603   0.791
 5963SOL    HW218336   4.336   0.571   0.948
 5964SOL     OW18337   4.078   1.510   1.329
 5964SOL    HW118338   4.057   1.466   1.242
 5964SOL    HW218339   4.175   1.536   1.332
 5965SOL     OW18340   4.126   0.751   1.598
 5965SOL    HW118341   4.194   0.806   1.551
 5965SOL    HW218342   4.166   0.663   1.625
 5966SOL     OW18343   4.228   0.050   1.740
 5966SOL    HW118344   4.186  -0.007   1.670
 5966SOL    HW218345   4.162   0.119   1.772
 5967SOL     OW18346   4.297   0.870   1.029
 5967SOL    HW118347   4.341   0.959   1.020
 5967SOL    HW218348   4.234   0.870   1.106
 5968SOL     OW18349   4.031   0.213   1.231
 5968SOL    HW118350   4.008   0.250   1.321
 5968SOL    HW218351   4.001   0.118   1.225
 5969SOL     OW18352   3.761   1.310   1.282
 5969SOL    HW118353   3.814   1.261   1.350
 5969SOL    HW218354   3.783   1.408   1.287
 5970SOL     OW18355   4.031   0.063   0.618
 5970SOL    HW118356   4.020   0.157   0.651
 5970SOL    HW218357   4.026   0.000   0.695
 5971SOL     OW18358   4.074   0.898   1.804
 5971SOL    HW118359   4.150   0.942   1.852
 5971SOL    HW218360   4.109   0.851   1.722
 5972SOL     OW18361   4.043   0.810   0.949
 5972SOL    HW118362   4.136   0.846   0.954
 5972SOL    HW218363   4.037   0.725   1.001
 5973SOL     OW18364   4.063   0.509   1.006
 5973SOL    HW118365   4.011   0.426   0.989
 5973SOL    HW218366   4.140   0.514   0.942
 5974SOL     OW18367   3.732   1.326   0.200
 5974SOL    HW118368   3.639   1.347   0.169
 5974SOL    HW218369   3.742   1.227   0.213
 5975SOL     OW18370   3.812   1.801   0.927
 5975SOL    HW118371   3.770   1.715   0.900
 5975SOL    HW218372   3.906   1.804   0.893
 5976SOL     OW18373   4.228   1.568   0.910
 5976SOL    HW118374   4.294   1.642   0.919
 5976SOL    HW218375   4.272   1.489   0.868
 5977SOL     OW18376   3.764   0.544   1.114
 5977SOL    HW118377   3.849   0.511   1.073
 5977SOL    HW218378   3.777   0.559   1.212
 5978SOL     OW18379   3.913   0.520   1.722
 5978SOL    HW118380   3.972   0.480   1.652
 5978SOL    HW218381   3.855   0.591   1.681
 5979SOL     OW18382   4.539   0.572   0.325
 5979SOL    HW118383   4.546   0.483   0.279
 5979SOL    HW218384   4.445   0.606   0.317
 5980SOL     OW18385   3.976   1.564   1.744
 5980SOL    HW118386   3.946   1.621   1.820
 5980SOL    HW218387   3.969   1.467   1.770
 5981SOL     OW18388   4.197   0.500   0.191
 5981SOL    HW118389   4.258   0.580   0.195
 5981SOL    HW218390   4.102   0.531   0.198
 5982SOL     OW18391   3.883   1.137   1.466
 5982SOL    HW118392   3.905   1.076   1.542
 5982SOL    HW218393   3.893   1.088   1.380
 5983SOL     OW18394   3.807   1.258   1.022
 5983SOL    HW118395   3.802   1.257   1.122
 5983SOL    HW218396   3.724   1.217   0.984
 5984SOL     OW18397   4.412   1.662   1.716
 5984SOL    HW118398   4.356   1.743   1.725
 5984SOL    HW218399   4.464   1.666   1.630
 5985SOL     OW18400   3.854   1.794   1.851
 5985SOL    HW118401   3.813   1.720   1.904
 5985SOL    HW218402   3.918   1.845   1.909
 5986SOL     OW18403   3.987   0.326   0.720
 5986SOL    HW118404   3.908   0.377   0.686
 5986SOL    HW218405   3.978   0.311   0.818
 5987SOL     OW18406   4.096   1.288   1.490
 5987SOL    HW118407   4.083   1.381   1.456
 5987SOL    HW218408   4.012   1.236   1.477
 5988SOL     OW18409   4.314   1.487   0.491
 5988SOL    HW118410   4.356   1.429   0.421
 5988SOL    HW218411   4.270   1.566   0.447
 5989SOL     OW18412   3.979   1.348   0.290
 5989SOL    HW118413   3.883   1.349   0.263
 5989SOL    HW218414   3.991   1.401   0.374
 5990SOL     OW18415   3.829   1.013   1.726
 5990SOL    HW118416   3.752   0.980   1.780
 5990SOL    HW218417   3.914   0.983   1.768
 5991SOL     OW18418   4.396   0.203   1.489
 5991SOL    HW118419   4.486   0.187   1.449
 5991SOL    HW218420   4.404   0.208   1.588
 5992SOL     OW18421   3.799   0.345   0.033
 5992SOL    HW118422   3.707   0.317   0.004
 5992SOL    HW218423   3.830   0.422  -0.023
 5993SOL     OW18424   3.796   0.166   0.318
 5993SOL    HW118425   3.779   0.249   0.264
 5993SOL    HW218426   3.886   0.129   0.296
 5994SOL     OW18427   4.337   0.842   1.431
 5994SOL    HW118428   4.393   0.923   1.414
 5994SOL    HW218429   4.396   0.762   1.434
 5995SOL     OW18430   4.440   0.565   1.708
 5995SOL    HW118431   4.459   0.630   1.782
 5995SOL    HW218432   4.500   0.485   1.717
 5996SOL     OW18433   4.114   1.741   1.560
 5996SOL    HW118434   4.023   1.782   1.558
 5996SOL    HW218435   4.107   1.647   1.592
 5997SOL     OW18436   4.318   0.745   0.652
 5997SOL    HW118437   4.368   0.830   0.633
 5997SOL    HW218438   4.230   0.747   0.604
 5998SOL     OW18439   3.945   1.314   1.844
 5998SOL    HW118440   3.880   1.241   1.823
 5998SOL    HW218441   3.949   1.328   1.942
 5999SOL     OW18442   3.803   1.240   0.653
 5999SOL    HW118443   3.802   1.193   0.741
 5999SOL    HW218444   3.885   1.212   0.602
 6000SOL     OW18445   4.396   1.391   1.624
 6000SOL    HW118446   4.318   1.341   1.662
 6000SOL    HW218447   4.393   1.486   1.655
 6001SOL     OW18448   4.152   0.424   0.520
 6001SOL    HW118449   4.182   0.352   0.458
 6001SOL    HW218450   4.113   0.384   0.603
 6002SOL     OW18451   4.041   0.547   1.280
 6002SOL    HW118452   4.079   0.488   1.352
 6002SOL    HW218453   4.081   0.521   1.192
 6003SOL     OW18454   4.536   1.586   0.687
 6003SOL    HW118455   4.568   1.596   0.593
 6003SOL    HW218456   4.457   1.524   0.689
 6004SOL     OW18457   3.763   1.077   0.300
 6004SOL    HW118458   3.862   1.066   0.291
 6004SOL    HW218459   3.723   0.991   0.332
 6005SOL     OW18460   3.954   0.628   1.975
 6005SOL    HW118461   3.861   0.626   2.012
 6005SOL    HW218462   3.955   0.589   1.883
 6006SOL     OW18463   3.949   0.275   2.858
 6006SOL    HW118464   3.984   0.258   2.950
 6006SOL    HW218465   3.861   0.230   2.846
 6007SOL     OW18466   3.743   0.368   2.509
 6007SOL    HW118467   3.661   0.411   2.548
 6007SOL    HW218468   3.715   0.295   2.446
 6008SOL     OW18469   4.293   1.275   3.027
 6008SOL    HW118470   4.200   1.268   2.990
 6008SOL    HW218471   4.304   1.364   3.071
 6009SOL     OW18472   4.574   0.798   3.685
 6009SOL    HW118473   4.570   0.874   3.750
 6009SOL    HW218474   4.596   0.834   3.594
 6010SOL     OW18475   4.409   1.012   2.527
 6010SOL    HW118476   4.478   0.996   2.597
 6010SOL    HW218477   4.336   1.069   2.565
 6011SOL     OW18478   4.410   1.161   3.665
 6011SOL    HW118479   4.470   1.240   3.679
 6011SOL    HW218480   4.324   1.192   3.624
 6012SOL     OW18481   4.059   1.435   2.923
 6012SOL    HW118482   3.981   1.404   2.870
 6012SOL    HW218483   4.117   1.493   2.866
 6013SOL     OW18484   4.162   0.392   3.361
 6013SOL    HW118485   4.244   0.336   3.370
 6013SOL    HW218486   4.081   0.334   3.365
 6014SOL     OW18487   3.955   1.713   2.345
 6014SOL    HW118488   3.989   1.790   2.399
 6014SOL    HW218489   3.999   1.713   2.255
 6015SOL     OW18490   3.954   1.434   2.400
 6015SOL    HW118491   3.928   1.530   2.400
 6015SOL    HW218492   3.883   1.380   2.445
 6016SOL     OW18493   3.964   1.091   2.748
 6016SOL    HW118494   3.978   1.007   2.800
 6016SOL    HW218495   3.909   1.155   2.803
 6017SOL     OW18496   4.344   1.786   3.301
 6017SOL    HW118497   4.252   1.769   3.336
 6017SOL    HW218498   4.372   1.878   3.327
 6018SOL     OW18499   4.330   0.964   1.985
 6018SOL    HW118500   4.337   1.048   1.931
 6018SOL    HW218501   4.376   0.977   2.073
 6019SOL     OW18502   3.846   0.643   2.425
 6019SOL    HW118503   3.801   0.555   2.442
 6019SOL    HW218504   3.845   0.697   2.509
 6020SOL     OW18505   3.751   1.596   1.979
 6020SOL    HW118506   3.732   1.500   2.000
 6020SOL    HW218507   3.718   1.654   2.054
 6021SOL     OW18508   3.837   0.737   3.459
 6021SOL    HW118509   3.925   0.724   3.504
 6021SOL    HW218510   3.824   0.834   3.437
 6022SOL     OW18511   4.337   1.365   2.588
 6022SOL    HW118512   4.288   1.278   2.597
 6022SOL    HW218513   4.314   1.408   2.501
 6023SOL     OW18514   4.533   0.004   2.364
 6023SOL    HW118515   4.573   0.095   2.355
 6023SOL    HW218516   4.433   0.012   2.370
 6024SOL     OW18517   3.921   0.976   3.126
 6024SOL    HW118518   4.010   0.931   3.112
 6024SOL    HW218519   3.848   0.911   3.107
 6025SOL     OW18520   4.041   0.251   3.663
 6025SOL    HW118521   4.112   0.322   3.669
 6025SOL    HW218522   3.953   0.290   3.691
 6026SOL     OW18523   4.322   0.729   2.132
 6026SOL    HW118524   4.346   0.798   2.064
 6026SOL    HW218525   4.244   0.762   2.186
 6027SOL     OW18526   3.800   0.811   2.651
 6027SOL    HW118527   3.899   0.799   2.660
 6027SOL    HW218528   3.776   0.906   2.672
 6028SOL     OW18529   3.854   1.821   3.433
 6028SOL    HW118530   3.844   1.806   3.532
 6028SOL    HW218531   3.768   1.857   3.397
 6029SOL     OW18532   4.274   0.196   2.747
 6029SOL    HW118533   4.269   0.191   2.847
 6029SOL    HW218534   4.276   0.292   2.718
 6030SOL     OW18535   4.075   1.801   2.715
 6030SOL    HW118536   4.125   1.715   2.721
 6030SOL    HW218537   4.140   1.878   2.712
 6031SOL     OW18538   4.045   0.943   2.104
 6031SOL    HW118539   4.127   0.982   2.062
 6031SOL    HW218540   4.018   0.861   2.055
 6032SOL     OW18541   4.185   1.266   3.589
 6032SOL    HW118542   4.135   1.267   3.503
 6032SOL    HW218543   4.122   1.248   3.665
 6033SOL     OW18544   3.926   0.285   3.360
 6033SOL    HW118545   3.846   0.345   3.347
 6033SOL    HW218546   3.916   0.236   3.446
 6034SOL     OW18547   4.188   1.743   2.185
 6034SOL    HW118548   4.221   1.782   2.271
 6034SOL    HW218549   4.264   1.736   2.120
 6035SOL     OW18550   3.973   1.785   3.103
 6035SOL    HW118551   4.030   1.720   3.153
 6035SOL    HW218552   3.957   1.752   3.010
 6036SOL     OW18553   4.106   0.700   2.342
 6036SOL    HW118554   4.151   0.610   2.339
 6036SOL    HW218555   4.012   0.689   2.375
 6037SOL     OW18556   4.338   0.122   1.979
 6037SOL    HW118557   4.436   0.100   1.986
 6037SOL    HW218558   4.307   0.105   1.886
 6038SOL     OW18559   4.527   1.402   2.786
 6038SOL    HW118560   4.617   1.416   2.744
 6038SOL    HW218561   4.456   1.404   2.715
 6039SOL     OW18562   4.263   0.064   2.374
 6039SOL    HW118563   4.182   0.065   2.432
 6039SOL    HW218564   4.266   0.147   2.319
 6040SOL     OW18565   4.021   0.035   2.033
 6040SOL    HW118566   4.070   0.119   2.012
 6040SOL    HW218567   4.083  -0.030   2.078
 6041SOL     OW18568   4.800   0.683   3.326
 6041SOL    HW118569   4.720   0.622   3.329
 6041SOL    HW218570   4.881   0.630   3.302
 6042SOL     OW18571   4.183   1.152   2.603
 6042SOL    HW118572   4.112   1.125   2.668
 6042SOL    HW218573   4.157   1.124   2.510
 6043SOL     OW18574   3.802   0.556   3.248
 6043SOL    HW118575   3.894   0.555   3.207
 6043SOL    HW218576   3.796   0.630   3.315
 6044SOL     OW18577   4.285   0.222   3.009
 6044SOL    HW118578   4.323   0.138   3.046
 6044SOL    HW218579   4.197   0.241   3.053
 6045SOL     OW18580   4.212   1.385   2.036
 6045SOL    HW118581   4.125   1.370   2.083
 6045SOL    HW218582   4.195   1.411   1.941
 6046SOL     OW18583   4.251   0.256   2.190
 6046SOL    HW118584   4.278   0.197   2.115
 6046SOL    HW218585   4.251   0.351   2.159
 6047SOL     OW18586   4.134   0.813   3.113
 6047SOL    HW118587   4.220   0.825   3.163
 6047SOL    HW218588   4.092   0.726   3.140
 6048SOL     OW18589   3.788   1.564   3.193
 6048SOL    HW118590   3.742   1.646   3.159
 6048SOL    HW218591   3.886   1.583   3.202
 6049SOL     OW18592   4.091   1.100   2.363
 6049SOL    HW118593   4.084   1.183   2.307
 6049SOL    HW218594   4.095   1.020   2.303
 6050SOL     OW18595   4.290   0.537   2.727
 6050SOL    HW118596   4.302   0.603   2.653
 6050SOL    HW218597   4.336   0.571   2.810
 6051SOL     OW18598   4.078   1.510   3.191
 6051SOL    HW118599   4.057   1.466   3.104
 6051SOL    HW218600   4.175   1.536   3.194
 6052SOL     OW18601   4.126   0.751   3.460
 6052SOL    HW118602   4.194   0.806   3.413
 6052SOL    HW218603   4.166   0.663   3.487
 6053SOL     OW18604   4.228   0.050   3.602
 6053SOL    HW118605   4.186  -0.007   3.532
 6053SOL    HW218606   4.162   0.119   3.634
 6054SOL     OW18607   4.297   0.870   2.891
 6054SOL    HW118608   4.341   0.959   2.882
 6054SOL    HW218609   4.234   0.870   2.968
 6055SOL     OW18610   4.031   0.213   3.093
 6055SOL    HW118611   4.008   0.250   3.183
 6055SOL    HW218612   4.001   0.118   3.087
 6056SOL     OW18613   3.761   1.310   3.144
 6056SOL    HW118614   3.814   1.261   3.212
 6056SOL    HW218615   3.783   1.408   3.149
 6057SOL     OW18616   4.031   0.063   2.480
 6057SOL    HW118617   4.020   0.157   2.513
 6057SOL    HW218618   4.026   0.000   2.557
 6058SOL     OW18619   4.074   0.898   3.666
 6058SOL    HW118620   4.150   0.942   3.714
 6058SOL    HW218621   4.109   0.851   3.584
 6059SOL     OW18622   4.043   0.810   2.811
 6059SOL    HW118623   4.136   0.846   2.816
 6059SOL    HW218624   4.037   0.725   2.863
 6060SOL     OW18625   4.063   0.509   2.868
 6060SOL    HW118626   4.011   0.426   2.851
 6060SOL    HW218627   4.140   0.514   2.804
 6061SOL     OW18628   3.732   1.326   2.062
 6061SOL    HW118629   3.639   1.347   2.031
 6061SOL    HW218630   3.742   1.227   2.075
 6062SOL     OW18631   3.812   1.801   2.789
 6062SOL    HW118632   3.770   1.715   2.762
 6062SOL    HW218633   3.906   1.804   2.755
 6063SOL     OW18634   4.228   1.568   2.772
 6063SOL    HW118635   4.294   1.642   2.781
 6063SOL    HW218636   4.272   1.489   2.730
 6064SOL     OW18637   3.764   0.544   2.976
 6064SOL    HW118638   3.849   0.511   2.935
 6064SOL    HW218639   3.777   0.559   3.074
 6065SOL     OW18640   3.913   0.520   3.584
 6065SOL    HW118641   3.972   0.480   3.514
 6065SOL    HW218642   3.855   0.591   3.543
 6066SOL     OW18643   4.539   0.572   2.187
 6066SOL    HW118644   4.546   0.483   2.141
 6066SOL    HW218645   4.445   0.606   2.179
 6067SOL     OW18646   3.976   1.564   3.606
 6067SOL    HW118647   3.946   1.621   3.682
 6067SOL    HW218648   3.969   1.467   3.632
 6068SOL     OW18649   4.197   0.500   2.053
 6068SOL    HW118650   4.258   0.580   2.057
 6068SOL    HW218651   4.102   0.531   2.060
 6069SOL     OW18652   3.883   1.137   3.328
 6069SOL    HW118653   3.905   1.076   3.404
 6069SOL    HW218654   3.893   1.088   3.242
 6070SOL     OW18655   3.807   1.258   2.884
 6070SOL    HW118656   3.802   1.257   2.984
 6070SOL    HW218657   3.724   1.217   2.846
 6071SOL     OW18658   4.412   1.662   3.578
 6071SOL    HW118659   4.356   1.743   3.587
 6071SOL    HW218660   4.464   1.666   3.492
 6072SOL     OW18661   3.854   1.794   3.713
 6072SOL    HW118662   3.813   1.720   3.766
 6072SOL    HW218663   3.918   1.845   3.771
 6073SOL     OW18664   3.987   0.326   2.582
 6073SOL    HW118665   3.908   0.377   2.548
 6073SOL    HW218666   3.978   0.311   2.680
 6074SOL     OW18667   4.096   1.288   3.352
 6074SOL    HW118668   4.083   1.381   3.318
 6074SOL    HW218669   4.012   1.236   3.339
 6075SOL     OW18670   4.314   1.487   2.353
 6075SOL    HW118671   4.356   1.429   2.283
 6075SOL    HW218672   4.270   1.566   2.309
 6076SOL     OW18673   3.979   1.348   2.152
 6076SOL    HW118674   3.883   1.349   2.125
 6076SOL    HW218675   3.991   1.401   2.236
 6077SOL     OW18676   3.829   1.013   3.588
 6077SOL    HW118677   3.752   0.980   3.642
 6077SOL    HW218678   3.914   0.983   3.630
 6078SOL     OW18679   4.396   0.203   3.351
 6078SOL    HW118680   4.486   0.187   3.311
 6078SOL    HW218681   4.404   0.208   3.450
 6079SOL     OW18682   3.799   0.345   1.895
 6079SOL    HW118683   3.707   0.317   1.866
 6079SOL    HW218684   3.830   0.422   1.839
 6080SOL     OW18685   3.796   0.166   2.180
 6080SOL    HW118686   3.779   0.249   2.126
 6080SOL    HW218687   3.886   0.129   2.158
 6081SOL     OW18688   4.337   0.842   3.293
 6081SOL    HW118689   4.393   0.923   3.276
 6081SOL    HW218690   4.396   0.762   3.296
 6082SOL     OW18691   4.440   0.565   3.570
 6082SOL    HW118692   4.459   0.630   3.644
 6082SOL    HW218693   4.500   0.485   3.579
 6083SOL     OW18694   4.114   1.741   3.422
 6083SOL    HW118695   4.023   1.782   3.420
 6083SOL    HW218696   4.107   1.647   3.454
 6084SOL     OW18697   4.318   0.745   2.514
 6084SOL    HW118698   4.368   0.830   2.495
 6084SOL    HW218699   4.230   0.747   2.466
 6085SOL     OW18700   3.945   1.314   3.706
 6085SOL    HW118701   3.880   1.241   3.685
 6085SOL    HW218702   3.949   1.328   3.804
 6086SOL     OW18703   3.803   1.240   2.515
 6086SOL    HW118704   3.802   1.193   2.603
 6086SOL    HW218705   3.885   1.212   2.464
 6087SOL     OW18706   4.396   1.391   3.486
 6087SOL    HW118707   4.318   1.341   3.524
 6087SOL    HW218708   4.393   1.486   3.517
 6088SOL     OW18709   4.152   0.424   2.382
 6088SOL    HW118710   4.182   0.352   2.320
 6088SOL    HW218711   4.113   0.384   2.465
 6089SOL     OW18712   4.041   0.547   3.142
 6089SOL    HW118713   4.079   0.488   3.214
 6089SOL    HW218714   4.081   0.521   3.054
 6090SOL     OW18715   4.536   1.586   2.549
 6090SOL    HW118716   4.568   1.596   2.455
 6090SOL    HW218717   4.457   1.524   2.551
 6091SOL     OW18718   3.763   1.077   2.162
 6091SOL    HW118719   3.862   1.066   2.153
 6091SOL    HW218720   3.723   0.991   2.194
 6092SOL     OW18721   3.954   0.628   3.837
 6092SOL    HW118722   3.861   0.626   3.874
 6092SOL    HW218723   3.955   0.589   3.745
 6093SOL     OW18724   3.949   0.275   4.720
 6093SOL    HW118725   3.984   0.258   4.812
 6093SOL    HW218726   3.861   0.230   4.708
 6094SOL     OW18727   3.743   0.368   4.371
 6094SOL    HW118728   3.661   0.411   4.410
 6094SOL    HW218729   3.715   0.295   4.308
 6095SOL     OW18730   4.293   1.275   4.889
 6095SOL    HW118731   4.200   1.268   4.852
 6095SOL    HW218732   4.304   1.364   4.933
 6096SOL     OW18733   4.574   0.798   5.547
 6096SOL    HW118734   4.570   0.874   5.612
 6096SOL    HW218735   4.596   0.834   5.456
 6097SOL     OW18736   4.409   1.012   4.389
 6097SOL    HW118737   4.478   0.996   4.459
 6097SOL    HW218738   4.336   1.069   4.427
 6098SOL     OW18739   4.410   1.161   5.527
 6098SOL    HW118740   4.470   1.240   5.541
 6098SOL    HW218741   4.324   1.192   5.486
 6099SOL     OW18742   4.059   1.435   4.785
 6099SOL    HW118743   3.981   1.404   4.732
 6099SOL    HW218744   4.117   1.493   4.728
 6100SOL     OW18745   4.162   0.392   5.223
 6100SOL    HW118746   4.244   0.336   5.232
 6100SOL    HW218747   4.081   0.334   5.227
 6101SOL     OW18748   3.955   1.713   4.207
 6101SOL    HW118749   3.989   1.790   4.261
 6101SOL    HW218750   3.999   1.713   4.117
 6102SOL     OW18751   3.954   1.434   4.262
 6102SOL    HW118752   3.928   1.530   4.262
 6102SOL    HW218753   3.883   1.380   4.307
 6103SOL     OW18754   3.964   1.091   4.610
 6103SOL    HW118755   3.978   1.007   4.662
 6103SOL    HW218756   3.909   1.155   4.665
 6104SOL     OW18757   4.344   1.786   5.163
 6104SOL    HW118758   4.252   1.769   5.198
 6104SOL    HW218759   4.372   1.878   5.189
 6105SOL     OW18760   4.330   0.964   3.847
 6105SOL    HW118761   4.337   1.048   3.793
 6105SOL    HW218762   4.376   0.977   3.935
 6106SOL     OW18763   3.846   0.643   4.287
 6106SOL    HW118764   3.801   0.555   4.304
 6106SOL    HW218765   3.845   0.697   4.371
 6107SOL     OW18766   3.751   1.596   3.841
 6107SOL    HW118767   3.732   1.500   3.862
 6107SOL    HW218768   3.718   1.654   3.916
 6108SOL     OW18769   3.837   0.737   5.321
 6108SOL    HW118770   3.925   0.724   5.366
 6108SOL    HW218771   3.824   0.834   5.299
 6109SOL     OW18772   4.337   1.365   4.450
 6109SOL    HW118773   4.288   1.278   4.459
 6109SOL    HW218774   4.314   1.408   4.363
 6110SOL     OW18775   4.533   0.004   4.226
 6110SOL    HW118776   4.573   0.095   4.217
 6110SOL    HW218777   4.433   0.012   4.232
 6111SOL     OW18778   3.921   0.976   4.988
 6111SOL    HW118779   4.010   0.931   4.974
 6111SOL    HW218780   3.848   0.911   4.969
 6112SOL     OW18781   4.041   0.251   5.525
 6112SOL    HW118782   4.112   0.322   5.531
 6112SOL    HW218783   3.953   0.290   5.553
 6113SOL     OW18784   4.322   0.729   3.994
 6113SOL    HW118785   4.346   0.798   3.926
 6113SOL    HW218786   4.244   0.762   4.048
 6114SOL     OW18787   3.800   0.811   4.513
 6114SOL    HW118788   3.899   0.799   4.522
 6114SOL    HW218789   3.776   0.906   4.534
 6115SOL     OW18790   3.854   1.821   5.295
 6115SOL    HW118791   3.844   1.806   5.394
 6115SOL    HW218792   3.768   1.857   5.259
 6116SOL     OW18793   4.274   0.196   4.609
 6116SOL    HW118794   4.269   0.191   4.709
 6116SOL    HW218795   4.276   0.292   4.580
 6117SOL     OW18796   4.075   1.801   4.577
 6117SOL    HW118797   4.125   1.715   4.583
 6117SOL    HW218798   4.140   1.878   4.574
 6118SOL     OW18799   4.045   0.943   3.966
 6118SOL    HW118800   4.127   0.982   3.924
 6118SOL    HW218801   4.018   0.861   3.917
 6119SOL     OW18802   4.185   1.266   5.451
 6119SOL    HW118803   4.135   1.267   5.365
 6119SOL    HW218804   4.122   1.248   5.527
 6120SOL     OW18805   3.926   0.285   5.222
 6120SOL    HW118806   3.846   0.345   5.209
 6120SOL    HW218807   3.916   0.236   5.308
 6121SOL     OW18808   4.188   1.743   4.047
 6121SOL    HW118809   4.221   1.782   4.133
 6121SOL    HW218810   4.264   1.736   3.982
 6122SOL     OW18811   3.973   1.785   4.965
 6122SOL    HW118812   4.030   1.720   5.015
 6122SOL    HW218813   3.957   1.752   4.872
 6123SOL     OW18814   4.106   0.700   4.204
 6123SOL    HW118815   4.151   0.610   4.201
 6123SOL    HW218816   4.012   0.689   4.237
 6124SOL     OW18817   4.338   0.122   3.841
 6124SOL    HW118818   4.436   0.100   3.848
 6124SOL    HW218819   4.307   0.105   3.748
 6125SOL     OW18820   4.527   1.402   4.648
 6125SOL    HW118821   4.617   1.416   4.606
 6125SOL    HW218822   4.456   1.404   4.577
 6126SOL     OW18823   4.263   0.064   4.236
 6126SOL    HW118824   4.182   0.065   4.294
 6126SOL    HW218825   4.266   0.147   4.181
 6127SOL     OW18826   4.021   0.035   3.895
 6127SOL    HW118827   4.070   0.119   3.874
 6127SOL    HW218828   4.083  -0.030   3.940
 6128SOL     OW18829   4.800   0.683   5.188
 6128SOL    HW118830   4.720   0.622   5.191
 6128SOL    HW218831   4.881   0.630   5.164
 6129SOL     OW18832   4.183   1.152   4.465
 6129SOL    HW118833   4.112   1.125   4.530
 6129SOL    HW218834   4.157   1.124   4.372
 6130SOL     OW18835   3.802   0.556   5.110
 6130SOL    HW118836   3.894   0.555   5.069
 6130SOL    HW218837   3.796   0.630   5.177
 6131SOL     OW18838   4.285   0.222   4.871
 6131SOL    HW118839   4.323   0.138   4.908
 6131SOL    HW218840   4.197   0.241   4.915
 6132SOL     OW18841   4.212   1.385   3.898
 6132SOL    HW118842   4.125   1.370   3.945
 6132SOL    HW218843   4.195   1.411   3.803
 6133SOL     OW18844   4.251   0.256   4.052
 6133SOL    HW118845   4.278   0.197   3.977
 6133SOL    HW218846   4.251   0.351   4.021
 6134SOL     OW18847   4.134   0.813   4.975
 6134SOL    HW118848   4.220   0.825   5.025
 6134SOL    HW218849   4.092   0.726   5.002
 6135SOL     OW18850   3.788   1.564   5.055
 6135SOL    HW118851   3.742   1.646   5.021
 6135SOL    HW218852   3.886   1.583   5.064
 6136SOL     OW18853   4.091   1.100   4.225
 6136SOL    HW118854   4.084   1.183   4.169
 6136SOL    HW218855   4.095   1.020   4.165
 6137SOL     OW18856   4.290   0.537   4.589
 6137SOL    HW118857   4.302   0.603   4.515
 6137SOL    HW218858   4.336   0.571   4.672
 6138SOL     OW18859   4.078   1.510   5.053
 6138SOL    HW118860   4.057   1.466   4.966
 6138SOL    HW218861   4.175   1.536   5.056
 6139SOL     OW18862   4.126   0.751   5.322
 6139SOL    HW118863   4.194   0.806   5.275
 6139SOL    HW218864   4.166   0.663   5.349
 6140SOL     OW18865   4.228   0.050   5.464
 6140SOL    HW118866   4.186  -0.007   5.394
 6140SOL    HW218867   4.162   0.119   5.496
 6141SOL     OW18868   4.297   0.870   4.753
 6141SOL    HW118869   4.341   0.959   4.744
 6141SOL    HW218870   4.234   0.870   4.830
 6142SOL     OW18871   4.031   0.213   4.955
 6142SOL    HW118872   4.008   0.250   5.045
 6142SOL    HW218873   4.001   0.118   4.949
 6143SOL     OW18874   3.761   1.310   5.006
 6143SOL    HW118875   3.814   1.261   5.074
 6143SOL    HW218876   3.783   1.408   5.011
 6144SOL     OW18877   4.031   0.063   4.342
 6144SOL    HW118878   4.020   0.157   4.375
 6144SOL    HW218879   4.026   0.000   4.419
 6145SOL     OW18880   4.074   0.898   5.528
 6145SOL    HW118881   4.150   0.942   5.576
 6145SOL    HW218882   4.109   0.851   5.446
 6146SOL     OW18883   4.043   0.810   4.673
 6146SOL    HW118884   4.136   0.846   4.678
 6146SOL    HW218885   4.037   0.725   4.725
 6147SOL     OW18886   4.063   0.509   4.730
 6147SOL    HW118887   4.011   0.426   4.713
 6147SOL    HW218888   4.140   0.514   4.666
 6148SOL     OW18889   3.732   1.326   3.924
 6148SOL    HW118890   3.639   1.347   3.893
 6148SOL    HW218891   3.742   1.227   3.937
 6149SOL     OW18892   3.812   1.801   4.651
 6149SOL    HW118893   3.770   1.715   4.624
 6149SOL    HW218894   3.906   1.804   4.617
 6150SOL     OW18895   4.228   1.568   4.634
 6150SOL    HW118896   4.294   1.642   4.643
 6150SOL    HW218897   4.272   1.489   4.592
 6151SOL     OW18898   3.764   0.544   4.838
 6151SOL    HW118899   3.849   0.511   4.797
 6151SOL    HW218900   3.777   0.559   4.936
 6152SOL     OW18901   3.913   0.520   5.446
 6152SOL    HW118902   3.972   0.480   5.376
 6152SOL    HW218903   3.855   0.591   5.405
 6153SOL     OW18904   4.539   0.572   4.049
 6153SOL    HW118905   4.546   0.483   4.003
 6153SOL    HW218906   4.445   0.606   4.041
 6154SOL     OW18907   3.976   1.564   5.468
 6154SOL    HW118908   3.946   1.621   5.544
 6154SOL    HW218909   3.969   1.467   5.494
 6155SOL     OW18910   4.197   0.500   3.915
 6155SOL    HW118911   4.258   0.580   3.919
 6155SOL    HW218912   4.102   0.531   3.922
 6156SOL     OW18913   3.883   1.137   5.190
 6156SOL    HW118914   3.905   1.076   5.266
 6156SOL    HW218915   3.893   1.088   5.104
 6157SOL     OW18916   3.807   1.258   4.746
 6157SOL    HW118917   3.802   1.257   4.846
 6157SOL    HW218918   3.724   1.217   4.708
 6158SOL     OW18919   4.412   1.662   5.440
 6158SOL    HW118920   4.356   1.743   5.449
 6158SOL    HW218921   4.464   1.666   5.354
 6159SOL     OW18922   3.854   1.794   5.575
 6159SOL    HW118923   3.813   1.720   5.628
 6159SOL    HW218924   3.918   1.845   5.633
 6160SOL     OW18925   3.987   0.326   4.444
 6160SOL    HW118926   3.908   0.377   4.410
 6160SOL    HW218927   3.978   0.311   4.542
 6161SOL     OW18928   4.096   1.288   5.214
 6161SOL    HW118929   4.083   1.381   5.180
 6161SOL    HW218930   4.012   1.236   5.201
 6162SOL     OW18931   4.314   1.487   4.215
 6162SOL    HW118932   4.356   1.429   4.145
 6162SOL    HW218933   4.270   1.566   4.171
 6163SOL     OW18934   3.979   1.348   4.014
 6163SOL    HW118935   3.883   1.349   3.987
 6163SOL    HW218936   3.991   1.401   4.098
 6164SOL     OW18937   3.829   1.013   5.450
 6164SOL    HW118938   3.752   0.980   5.504
 6164SOL    HW218939   3.914   0.983   5.492
 6165SOL     OW18940   4.396   0.203   5.213
 6165SOL    HW118941   4.486   0.187   5.173
 6165SOL    HW218942   4.404   0.208   5.312
 6166SOL     OW18943   3.799   0.345   3.757
 6166SOL    HW118944   3.707   0.317   3.728
 6166SOL    HW218945   3.830   0.422   3.701
 6167SOL     OW18946   3.796   0.166   4.042
 6167SOL    HW118947   3.779   0.249   3.988
 6167SOL    HW218948   3.886   0.129   4.020
 6168SOL     OW18949   4.337   0.842   5.155
 6168SOL    HW118950   4.393   0.923   5.138
 6168SOL    HW218951   4.396   0.762   5.158
 6169SOL     OW18952   4.440   0.565   5.432
 6169SOL    HW118953   4.459   0.630   5.506
 6169SOL    HW218954   4.500   0.485   5.441
 6170SOL     OW18955   4.114   1.741   5.284
 6170SOL    HW118956   4.023   1.782   5.282
 6170SOL    HW218957   4.107   1.647   5.316
 6171SOL     OW18958   4.318   0.745   4.376
 6171SOL    HW118959   4.368   0.830   4.357
 6171SOL    HW218960   4.230   0.747   4.328
 6172SOL     OW18961   3.945   1.314   5.568
 6172SOL    HW118962   3.880   1.241   5.547
 6172SOL    HW218963   3.949   1.328   5.666
 6173SOL     OW18964   3.803   1.240   4.377
 6173SOL    HW118965   3.802   1.193   4.465
 6173SOL    HW218966   3.885   1.212   4.326
 6174SOL     OW18967   4.396   1.391   5.348
 6174SOL    HW118968   4.318   1.341   5.386
 6174SOL    HW218969   4.393   1.486   5.379
 6175SOL     OW18970   4.152   0.424   4.244
 6175SOL    HW118971   4.182   0.352   4.182
 6175SOL    HW218972   4.113   0.384   4.327
 6176SOL     OW18973   4.041   0.547   5.004
 6176SOL    HW118974   4.079   0.488   5.076
 6176SOL    HW218975   4.081   0.521   4.916
 6177SOL     OW18976   4.536   1.586   4.411
 6177SOL    HW118977   4.568   1.596   4.317
 6177SOL    HW218978   4.457   1.524   4.413
 6178SOL     OW18979   3.763   1.077   4.024
 6178SOL    HW118980   3.862   1.066   4.015
 6178SOL    HW218981   3.723   0.991   4.056
 6179SOL     OW18982   3.954   0.628   5.699
 6179SOL    HW118983   3.861   0.626   5.736
 6179SOL    HW218984   3.955   0.589   5.607
 6180SOL     OW18985   3.949   0.275   6.582
 6180SOL    HW118986   3.984   0.258   6.674
 6180SOL    HW218987   3.861   0.230   6.570
 6181SOL     OW18988   3.743   0.368   6.233
 6181SOL    HW118989   3.661   0.411   6.272
 6181SOL    HW218990   3.715   0.295   6.170
 6182SOL     OW18991   4.293   1.275   6.751
 6182SOL    HW118992   4.200   1.268   6.714
 6182SOL    HW218993   4.304   1.364   6.795
 6183SOL     OW18994   4.574   0.798   7.409
 6183SOL    HW118995   4.570   0.874   7.474
 6183SOL    HW218996   4.596   0.834   7.318
 6184SOL     OW18997   4.409   1.012   6.251
 6184SOL    HW118998   4.478   0.996   6.321
 6184SOL    HW218999   4.336   1.069   6.289
 6185SOL     OW19000   4.410   1.161   7.389
 6185SOL    HW119001   4.470   1.240   7.403
 6185SOL    HW219002   4.324   1.192   7.348
 6186SOL     OW19003   4.059   1.435   6.647
 6186SOL    HW119004   3.981   1.404   6.594
 6186SOL    HW219005   4.117   1.493   6.590
 6187SOL     OW19006   4.162   0.392   7.085
 6187SOL    HW119007   4.244   0.336   7.094
 6187SOL    HW219008   4.081   0.334   7.089
 6188SOL     OW19009   3.955   1.713   6.069
 6188SOL    HW119010   3.989   1.790   6.123
 6188SOL    HW219011   3.999   1.713   5.979
 6189SOL     OW19012   3.954   1.434   6.124
 6189SOL    HW119013   3.928   1.530   6.124
 6189SOL    HW219014   3.883   1.380   6.169
 6190SOL     OW19015   3.964   1.091   6.472
 6190SOL    HW119016   3.978   1.007   6.524
 6190SOL    HW219017   3.909   1.155   6.527
 6191SOL     OW19018   4.344   1.786   7.025
 6191SOL    HW119019   4.252   1.769   7.060
 6191SOL    HW219020   4.372   1.878   7.051
 6192SOL     OW19021   4.330   0.964   5.709
 6192SOL    HW119022   4.337   1.048   5.655
 6192SOL    HW219023   4.376   0.977   5.797
 6193SOL     OW19024   3.846   0.643   6.149
 6193SOL    HW119025   3.801   0.555   6.166
 6193SOL    HW219026   3.845   0.697   6.233
 6194SOL     OW19027   3.751   1.596   5.703
 6194SOL    HW119028   3.732   1.500   5.724
 6194SOL    HW219029   3.718   1.654   5.778
 6195SOL     OW19030   3.837   0.737   7.183
 6195SOL    HW119031   3.925   0.724   7.228
 6195SOL    HW219032   3.824   0.834   7.161
 6196SOL     OW19033   4.337   1.365   6.312
 6196SOL    HW119034   4.288   1.278   6.321
 6196SOL    HW219035   4.314   1.408   6.225
 6197SOL     OW19036   4.533   0.004   6.088
 6197SOL    HW119037   4.573   0.095   6.079
 6197SOL    HW219038   4.433   0.012   6.094
 6198SOL     OW19039   3.921   0.976   6.850
 6198SOL    HW119040   4.010   0.931   6.836
 6198SOL    HW219041   3.848   0.911   6.831
 6199SOL     OW19042   4.041   0.251   7.387
 6199SOL    HW119043   4.112   0.322   7.393
 6199SOL    HW219044   3.953   0.290   7.415
 6200SOL     OW19045   4.322   0.729   5.856
 6200SOL    HW119046   4.346   0.798   5.788
 6200SOL    HW219047   4.244   0.762   5.910
 6201SOL     OW19048   3.800   0.811   6.375
 6201SOL    HW119049   3.899   0.799   6.384
 6201SOL    HW219050   3.776   0.906   6.396
 6202SOL     OW19051   3.854   1.821   7.157
 6202SOL    HW119052   3.844   1.806   7.256
 6202SOL    HW219053   3.768   1.857   7.121
 6203SOL     OW19054   4.274   0.196   6.471
 6203SOL    HW119055   4.269   0.191   6.571
 6203SOL    HW219056   4.276   0.292   6.442
 6204SOL     OW19057   4.075   1.801   6.439
 6204SOL    HW119058   4.125   1.715   6.445
 6204SOL    HW219059   4.140   1.878   6.436
 6205SOL     OW19060   4.045   0.943   5.828
 6205SOL    HW119061   4.127   0.982   5.786
 6205SOL    HW219062   4.018   0.861   5.779
 6206SOL     OW19063   4.185   1.266   7.313
 6206SOL    HW119064   4.135   1.267   7.227
 6206SOL    HW219065   4.122   1.248   7.389
 6207SOL     OW19066   3.926   0.285   7.084
 6207SOL    HW119067   3.846   0.345   7.071
 6207SOL    HW219068   3.916   0.236   7.170
 6208SOL     OW19069   4.188   1.743   5.909
 6208SOL    HW119070   4.221   1.782   5.995
 6208SOL    HW219071   4.264   1.736   5.844
 6209SOL     OW19072   3.973   1.785   6.827
 6209SOL    HW119073   4.030   1.720   6.877
 6209SOL    HW219074   3.957   1.752   6.734
 6210SOL     OW19075   4.106   0.700   6.066
 6210SOL    HW119076   4.151   0.610   6.063
 6210SOL    HW219077   4.012   0.689   6.099
 6211SOL     OW19078   4.338   0.122   5.703
 6211SOL    HW119079   4.436   0.100   5.710
 6211SOL    HW219080   4.307   0.105   5.610
 6212SOL     OW19081   4.527   1.402   6.510
 6212SOL    HW119082   4.617   1.416   6.468
 6212SOL    HW219083   4.456   1.404   6.439
 6213SOL     OW19084   4.263   0.064   6.098
 6213SOL    HW119085   4.182   0.065   6.156
 6213SOL    HW219086   4.266   0.147   6.043
 6214SOL     OW19087   4.021   0.035   5.757
 6214SOL    HW119088   4.070   0.119   5.736
 6214SOL    HW219089   4.083  -0.030   5.802
 6215SOL     OW19090   4.800   0.683   7.050
 6215SOL    HW119091   4.720   0.622   7.053
 6215SOL    HW219092   4.881   0.630   7.026
 6216SOL     OW19093   4.183   1.152   6.327
 6216SOL    HW119094   4.112   1.125   6.392
 6216SOL    HW219095   4.157   1.124   6.234
 6217SOL     OW19096   3.802   0.556   6.972
 6217SOL    HW119097   3.894   0.555   6.931
 6217SOL    HW219098   3.796   0.630   7.039
 6218SOL     OW19099   4.285   0.222   6.733
 6218SOL    HW119100   4.323   0.138   6.770
 6218SOL    HW219101   4.197   0.241   6.777
 6219SOL     OW19102   4.212   1.385   5.760
 6219SOL    HW119103   4.125   1.370   5.807
 6219SOL    HW219104   4.195   1.411   5.665
 6220SOL     OW19105   4.251   0.256   5.914
 6220SOL    HW119106   4.278   0.197   5.839
 6220SOL    HW219107   4.251   0.351   5.883
 6221SOL     OW19108   4.134   0.813   6.837
 6221SOL    HW119109   4.220   0.825   6.887
 6221SOL    HW219110   4.092   0.726   6.864
 6222SOL     OW19111   3.788   1.564   6.917
 6222SOL    HW119112   3.742   1.646   6.883
 6222SOL    HW219113   3.886   1.583   6.926
 6223SOL     OW19114   4.091   1.100   6.087
 6223SOL    HW119115   4.084   1.183   6.031
 6223SOL    HW219116   4.095   1.020   6.027
 6224SOL     OW19117   4.290   0.537   6.451
 6224SOL    HW119118   4.302   0.603   6.377
 6224SOL    HW219119   4.336   0.571   6.534
 6225SOL     OW19120   4.078   1.510   6.915
 6225SOL    HW119121   4.057   1.466   6.828
 6225SOL    HW219122   4.175   1.536   6.918
 6226SOL     OW19123   4.126   0.751   7.184
 6226SOL    HW119124   4.194   0.806   7.137
 6226SOL    HW219125   4.166   0.663   7.211
 6227SOL     OW19126   4.228   0.050   7.326
 6227SOL    HW119127   4.186  -0.007   7.256
 6227SOL    HW219128   4.162   0.119   7.358
 6228SOL     OW19129   4.297   0.870   6.615
 6228SOL    HW119130   4.341   0.959   6.606
 6228SOL    HW219131   4.234   0.870   6.692
 6229SOL     OW19132   4.031   0.213   6.817
 6229SOL    HW119133   4.008   0.250   6.907
 6229SOL    HW219134   4.001   0.118   6.811
 6230SOL     OW19135   3.761   1.310   6.868
 6230SOL    HW119136   3.814   1.261   6.936
 6230SOL    HW219137   3.783   1.408   6.873
 6231SOL     OW19138   4.031   0.063   6.204
 6231SOL    HW119139   4.020   0.157   6.237
 6231SOL    HW219140   4.026   0.000   6.281
 6232SOL     OW19141   4.074   0.898   7.390
 6232SOL    HW119142   4.150   0.942   7.438
 6232SOL    HW219143   4.109   0.851   7.308
 6233SOL     OW19144   4.043   0.810   6.535
 6233SOL    HW119145   4.136   0.846   6.540
 6233SOL    HW219146   4.037   0.725   6.587
 6234SOL     OW19147   4.063   0.509   6.592
 6234SOL    HW119148   4.011   0.426   6.575
 6234SOL    HW219149   4.140   0.514   6.528
 6235SOL     OW19150   3.732   1.326   5.786
 6235SOL    HW119151   3.639   1.347   5.755
 6235SOL    HW219152   3.742   1.227   5.799
 6236SOL     OW19153   3.812   1.801   6.513
 6236SOL    HW119154   3.770   1.715   6.486
 6236SOL    HW219155   3.906   1.804   6.479
 6237SOL     OW19156   4.228   1.568   6.496
 6237SOL    HW119157   4.294   1.642   6.505
 6237SOL    HW219158   4.272   1.489   6.454
 6238SOL     OW19159   3.764   0.544   6.700
 6238SOL    HW119160   3.849   0.511   6.659
 6238SOL    HW219161   3.777   0.559   6.798
 6239SOL     OW19162   3.913   0.520   7.308
 6239SOL    HW119163   3.972   0.480   7.238
 6239SOL    HW219164   3.855   0.591   7.267
 6240SOL     OW19165   4.539   0.572   5.911
 6240SOL    HW119166   4.546   0.483   5.865
 6240SOL    HW219167   4.445   0.606   5.903
 6241SOL     OW19168   3.976   1.564   7.330
 6241SOL    HW119169   3.946   1.621   7.406
 6241SOL    HW219170   3.969   1.467   7.356
 6242SOL     OW19171   4.197   0.500   5.777
 6242SOL    HW119172   4.258   0.580   5.781
 6242SOL    HW219173   4.102   0.531   5.784
 6243SOL     OW19174   3.883   1.137   7.052
 6243SOL    HW119175   3.905   1.076   7.128
 6243SOL    HW219176   3.893   1.088   6.966
 6244SOL     OW19177   3.807   1.258   6.608
 6244SOL    HW119178   3.802   1.257   6.708
 6244SOL    HW219179   3.724   1.217   6.570
 6245SOL     OW19180   4.412   1.662   7.302
 6245SOL    HW119181   4.356   1.743   7.311
 6245SOL    HW219182   4.464   1.666   7.216
 6246SOL     OW19183   3.854   1.794   7.437
 6246SOL    HW119184   3.813   1.720   7.490
 6246SOL    HW219185   3.918   1.845   7.495
 6247SOL     OW19186   3.987   0.326   6.306
 6247SOL    HW119187   3.908   0.377   6.272
 6247SOL    HW219188   3.978   0.311   6.404
 6248SOL     OW19189   4.096   1.288   7.076
 6248SOL    HW119190   4.083   1.381   7.042
 6248SOL    HW219191   4.012   1.236   7.063
 6249SOL     OW19192   4.314   1.487   6.077
 6249SOL    HW119193   4.356   1.429   6.007
 6249SOL    HW219194   4.270   1.566   6.033
 6250SOL     OW19195   3.979   1.348   5.876
 6250SOL    HW119196   3.883   1.349   5.849
 6250SOL    HW219197   3.991   1.401   5.960
 6251SOL     OW19198   3.829   1.013   7.312
 6251SOL    HW119199   3.752   0.980   7.366
 6251SOL    HW219200   3.914   0.983   7.354
 6252SOL     OW19201   4.396   0.203   7.075
 6252SOL    HW119202   4.486   0.187   7.035
 6252SOL    HW219203   4.404   0.208   7.174
 6253SOL     OW19204   3.799   0.345   5.619
 6253SOL    HW119205   3.707   0.317   5.590
 6253SOL    HW219206   3.830   0.422   5.563
 6254SOL     OW19207   3.796   0.166   5.904
 6254SOL    HW119208   3.779   0.249   5.850
 6254SOL    HW219209   3.886   0.129   5.882
 6255SOL     OW19210   4.337   0.842   7.017
 6255SOL    HW119211   4.393   0.923   7.000
 6255SOL    HW219212   4.396   0.762   7.020
 6256SOL     OW19213   4.440   0.565   7.294
 6256SOL    HW119214   4.459   0.630   7.368
 6256SOL    HW219215   4.500   0.485   7.303
 6257SOL     OW19216   4.114   1.741   7.146
 6257SOL    HW119217   4.023   1.782   7.144
 6257SOL    HW219218   4.107   1.647   7.178
 6258SOL     OW19219   4.318   0.745   6.238
 6258SOL    HW119220   4.368   0.830   6.219
 6258SOL    HW219221   4.230   0.747   6.190
 6259SOL     OW19222   3.945   1.314   7.430
 6259SOL    HW119223   3.880   1.241   7.409
 6259SOL    HW219224   3.949   1.328   7.528
 6260SOL     OW19225   3.803   1.240   6.239
 6260SOL    HW119226   3.802   1.193   6.327
 6260SOL    HW219227   3.885   1.212   6.188
 6261SOL     OW19228   4.396   1.391   7.210
 6261SOL    HW119229   4.318   1.341   7.248
 6261SOL    HW219230   4.393   1.486   7.241
 6262SOL     OW19231   4.152   0.424   6.106
 6262SOL    HW119232   4.182   0.352   6.044
 6262SOL    HW219233   4.113   0.384   6.189
 6263SOL     OW19234   4.041   0.547   6.866
 6263SOL    HW119235   4.079   0.488   6.938
 6263SOL    HW219236   4.081   0.521   6.778
 6264SOL     OW19237   4.536   1.586   6.273
 6264SOL    HW119238   4.568   1.596   6.179
 6264SOL    HW219239   4.457   1.524   6.275
 6265SOL     OW19240   3.763   1.077   5.886
 6265SOL    HW119241   3.862   1.066   5.877
 6265SOL    HW219242   3.723   0.991   5.918
 6266SOL     OW19243   3.954   0.628   7.561
 6266SOL    HW119244   3.861   0.626   7.598
 6266SOL    HW219245   3.955   0.589   7.469
 6267SOL     OW19246   3.949   0.275   8.444
 6267SOL    HW119247   3.984   0.258   8.536
 6267SOL    HW219248   3.861   0.230   8.432
 6268SOL     OW19249   3.743   0.368   8.095
 6268SOL    HW119250   3.661   0.411   8.134
 6268SOL    HW219251   3.715   0.295   8.032
 6269SOL     OW19252   4.293   1.275   8.613
 6269SOL    HW119253   4.200   1.268   8.576
 6269SOL    HW219254   4.304   1.364   8.657
 6270SOL     OW19255   4.574   0.798   9.271
 6270SOL    HW119256   4.570   0.874   9.336
 6270SOL    HW219257   4.596   0.834   9.180
 6271SOL     OW19258   4.409   1.012   8.113
 6271SOL    HW119259   4.478   0.996   8.183
 6271SOL    HW219260   4.336   1.069   8.151
 6272SOL     OW19261   4.410   1.161   9.251
 6272SOL    HW119262   4.470   1.240   9.265
 6272SOL    HW219263   4.324   1.192   9.210
 6273SOL     OW19264   4.059   1.435   8.509
 6273SOL    HW119265   3.981   1.404   8.456
 6273SOL    HW219266   4.117   1.493   8.452
 6274SOL     OW19267   4.162   0.392   8.947
 6274SOL    HW119268   4.244   0.336   8.956
 6274SOL    HW219269   4.081   0.334   8.951
 6275SOL     OW19270   3.955   1.713   7.931
 6275SOL    HW119271   3.989   1.790   7.985
 6275SOL    HW219272   3.999   1.713   7.841
 6276SOL     OW19273   3.954   1.434   7.986
 6276SOL    HW119274   3.928   1.530   7.986
 6276SOL    HW219275   3.883   1.380   8.031
 6277SOL     OW19276   3.964   1.091   8.334
 6277SOL    HW119277   3.978   1.007   8.386
 6277SOL    HW219278   3.909   1.155   8.389
 6278SOL     OW19279   4.344   1.786   8.887
 6278SOL    HW119280   4.252   1.769   8.922
 6278SOL    HW219281   4.372   1.878   8.913
 6279SOL     OW19282   4.330   0.964   7.571
 6279SOL    HW119283   4.337   1.048   7.517
 6279SOL    HW219284   4.376   0.977   7.659
 6280SOL     OW19285   3.846   0.643   8.011
 6280SOL    HW119286   3.801   0.555   8.028
 6280SOL    HW219287   3.845   0.697   8.095
 6281SOL     OW19288   3.751   1.596   7.565
 6281SOL    HW119289   3.732   1.500   7.586
 6281SOL    HW219290   3.718   1.654   7.640
 6282SOL     OW19291   3.837   0.737   9.045
 6282SOL    HW119292   3.925   0.724   9.090
 6282SOL    HW219293   3.824   0.834   9.023
 6283SOL     OW19294   4.337   1.365   8.174
 6283SOL    HW119295   4.288   1.278   8.183
 6283SOL    HW219296   4.314   1.408   8.087
 6284SOL     OW19297   4.533   0.004   7.950
 6284SOL    HW119298   4.573   0.095   7.941
 6284SOL    HW219299   4.433   0.012   7.956
 6285SOL     OW19300   3.921   0.976   8.712
 6285SOL    HW119301   4.010   0.931   8.698
 6285SOL    HW219302   3.848   0.911   8.693
 6286SOL     OW19303   4.041   0.251   9.249
 6286SOL    HW119304   4.112   0.322   9.255
 6286SOL    HW219305   3.953   0.290   9.277
 6287SOL     OW19306   4.322   0.729   7.718
 6287SOL    HW119307   4.346   0.798   7.650
 6287SOL    HW219308   4.244   0.762   7.772
 6288SOL     OW19309   3.800   0.811   8.237
 6288SOL    HW119310   3.899   0.799   8.246
 6288SOL    HW219311   3.776   0.906   8.258
 6289SOL     OW19312   3.854   1.821   9.019
 6289SOL    HW119313   3.844   1.806   9.118
 6289SOL    HW219314   3.768   1.857   8.983
 6290SOL     OW19315   4.274   0.196   8.333
 6290SOL    HW119316   4.269   0.191   8.433
 6290SOL    HW219317   4.276   0.292   8.304
 6291SOL     OW19318   4.075   1.801   8.301
 6291SOL    HW119319   4.125   1.715   8.307
 6291SOL    HW219320   4.140   1.878   8.298
 6292SOL     OW19321   4.045   0.943   7.690
 6292SOL    HW119322   4.127   0.982   7.648
 6292SOL    HW219323   4.018   0.861   7.641
 6293SOL     OW19324   4.185   1.266   9.175
 6293SOL    HW119325   4.135   1.267   9.089
 6293SOL    HW219326   4.122   1.248   9.251
 6294SOL     OW19327   3.926   0.285   8.946
 6294SOL    HW119328   3.846   0.345   8.933
 6294SOL    HW219329   3.916   0.236   9.032
 6295SOL     OW19330   4.188   1.743   7.771
 6295SOL    HW119331   4.221   1.782   7.857
 6295SOL    HW219332   4.264   1.736   7.706
 6296SOL     OW19333   3.973   1.785   8.689
 6296SOL    HW119334   4.030   1.720   8.739
 6296SOL    HW219335   3.957   1.752   8.596
 6297SOL     OW19336   4.106   0.700   7.928
 6297SOL    HW119337   4.151   0.610   7.925
 6297SOL    HW219338   4.012   0.689   7.961
 6298SOL     OW19339   4.338   0.122   7.565
 6298SOL    HW119340   4.436   0.100   7.572
 6298SOL    HW219341   4.307   0.105   7.472
 6299SOL     OW19342   4.527   1.402   8.372
 6299SOL    HW119343   4.617   1.416   8.330
 6299SOL    HW219344   4.456   1.404   8.301
 6300SOL     OW19345   4.263   0.064   7.960
 6300SOL    HW119346   4.182   0.065   8.018
 6300SOL    HW219347   4.266   0.147   7.905
 6301SOL     OW19348   4.021   0.035   7.619
 6301SOL    HW119349   4.070   0.119   7.598
 6301SOL    HW219350   4.083  -0.030   7.664
 6302SOL     OW19351   4.800   0.683   8.912
 6302SOL    HW119352   4.720   0.622   8.915
 6302SOL    HW219353   4.881   0.630   8.888
 6303SOL     OW19354   4.183   1.152   8.189
 6303SOL    HW119355   4.112   1.125   8.254
 6303SOL    HW219356   4.157   1.124   8.096
 6304SOL     OW19357   3.802   0.556   8.834
 6304SOL    HW119358   3.894   0.555   8.793
 6304SOL    HW219359   3.796   0.630   8.901
 6305SOL     OW19360   4.285   0.222   8.595
 6305SOL    HW119361   4.323   0.138   8.632
 6305SOL    HW219362   4.197   0.241   8.639
 6306SOL     OW19363   4.212   1.385   7.622
 6306SOL    HW119364   4.125   1.370   7.669
 6306SOL    HW219365   4.195   1.411   7.527
 6307SOL     OW19366   4.251   0.256   7.776
 6307SOL    HW119367   4.278   0.197   7.701
 6307SOL    HW219368   4.251   0.351   7.745
 6308SOL     OW19369   4.134   0.813   8.699
 6308SOL    HW119370   4.220   0.825   8.749
 6308SOL    HW219371   4.092   0.726   8.726
 6309SOL     OW19372   3.788   1.564   8.779
 6309SOL    HW119373   3.742   1.646   8.745
 6309SOL    HW219374   3.886   1.583   8.788
 6310SOL     OW19375   4.091   1.100   7.949
 6310SOL    HW119376   4.084   1.183   7.893
 6310SOL    HW219377   4.095   1.020   7.889
 6311SOL     OW19378   4.290   0.537   8.313
 6311SOL    HW119379   4.302   0.603   8.239
 6311SOL    HW219380   4.336   0.571   8.396
 6312SOL     OW19381   4.078   1.510   8.777
 6312SOL    HW119382   4.057   1.466   8.690
 6312SOL    HW219383   4.175   1.536   8.780
 6313SOL     OW19384   4.126   0.751   9.046
 6313SOL    HW119385   4.194   0.806   8.999
 6313SOL    HW219386   4.166   0.663   9.073
 6314SOL     OW19387   4.228   0.050   9.188
 6314SOL    HW119388   4.186  -0.007   9.118
 6314SOL    HW219389   4.162   0.119   9.220
 6315SOL     OW19390   4.297   0.870   8.477
 6315SOL    HW119391   4.341   0.959   8.468
 6315SOL    HW219392   4.234   0.870   8.554
 6316SOL     OW19393   4.031   0.213   8.679
 6316SOL    HW119394   4.008   0.250   8.769
 6316SOL    HW219395   4.001   0.118   8.673
 6317SOL     OW19396   3.761   1.310   8.730
 6317SOL    HW119397   3.814   1.261   8.798
 6317SOL    HW219398   3.783   1.408   8.735
 6318SOL     OW19399   4.031   0.063   8.066
 6318SOL    HW119400   4.020   0.157   8.099
 6318SOL    HW219401   4.026   0.000   8.143
 6319SOL     OW19402   4.074   0.898   9.252
 6319SOL    HW119403   4.150   0.942   9.300
 6319SOL    HW219404   4.109   0.851   9.170
 6320SOL     OW19405   4.043   0.810   8.397
 6320SOL    HW119406   4.136   0.846   8.402
 6320SOL    HW219407   4.037   0.725   8.449
 6321SOL     OW19408   4.063   0.509   8.454
 6321SOL    HW119409   4.011   0.426   8.437
 6321SOL    HW219410   4.140   0.514   8.390
 6322SOL     OW19411   3.732   1.326   7.648
 6322SOL    HW119412   3.639   1.347   7.617
 6322SOL    HW219413   3.742   1.227   7.661
 6323SOL     OW19414   3.812   1.801   8.375
 6323SOL    HW119415   3.770   1.715   8.348
 6323SOL    HW219416   3.906   1.804   8.341
 6324SOL     OW19417   4.228   1.568   8.358
 6324SOL    HW119418   4.294   1.642   8.367
 6324SOL    HW219419   4.272   1.489   8.316
 6325SOL     OW19420   3.764   0.544   8.562
 6325SOL    HW119421   3.849   0.511   8.521
 6325SOL    HW219422   3.777   0.559   8.660
 6326SOL     OW19423   3.913   0.520   9.170
 6326SOL    HW119424   3.972   0.480   9.100
 6326SOL    HW219425   3.855   0.591   9.129
 6327SOL     OW19426   4.539   0.572   7.773
 6327SOL    HW119427   4.546   0.483   7.727
 6327SOL    HW219428   4.445   0.606   7.765
 6328SOL     OW19429   3.976   1.564   9.192
 6328SOL    HW119430   3.946   1.621   9.268
 6328SOL    HW219431   3.969   1.467   9.218
 6329SOL     OW19432   4.197   0.500   7.639
 6329SOL    HW119433   4.258   0.580   7.643
 6329SOL    HW219434   4.102   0.531   7.646
 6330SOL     OW19435   3.883   1.137   8.914
 6330SOL    HW119436   3.905   1.076   8.990
 6330SOL    HW219437   3.893   1.088   8.828
 6331SOL     OW19438   3.807   1.258   8.470
 6331SOL    HW119439   3.802   1.257   8.570
 6331SOL    HW219440   3.724   1.217   8.432
 6332SOL     OW19441   4.412   1.662   9.164
 6332SOL    HW119442   4.356   1.743   9.173
 6332SOL    HW219443   4.464   1.666   9.078
 6333SOL     OW19444   3.854   1.794   9.299
 6333SOL    HW119445   3.813   1.720   9.352
 6333SOL    HW219446   3.918   1.845   9.357
 6334SOL     OW19447   3.987   0.326   8.168
 6334SOL    HW119448   3.908   0.377   8.134
 6334SOL    HW219449   3.978   0.311   8.266
 6335SOL     OW19450   4.096   1.288   8.938
 6335SOL    HW119451   4.083   1.381   8.904
 6335SOL    HW219452   4.012   1.236   8.925
 6336SOL     OW19453   4.314   1.487   7.939
 6336SOL    HW119454   4.356   1.429   7.869
 6336SOL    HW219455   4.270   1.566   7.895
 6337SOL     OW19456   3.979   1.348   7.738
 6337SOL    HW119457   3.883   1.349   7.711
 6337SOL    HW219458   3.991   1.401   7.822
 6338SOL     OW19459   3.829   1.013   9.174
 6338SOL    HW119460   3.752   0.980   9.228
 6338SOL    HW219461   3.914   0.983   9.216
 6339SOL     OW19462   4.396   0.203   8.937
 6339SOL    HW119463   4.486   0.187   8.897
 6339SOL    HW219464   4.404   0.208   9.036
 6340SOL     OW19465   3.799   0.345   7.481
 6340SOL    HW119466   3.707   0.317   7.452
 6340SOL    HW219467   3.830   0.422   7.425
 6341SOL     OW19468   3.796   0.166   7.766
 6341SOL    HW119469   3.779   0.249   7.712
 6341SOL    HW219470   3.886   0.129   7.744
 6342SOL     OW19471   4.337   0.842   8.879
 6342SOL    HW119472   4.393   0.923   8.862
 6342SOL    HW219473   4.396   0.762   8.882
 6343SOL     OW19474   4.440   0.565   9.156
 6343SOL    HW119475   4.459   0.630   9.230
 6343SOL    HW219476   4.500   0.485   9.165
 6344SOL     OW19477   4.114   1.741   9.008
 6344SOL    HW119478   4.023   1.782   9.006
 6344SOL    HW219479   4.107   1.647   9.040
 6345SOL     OW19480   4.318   0.745   8.100
 6345SOL    HW119481   4.368   0.830   8.081
 6345SOL    HW219482   4.230   0.747   8.052
 6346SOL     OW19483   3.945   1.314   9.292
 6346SOL    HW119484   3.880   1.241   9.271
 6346SOL    HW219485   3.949   1.328   9.390
 6347SOL     OW19486   3.803   1.240   8.101
 6347SOL    HW119487   3.802   1.193   8.189
 6347SOL    HW219488   3.885   1.212   8.050
 6348SOL     OW19489   4.396   1.391   9.072
 6348SOL    HW119490   4.318   1.341   9.110
 6348SOL    HW219491   4.393   1.486   9.103
 6349SOL     OW19492   4.152   0.424   7.968
 6349SOL    HW119493   4.182   0.352   7.906
 6349SOL    HW219494   4.113   0.384   8.051
 6350SOL     OW19495   4.041   0.547   8.728
 6350SOL    HW119496   4.079   0.488   8.800
 6350SOL    HW219497   4.081   0.521   8.640
 6351SOL     OW19498   4.536   1.586   8.135
 6351SOL    HW119499   4.568   1.596   8.041
 6351SOL    HW219500   4.457   1.524   8.137
 6352SOL     OW19501   3.763   1.077   7.748
 6352SOL    HW119502   3.862   1.066   7.739
 6352SOL    HW219503   3.723   0.991   7.780
 6353SOL     OW19504   3.954   0.628   9.423
 6353SOL    HW119505   3.861   0.626   9.460
 6353SOL    HW219506   3.955   0.589   9.331
 6354SOL     OW19507   3.949   0.275  10.306
 6354SOL    HW119508   3.984   0.258  10.398
 6354SOL    HW219509   3.861   0.230  10.294
 6355SOL     OW19510   3.743   0.368   9.957
 6355SOL    HW119511   3.661   0.411   9.996
 6355SOL    HW219512   3.715   0.295   9.894
 6356SOL     OW19513   4.293   1.275  10.475
 6356SOL    HW119514   4.200   1.268  10.438
 6356SOL    HW219515   4.304   1.364  10.519
 6357SOL     OW19516   4.574   0.798  11.133
 6357SOL    HW119517   4.570   0.874  11.198
 6357SOL    HW219518   4.596   0.834  11.042
 6358SOL     OW19519   4.409   1.012   9.975
 6358SOL    HW119520   4.478   0.996  10.045
 6358SOL    HW219521   4.336   1.069  10.013
 6359SOL     OW19522   4.059   1.435  10.371
 6359SOL    HW119523   3.981   1.404  10.318
 6359SOL    HW219524   4.117   1.493  10.314
 6360SOL     OW19525   4.162   0.392  10.809
 6360SOL    HW119526   4.244   0.336  10.818
 6360SOL    HW219527   4.081   0.334  10.813
 6361SOL     OW19528   3.955   1.713   9.793
 6361SOL    HW119529   3.989   1.790   9.847
 6361SOL    HW219530   3.999   1.713   9.703
 6362SOL     OW19531   3.954   1.434   9.848
 6362SOL    HW119532   3.928   1.530   9.848
 6362SOL    HW219533   3.883   1.380   9.893
 6363SOL     OW19534   3.964   1.091  10.196
 6363SOL    HW119535   3.978   1.007  10.248
 6363SOL    HW219536   3.909   1.155  10.251
 6364SOL     OW19537   4.344   1.786  10.749
 6364SOL    HW119538   4.252   1.769  10.784
 6364SOL    HW219539   4.372   1.878  10.775
 6365SOL     OW19540   4.330   0.964   9.433
 6365SOL    HW119541   4.337   1.048   9.379
 6365SOL    HW219542   4.376   0.977   9.521
 6366SOL     OW19543   3.846   0.643   9.873
 6366SOL    HW119544   3.801   0.555   9.890
 6366SOL    HW219545   3.845   0.697   9.957
 6367SOL     OW19546   3.751   1.596   9.427
 6367SOL    HW119547   3.732   1.500   9.448
 6367SOL    HW219548   3.718   1.654   9.502
 6368SOL     OW19549   3.837   0.737  10.907
 6368SOL    HW119550   3.925   0.724  10.952
 6368SOL    HW219551   3.824   0.834  10.885
 6369SOL     OW19552   4.337   1.365  10.036
 6369SOL    HW119553   4.288   1.278  10.045
 6369SOL    HW219554   4.314   1.408   9.949
 6370SOL     OW19555   4.533   0.004   9.812
 6370SOL    HW119556   4.573   0.095   9.803
 6370SOL    HW219557   4.433   0.012   9.818
 6371SOL     OW19558   3.921   0.976  10.574
 6371SOL    HW119559   4.010   0.931  10.560
 6371SOL    HW219560   3.848   0.911  10.555
 6372SOL     OW19561   4.041   0.251  11.111
 6372SOL    HW119562   4.112   0.322  11.117
 6372SOL    HW219563   3.953   0.290  11.139
 6373SOL     OW19564   4.322   0.729   9.580
 6373SOL    HW119565   4.346   0.798   9.512
 6373SOL    HW219566   4.244   0.762   9.634
 6374SOL     OW19567   3.800   0.811  10.099
 6374SOL    HW119568   3.899   0.799  10.108
 6374SOL    HW219569   3.776   0.906  10.120
 6375SOL     OW19570   3.854   1.821  10.881
 6375SOL    HW119571   3.844   1.806  10.980
 6375SOL    HW219572   3.768   1.857  10.845
 6376SOL     OW19573   4.274   0.196  10.195
 6376SOL    HW119574   4.269   0.191  10.295
 6376SOL    HW219575   4.276   0.292  10.166
 6377SOL     OW19576   4.075   1.801  10.163
 6377SOL    HW119577   4.125   1.715  10.169
 6377SOL    HW219578   4.140   1.878  10.160
 6378SOL     OW19579   4.045   0.943   9.552
 6378SOL    HW119580   4.127   0.982   9.510
 6378SOL    HW219581   4.018   0.861   9.503
 6379SOL     OW19582   4.185   1.266  11.037
 6379SOL    HW119583   4.135   1.267  10.951
 6379SOL    HW219584   4.122   1.248  11.113
 6380SOL     OW19585   3.926   0.285  10.808
 6380SOL    HW119586   3.846   0.345  10.795
 6380SOL    HW219587   3.916   0.236  10.894
 6381SOL     OW19588   4.188   1.743   9.633
 6381SOL    HW119589   4.221   1.782   9.719
 6381SOL    HW219590   4.264   1.736   9.568
 6382SOL     OW19591   3.973   1.785  10.551
 6382SOL    HW119592   4.030   1.720  10.601
 6382SOL    HW219593   3.957   1.752  10.458
 6383SOL     OW19594   4.106   0.700   9.790
 6383SOL    HW119595   4.151   0.610   9.787
 6383SOL    HW219596   4.012   0.689   9.823
 6384SOL     OW19597   4.338   0.122   9.427
 6384SOL    HW119598   4.436   0.100   9.434
 6384SOL    HW219599   4.307   0.105   9.334
 6385SOL     OW19600   4.527   1.402  10.234
 6385SOL    HW119601   4.617   1.416  10.192
 6385SOL    HW219602   4.456   1.404  10.163
 6386SOL     OW19603   4.263   0.064   9.822
 6386SOL    HW119604   4.182   0.065   9.880
 6386SOL    HW219605   4.266   0.147   9.767
 6387SOL     OW19606   4.021   0.035   9.481
 6387SOL    HW119607   4.070   0.119   9.460
 6387SOL    HW219608   4.083  -0.030   9.526
 6388SOL     OW19609   4.800   0.683  10.774
 6388SOL    HW119610   4.720   0.622  10.777
 6388SOL    HW219611   4.881   0.630  10.750
 6389SOL     OW19612   4.183   1.152  10.051
 6389SOL    HW119613   4.112   1.125  10.116
 6389SOL    HW219614   4.157   1.124   9.958
 6390SOL     OW19615   3.802   0.556  10.696
 6390SOL    HW119616   3.894   0.555  10.655
 6390SOL    HW219617   3.796   0.630  10.763
 6391SOL     OW19618   4.285   0.222  10.457
 6391SOL    HW119619   4.323   0.138  10.494
 6391SOL    HW219620   4.197   0.241  10.501
 6392SOL     OW19621   4.212   1.385   9.484
 6392SOL    HW119622   4.125   1.370   9.531
 6392SOL    HW219623   4.195   1.411   9.389
 6393SOL     OW19624   4.251   0.256   9.638
 6393SOL    HW119625   4.278   0.197   9.563
 6393SOL    HW219626   4.251   0.351   9.607
 6394SOL     OW19627   4.134   0.813  10.561
 6394SOL    HW119628   4.220   0.825  10.611
 6394SOL    HW219629   4.092   0.726  10.588
 6395SOL     OW19630   3.788   1.564  10.641
 6395SOL    HW119631   3.742   1.646  10.607
 6395SOL    HW219632   3.886   1.583  10.650
 6396SOL     OW19633   4.091   1.100   9.811
 6396SOL    HW119634   4.084   1.183   9.755
 6396SOL    HW219635   4.095   1.020   9.751
 6397SOL     OW19636   4.290   0.537  10.175
 6397SOL    HW119637   4.302   0.603  10.101
 6397SOL    HW219638   4.336   0.571  10.258
 6398SOL     OW19639   4.078   1.510  10.639
 6398SOL    HW119640   4.057   1.466  10.552
 6398SOL    HW219641   4.175   1.536  10.642
 6399SOL     OW19642   4.126   0.751  10.908
 6399SOL    HW119643   4.194   0.806  10.861
 6399SOL    HW219644   4.166   0.663  10.935
 6400SOL     OW19645   4.297   0.870  10.339
 6400SOL    HW119646   4.341   0.959  10.330
 6400SOL    HW219647   4.234   0.870  10.416
 6401SOL     OW19648   4.031   0.213  10.541
 6401SOL    HW119649   4.008   0.250  10.631
 6401SOL    HW219650   4.001   0.118  10.535
 6402SOL     OW19651   3.761   1.310  10.592
 6402SOL    HW119652   3.814   1.261  10.660
 6402SOL    HW219653   3.783   1.408  10.597
 6403SOL     OW19654   4.031   0.063   9.928
 6403SOL    HW119655   4.020   0.157   9.961
 6403SOL    HW219656   4.026   0.000  10.005
 6404SOL     OW19657   4.074   0.898  11.114
 6404SOL    HW119658   4.150   0.942  11.162
 6404SOL    HW219659   4.109   0.851  11.032
 6405SOL     OW19660   4.043   0.810  10.259
 6405SOL    HW119661   4.136   0.846  10.264
 6405SOL    HW219662   4.037   0.725  10.311
 6406SOL     OW19663   4.063   0.509  10.316
 6406SOL    HW119664   4.011   0.426  10.299
 6406SOL    HW219665   4.140   0.514  10.252
 6407SOL     OW19666   3.732   1.326   9.510
 6407SOL    HW119667   3.639   1.347   9.479
 6407SOL    HW219668   3.742   1.227   9.523
 6408SOL     OW19669   3.812   1.801  10.237
 6408SOL    HW119670   3.770   1.715  10.210
 6408SOL    HW219671   3.906   1.804  10.203
 6409SOL     OW19672   4.228   1.568  10.220
 6409SOL    HW119673   4.294   1.642  10.229
 6409SOL    HW219674   4.272   1.489  10.178
 6410SOL     OW19675   3.764   0.544  10.424
 6410SOL    HW119676   3.849   0.511  10.383
 6410SOL    HW219677   3.777   0.559  10.522
 6411SOL     OW19678   4.539   0.572   9.635
 6411SOL    HW119679   4.546   0.483   9.589
 6411SOL    HW219680   4.445   0.606   9.627
 6412SOL     OW19681   3.976   1.564  11.054
 6412SOL    HW119682   3.946   1.621  11.130
 6412SOL    HW219683   3.969   1.467  11.080
 6413SOL     OW19684   4.197   0.500   9.501
 6413SOL    HW119685   4.258   0.580   9.505
 6413SOL    HW219686   4.102   0.531   9.508
 6414SOL     OW19687   3.883   1.137  10.776
 6414SOL    HW119688   3.905   1.076  10.852
 6414SOL    HW219689   3.893   1.088  10.690
 6415SOL     OW19690   3.807   1.258  10.332
 6415SOL    HW119691   3.802   1.257  10.432
 6415SOL    HW219692   3.724   1.217  10.294
 6416SOL     OW19693   4.412   1.662  11.026
 6416SOL    HW119694   4.356   1.743  11.035
 6416SOL    HW219695   4.464   1.666  10.940
 6417SOL     OW19696   3.987   0.326  10.030
 6417SOL    HW119697   3.908   0.377   9.996
 6417SOL    HW219698   3.978   0.311  10.128
 6418SOL     OW19699   4.096   1.288  10.800
 6418SOL    HW119700   4.083   1.381  10.766
 6418SOL    HW219701   4.012   1.236  10.787
 6419SOL     OW19702   4.314   1.487   9.801
 6419SOL    HW119703   4.356   1.429   9.731
 6419SOL    HW219704   4.270   1.566   9.757
 6420SOL     OW19705   3.979   1.348   9.600
 6420SOL    HW119706   3.883   1.349   9.573
 6420SOL    HW219707   3.991   1.401   9.684
 6421SOL     OW19708   3.829   1.013  11.036
 6421SOL    HW119709   3.752   0.980  11.090
 6421SOL    HW219710   3.914   0.983  11.078
 6422SOL     OW19711   4.396   0.203  10.799
 6422SOL    HW119712   4.486   0.187  10.759
 6422SOL    HW219713   4.404   0.208  10.898
 6423SOL     OW19714   3.799   0.345   9.343
 6423SOL    HW119715   3.707   0.317   9.314
 6423SOL    HW219716   3.830   0.422   9.287
 6424SOL     OW19717   3.796   0.166   9.628
 6424SOL    HW119718   3.779   0.249   9.574
 6424SOL    HW219719   3.886   0.129   9.606
 6425SOL     OW19720   4.337   0.842  10.741
 6425SOL    HW119721   4.393   0.923  10.724
 6425SOL    HW219722   4.396   0.762  10.744
 6426SOL     OW19723   4.114   1.741  10.870
 6426SOL    HW119724   4.023   1.782  10.868
 6426SOL    HW219725   4.107   1.647  10.902
 6427SOL     OW19726   4.318   0.745   9.962
 6427SOL    HW119727   4.368   0.830   9.943
 6427SOL    HW219728   4.230   0.747   9.914
 6428SOL     OW19729   3.803   1.240   9.963
 6428SOL    HW119730   3.802   1.193  10.051
 6428SOL    HW219731   3.885   1.212   9.912
 6429SOL     OW19732   4.396   1.391  10.934
 6429SOL    HW119733   4.318   1.341  10.972
 6429SOL    HW219734   4.393   1.486  10.965
 6430SOL     OW19735   4.152   0.424   9.830
 6430SOL    HW119736   4.182   0.352   9.768
 6430SOL    HW219737   4.113   0.384   9.913
 6431SOL     OW19738   4.041   0.547  10.590
 6431SOL    HW119739   4.079   0.488  10.662
 6431SOL    HW219740   4.081   0.521  10.502
 6432SOL     OW19741   4.536   1.586   9.997
 6432SOL    HW119742   4.568   1.596   9.903
 6432SOL    HW219743   4.457   1.524   9.999
 6433SOL     OW19744   3.763   1.077   9.610
 6433SOL    HW119745   3.862   1.066   9.601
 6433SOL    HW219746   3.723   0.991   9.642
 6434SOL     OW19747   3.954   2.490   0.113
 6434SOL    HW119748   3.861   2.488   0.150
 6434SOL    HW219749   3.955   2.451   0.021
 6435SOL     OW19750   3.949   2.137   0.996
 6435SOL    HW119751   3.984   2.120   1.088
 6435SOL    HW219752   3.861   2.092   0.984
 6436SOL     OW19753   3.743   2.230   0.647
 6436SOL    HW119754   3.661   2.273   0.686
 6436SOL    HW219755   3.715   2.157   0.584
 6437SOL     OW19756   4.293   3.137   1.165
 6437SOL    HW119757   4.200   3.130   1.128
 6437SOL    HW219758   4.304   3.226   1.209
 6438SOL     OW19759   4.574   2.660   1.823
 6438SOL    HW119760   4.570   2.736   1.888
 6438SOL    HW219761   4.596   2.696   1.732
 6439SOL     OW19762   4.409   2.874   0.665
 6439SOL    HW119763   4.478   2.858   0.735
 6439SOL    HW219764   4.336   2.931   0.703
 6440SOL     OW19765   4.410   3.023   1.803
 6440SOL    HW119766   4.470   3.102   1.817
 6440SOL    HW219767   4.324   3.054   1.762
 6441SOL     OW19768   4.059   3.297   1.061
 6441SOL    HW119769   3.981   3.266   1.008
 6441SOL    HW219770   4.117   3.355   1.004
 6442SOL     OW19771   4.162   2.254   1.499
 6442SOL    HW119772   4.244   2.198   1.508
 6442SOL    HW219773   4.081   2.196   1.503
 6443SOL     OW19774   3.955   3.575   0.483
 6443SOL    HW119775   3.989   3.652   0.537
 6443SOL    HW219776   3.999   3.575   0.393
 6444SOL     OW19777   3.954   3.296   0.538
 6444SOL    HW119778   3.928   3.392   0.538
 6444SOL    HW219779   3.883   3.242   0.583
 6445SOL     OW19780   3.964   2.953   0.886
 6445SOL    HW119781   3.978   2.869   0.938
 6445SOL    HW219782   3.909   3.017   0.941
 6446SOL     OW19783   4.344   3.648   1.439
 6446SOL    HW119784   4.252   3.631   1.474
 6446SOL    HW219785   4.372   3.740   1.465
 6447SOL     OW19786   4.330   2.826   0.123
 6447SOL    HW119787   4.337   2.910   0.069
 6447SOL    HW219788   4.376   2.839   0.211
 6448SOL     OW19789   3.846   2.505   0.563
 6448SOL    HW119790   3.801   2.417   0.580
 6448SOL    HW219791   3.845   2.559   0.647
 6449SOL     OW19792   3.751   3.458   0.117
 6449SOL    HW119793   3.732   3.362   0.138
 6449SOL    HW219794   3.718   3.516   0.192
 6450SOL     OW19795   3.837   2.599   1.597
 6450SOL    HW119796   3.925   2.586   1.642
 6450SOL    HW219797   3.824   2.696   1.575
 6451SOL     OW19798   4.337   3.227   0.726
 6451SOL    HW119799   4.288   3.140   0.735
 6451SOL    HW219800   4.314   3.270   0.639
 6452SOL     OW19801   4.533   1.866   0.502
 6452SOL    HW119802   4.573   1.957   0.493
 6452SOL    HW219803   4.433   1.874   0.508
 6453SOL     OW19804   3.921   2.838   1.264
 6453SOL    HW119805   4.010   2.793   1.250
 6453SOL    HW219806   3.848   2.773   1.245
 6454SOL     OW19807   4.041   2.113   1.801
 6454SOL    HW119808   4.112   2.184   1.807
 6454SOL    HW219809   3.953   2.152   1.829
 6455SOL     OW19810   4.322   2.591   0.270
 6455SOL    HW119811   4.346   2.660   0.202
 6455SOL    HW219812   4.244   2.624   0.324
 6456SOL     OW19813   3.800   2.673   0.789
 6456SOL    HW119814   3.899   2.661   0.798
 6456SOL    HW219815   3.776   2.768   0.810
 6457SOL     OW19816   3.854   3.683   1.571
 6457SOL    HW119817   3.844   3.668   1.670
 6457SOL    HW219818   3.768   3.719   1.535
 6458SOL     OW19819   4.274   2.058   0.885
 6458SOL    HW119820   4.269   2.053   0.985
 6458SOL    HW219821   4.276   2.154   0.856
 6459SOL     OW19822   4.075   3.663   0.853
 6459SOL    HW119823   4.125   3.577   0.859
 6459SOL    HW219824   4.140   3.740   0.850
 6460SOL     OW19825   4.045   2.805   0.242
 6460SOL    HW119826   4.127   2.844   0.200
 6460SOL    HW219827   4.018   2.723   0.193
 6461SOL     OW19828   4.185   3.128   1.727
 6461SOL    HW119829   4.135   3.129   1.641
 6461SOL    HW219830   4.122   3.110   1.803
 6462SOL     OW19831   3.926   2.147   1.498
 6462SOL    HW119832   3.846   2.207   1.485
 6462SOL    HW219833   3.916   2.098   1.584
 6463SOL     OW19834   4.188   3.605   0.323
 6463SOL    HW119835   4.221   3.644   0.409
 6463SOL    HW219836   4.264   3.598   0.258
 6464SOL     OW19837   3.973   3.647   1.241
 6464SOL    HW119838   4.030   3.582   1.291
 6464SOL    HW219839   3.957   3.614   1.148
 6465SOL     OW19840   4.106   2.562   0.480
 6465SOL    HW119841   4.151   2.472   0.477
 6465SOL    HW219842   4.012   2.551   0.513
 6466SOL     OW19843   4.338   1.984   0.117
 6466SOL    HW119844   4.436   1.962   0.124
 6466SOL    HW219845   4.307   1.967   0.024
 6467SOL     OW19846   4.527   3.264   0.924
 6467SOL    HW119847   4.617   3.278   0.882
 6467SOL    HW219848   4.456   3.266   0.853
 6468SOL     OW19849   4.263   1.926   0.512
 6468SOL    HW119850   4.182   1.927   0.570
 6468SOL    HW219851   4.266   2.009   0.457
 6469SOL     OW19852   4.021   1.897   0.171
 6469SOL    HW119853   4.070   1.981   0.150
 6469SOL    HW219854   4.083   1.832   0.216
 6470SOL     OW19855   4.800   2.545   1.464
 6470SOL    HW119856   4.720   2.484   1.467
 6470SOL    HW219857   4.881   2.492   1.440
 6471SOL     OW19858   4.183   3.014   0.741
 6471SOL    HW119859   4.112   2.987   0.806
 6471SOL    HW219860   4.157   2.986   0.648
 6472SOL     OW19861   3.802   2.418   1.386
 6472SOL    HW119862   3.894   2.417   1.345
 6472SOL    HW219863   3.796   2.492   1.453
 6473SOL     OW19864   4.285   2.084   1.147
 6473SOL    HW119865   4.323   2.000   1.184
 6473SOL    HW219866   4.197   2.103   1.191
 6474SOL     OW19867   4.212   3.247   0.174
 6474SOL    HW119868   4.125   3.232   0.221
 6474SOL    HW219869   4.195   3.273   0.079
 6475SOL     OW19870   4.251   2.118   0.328
 6475SOL    HW119871   4.278   2.059   0.253
 6475SOL    HW219872   4.251   2.213   0.297
 6476SOL     OW19873   4.134   2.675   1.251
 6476SOL    HW119874   4.220   2.687   1.301
 6476SOL    HW219875   4.092   2.588   1.278
 6477SOL     OW19876   3.788   3.426   1.331
 6477SOL    HW119877   3.742   3.508   1.297
 6477SOL    HW219878   3.886   3.445   1.340
 6478SOL     OW19879   4.091   2.962   0.501
 6478SOL    HW119880   4.084   3.045   0.445
 6478SOL    HW219881   4.095   2.882   0.441
 6479SOL     OW19882   4.290   2.399   0.865
 6479SOL    HW119883   4.302   2.465   0.791
 6479SOL    HW219884   4.336   2.433   0.948
 6480SOL     OW19885   4.078   3.372   1.329
 6480SOL    HW119886   4.057   3.328   1.242
 6480SOL    HW219887   4.175   3.398   1.332
 6481SOL     OW19888   4.126   2.613   1.598
 6481SOL    HW119889   4.194   2.668   1.551
 6481SOL    HW219890   4.166   2.525   1.625
 6482SOL     OW19891   4.228   1.912   1.740
 6482SOL    HW119892   4.186   1.855   1.670
 6482SOL    HW219893   4.162   1.981   1.772
 6483SOL     OW19894   4.297   2.732   1.029
 6483SOL    HW119895   4.341   2.821   1.020
 6483SOL    HW219896   4.234   2.732   1.106
 6484SOL     OW19897   4.031   2.075   1.231
 6484SOL    HW119898   4.008   2.112   1.321
 6484SOL    HW219899   4.001   1.980   1.225
 6485SOL     OW19900   3.761   3.172   1.282
 6485SOL    HW119901   3.814   3.123   1.350
 6485SOL    HW219902   3.783   3.270   1.287
 6486SOL     OW19903   4.031   1.925   0.618
 6486SOL    HW119904   4.020   2.019   0.651
 6486SOL    HW219905   4.026   1.862   0.695
 6487SOL     OW19906   4.074   2.760   1.804
 6487SOL    HW119907   4.150   2.804   1.852
 6487SOL    HW219908   4.109   2.713   1.722
 6488SOL     OW19909   4.043   2.672   0.949
 6488SOL    HW119910   4.136   2.708   0.954
 6488SOL    HW219911   4.037   2.587   1.001
 6489SOL     OW19912   4.063   2.371   1.006
 6489SOL    HW119913   4.011   2.288   0.989
 6489SOL    HW219914   4.140   2.376   0.942
 6490SOL     OW19915   3.732   3.188   0.200
 6490SOL    HW119916   3.639   3.209   0.169
 6490SOL    HW219917   3.742   3.089   0.213
 6491SOL     OW19918   3.812   3.663   0.927
 6491SOL    HW119919   3.770   3.577   0.900
 6491SOL    HW219920   3.906   3.666   0.893
 6492SOL     OW19921   4.228   3.430   0.910
 6492SOL    HW119922   4.294   3.504   0.919
 6492SOL    HW219923   4.272   3.351   0.868
 6493SOL     OW19924   3.764   2.406   1.114
 6493SOL    HW119925   3.849   2.373   1.073
 6493SOL    HW219926   3.777   2.421   1.212
 6494SOL     OW19927   3.913   2.382   1.722
 6494SOL    HW119928   3.972   2.342   1.652
 6494SOL    HW219929   3.855   2.453   1.681
 6495SOL     OW19930   4.539   2.434   0.325
 6495SOL    HW119931   4.546   2.345   0.279
 6495SOL    HW219932   4.445   2.468   0.317
 6496SOL     OW19933   3.976   3.426   1.744
 6496SOL    HW119934   3.946   3.483   1.820
 6496SOL    HW219935   3.969   3.329   1.770
 6497SOL     OW19936   4.197   2.362   0.191
 6497SOL    HW119937   4.258   2.442   0.195
 6497SOL    HW219938   4.102   2.393   0.198
 6498SOL     OW19939   3.883   2.999   1.466
 6498SOL    HW119940   3.905   2.938   1.542
 6498SOL    HW219941   3.893   2.950   1.380
 6499SOL     OW19942   3.807   3.120   1.022
 6499SOL    HW119943   3.802   3.119   1.122
 6499SOL    HW219944   3.724   3.079   0.984
 6500SOL     OW19945   4.412   3.524   1.716
 6500SOL    HW119946   4.356   3.605   1.725
 6500SOL    HW219947   4.464   3.528   1.630
 6501SOL     OW19948   3.854   3.656   1.851
 6501SOL    HW119949   3.813   3.582   1.904
 6501SOL    HW219950   3.918   3.707   1.909
 6502SOL     OW19951   3.987   2.188   0.720
 6502SOL    HW119952   3.908   2.239   0.686
 6502SOL    HW219953   3.978   2.173   0.818
 6503SOL     OW19954   4.096   3.150   1.490
 6503SOL    HW119955   4.083   3.243   1.456
 6503SOL    HW219956   4.012   3.098   1.477
 6504SOL     OW19957   4.314   3.349   0.491
 6504SOL    HW119958   4.356   3.291   0.421
 6504SOL    HW219959   4.270   3.428   0.447
 6505SOL     OW19960   3.979   3.210   0.290
 6505SOL    HW119961   3.883   3.211   0.263
 6505SOL    HW219962   3.991   3.263   0.374
 6506SOL     OW19963   3.829   2.875   1.726
 6506SOL    HW119964   3.752   2.842   1.780
 6506SOL    HW219965   3.914   2.845   1.768
 6507SOL     OW19966   4.396   2.065   1.489
 6507SOL    HW119967   4.486   2.049   1.449
 6507SOL    HW219968   4.404   2.070   1.588
 6508SOL     OW19969   3.799   2.207   0.033
 6508SOL    HW119970   3.707   2.179   0.004
 6508SOL    HW219971   3.830   2.284  -0.023
 6509SOL     OW19972   3.796   2.028   0.318
 6509SOL    HW119973   3.779   2.111   0.264
 6509SOL    HW219974   3.886   1.991   0.296
 6510SOL     OW19975   4.337   2.704   1.431
 6510SOL    HW119976   4.393   2.785   1.414
 6510SOL    HW219977   4.396   2.624   1.434
 6511SOL     OW19978   4.440   2.427   1.708
 6511SOL    HW119979   4.459   2.492   1.782
 6511SOL    HW219980   4.500   2.347   1.717
 6512SOL     OW19981   4.114   3.603   1.560
 6512SOL    HW119982   4.023   3.644   1.558
 6512SOL    HW219983   4.107   3.509   1.592
 6513SOL     OW19984   4.318   2.607   0.652
 6513SOL    HW119985   4.368   2.692   0.633
 6513SOL    HW219986   4.230   2.609   0.604
 6514SOL     OW19987   3.945   3.176   1.844
 6514SOL    HW119988   3.880   3.103   1.823
 6514SOL    HW219989   3.949   3.190   1.942
 6515SOL     OW19990   3.803   3.102   0.653
 6515SOL    HW119991   3.802   3.055   0.741
 6515SOL    HW219992   3.885   3.074   0.602
 6516SOL     OW19993   4.396   3.253   1.624
 6516SOL    HW119994   4.318   3.203   1.662
 6516SOL    HW219995   4.393   3.348   1.655
 6517SOL     OW19996   4.152   2.286   0.520
 6517SOL    HW119997   4.182   2.214   0.458
 6517SOL    HW219998   4.113   2.246   0.603
 6518SOL     OW19999   4.041   2.409   1.280
 6518SOL    HW120000   4.079   2.350   1.352
 6518SOL    HW220001   4.081   2.383   1.192
 6519SOL     OW20002   4.536   3.448   0.687
 6519SOL    HW120003   4.568   3.458   0.593
 6519SOL    HW220004   4.457   3.386   0.689
 6520SOL     OW20005   3.763   2.939   0.300
 6520SOL    HW120006   3.862   2.928   0.291
 6520SOL    HW220007   3.723   2.853   0.332
 6521SOL     OW20008   3.954   2.490   1.975
 6521SOL    HW120009   3.861   2.488   2.012
 6521SOL    HW220010   3.955   2.451   1.883
 6522SOL     OW20011   3.949   2.137   2.858
 6522SOL    HW120012   3.984   2.120   2.950
 6522SOL    HW220013   3.861   2.092   2.846
 6523SOL     OW20014   3.743   2.230   2.509
 6523SOL    HW120015   3.661   2.273   2.548
 6523SOL    HW220016   3.715   2.157   2.446
 6524SOL     OW20017   4.293   3.137   3.027
 6524SOL    HW120018   4.200   3.130   2.990
 6524SOL    HW220019   4.304   3.226   3.071
 6525SOL     OW20020   4.574   2.660   3.685
 6525SOL    HW120021   4.570   2.736   3.750
 6525SOL    HW220022   4.596   2.696   3.594
 6526SOL     OW20023   4.409   2.874   2.527
 6526SOL    HW120024   4.478   2.858   2.597
 6526SOL    HW220025   4.336   2.931   2.565
 6527SOL     OW20026   4.410   3.023   3.665
 6527SOL    HW120027   4.470   3.102   3.679
 6527SOL    HW220028   4.324   3.054   3.624
 6528SOL     OW20029   4.059   3.297   2.923
 6528SOL    HW120030   3.981   3.266   2.870
 6528SOL    HW220031   4.117   3.355   2.866
 6529SOL     OW20032   4.162   2.254   3.361
 6529SOL    HW120033   4.244   2.198   3.370
 6529SOL    HW220034   4.081   2.196   3.365
 6530SOL     OW20035   3.955   3.575   2.345
 6530SOL    HW120036   3.989   3.652   2.399
 6530SOL    HW220037   3.999   3.575   2.255
 6531SOL     OW20038   3.954   3.296   2.400
 6531SOL    HW120039   3.928   3.392   2.400
 6531SOL    HW220040   3.883   3.242   2.445
 6532SOL     OW20041   3.964   2.953   2.748
 6532SOL    HW120042   3.978   2.869   2.800
 6532SOL    HW220043   3.909   3.017   2.803
 6533SOL     OW20044   4.344   3.648   3.301
 6533SOL    HW120045   4.252   3.631   3.336
 6533SOL    HW220046   4.372   3.740   3.327
 6534SOL     OW20047   4.330   2.826   1.985
 6534SOL    HW120048   4.337   2.910   1.931
 6534SOL    HW220049   4.376   2.839   2.073
 6535SOL     OW20050   3.846   2.505   2.425
 6535SOL    HW120051   3.801   2.417   2.442
 6535SOL    HW220052   3.845   2.559   2.509
 6536SOL     OW20053   3.751   3.458   1.979
 6536SOL    HW120054   3.732   3.362   2.000
 6536SOL    HW220055   3.718   3.516   2.054
 6537SOL     OW20056   3.837   2.599   3.459
 6537SOL    HW120057   3.925   2.586   3.504
 6537SOL    HW220058   3.824   2.696   3.437
 6538SOL     OW20059   4.337   3.227   2.588
 6538SOL    HW120060   4.288   3.140   2.597
 6538SOL    HW220061   4.314   3.270   2.501
 6539SOL     OW20062   4.533   1.866   2.364
 6539SOL    HW120063   4.573   1.957   2.355
 6539SOL    HW220064   4.433   1.874   2.370
 6540SOL     OW20065   3.921   2.838   3.126
 6540SOL    HW120066   4.010   2.793   3.112
 6540SOL    HW220067   3.848   2.773   3.107
 6541SOL     OW20068   4.041   2.113   3.663
 6541SOL    HW120069   4.112   2.184   3.669
 6541SOL    HW220070   3.953   2.152   3.691
 6542SOL     OW20071   4.322   2.591   2.132
 6542SOL    HW120072   4.346   2.660   2.064
 6542SOL    HW220073   4.244   2.624   2.186
 6543SOL     OW20074   3.800   2.673   2.651
 6543SOL    HW120075   3.899   2.661   2.660
 6543SOL    HW220076   3.776   2.768   2.672
 6544SOL     OW20077   3.854   3.683   3.433
 6544SOL    HW120078   3.844   3.668   3.532
 6544SOL    HW220079   3.768   3.719   3.397
 6545SOL     OW20080   4.274   2.058   2.747
 6545SOL    HW120081   4.269   2.053   2.847
 6545SOL    HW220082   4.276   2.154   2.718
 6546SOL     OW20083   4.075   3.663   2.715
 6546SOL    HW120084   4.125   3.577   2.721
 6546SOL    HW220085   4.140   3.740   2.712
 6547SOL     OW20086   4.045   2.805   2.104
 6547SOL    HW120087   4.127   2.844   2.062
 6547SOL    HW220088   4.018   2.723   2.055
 6548SOL     OW20089   4.185   3.128   3.589
 6548SOL    HW120090   4.135   3.129   3.503
 6548SOL    HW220091   4.122   3.110   3.665
 6549SOL     OW20092   3.926   2.147   3.360
 6549SOL    HW120093   3.846   2.207   3.347
 6549SOL    HW220094   3.916   2.098   3.446
 6550SOL     OW20095   4.188   3.605   2.185
 6550SOL    HW120096   4.221   3.644   2.271
 6550SOL    HW220097   4.264   3.598   2.120
 6551SOL     OW20098   3.973   3.647   3.103
 6551SOL    HW120099   4.030   3.582   3.153
 6551SOL    HW220100   3.957   3.614   3.010
 6552SOL     OW20101   4.106   2.562   2.342
 6552SOL    HW120102   4.151   2.472   2.339
 6552SOL    HW220103   4.012   2.551   2.375
 6553SOL     OW20104   4.338   1.984   1.979
 6553SOL    HW120105   4.436   1.962   1.986
 6553SOL    HW220106   4.307   1.967   1.886
 6554SOL     OW20107   4.527   3.264   2.786
 6554SOL    HW120108   4.617   3.278   2.744
 6554SOL    HW220109   4.456   3.266   2.715
 6555SOL     OW20110   4.263   1.926   2.374
 6555SOL    HW120111   4.182   1.927   2.432
 6555SOL    HW220112   4.266   2.009   2.319
 6556SOL     OW20113   4.021   1.897   2.033
 6556SOL    HW120114   4.070   1.981   2.012
 6556SOL    HW220115   4.083   1.832   2.078
 6557SOL     OW20116   4.800   2.545   3.326
 6557SOL    HW120117   4.720   2.484   3.329
 6557SOL    HW220118   4.881   2.492   3.302
 6558SOL     OW20119   4.183   3.014   2.603
 6558SOL    HW120120   4.112   2.987   2.668
 6558SOL    HW220121   4.157   2.986   2.510
 6559SOL     OW20122   3.802   2.418   3.248
 6559SOL    HW120123   3.894   2.417   3.207
 6559SOL    HW220124   3.796   2.492   3.315
 6560SOL     OW20125   4.285   2.084   3.009
 6560SOL    HW120126   4.323   2.000   3.046
 6560SOL    HW220127   4.197   2.103   3.053
 6561SOL     OW20128   4.212   3.247   2.036
 6561SOL    HW120129   4.125   3.232   2.083
 6561SOL    HW220130   4.195   3.273   1.941
 6562SOL     OW20131   4.251   2.118   2.190
 6562SOL    HW120132   4.278   2.059   2.115
 6562SOL    HW220133   4.251   2.213   2.159
 6563SOL     OW20134   4.134   2.675   3.113
 6563SOL    HW120135   4.220   2.687   3.163
 6563SOL    HW220136   4.092   2.588   3.140
 6564SOL     OW20137   3.788   3.426   3.193
 6564SOL    HW120138   3.742   3.508   3.159
 6564SOL    HW220139   3.886   3.445   3.202
 6565SOL     OW20140   4.091   2.962   2.363
 6565SOL    HW120141   4.084   3.045   2.307
 6565SOL    HW220142   4.095   2.882   2.303
 6566SOL     OW20143   4.290   2.399   2.727
 6566SOL    HW120144   4.302   2.465   2.653
 6566SOL    HW220145   4.336   2.433   2.810
 6567SOL     OW20146   4.078   3.372   3.191
 6567SOL    HW120147   4.057   3.328   3.104
 6567SOL    HW220148   4.175   3.398   3.194
 6568SOL     OW20149   4.126   2.613   3.460
 6568SOL    HW120150   4.194   2.668   3.413
 6568SOL    HW220151   4.166   2.525   3.487
 6569SOL     OW20152   4.228   1.912   3.602
 6569SOL    HW120153   4.186   1.855   3.532
 6569SOL    HW220154   4.162   1.981   3.634
 6570SOL     OW20155   4.297   2.732   2.891
 6570SOL    HW120156   4.341   2.821   2.882
 6570SOL    HW220157   4.234   2.732   2.968
 6571SOL     OW20158   4.031   2.075   3.093
 6571SOL    HW120159   4.008   2.112   3.183
 6571SOL    HW220160   4.001   1.980   3.087
 6572SOL     OW20161   3.761   3.172   3.144
 6572SOL    HW120162   3.814   3.123   3.212
 6572SOL    HW220163   3.783   3.270   3.149
 6573SOL     OW20164   4.031   1.925   2.480
 6573SOL    HW120165   4.020   2.019   2.513
 6573SOL    HW220166   4.026   1.862   2.557
 6574SOL     OW20167   4.074   2.760   3.666
 6574SOL    HW120168   4.150   2.804   3.714
 6574SOL    HW220169   4.109   2.713   3.584
 6575SOL     OW20170   4.043   2.672   2.811
 6575SOL    HW120171   4.136   2.708   2.816
 6575SOL    HW220172   4.037   2.587   2.863
 6576SOL     OW20173   4.063   2.371   2.868
 6576SOL    HW120174   4.011   2.288   2.851
 6576SOL    HW220175   4.140   2.376   2.804
 6577SOL     OW20176   3.732   3.188   2.062
 6577SOL    HW120177   3.639   3.209   2.031
 6577SOL    HW220178   3.742   3.089   2.075
 6578SOL     OW20179   3.812   3.663   2.789
 6578SOL    HW120180   3.770   3.577   2.762
 6578SOL    HW220181   3.906   3.666   2.755
 6579SOL     OW20182   4.228   3.430   2.772
 6579SOL    HW120183   4.294   3.504   2.781
 6579SOL    HW220184   4.272   3.351   2.730
 6580SOL     OW20185   3.764   2.406   2.976
 6580SOL    HW120186   3.849   2.373   2.935
 6580SOL    HW220187   3.777   2.421   3.074
 6581SOL     OW20188   3.913   2.382   3.584
 6581SOL    HW120189   3.972   2.342   3.514
 6581SOL    HW220190   3.855   2.453   3.543
 6582SOL     OW20191   4.539   2.434   2.187
 6582SOL    HW120192   4.546   2.345   2.141
 6582SOL    HW220193   4.445   2.468   2.179
 6583SOL     OW20194   3.976   3.426   3.606
 6583SOL    HW120195   3.946   3.483   3.682
 6583SOL    HW220196   3.969   3.329   3.632
 6584SOL     OW20197   4.197   2.362   2.053
 6584SOL    HW120198   4.258   2.442   2.057
 6584SOL    HW220199   4.102   2.393   2.060
 6585SOL     OW20200   3.883   2.999   3.328
 6585SOL    HW120201   3.905   2.938   3.404
 6585SOL    HW220202   3.893   2.950   3.242
 6586SOL     OW20203   3.807   3.120   2.884
 6586SOL    HW120204   3.802   3.119   2.984
 6586SOL    HW220205   3.724   3.079   2.846
 6587SOL     OW20206   4.412   3.524   3.578
 6587SOL    HW120207   4.356   3.605   3.587
 6587SOL    HW220208   4.464   3.528   3.492
 6588SOL     OW20209   3.854   3.656   3.713
 6588SOL    HW120210   3.813   3.582   3.766
 6588SOL    HW220211   3.918   3.707   3.771
 6589SOL     OW20212   3.987   2.188   2.582
 6589SOL    HW120213   3.908   2.239   2.548
 6589SOL    HW220214   3.978   2.173   2.680
 6590SOL     OW20215   4.096   3.150   3.352
 6590SOL    HW120216   4.083   3.243   3.318
 6590SOL    HW220217   4.012   3.098   3.339
 6591SOL     OW20218   4.314   3.349   2.353
 6591SOL    HW120219   4.356   3.291   2.283
 6591SOL    HW220220   4.270   3.428   2.309
 6592SOL     OW20221   3.979   3.210   2.152
 6592SOL    HW120222   3.883   3.211   2.125
 6592SOL    HW220223   3.991   3.263   2.236
 6593SOL     OW20224   3.829   2.875   3.588
 6593SOL    HW120225   3.752   2.842   3.642
 6593SOL    HW220226   3.914   2.845   3.630
 6594SOL     OW20227   4.396   2.065   3.351
 6594SOL    HW120228   4.486   2.049   3.311
 6594SOL    HW220229   4.404   2.070   3.450
 6595SOL     OW20230   3.799   2.207   1.895
 6595SOL    HW120231   3.707   2.179   1.866
 6595SOL    HW220232   3.830   2.284   1.839
 6596SOL     OW20233   3.796   2.028   2.180
 6596SOL    HW120234   3.779   2.111   2.126
 6596SOL    HW220235   3.886   1.991   2.158
 6597SOL     OW20236   4.337   2.704   3.293
 6597SOL    HW120237   4.393   2.785   3.276
 6597SOL    HW220238   4.396   2.624   3.296
 6598SOL     OW20239   4.440   2.427   3.570
 6598SOL    HW120240   4.459   2.492   3.644
 6598SOL    HW220241   4.500   2.347   3.579
 6599SOL     OW20242   4.114   3.603   3.422
 6599SOL    HW120243   4.023   3.644   3.420
 6599SOL    HW220244   4.107   3.509   3.454
 6600SOL     OW20245   4.318   2.607   2.514
 6600SOL    HW120246   4.368   2.692   2.495
 6600SOL    HW220247   4.230   2.609   2.466
 6601SOL     OW20248   3.945   3.176   3.706
 6601SOL    HW120249   3.880   3.103   3.685
 6601SOL    HW220250   3.949   3.190   3.804
 6602SOL     OW20251   3.803   3.102   2.515
 6602SOL    HW120252   3.802   3.055   2.603
 6602SOL    HW220253   3.885   3.074   2.464
 6603SOL     OW20254   4.396   3.253   3.486
 6603SOL    HW120255   4.318   3.203   3.524
 6603SOL    HW220256   4.393   3.348   3.517
 6604SOL     OW20257   4.152   2.286   2.382
 6604SOL    HW120258   4.182   2.214   2.320
 6604SOL    HW220259   4.113   2.246   2.465
 6605SOL     OW20260   4.041   2.409   3.142
 6605SOL    HW120261   4.079   2.350   3.214
 6605SOL    HW220262   4.081   2.383   3.054
 6606SOL     OW20263   4.536   3.448   2.549
 6606SOL    HW120264   4.568   3.458   2.455
 6606SOL    HW220265   4.457   3.386   2.551
 6607SOL     OW20266   3.763   2.939   2.162
 6607SOL    HW120267   3.862   2.928   2.153
 6607SOL    HW220268   3.723   2.853   2.194
 6608SOL     OW20269   3.954   2.490   3.837
 6608SOL    HW120270   3.861   2.488   3.874
 6608SOL    HW220271   3.955   2.451   3.745
 6609SOL     OW20272   3.949   2.137   4.720
 6609SOL    HW120273   3.984   2.120   4.812
 6609SOL    HW220274   3.861   2.092   4.708
 6610SOL     OW20275   3.743   2.230   4.371
 6610SOL    HW120276   3.661   2.273   4.410
 6610SOL    HW220277   3.715   2.157   4.308
 6611SOL     OW20278   4.293   3.137   4.889
 6611SOL    HW120279   4.200   3.130   4.852
 6611SOL    HW220280   4.304   3.226   4.933
 6612SOL     OW20281   4.574   2.660   5.547
 6612SOL    HW120282   4.570   2.736   5.612
 6612SOL    HW220283   4.596   2.696   5.456
 6613SOL     OW20284   4.409   2.874   4.389
 6613SOL    HW120285   4.478   2.858   4.459
 6613SOL    HW220286   4.336   2.931   4.427
 6614SOL     OW20287   4.410   3.023   5.527
 6614SOL    HW120288   4.470   3.102   5.541
 6614SOL    HW220289   4.324   3.054   5.486
 6615SOL     OW20290   4.059   3.297   4.785
 6615SOL    HW120291   3.981   3.266   4.732
 6615SOL    HW220292   4.117   3.355   4.728
 6616SOL     OW20293   4.162   2.254   5.223
 6616SOL    HW120294   4.244   2.198   5.232
 6616SOL    HW220295   4.081   2.196   5.227
 6617SOL     OW20296   3.955   3.575   4.207
 6617SOL    HW120297   3.989   3.652   4.261
 6617SOL    HW220298   3.999   3.575   4.117
 6618SOL     OW20299   3.954   3.296   4.262
 6618SOL    HW120300   3.928   3.392   4.262
 6618SOL    HW220301   3.883   3.242   4.307
 6619SOL     OW20302   3.964   2.953   4.610
 6619SOL    HW120303   3.978   2.869   4.662
 6619SOL    HW220304   3.909   3.017   4.665
 6620SOL     OW20305   4.344   3.648   5.163
 6620SOL    HW120306   4.252   3.631   5.198
 6620SOL    HW220307   4.372   3.740   5.189
 6621SOL     OW20308   4.330   2.826   3.847
 6621SOL    HW120309   4.337   2.910   3.793
 6621SOL    HW220310   4.376   2.839   3.935
 6622SOL     OW20311   3.846   2.505   4.287
 6622SOL    HW120312   3.801   2.417   4.304
 6622SOL    HW220313   3.845   2.559   4.371
 6623SOL     OW20314   3.751   3.458   3.841
 6623SOL    HW120315   3.732   3.362   3.862
 6623SOL    HW220316   3.718   3.516   3.916
 6624SOL     OW20317   3.837   2.599   5.321
 6624SOL    HW120318   3.925   2.586   5.366
 6624SOL    HW220319   3.824   2.696   5.299
 6625SOL     OW20320   4.337   3.227   4.450
 6625SOL    HW120321   4.288   3.140   4.459
 6625SOL    HW220322   4.314   3.270   4.363
 6626SOL     OW20323   4.533   1.866   4.226
 6626SOL    HW120324   4.573   1.957   4.217
 6626SOL    HW220325   4.433   1.874   4.232
 6627SOL     OW20326   3.921   2.838   4.988
 6627SOL    HW120327   4.010   2.793   4.974
 6627SOL    HW220328   3.848   2.773   4.969
 6628SOL     OW20329   4.041   2.113   5.525
 6628SOL    HW120330   4.112   2.184   5.531
 6628SOL    HW220331   3.953   2.152   5.553
 6629SOL     OW20332   4.322   2.591   3.994
 6629SOL    HW120333   4.346   2.660   3.926
 6629SOL    HW220334   4.244   2.624   4.048
 6630SOL     OW20335   3.800   2.673   4.513
 6630SOL    HW120336   3.899   2.661   4.522
 6630SOL    HW220337   3.776   2.768   4.534
 6631SOL     OW20338   3.854   3.683   5.295
 6631SOL    HW120339   3.844   3.668   5.394
 6631SOL    HW220340   3.768   3.719   5.259
 6632SOL     OW20341   4.274   2.058   4.609
 6632SOL    HW120342   4.269   2.053   4.709
 6632SOL    HW220343   4.276   2.154   4.580
 6633SOL     OW20344   4.075   3.663   4.577
 6633SOL    HW120345   4.125   3.577   4.583
 6633SOL    HW220346   4.140   3.740   4.574
 6634SOL     OW20347   4.045   2.805   3.966
 6634SOL    HW120348   4.127   2.844   3.924
 6634SOL    HW220349   4.018   2.723   3.917
 6635SOL     OW20350   4.185   3.128   5.451
 6635SOL    HW120351   4.135   3.129   5.365
 6635SOL    HW220352   4.122   3.110   5.527
 6636SOL     OW20353   3.926   2.147   5.222
 6636SOL    HW120354   3.846   2.207   5.209
 6636SOL    HW220355   3.916   2.098   5.308
 6637SOL     OW20356   4.188   3.605   4.047
 6637SOL    HW120357   4.221   3.644   4.133
 6637SOL    HW220358   4.264   3.598   3.982
 6638SOL     OW20359   3.973   3.647   4.965
 6638SOL    HW120360   4.030   3.582   5.015
 6638SOL    HW220361   3.957   3.614   4.872
 6639SOL     OW20362   4.106   2.562   4.204
 6639SOL    HW120363   4.151   2.472   4.201
 6639SOL    HW220364   4.012   2.551   4.237
 6640SOL     OW20365   4.338   1.984   3.841
 6640SOL    HW120366   4.436   1.962   3.848
 6640SOL    HW220367   4.307   1.967   3.748
 6641SOL     OW20368   4.527   3.264   4.648
 6641SOL    HW120369   4.617   3.278   4.606
 6641SOL    HW220370   4.456   3.266   4.577
 6642SOL     OW20371   4.263   1.926   4.236
 6642SOL    HW120372   4.182   1.927   4.294
 6642SOL    HW220373   4.266   2.009   4.181
 6643SOL     OW20374   4.021   1.897   3.895
 6643SOL    HW120375   4.070   1.981   3.874
 6643SOL    HW220376   4.083   1.832   3.940
 6644SOL     OW20377   4.800   2.545   5.188
 6644SOL    HW120378   4.720   2.484   5.191
 6644SOL    HW220379   4.881   2.492   5.164
 6645SOL     OW20380   4.183   3.014   4.465
 6645SOL    HW120381   4.112   2.987   4.530
 6645SOL    HW220382   4.157   2.986   4.372
 6646SOL     OW20383   3.802   2.418   5.110
 6646SOL    HW120384   3.894   2.417   5.069
 6646SOL    HW220385   3.796   2.492   5.177
 6647SOL     OW20386   4.285   2.084   4.871
 6647SOL    HW120387   4.323   2.000   4.908
 6647SOL    HW220388   4.197   2.103   4.915
 6648SOL     OW20389   4.212   3.247   3.898
 6648SOL    HW120390   4.125   3.232   3.945
 6648SOL    HW220391   4.195   3.273   3.803
 6649SOL     OW20392   4.251   2.118   4.052
 6649SOL    HW120393   4.278   2.059   3.977
 6649SOL    HW220394   4.251   2.213   4.021
 6650SOL     OW20395   4.134   2.675   4.975
 6650SOL    HW120396   4.220   2.687   5.025
 6650SOL    HW220397   4.092   2.588   5.002
 6651SOL     OW20398   3.788   3.426   5.055
 6651SOL    HW120399   3.742   3.508   5.021
 6651SOL    HW220400   3.886   3.445   5.064
 6652SOL     OW20401   4.091   2.962   4.225
 6652SOL    HW120402   4.084   3.045   4.169
 6652SOL    HW220403   4.095   2.882   4.165
 6653SOL     OW20404   4.290   2.399   4.589
 6653SOL    HW120405   4.302   2.465   4.515
 6653SOL    HW220406   4.336   2.433   4.672
 6654SOL     OW20407   4.078   3.372   5.053
 6654SOL    HW120408   4.057   3.328   4.966
 6654SOL    HW220409   4.175   3.398   5.056
 6655SOL     OW20410   4.126   2.613   5.322
 6655SOL    HW120411   4.194   2.668   5.275
 6655SOL    HW220412   4.166   2.525   5.349
 6656SOL     OW20413   4.228   1.912   5.464
 6656SOL    HW120414   4.186   1.855   5.394
 6656SOL    HW220415   4.162   1.981   5.496
 6657SOL     OW20416   4.297   2.732   4.753
 6657SOL    HW120417   4.341   2.821   4.744
 6657SOL    HW220418   4.234   2.732   4.830
 6658SOL     OW20419   4.031   2.075   4.955
 6658SOL    HW120420   4.008   2.112   5.045
 6658SOL    HW220421   4.001   1.980   4.949
 6659SOL     OW20422   3.761   3.172   5.006
 6659SOL    HW120423   3.814   3.123   5.074
 6659SOL    HW220424   3.783   3.270   5.011
 6660SOL     OW20425   4.031   1.925   4.342
 6660SOL    HW120426   4.020   2.019   4.375
 6660SOL    HW220427   4.026   1.862   4.419
 6661SOL     OW20428   4.074   2.760   5.528
 6661SOL    HW120429   4.150   2.804   5.576
 6661SOL    HW220430   4.109   2.713   5.446
 6662SOL     OW20431   4.043   2.672   4.673
 6662SOL    HW120432   4.136   2.708   4.678
 6662SOL    HW220433   4.037   2.587   4.725
 6663SOL     OW20434   4.063   2.371   4.730
 6663SOL    HW120435   4.011   2.288   4.713
 6663SOL    HW220436   4.140   2.376   4.666
 6664SOL     OW20437   3.732   3.188   3.924
 6664SOL    HW120438   3.639   3.209   3.893
 6664SOL    HW220439   3.742   3.089   3.937
 6665SOL     OW20440   3.812   3.663   4.651
 6665SOL    HW120441   3.770   3.577   4.624
 6665SOL    HW220442   3.906   3.666   4.617
 6666SOL     OW20443   4.228   3.430   4.634
 6666SOL    HW120444   4.294   3.504   4.643
 6666SOL    HW220445   4.272   3.351   4.592
 6667SOL     OW20446   3.764   2.406   4.838
 6667SOL    HW120447   3.849   2.373   4.797
 6667SOL    HW220448   3.777   2.421   4.936
 6668SOL     OW20449   3.913   2.382   5.446
 6668SOL    HW120450   3.972   2.342   5.376
 6668SOL    HW220451   3.855   2.453   5.405
 6669SOL     OW20452   4.539   2.434   4.049
 6669SOL    HW120453   4.546   2.345   4.003
 6669SOL    HW220454   4.445   2.468   4.041
 6670SOL     OW20455   3.976   3.426   5.468
 6670SOL    HW120456   3.946   3.483   5.544
 6670SOL    HW220457   3.969   3.329   5.494
 6671SOL     OW20458   4.197   2.362   3.915
 6671SOL    HW120459   4.258   2.442   3.919
 6671SOL    HW220460   4.102   2.393   3.922
 6672SOL     OW20461   3.883   2.999   5.190
 6672SOL    HW120462   3.905   2.938   5.266
 6672SOL    HW220463   3.893   2.950   5.104
 6673SOL     OW20464   3.807   3.120   4.746
 6673SOL    HW120465   3.802   3.119   4.846
 6673SOL    HW220466   3.724   3.079   4.708
 6674SOL     OW20467   4.412   3.524   5.440
 6674SOL    HW120468   4.356   3.605   5.449
 6674SOL    HW220469   4.464   3.528   5.354
 6675SOL     OW20470   3.854   3.656   5.575
 6675SOL    HW120471   3.813   3.582   5.628
 6675SOL    HW220472   3.918   3.707   5.633
 6676SOL     OW20473   3.987   2.188   4.444
 6676SOL    HW120474   3.908   2.239   4.410
 6676SOL    HW220475   3.978   2.173   4.542
 6677SOL     OW20476   4.096   3.150   5.214
 6677SOL    HW120477   4.083   3.243   5.180
 6677SOL    HW220478   4.012   3.098   5.201
 6678SOL     OW20479   4.314   3.349   4.215
 6678SOL    HW120480   4.356   3.291   4.145
 6678SOL    HW220481   4.270   3.428   4.171
 6679SOL     OW20482   3.979   3.210   4.014
 6679SOL    HW120483   3.883   3.211   3.987
 6679SOL    HW220484   3.991   3.263   4.098
 6680SOL     OW20485   3.829   2.875   5.450
 6680SOL    HW120486   3.752   2.842   5.504
 6680SOL    HW220487   3.914   2.845   5.492
 6681SOL     OW20488   4.396   2.065   5.213
 6681SOL    HW120489   4.486   2.049   5.173
 6681SOL    HW220490   4.404   2.070   5.312
 6682SOL     OW20491   3.799   2.207   3.757
 6682SOL    HW120492   3.707   2.179   3.728
 6682SOL    HW220493   3.830   2.284   3.701
 6683SOL     OW20494   3.796   2.028   4.042
 6683SOL    HW120495   3.779   2.111   3.988
 6683SOL    HW220496   3.886   1.991   4.020
 6684SOL     OW20497   4.337   2.704   5.155
 6684SOL    HW120498   4.393   2.785   5.138
 6684SOL    HW220499   4.396   2.624   5.158
 6685SOL     OW20500   4.440   2.427   5.432
 6685SOL    HW120501   4.459   2.492   5.506
 6685SOL    HW220502   4.500   2.347   5.441
 6686SOL     OW20503   4.114   3.603   5.284
 6686SOL    HW120504   4.023   3.644   5.282
 6686SOL    HW220505   4.107   3.509   5.316
 6687SOL     OW20506   4.318   2.607   4.376
 6687SOL    HW120507   4.368   2.692   4.357
 6687SOL    HW220508   4.230   2.609   4.328
 6688SOL     OW20509   3.945   3.176   5.568
 6688SOL    HW120510   3.880   3.103   5.547
 6688SOL    HW220511   3.949   3.190   5.666
 6689SOL     OW20512   3.803   3.102   4.377
 6689SOL    HW120513   3.802   3.055   4.465
 6689SOL    HW220514   3.885   3.074   4.326
 6690SOL     OW20515   4.396   3.253   5.348
 6690SOL    HW120516   4.318   3.203   5.386
 6690SOL    HW220517   4.393   3.348   5.379
 6691SOL     OW20518   4.152   2.286   4.244
 6691SOL    HW120519   4.182   2.214   4.182
 6691SOL    HW220520   4.113   2.246   4.327
 6692SOL     OW20521   4.041   2.409   5.004
 6692SOL    HW120522   4.079   2.350   5.076
 6692SOL    HW220523   4.081   2.383   4.916
 6693SOL     OW20524   4.536   3.448   4.411
 6693SOL    HW120525   4.568   3.458   4.317
 6693SOL    HW220526   4.457   3.386   4.413
 6694SOL     OW20527   3.763   2.939   4.024
 6694SOL    HW120528   3.862   2.928   4.015
 6694SOL    HW220529   3.723   2.853   4.056
 6695SOL     OW20530   3.954   2.490   5.699
 6695SOL    HW120531   3.861   2.488   5.736
 6695SOL    HW220532   3.955   2.451   5.607
 6696SOL     OW20533   3.949   2.137   6.582
 6696SOL    HW120534   3.984   2.120   6.674
 6696SOL    HW220535   3.861   2.092   6.570
 6697SOL     OW20536   3.743   2.230   6.233
 6697SOL    HW120537   3.661   2.273   6.272
 6697SOL    HW220538   3.715   2.157   6.170
 6698SOL     OW20539   4.293   3.137   6.751
 6698SOL    HW120540   4.200   3.130   6.714
 6698SOL    HW220541   4.304   3.226   6.795
 6699SOL     OW20542   4.574   2.660   7.409
 6699SOL    HW120543   4.570   2.736   7.474
 6699SOL    HW220544   4.596   2.696   7.318
 6700SOL     OW20545   4.409   2.874   6.251
 6700SOL    HW120546   4.478   2.858   6.321
 6700SOL    HW220547   4.336   2.931   6.289
 6701SOL     OW20548   4.410   3.023   7.389
 6701SOL    HW120549   4.470   3.102   7.403
 6701SOL    HW220550   4.324   3.054   7.348
 6702SOL     OW20551   4.059   3.297   6.647
 6702SOL    HW120552   3.981   3.266   6.594
 6702SOL    HW220553   4.117   3.355   6.590
 6703SOL     OW20554   4.162   2.254   7.085
 6703SOL    HW120555   4.244   2.198   7.094
 6703SOL    HW220556   4.081   2.196   7.089
 6704SOL     OW20557   3.955   3.575   6.069
 6704SOL    HW120558   3.989   3.652   6.123
 6704SOL    HW220559   3.999   3.575   5.979
 6705SOL     OW20560   3.954   3.296   6.124
 6705SOL    HW120561   3.928   3.392   6.124
 6705SOL    HW220562   3.883   3.242   6.169
 6706SOL     OW20563   3.964   2.953   6.472
 6706SOL    HW120564   3.978   2.869   6.524
 6706SOL    HW220565   3.909   3.017   6.527
 6707SOL     OW20566   4.344   3.648   7.025
 6707SOL    HW120567   4.252   3.631   7.060
 6707SOL    HW220568   4.372   3.740   7.051
 6708SOL     OW20569   4.330   2.826   5.709
 6708SOL    HW120570   4.337   2.910   5.655
 6708SOL    HW220571   4.376   2.839   5.797
 6709SOL     OW20572   3.846   2.505   6.149
 6709SOL    HW120573   3.801   2.417   6.166
 6709SOL    HW220574   3.845   2.559   6.233
 6710SOL     OW20575   3.751   3.458   5.703
 6710SOL    HW120576   3.732   3.362   5.724
 6710SOL    HW220577   3.718   3.516   5.778
 6711SOL     OW20578   3.837   2.599   7.183
 6711SOL    HW120579   3.925   2.586   7.228
 6711SOL    HW220580   3.824   2.696   7.161
 6712SOL     OW20581   4.337   3.227   6.312
 6712SOL    HW120582   4.288   3.140   6.321
 6712SOL    HW220583   4.314   3.270   6.225
 6713SOL     OW20584   4.533   1.866   6.088
 6713SOL    HW120585   4.573   1.957   6.079
 6713SOL    HW220586   4.433   1.874   6.094
 6714SOL     OW20587   3.921   2.838   6.850
 6714SOL    HW120588   4.010   2.793   6.836
 6714SOL    HW220589   3.848   2.773   6.831
 6715SOL     OW20590   4.041   2.113   7.387
 6715SOL    HW120591   4.112   2.184   7.393
 6715SOL    HW220592   3.953   2.152   7.415
 6716SOL     OW20593   4.322   2.591   5.856
 6716SOL    HW120594   4.346   2.660   5.788
 6716SOL    HW220595   4.244   2.624   5.910
 6717SOL     OW20596   3.800   2.673   6.375
 6717SOL    HW120597   3.899   2.661   6.384
 6717SOL    HW220598   3.776   2.768   6.396
 6718SOL     OW20599   3.854   3.683   7.157
 6718SOL    HW120600   3.844   3.668   7.256
 6718SOL    HW220601   3.768   3.719   7.121
 6719SOL     OW20602   4.274   2.058   6.471
 6719SOL    HW120603   4.269   2.053   6.571
 6719SOL    HW220604   4.276   2.154   6.442
 6720SOL     OW20605   4.075   3.663   6.439
 6720SOL    HW120606   4.125   3.577   6.445
 6720SOL    HW220607   4.140   3.740   6.436
 6721SOL     OW20608   4.045   2.805   5.828
 6721SOL    HW120609   4.127   2.844   5.786
 6721SOL    HW220610   4.018   2.723   5.779
 6722SOL     OW20611   4.185   3.128   7.313
 6722SOL    HW120612   4.135   3.129   7.227
 6722SOL    HW220613   4.122   3.110   7.389
 6723SOL     OW20614   3.926   2.147   7.084
 6723SOL    HW120615   3.846   2.207   7.071
 6723SOL    HW220616   3.916   2.098   7.170
 6724SOL     OW20617   4.188   3.605   5.909
 6724SOL    HW120618   4.221   3.644   5.995
 6724SOL    HW220619   4.264   3.598   5.844
 6725SOL     OW20620   3.973   3.647   6.827
 6725SOL    HW120621   4.030   3.582   6.877
 6725SOL    HW220622   3.957   3.614   6.734
 6726SOL     OW20623   4.106   2.562   6.066
 6726SOL    HW120624   4.151   2.472   6.063
 6726SOL    HW220625   4.012   2.551   6.099
 6727SOL     OW20626   4.338   1.984   5.703
 6727SOL    HW120627   4.436   1.962   5.710
 6727SOL    HW220628   4.307   1.967   5.610
 6728SOL     OW20629   4.527   3.264   6.510
 6728SOL    HW120630   4.617   3.278   6.468
 6728SOL    HW220631   4.456   3.266   6.439
 6729SOL     OW20632   4.263   1.926   6.098
 6729SOL    HW120633   4.182   1.927   6.156
 6729SOL    HW220634   4.266   2.009   6.043
 6730SOL     OW20635   4.021   1.897   5.757
 6730SOL    HW120636   4.070   1.981   5.736
 6730SOL    HW220637   4.083   1.832   5.802
 6731SOL     OW20638   4.800   2.545   7.050
 6731SOL    HW120639   4.720   2.484   7.053
 6731SOL    HW220640   4.881   2.492   7.026
 6732SOL     OW20641   4.183   3.014   6.327
 6732SOL    HW120642   4.112   2.987   6.392
 6732SOL    HW220643   4.157   2.986   6.234
 6733SOL     OW20644   3.802   2.418   6.972
 6733SOL    HW120645   3.894   2.417   6.931
 6733SOL    HW220646   3.796   2.492   7.039
 6734SOL     OW20647   4.285   2.084   6.733
 6734SOL    HW120648   4.323   2.000   6.770
 6734SOL    HW220649   4.197   2.103   6.777
 6735SOL     OW20650   4.212   3.247   5.760
 6735SOL    HW120651   4.125   3.232   5.807
 6735SOL    HW220652   4.195   3.273   5.665
 6736SOL     OW20653   4.251   2.118   5.914
 6736SOL    HW120654   4.278   2.059   5.839
 6736SOL    HW220655   4.251   2.213   5.883
 6737SOL     OW20656   4.134   2.675   6.837
 6737SOL    HW120657   4.220   2.687   6.887
 6737SOL    HW220658   4.092   2.588   6.864
 6738SOL     OW20659   3.788   3.426   6.917
 6738SOL    HW120660   3.742   3.508   6.883
 6738SOL    HW220661   3.886   3.445   6.926
 6739SOL     OW20662   4.091   2.962   6.087
 6739SOL    HW120663   4.084   3.045   6.031
 6739SOL    HW220664   4.095   2.882   6.027
 6740SOL     OW20665   4.290   2.399   6.451
 6740SOL    HW120666   4.302   2.465   6.377
 6740SOL    HW220667   4.336   2.433   6.534
 6741SOL     OW20668   4.078   3.372   6.915
 6741SOL    HW120669   4.057   3.328   6.828
 6741SOL    HW220670   4.175   3.398   6.918
 6742SOL     OW20671   4.126   2.613   7.184
 6742SOL    HW120672   4.194   2.668   7.137
 6742SOL    HW220673   4.166   2.525   7.211
 6743SOL     OW20674   4.228   1.912   7.326
 6743SOL    HW120675   4.186   1.855   7.256
 6743SOL    HW220676   4.162   1.981   7.358
 6744SOL     OW20677   4.297   2.732   6.615
 6744SOL    HW120678   4.341   2.821   6.606
 6744SOL    HW220679   4.234   2.732   6.692
 6745SOL     OW20680   4.031   2.075   6.817
 6745SOL    HW120681   4.008   2.112   6.907
 6745SOL    HW220682   4.001   1.980   6.811
 6746SOL     OW20683   3.761   3.172   6.868
 6746SOL    HW120684   3.814   3.123   6.936
 6746SOL    HW220685   3.783   3.270   6.873
 6747SOL     OW20686   4.031   1.925   6.204
 6747SOL    HW120687   4.020   2.019   6.237
 6747SOL    HW220688   4.026   1.862   6.281
 6748SOL     OW20689   4.074   2.760   7.390
 6748SOL    HW120690   4.150   2.804   7.438
 6748SOL    HW220691   4.109   2.713   7.308
 6749SOL     OW20692   4.043   2.672   6.535
 6749SOL    HW120693   4.136   2.708   6.540
 6749SOL    HW220694   4.037   2.587   6.587
 6750SOL     OW20695   4.063   2.371   6.592
 6750SOL    HW120696   4.011   2.288   6.575
 6750SOL    HW220697   4.140   2.376   6.528
 6751SOL     OW20698   3.732   3.188   5.786
 6751SOL    HW120699   3.639   3.209   5.755
 6751SOL    HW220700   3.742   3.089   5.799
 6752SOL     OW20701   3.812   3.663   6.513
 6752SOL    HW120702   3.770   3.577   6.486
 6752SOL    HW220703   3.906   3.666   6.479
 6753SOL     OW20704   4.228   3.430   6.496
 6753SOL    HW120705   4.294   3.504   6.505
 6753SOL    HW220706   4.272   3.351   6.454
 6754SOL     OW20707   3.764   2.406   6.700
 6754SOL    HW120708   3.849   2.373   6.659
 6754SOL    HW220709   3.777   2.421   6.798
 6755SOL     OW20710   3.913   2.382   7.308
 6755SOL    HW120711   3.972   2.342   7.238
 6755SOL    HW220712   3.855   2.453   7.267
 6756SOL     OW20713   4.539   2.434   5.911
 6756SOL    HW120714   4.546   2.345   5.865
 6756SOL    HW220715   4.445   2.468   5.903
 6757SOL     OW20716   3.976   3.426   7.330
 6757SOL    HW120717   3.946   3.483   7.406
 6757SOL    HW220718   3.969   3.329   7.356
 6758SOL     OW20719   4.197   2.362   5.777
 6758SOL    HW120720   4.258   2.442   5.781
 6758SOL    HW220721   4.102   2.393   5.784
 6759SOL     OW20722   3.883   2.999   7.052
 6759SOL    HW120723   3.905   2.938   7.128
 6759SOL    HW220724   3.893   2.950   6.966
 6760SOL     OW20725   3.807   3.120   6.608
 6760SOL    HW120726   3.802   3.119   6.708
 6760SOL    HW220727   3.724   3.079   6.570
 6761SOL     OW20728   4.412   3.524   7.302
 6761SOL    HW120729   4.356   3.605   7.311
 6761SOL    HW220730   4.464   3.528   7.216
 6762SOL     OW20731   3.854   3.656   7.437
 6762SOL    HW120732   3.813   3.582   7.490
 6762SOL    HW220733   3.918   3.707   7.495
 6763SOL     OW20734   3.987   2.188   6.306
 6763SOL    HW120735   3.908   2.239   6.272
 6763SOL    HW220736   3.978   2.173   6.404
 6764SOL     OW20737   4.096   3.150   7.076
 6764SOL    HW120738   4.083   3.243   7.042
 6764SOL    HW220739   4.012   3.098   7.063
 6765SOL     OW20740   4.314   3.349   6.077
 6765SOL    HW120741   4.356   3.291   6.007
 6765SOL    HW220742   4.270   3.428   6.033
 6766SOL     OW20743   3.979   3.210   5.876
 6766SOL    HW120744   3.883   3.211   5.849
 6766SOL    HW220745   3.991   3.263   5.960
 6767SOL     OW20746   3.829   2.875   7.312
 6767SOL    HW120747   3.752   2.842   7.366
 6767SOL    HW220748   3.914   2.845   7.354
 6768SOL     OW20749   4.396   2.065   7.075
 6768SOL    HW120750   4.486   2.049   7.035
 6768SOL    HW220751   4.404   2.070   7.174
 6769SOL     OW20752   3.799   2.207   5.619
 6769SOL    HW120753   3.707   2.179   5.590
 6769SOL    HW220754   3.830   2.284   5.563
 6770SOL     OW20755   3.796   2.028   5.904
 6770SOL    HW120756   3.779   2.111   5.850
 6770SOL    HW220757   3.886   1.991   5.882
 6771SOL     OW20758   4.337   2.704   7.017
 6771SOL    HW120759   4.393   2.785   7.000
 6771SOL    HW220760   4.396   2.624   7.020
 6772SOL     OW20761   4.440   2.427   7.294
 6772SOL    HW120762   4.459   2.492   7.368
 6772SOL    HW220763   4.500   2.347   7.303
 6773SOL     OW20764   4.114   3.603   7.146
 6773SOL    HW120765   4.023   3.644   7.144
 6773SOL    HW220766   4.107   3.509   7.178
 6774SOL     OW20767   4.318   2.607   6.238
 6774SOL    HW120768   4.368   2.692   6.219
 6774SOL    HW220769   4.230   2.609   6.190
 6775SOL     OW20770   3.945   3.176   7.430
 6775SOL    HW120771   3.880   3.103   7.409
 6775SOL    HW220772   3.949   3.190   7.528
 6776SOL     OW20773   3.803   3.102   6.239
 6776SOL    HW120774   3.802   3.055   6.327
 6776SOL    HW220775   3.885   3.074   6.188
 6777SOL     OW20776   4.396   3.253   7.210
 6777SOL    HW120777   4.318   3.203   7.248
 6777SOL    HW220778   4.393   3.348   7.241
 6778SOL     OW20779   4.152   2.286   6.106
 6778SOL    HW120780   4.182   2.214   6.044
 6778SOL    HW220781   4.113   2.246   6.189
 6779SOL     OW20782   4.041   2.409   6.866
 6779SOL    HW120783   4.079   2.350   6.938
 6779SOL    HW220784   4.081   2.383   6.778
 6780SOL     OW20785   4.536   3.448   6.273
 6780SOL    HW120786   4.568   3.458   6.179
 6780SOL    HW220787   4.457   3.386   6.275
 6781SOL     OW20788   3.763   2.939   5.886
 6781SOL    HW120789   3.862   2.928   5.877
 6781SOL    HW220790   3.723   2.853   5.918
 6782SOL     OW20791   3.954   2.490   7.561
 6782SOL    HW120792   3.861   2.488   7.598
 6782SOL    HW220793   3.955   2.451   7.469
 6783SOL     OW20794   3.949   2.137   8.444
 6783SOL    HW120795   3.984   2.120   8.536
 6783SOL    HW220796   3.861   2.092   8.432
 6784SOL     OW20797   3.743   2.230   8.095
 6784SOL    HW120798   3.661   2.273   8.134
 6784SOL    HW220799   3.715   2.157   8.032
 6785SOL     OW20800   4.293   3.137   8.613
 6785SOL    HW120801   4.200   3.130   8.576
 6785SOL    HW220802   4.304   3.226   8.657
 6786SOL     OW20803   4.574   2.660   9.271
 6786SOL    HW120804   4.570   2.736   9.336
 6786SOL    HW220805   4.596   2.696   9.180
 6787SOL     OW20806   4.409   2.874   8.113
 6787SOL    HW120807   4.478   2.858   8.183
 6787SOL    HW220808   4.336   2.931   8.151
 6788SOL     OW20809   4.410   3.023   9.251
 6788SOL    HW120810   4.470   3.102   9.265
 6788SOL    HW220811   4.324   3.054   9.210
 6789SOL     OW20812   4.059   3.297   8.509
 6789SOL    HW120813   3.981   3.266   8.456
 6789SOL    HW220814   4.117   3.355   8.452
 6790SOL     OW20815   4.162   2.254   8.947
 6790SOL    HW120816   4.244   2.198   8.956
 6790SOL    HW220817   4.081   2.196   8.951
 6791SOL     OW20818   3.955   3.575   7.931
 6791SOL    HW120819   3.989   3.652   7.985
 6791SOL    HW220820   3.999   3.575   7.841
 6792SOL     OW20821   3.954   3.296   7.986
 6792SOL    HW120822   3.928   3.392   7.986
 6792SOL    HW220823   3.883   3.242   8.031
 6793SOL     OW20824   3.964   2.953   8.334
 6793SOL    HW120825   3.978   2.869   8.386
 6793SOL    HW220826   3.909   3.017   8.389
 6794SOL     OW20827   4.344   3.648   8.887
 6794SOL    HW120828   4.252   3.631   8.922
 6794SOL    HW220829   4.372   3.740   8.913
 6795SOL     OW20830   4.330   2.826   7.571
 6795SOL    HW120831   4.337   2.910   7.517
 6795SOL    HW220832   4.376   2.839   7.659
 6796SOL     OW20833   3.846   2.505   8.011
 6796SOL    HW120834   3.801   2.417   8.028
 6796SOL    HW220835   3.845   2.559   8.095
 6797SOL     OW20836   3.751   3.458   7.565
 6797SOL    HW120837   3.732   3.362   7.586
 6797SOL    HW220838   3.718   3.516   7.640
 6798SOL     OW20839   3.837   2.599   9.045
 6798SOL    HW120840   3.925   2.586   9.090
 6798SOL    HW220841   3.824   2.696   9.023
 6799SOL     OW20842   4.337   3.227   8.174
 6799SOL    HW120843   4.288   3.140   8.183
 6799SOL    HW220844   4.314   3.270   8.087
 6800SOL     OW20845   4.533   1.866   7.950
 6800SOL    HW120846   4.573   1.957   7.941
 6800SOL    HW220847   4.433   1.874   7.956
 6801SOL     OW20848   3.921   2.838   8.712
 6801SOL    HW120849   4.010   2.793   8.698
 6801SOL    HW220850   3.848   2.773   8.693
 6802SOL     OW20851   4.041   2.113   9.249
 6802SOL    HW120852   4.112   2.184   9.255
 6802SOL    HW220853   3.953   2.152   9.277
 6803SOL     OW20854   4.322   2.591   7.718
 6803SOL    HW120855   4.346   2.660   7.650
 6803SOL    HW220856   4.244   2.624   7.772
 6804SOL     OW20857   3.800   2.673   8.237
 6804SOL    HW120858   3.899   2.661   8.246
 6804SOL    HW220859   3.776   2.768   8.258
 6805SOL     OW20860   3.854   3.683   9.019
 6805SOL    HW120861   3.844   3.668   9.118
 6805SOL    HW220862   3.768   3.719   8.983
 6806SOL     OW20863   4.274   2.058   8.333
 6806SOL    HW120864   4.269   2.053   8.433
 6806SOL    HW220865   4.276   2.154   8.304
 6807SOL     OW20866   4.075   3.663   8.301
 6807SOL    HW120867   4.125   3.577   8.307
 6807SOL    HW220868   4.140   3.740   8.298
 6808SOL     OW20869   4.045   2.805   7.690
 6808SOL    HW120870   4.127   2.844   7.648
 6808SOL    HW220871   4.018   2.723   7.641
 6809SOL     OW20872   4.185   3.128   9.175
 6809SOL    HW120873   4.135   3.129   9.089
 6809SOL    HW220874   4.122   3.110   9.251
 6810SOL     OW20875   3.926   2.147   8.946
 6810SOL    HW120876   3.846   2.207   8.933
 6810SOL    HW220877   3.916   2.098   9.032
 6811SOL     OW20878   4.188   3.605   7.771
 6811SOL    HW120879   4.221   3.644   7.857
 6811SOL    HW220880   4.264   3.598   7.706
 6812SOL     OW20881   3.973   3.647   8.689
 6812SOL    HW120882   4.030   3.582   8.739
 6812SOL    HW220883   3.957   3.614   8.596
 6813SOL     OW20884   4.106   2.562   7.928
 6813SOL    HW120885   4.151   2.472   7.925
 6813SOL    HW220886   4.012   2.551   7.961
 6814SOL     OW20887   4.338   1.984   7.565
 6814SOL    HW120888   4.436   1.962   7.572
 6814SOL    HW220889   4.307   1.967   7.472
 6815SOL     OW20890   4.527   3.264   8.372
 6815SOL    HW120891   4.617   3.278   8.330
 6815SOL    HW220892   4.456   3.266   8.301
 6816SOL     OW20893   4.263   1.926   7.960
 6816SOL    HW120894   4.182   1.927   8.018
 6816SOL    HW220895   4.266   2.009   7.905
 6817SOL     OW20896   4.021   1.897   7.619
 6817SOL    HW120897   4.070   1.981   7.598
 6817SOL    HW220898   4.083   1.832   7.664
 6818SOL     OW20899   4.800   2.545   8.912
 6818SOL    HW120900   4.720   2.484   8.915
 6818SOL    HW220901   4.881   2.492   8.888
 6819SOL     OW20902   4.183   3.014   8.189
 6819SOL    HW120903   4.112   2.987   8.254
 6819SOL    HW220904   4.157   2.986   8.096
 6820SOL     OW20905   3.802   2.418   8.834
 6820SOL    HW120906   3.894   2.417   8.793
 6820SOL    HW220907   3.796   2.492   8.901
 6821SOL     OW20908   4.285   2.084   8.595
 6821SOL    HW120909   4.323   2.000   8.632
 6821SOL    HW220910   4.197   2.103   8.639
 6822SOL     OW20911   4.212   3.247   7.622
 6822SOL    HW120912   4.125   3.232   7.669
 6822SOL    HW220913   4.195   3.273   7.527
 6823SOL     OW20914   4.251   2.118   7.776
 6823SOL    HW120915   4.278   2.059   7.701
 6823SOL    HW220916   4.251   2.213   7.745
 6824SOL     OW20917   4.134   2.675   8.699
 6824SOL    HW120918   4.220   2.687   8.749
 6824SOL    HW220919   4.092   2.588   8.726
 6825SOL     OW20920   3.788   3.426   8.779
 6825SOL    HW120921   3.742   3.508   8.745
 6825SOL    HW220922   3.886   3.445   8.788
 6826SOL     OW20923   4.091   2.962   7.949
 6826SOL    HW120924   4.084   3.045   7.893
 6826SOL    HW220925   4.095   2.882   7.889
 6827SOL     OW20926   4.290   2.399   8.313
 6827SOL    HW120927   4.302   2.465   8.239
 6827SOL    HW220928   4.336   2.433   8.396
 6828SOL     OW20929   4.078   3.372   8.777
 6828SOL    HW120930   4.057   3.328   8.690
 6828SOL    HW220931   4.175   3.398   8.780
 6829SOL     OW20932   4.126   2.613   9.046
 6829SOL    HW120933   4.194   2.668   8.999
 6829SOL    HW220934   4.166   2.525   9.073
 6830SOL     OW20935   4.228   1.912   9.188
 6830SOL    HW120936   4.186   1.855   9.118
 6830SOL    HW220937   4.162   1.981   9.220
 6831SOL     OW20938   4.297   2.732   8.477
 6831SOL    HW120939   4.341   2.821   8.468
 6831SOL    HW220940   4.234   2.732   8.554
 6832SOL     OW20941   4.031   2.075   8.679
 6832SOL    HW120942   4.008   2.112   8.769
 6832SOL    HW220943   4.001   1.980   8.673
 6833SOL     OW20944   3.761   3.172   8.730
 6833SOL    HW120945   3.814   3.123   8.798
 6833SOL    HW220946   3.783   3.270   8.735
 6834SOL     OW20947   4.031   1.925   8.066
 6834SOL    HW120948   4.020   2.019   8.099
 6834SOL    HW220949   4.026   1.862   8.143
 6835SOL     OW20950   4.074   2.760   9.252
 6835SOL    HW120951   4.150   2.804   9.300
 6835SOL    HW220952   4.109   2.713   9.170
 6836SOL     OW20953   4.043   2.672   8.397
 6836SOL    HW120954   4.136   2.708   8.402
 6836SOL    HW220955   4.037   2.587   8.449
 6837SOL     OW20956   4.063   2.371   8.454
 6837SOL    HW120957   4.011   2.288   8.437
 6837SOL    HW220958   4.140   2.376   8.390
 6838SOL     OW20959   3.732   3.188   7.648
 6838SOL    HW120960   3.639   3.209   7.617
 6838SOL    HW220961   3.742   3.089   7.661
 6839SOL     OW20962   3.812   3.663   8.375
 6839SOL    HW120963   3.770   3.577   8.348
 6839SOL    HW220964   3.906   3.666   8.341
 6840SOL     OW20965   4.228   3.430   8.358
 6840SOL    HW120966   4.294   3.504   8.367
 6840SOL    HW220967   4.272   3.351   8.316
 6841SOL     OW20968   3.764   2.406   8.562
 6841SOL    HW120969   3.849   2.373   8.521
 6841SOL    HW220970   3.777   2.421   8.660
 6842SOL     OW20971   3.913   2.382   9.170
 6842SOL    HW120972   3.972   2.342   9.100
 6842SOL    HW220973   3.855   2.453   9.129
 6843SOL     OW20974   4.539   2.434   7.773
 6843SOL    HW120975   4.546   2.345   7.727
 6843SOL    HW220976   4.445   2.468   7.765
 6844SOL     OW20977   3.976   3.426   9.192
 6844SOL    HW120978   3.946   3.483   9.268
 6844SOL    HW220979   3.969   3.329   9.218
 6845SOL     OW20980   4.197   2.362   7.639
 6845SOL    HW120981   4.258   2.442   7.643
 6845SOL    HW220982   4.102   2.393   7.646
 6846SOL     OW20983   3.883   2.999   8.914
 6846SOL    HW120984   3.905   2.938   8.990
 6846SOL    HW220985   3.893   2.950   8.828
 6847SOL     OW20986   3.807   3.120   8.470
 6847SOL    HW120987   3.802   3.119   8.570
 6847SOL    HW220988   3.724   3.079   8.432
 6848SOL     OW20989   4.412   3.524   9.164
 6848SOL    HW120990   4.356   3.605   9.173
 6848SOL    HW220991   4.464   3.528   9.078
 6849SOL     OW20992   3.854   3.656   9.299
 6849SOL    HW120993   3.813   3.582   9.352
 6849SOL    HW220994   3.918   3.707   9.357
 6850SOL     OW20995   3.987   2.188   8.168
 6850SOL    HW120996   3.908   2.239   8.134
 6850SOL    HW220997   3.978   2.173   8.266
 6851SOL     OW20998   4.096   3.150   8.938
 6851SOL    HW120999   4.083   3.243   8.904
 6851SOL    HW221000   4.012   3.098   8.925
 6852SOL     OW21001   4.314   3.349   7.939
 6852SOL    HW121002   4.356   3.291   7.869
 6852SOL    HW221003   4.270   3.428   7.895
 6853SOL     OW21004   3.979   3.210   7.738
 6853SOL    HW121005   3.883   3.211   7.711
 6853SOL    HW221006   3.991   3.263   7.822
 6854SOL     OW21007   3.829   2.875   9.174
 6854SOL    HW121008   3.752   2.842   9.228
 6854SOL    HW221009   3.914   2.845   9.216
 6855SOL     OW21010   4.396   2.065   8.937
 6855SOL    HW121011   4.486   2.049   8.897
 6855SOL    HW221012   4.404   2.070   9.036
 6856SOL     OW21013   3.799   2.207   7.481
 6856SOL    HW121014   3.707   2.179   7.452
 6856SOL    HW221015   3.830   2.284   7.425
 6857SOL     OW21016   3.796   2.028   7.766
 6857SOL    HW121017   3.779   2.111   7.712
 6857SOL    HW221018   3.886   1.991   7.744
 6858SOL     OW21019   4.337   2.704   8.879
 6858SOL    HW121020   4.393   2.785   8.862
 6858SOL    HW221021   4.396   2.624   8.882
 6859SOL     OW21022   4.440   2.427   9.156
 6859SOL    HW121023   4.459   2.492   9.230
 6859SOL    HW221024   4.500   2.347   9.165
 6860SOL     OW21025   4.114   3.603   9.008
 6860SOL    HW121026   4.023   3.644   9.006
 6860SOL    HW221027   4.107   3.509   9.040
 6861SOL     OW21028   4.318   2.607   8.100
 6861SOL    HW121029   4.368   2.692   8.081
 6861SOL    HW221030   4.230   2.609   8.052
 6862SOL     OW21031   3.945   3.176   9.292
 6862SOL    HW121032   3.880   3.103   9.271
 6862SOL    HW221033   3.949   3.190   9.390
 6863SOL     OW21034   3.803   3.102   8.101
 6863SOL    HW121035   3.802   3.055   8.189
 6863SOL    HW221036   3.885   3.074   8.050
 6864SOL     OW21037   4.396   3.253   9.072
 6864SOL    HW121038   4.318   3.203   9.110
 6864SOL    HW221039   4.393   3.348   9.103
 6865SOL     OW21040   4.152   2.286   7.968
 6865SOL    HW121041   4.182   2.214   7.906
 6865SOL    HW221042   4.113   2.246   8.051
 6866SOL     OW21043   4.041   2.409   8.728
 6866SOL    HW121044   4.079   2.350   8.800
 6866SOL    HW221045   4.081   2.383   8.640
 6867SOL     OW21046   4.536   3.448   8.135
 6867SOL    HW121047   4.568   3.458   8.041
 6867SOL    HW221048   4.457   3.386   8.137
 6868SOL     OW21049   3.763   2.939   7.748
 6868SOL    HW121050   3.862   2.928   7.739
 6868SOL    HW221051   3.723   2.853   7.780
 6869SOL     OW21052   3.954   2.490   9.423
 6869SOL    HW121053   3.861   2.488   9.460
 6869SOL    HW221054   3.955   2.451   9.331
 6870SOL     OW21055   3.949   2.137  10.306
 6870SOL    HW121056   3.984   2.120  10.398
 6870SOL    HW221057   3.861   2.092  10.294
 6871SOL     OW21058   3.743   2.230   9.957
 6871SOL    HW121059   3.661   2.273   9.996
 6871SOL    HW221060   3.715   2.157   9.894
 6872SOL     OW21061   4.293   3.137  10.475
 6872SOL    HW121062   4.200   3.130  10.438
 6872SOL    HW221063   4.304   3.226  10.519
 6873SOL     OW21064   4.574   2.660  11.133
 6873SOL    HW121065   4.570   2.736  11.198
 6873SOL    HW221066   4.596   2.696  11.042
 6874SOL     OW21067   4.409   2.874   9.975
 6874SOL    HW121068   4.478   2.858  10.045
 6874SOL    HW221069   4.336   2.931  10.013
 6875SOL     OW21070   4.059   3.297  10.371
 6875SOL    HW121071   3.981   3.266  10.318
 6875SOL    HW221072   4.117   3.355  10.314
 6876SOL     OW21073   4.162   2.254  10.809
 6876SOL    HW121074   4.244   2.198  10.818
 6876SOL    HW221075   4.081   2.196  10.813
 6877SOL     OW21076   3.955   3.575   9.793
 6877SOL    HW121077   3.989   3.652   9.847
 6877SOL    HW221078   3.999   3.575   9.703
 6878SOL     OW21079   3.954   3.296   9.848
 6878SOL    HW121080   3.928   3.392   9.848
 6878SOL    HW221081   3.883   3.242   9.893
 6879SOL     OW21082   3.964   2.953  10.196
 6879SOL    HW121083   3.978   2.869  10.248
 6879SOL    HW221084   3.909   3.017  10.251
 6880SOL     OW21085   4.344   3.648  10.749
 6880SOL    HW121086   4.252   3.631  10.784
 6880SOL    HW221087   4.372   3.740  10.775
 6881SOL     OW21088   4.330   2.826   9.433
 6881SOL    HW121089   4.337   2.910   9.379
 6881SOL    HW221090   4.376   2.839   9.521
 6882SOL     OW21091   3.846   2.505   9.873
 6882SOL    HW121092   3.801   2.417   9.890
 6882SOL    HW221093   3.845   2.559   9.957
 6883SOL     OW21094   3.751   3.458   9.427
 6883SOL    HW121095   3.732   3.362   9.448
 6883SOL    HW221096   3.718   3.516   9.502
 6884SOL     OW21097   3.837   2.599  10.907
 6884SOL    HW121098   3.925   2.586  10.952
 6884SOL    HW221099   3.824   2.696  10.885
 6885SOL     OW21100   4.337   3.227  10.036
 6885SOL    HW121101   4.288   3.140  10.045
 6885SOL    HW221102   4.314   3.270   9.949
 6886SOL     OW21103   4.533   1.866   9.812
 6886SOL    HW121104   4.573   1.957   9.803
 6886SOL    HW221105   4.433   1.874   9.818
 6887SOL     OW21106   3.921   2.838  10.574
 6887SOL    HW121107   4.010   2.793  10.560
 6887SOL    HW221108   3.848   2.773  10.555
 6888SOL     OW21109   4.041   2.113  11.111
 6888SOL    HW121110   4.112   2.184  11.117
 6888SOL    HW221111   3.953   2.152  11.139
 6889SOL     OW21112   4.322   2.591   9.580
 6889SOL    HW121113   4.346   2.660   9.512
 6889SOL    HW221114   4.244   2.624   9.634
 6890SOL     OW21115   3.800   2.673  10.099
 6890SOL    HW121116   3.899   2.661  10.108
 6890SOL    HW221117   3.776   2.768  10.120
 6891SOL     OW21118   3.854   3.683  10.881
 6891SOL    HW121119   3.844   3.668  10.980
 6891SOL    HW221120   3.768   3.719  10.845
 6892SOL     OW21121   4.274   2.058  10.195
 6892SOL    HW121122   4.269   2.053  10.295
 6892SOL    HW221123   4.276   2.154  10.166
 6893SOL     OW21124   4.075   3.663  10.163
 6893SOL    HW121125   4.125   3.577  10.169
 6893SOL    HW221126   4.140   3.740  10.160
 6894SOL     OW21127   4.045   2.805   9.552
 6894SOL    HW121128   4.127   2.844   9.510
 6894SOL    HW221129   4.018   2.723   9.503
 6895SOL     OW21130   4.185   3.128  11.037
 6895SOL    HW121131   4.135   3.129  10.951
 6895SOL    HW221132   4.122   3.110  11.113
 6896SOL     OW21133   3.926   2.147  10.808
 6896SOL    HW121134   3.846   2.207  10.795
 6896SOL    HW221135   3.916   2.098  10.894
 6897SOL     OW21136   4.188   3.605   9.633
 6897SOL    HW121137   4.221   3.644   9.719
 6897SOL    HW221138   4.264   3.598   9.568
 6898SOL     OW21139   3.973   3.647  10.551
 6898SOL    HW121140   4.030   3.582  10.601
 6898SOL    HW221141   3.957   3.614  10.458
 6899SOL     OW21142   4.106   2.562   9.790
 6899SOL    HW121143   4.151   2.472   9.787
 6899SOL    HW221144   4.012   2.551   9.823
 6900SOL     OW21145   4.338   1.984   9.427
 6900SOL    HW121146   4.436   1.962   9.434
 6900SOL    HW221147   4.307   1.967   9.334
 6901SOL     OW21148   4.527   3.264  10.234
 6901SOL    HW121149   4.617   3.278  10.192
 6901SOL    HW221150   4.456   3.266  10.163
 6902SOL     OW21151   4.263   1.926   9.822
 6902SOL    HW121152   4.182   1.927   9.880
 6902SOL    HW221153   4.266   2.009   9.767
 6903SOL     OW21154   4.021   1.897   9.481
 6903SOL    HW121155   4.070   1.981   9.460
 6903SOL    HW221156   4.083   1.832   9.526
 6904SOL     OW21157   4.800   2.545  10.774
 6904SOL    HW121158   4.720   2.484  10.777
 6904SOL    HW221159   4.881   2.492  10.750
 6905SOL     OW21160   4.183   3.014  10.051
 6905SOL    HW121161   4.112   2.987  10.116
 6905SOL    HW221162   4.157   2.986   9.958
 6906SOL     OW21163   3.802   2.418  10.696
 6906SOL    HW121164   3.894   2.417  10.655
 6906SOL    HW221165   3.796   2.492  10.763
 6907SOL     OW21166   4.285   2.084  10.457
 6907SOL    HW121167   4.323   2.000  10.494
 6907SOL    HW221168   4.197   2.103  10.501
 6908SOL     OW21169   4.212   3.247   9.484
 6908SOL    HW121170   4.125   3.232   9.531
 6908SOL    HW221171   4.195   3.273   9.389
 6909SOL     OW21172   4.251   2.118   9.638
 6909SOL    HW121173   4.278   2.059   9.563
 6909SOL    HW221174   4.251   2.213   9.607
 6910SOL     OW21175   4.134   2.675  10.561
 6910SOL    HW121176   4.220   2.687  10.611
 6910SOL    HW221177   4.092   2.588  10.588
 6911SOL     OW21178   3.788   3.426  10.641
 6911SOL    HW121179   3.742   3.508  10.607
 6911SOL    HW221180   3.886   3.445  10.650
 6912SOL     OW21181   4.091   2.962   9.811
 6912SOL    HW121182   4.084   3.045   9.755
 6912SOL    HW221183   4.095   2.882   9.751
 6913SOL     OW21184   4.290   2.399  10.175
 6913SOL    HW121185   4.302   2.465  10.101
 6913SOL    HW221186   4.336   2.433  10.258
 6914SOL     OW21187   4.078   3.372  10.639
 6914SOL    HW121188   4.057   3.328  10.552
 6914SOL    HW221189   4.175   3.398  10.642
 6915SOL     OW21190   4.126   2.613  10.908
 6915SOL    HW121191   4.194   2.668  10.861
 6915SOL    HW221192   4.166   2.525  10.935
 6916SOL     OW21193   4.297   2.732  10.339
 6916SOL    HW121194   4.341   2.821  10.330
 6916SOL    HW221195   4.234   2.732  10.416
 6917SOL     OW21196   4.031   2.075  10.541
 6917SOL    HW121197   4.008   2.112  10.631
 6917SOL    HW221198   4.001   1.980  10.535
 6918SOL     OW21199   3.761   3.172  10.592
 6918SOL    HW121200   3.814   3.123  10.660
 6918SOL    HW221201   3.783   3.270  10.597
 6919SOL     OW21202   4.031   1.925   9.928
 6919SOL    HW121203   4.020   2.019   9.961
 6919SOL    HW221204   4.026   1.862  10.005
 6920SOL     OW21205   4.074   2.760  11.114
 6920SOL    HW121206   4.150   2.804  11.162
 6920SOL    HW221207   4.109   2.713  11.032
 6921SOL     OW21208   4.043   2.672  10.259
 6921SOL    HW121209   4.136   2.708  10.264
 6921SOL    HW221210   4.037   2.587  10.311
 6922SOL     OW21211   4.063   2.371  10.316
 6922SOL    HW121212   4.011   2.288  10.299
 6922SOL    HW221213   4.140   2.376  10.252
 6923SOL     OW21214   3.732   3.188   9.510
 6923SOL    HW121215   3.639   3.209   9.479
 6923SOL    HW221216   3.742   3.089   9.523
 6924SOL     OW21217   3.812   3.663  10.237
 6924SOL    HW121218   3.770   3.577  10.210
 6924SOL    HW221219   3.906   3.666  10.203
 6925SOL     OW21220   4.228   3.430  10.220
 6925SOL    HW121221   4.294   3.504  10.229
 6925SOL    HW221222   4.272   3.351  10.178
 6926SOL     OW21223   3.764   2.406  10.424
 6926SOL    HW121224   3.849   2.373  10.383
 6926SOL    HW221225   3.777   2.421  10.522
 6927SOL     OW21226   4.539   2.434   9.635
 6927SOL    HW121227   4.546   2.345   9.589
 6927SOL    HW221228   4.445   2.468   9.627
 6928SOL     OW21229   3.976   3.426  11.054
 6928SOL    HW121230   3.946   3.483  11.130
 6928SOL    HW221231   3.969   3.329  11.080
 6929SOL     OW21232   4.197   2.362   9.501
 6929SOL    HW121233   4.258   2.442   9.505
 6929SOL    HW221234   4.102   2.393   9.508
 6930SOL     OW21235   3.883   2.999  10.776
 6930SOL    HW121236   3.905   2.938  10.852
 6930SOL    HW221237   3.893   2.950  10.690
 6931SOL     OW21238   3.807   3.120  10.332
 6931SOL    HW121239   3.802   3.119  10.432
 6931SOL    HW221240   3.724   3.079  10.294
 6932SOL     OW21241   4.412   3.524  11.026
 6932SOL    HW121242   4.356   3.605  11.035
 6932SOL    HW221243   4.464   3.528  10.940
 6933SOL     OW21244   3.987   2.188  10.030
 6933SOL    HW121245   3.908   2.239   9.996
 6933SOL    HW221246   3.978   2.173  10.128
 6934SOL     OW21247   4.096   3.150  10.800
 6934SOL    HW121248   4.083   3.243  10.766
 6934SOL    HW221249   4.012   3.098  10.787
 6935SOL     OW21250   4.314   3.349   9.801
 6935SOL    HW121251   4.356   3.291   9.731
 6935SOL    HW221252   4.270   3.428   9.757
 6936SOL     OW21253   3.979   3.210   9.600
 6936SOL    HW121254   3.883   3.211   9.573
 6936SOL    HW221255   3.991   3.263   9.684
 6937SOL     OW21256   3.829   2.875  11.036
 6937SOL    HW121257   3.752   2.842  11.090
 6937SOL    HW221258   3.914   2.845  11.078
 6938SOL     OW21259   4.396   2.065  10.799
 6938SOL    HW121260   4.486   2.049  10.759
 6938SOL    HW221261   4.404   2.070  10.898
 6939SOL     OW21262   3.799   2.207   9.343
 6939SOL    HW121263   3.707   2.179   9.314
 6939SOL    HW221264   3.830   2.284   9.287
 6940SOL     OW21265   3.796   2.028   9.628
 6940SOL    HW121266   3.779   2.111   9.574
 6940SOL    HW221267   3.886   1.991   9.606
 6941SOL     OW21268   4.337   2.704  10.741
 6941SOL    HW121269   4.393   2.785  10.724
 6941SOL    HW221270   4.396   2.624  10.744
 6942SOL     OW21271   4.114   3.603  10.870
 6942SOL    HW121272   4.023   3.644  10.868
 6942SOL    HW221273   4.107   3.509  10.902
 6943SOL     OW21274   4.318   2.607   9.962
 6943SOL    HW121275   4.368   2.692   9.943
 6943SOL    HW221276   4.230   2.609   9.914
 6944SOL     OW21277   3.803   3.102   9.963
 6944SOL    HW121278   3.802   3.055  10.051
 6944SOL    HW221279   3.885   3.074   9.912
 6945SOL     OW21280   4.396   3.253  10.934
 6945SOL    HW121281   4.318   3.203  10.972
 6945SOL    HW221282   4.393   3.348  10.965
 6946SOL     OW21283   4.152   2.286   9.830
 6946SOL    HW121284   4.182   2.214   9.768
 6946SOL    HW221285   4.113   2.246   9.913
 6947SOL     OW21286   4.041   2.409  10.590
 6947SOL    HW121287   4.079   2.350  10.662
 6947SOL    HW221288   4.081   2.383  10.502
 6948SOL     OW21289   4.536   3.448   9.997
 6948SOL    HW121290   4.568   3.458   9.903
 6948SOL    HW221291   4.457   3.386   9.999
 6949SOL     OW21292   3.763   2.939   9.610
 6949SOL    HW121293   3.862   2.928   9.601
 6949SOL    HW221294   3.723   2.853   9.642
 6950SOL     OW21295   3.954   4.352   0.113
 6950SOL    HW121296   3.861   4.350   0.150
 6950SOL    HW221297   3.955   4.313   0.021
 6951SOL     OW21298   3.949   3.999   0.996
 6951SOL    HW121299   3.984   3.982   1.088
 6951SOL    HW221300   3.861   3.954   0.984
 6952SOL     OW21301   3.743   4.092   0.647
 6952SOL    HW121302   3.661   4.135   0.686
 6952SOL    HW221303   3.715   4.019   0.584
 6953SOL     OW21304   4.574   4.522   1.823
 6953SOL    HW121305   4.570   4.598   1.888
 6953SOL    HW221306   4.596   4.558   1.732
 6954SOL     OW21307   4.162   4.116   1.499
 6954SOL    HW121308   4.244   4.060   1.508
 6954SOL    HW221309   4.081   4.058   1.503
 6955SOL     OW21310   3.846   4.367   0.563
 6955SOL    HW121311   3.801   4.279   0.580
 6955SOL    HW221312   3.845   4.421   0.647
 6956SOL     OW21313   3.837   4.461   1.597
 6956SOL    HW121314   3.925   4.448   1.642
 6956SOL    HW221315   3.824   4.558   1.575
 6957SOL     OW21316   4.533   3.728   0.502
 6957SOL    HW121317   4.573   3.819   0.493
 6957SOL    HW221318   4.433   3.736   0.508
 6958SOL     OW21319   4.041   3.975   1.801
 6958SOL    HW121320   4.112   4.046   1.807
 6958SOL    HW221321   3.953   4.014   1.829
 6959SOL     OW21322   4.274   3.920   0.885
 6959SOL    HW121323   4.269   3.915   0.985
 6959SOL    HW221324   4.276   4.016   0.856
 6960SOL     OW21325   3.926   4.009   1.498
 6960SOL    HW121326   3.846   4.069   1.485
 6960SOL    HW221327   3.916   3.960   1.584
 6961SOL     OW21328   4.106   4.424   0.480
 6961SOL    HW121329   4.151   4.334   0.477
 6961SOL    HW221330   4.012   4.413   0.513
 6962SOL     OW21331   4.338   3.846   0.117
 6962SOL    HW121332   4.436   3.824   0.124
 6962SOL    HW221333   4.307   3.829   0.024
 6963SOL     OW21334   4.263   3.788   0.512
 6963SOL    HW121335   4.182   3.789   0.570
 6963SOL    HW221336   4.266   3.871   0.457
 6964SOL     OW21337   4.021   3.759   0.171
 6964SOL    HW121338   4.070   3.843   0.150
 6964SOL    HW221339   4.083   3.694   0.216
 6965SOL     OW21340   4.800   4.407   1.464
 6965SOL    HW121341   4.720   4.346   1.467
 6965SOL    HW221342   4.881   4.354   1.440
 6966SOL     OW21343   3.802   4.280   1.386
 6966SOL    HW121344   3.894   4.279   1.345
 6966SOL    HW221345   3.796   4.354   1.453
 6967SOL     OW21346   4.285   3.946   1.147
 6967SOL    HW121347   4.323   3.862   1.184
 6967SOL    HW221348   4.197   3.965   1.191
 6968SOL     OW21349   4.251   3.980   0.328
 6968SOL    HW121350   4.278   3.921   0.253
 6968SOL    HW221351   4.251   4.075   0.297
 6969SOL     OW21352   4.134   4.537   1.251
 6969SOL    HW121353   4.220   4.549   1.301
 6969SOL    HW221354   4.092   4.450   1.278
 6970SOL     OW21355   4.290   4.261   0.865
 6970SOL    HW121356   4.302   4.327   0.791
 6970SOL    HW221357   4.336   4.295   0.948
 6971SOL     OW21358   4.228   3.774   1.740
 6971SOL    HW121359   4.186   3.717   1.670
 6971SOL    HW221360   4.162   3.843   1.772
 6972SOL     OW21361   4.031   3.937   1.231
 6972SOL    HW121362   4.008   3.974   1.321
 6972SOL    HW221363   4.001   3.842   1.225
 6973SOL     OW21364   4.031   3.787   0.618
 6973SOL    HW121365   4.020   3.881   0.651
 6973SOL    HW221366   4.026   3.724   0.695
 6974SOL     OW21367   4.043   4.534   0.949
 6974SOL    HW121368   4.136   4.570   0.954
 6974SOL    HW221369   4.037   4.449   1.001
 6975SOL     OW21370   4.063   4.233   1.006
 6975SOL    HW121371   4.011   4.150   0.989
 6975SOL    HW221372   4.140   4.238   0.942
 6976SOL     OW21373   3.764   4.268   1.114
 6976SOL    HW121374   3.849   4.235   1.073
 6976SOL    HW221375   3.777   4.283   1.212
 6977SOL     OW21376   3.913   4.244   1.722
 6977SOL    HW121377   3.972   4.204   1.652
 6977SOL    HW221378   3.855   4.315   1.681
 6978SOL     OW21379   4.539   4.296   0.325
 6978SOL    HW121380   4.546   4.207   0.279
 6978SOL    HW221381   4.445   4.330   0.317
 6979SOL     OW21382   4.197   4.224   0.191
 6979SOL    HW121383   4.258   4.304   0.195
 6979SOL    HW221384   4.102   4.255   0.198
 6980SOL     OW21385   3.987   4.050   0.720
 6980SOL    HW121386   3.908   4.101   0.686
 6980SOL    HW221387   3.978   4.035   0.818
 6981SOL     OW21388   4.396   3.927   1.489
 6981SOL    HW121389   4.486   3.911   1.449
 6981SOL    HW221390   4.404   3.932   1.588
 6982SOL     OW21391   3.799   4.069   0.033
 6982SOL    HW121392   3.707   4.041   0.004
 6982SOL    HW221393   3.830   4.146  -0.023
 6983SOL     OW21394   3.796   3.890   0.318
 6983SOL    HW121395   3.779   3.973   0.264
 6983SOL    HW221396   3.886   3.853   0.296
 6984SOL     OW21397   4.440   4.289   1.708
 6984SOL    HW121398   4.459   4.354   1.782
 6984SOL    HW221399   4.500   4.209   1.717
 6985SOL     OW21400   4.152   4.148   0.520
 6985SOL    HW121401   4.182   4.076   0.458
 6985SOL    HW221402   4.113   4.108   0.603
 6986SOL     OW21403   4.041   4.271   1.280
 6986SOL    HW121404   4.079   4.212   1.352
 6986SOL    HW221405   4.081   4.245   1.192
 6987SOL     OW21406   3.954   4.352   1.975
 6987SOL    HW121407   3.861   4.350   2.012
 6987SOL    HW221408   3.955   4.313   1.883
 6988SOL     OW21409   3.949   3.999   2.858
 6988SOL    HW121410   3.984   3.982   2.950
 6988SOL    HW221411   3.861   3.954   2.846
 6989SOL     OW21412   3.743   4.092   2.509
 6989SOL    HW121413   3.661   4.135   2.548
 6989SOL    HW221414   3.715   4.019   2.446
 6990SOL     OW21415   4.574   4.522   3.685
 6990SOL    HW121416   4.570   4.598   3.750
 6990SOL    HW221417   4.596   4.558   3.594
 6991SOL     OW21418   4.162   4.116   3.361
 6991SOL    HW121419   4.244   4.060   3.370
 6991SOL    HW221420   4.081   4.058   3.365
 6992SOL     OW21421   3.846   4.367   2.425
 6992SOL    HW121422   3.801   4.279   2.442
 6992SOL    HW221423   3.845   4.421   2.509
 6993SOL     OW21424   3.837   4.461   3.459
 6993SOL    HW121425   3.925   4.448   3.504
 6993SOL    HW221426   3.824   4.558   3.437
 6994SOL     OW21427   4.533   3.728   2.364
 6994SOL    HW121428   4.573   3.819   2.355
 6994SOL    HW221429   4.433   3.736   2.370
 6995SOL     OW21430   4.041   3.975   3.663
 6995SOL    HW121431   4.112   4.046   3.669
 6995SOL    HW221432   3.953   4.014   3.691
 6996SOL     OW21433   4.274   3.920   2.747
 6996SOL    HW121434   4.269   3.915   2.847
 6996SOL    HW221435   4.276   4.016   2.718
 6997SOL     OW21436   3.926   4.009   3.360
 6997SOL    HW121437   3.846   4.069   3.347
 6997SOL    HW221438   3.916   3.960   3.446
 6998SOL     OW21439   4.106   4.424   2.342
 6998SOL    HW121440   4.151   4.334   2.339
 6998SOL    HW221441   4.012   4.413   2.375
 6999SOL     OW21442   4.338   3.846   1.979
 6999SOL    HW121443   4.436   3.824   1.986
 6999SOL    HW221444   4.307   3.829   1.886
 7000SOL     OW21445   4.263   3.788   2.374
 7000SOL    HW121446   4.182   3.789   2.432
 7000SOL    HW221447   4.266   3.871   2.319
 7001SOL     OW21448   4.021   3.759   2.033
 7001SOL    HW121449   4.070   3.843   2.012
 7001SOL    HW221450   4.083   3.694   2.078
 7002SOL     OW21451   4.800   4.407   3.326
 7002SOL    HW121452   4.720   4.346   3.329
 7002SOL    HW221453   4.881   4.354   3.302
 7003SOL     OW21454   3.802   4.280   3.248
 7003SOL    HW121455   3.894   4.279   3.207
 7003SOL    HW221456   3.796   4.354   3.315
 7004SOL     OW21457   4.285   3.946   3.009
 7004SOL    HW121458   4.323   3.862   3.046
 7004SOL    HW221459   4.197   3.965   3.053
 7005SOL     OW21460   4.251   3.980   2.190
 7005SOL    HW121461   4.278   3.921   2.115
 7005SOL    HW221462   4.251   4.075   2.159
 7006SOL     OW21463   4.134   4.537   3.113
 7006SOL    HW121464   4.220   4.549   3.163
 7006SOL    HW221465   4.092   4.450   3.140
 7007SOL     OW21466   4.290   4.261   2.727
 7007SOL    HW121467   4.302   4.327   2.653
 7007SOL    HW221468   4.336   4.295   2.810
 7008SOL     OW21469   4.228   3.774   3.602
 7008SOL    HW121470   4.186   3.717   3.532
 7008SOL    HW221471   4.162   3.843   3.634
 7009SOL     OW21472   4.031   3.937   3.093
 7009SOL    HW121473   4.008   3.974   3.183
 7009SOL    HW221474   4.001   3.842   3.087
 7010SOL     OW21475   4.031   3.787   2.480
 7010SOL    HW121476   4.020   3.881   2.513
 7010SOL    HW221477   4.026   3.724   2.557
 7011SOL     OW21478   4.043   4.534   2.811
 7011SOL    HW121479   4.136   4.570   2.816
 7011SOL    HW221480   4.037   4.449   2.863
 7012SOL     OW21481   4.063   4.233   2.868
 7012SOL    HW121482   4.011   4.150   2.851
 7012SOL    HW221483   4.140   4.238   2.804
 7013SOL     OW21484   3.764   4.268   2.976
 7013SOL    HW121485   3.849   4.235   2.935
 7013SOL    HW221486   3.777   4.283   3.074
 7014SOL     OW21487   3.913   4.244   3.584
 7014SOL    HW121488   3.972   4.204   3.514
 7014SOL    HW221489   3.855   4.315   3.543
 7015SOL     OW21490   4.539   4.296   2.187
 7015SOL    HW121491   4.546   4.207   2.141
 7015SOL    HW221492   4.445   4.330   2.179
 7016SOL     OW21493   4.197   4.224   2.053
 7016SOL    HW121494   4.258   4.304   2.057
 7016SOL    HW221495   4.102   4.255   2.060
 7017SOL     OW21496   3.987   4.050   2.582
 7017SOL    HW121497   3.908   4.101   2.548
 7017SOL    HW221498   3.978   4.035   2.680
 7018SOL     OW21499   4.396   3.927   3.351
 7018SOL    HW121500   4.486   3.911   3.311
 7018SOL    HW221501   4.404   3.932   3.450
 7019SOL     OW21502   3.799   4.069   1.895
 7019SOL    HW121503   3.707   4.041   1.866
 7019SOL    HW221504   3.830   4.146   1.839
 7020SOL     OW21505   3.796   3.890   2.180
 7020SOL    HW121506   3.779   3.973   2.126
 7020SOL    HW221507   3.886   3.853   2.158
 7021SOL     OW21508   4.440   4.289   3.570
 7021SOL    HW121509   4.459   4.354   3.644
 7021SOL    HW221510   4.500   4.209   3.579
 7022SOL     OW21511   4.152   4.148   2.382
 7022SOL    HW121512   4.182   4.076   2.320
 7022SOL    HW221513   4.113   4.108   2.465
 7023SOL     OW21514   4.041   4.271   3.142
 7023SOL    HW121515   4.079   4.212   3.214
 7023SOL    HW221516   4.081   4.245   3.054
 7024SOL     OW21517   3.954   4.352   3.837
 7024SOL    HW121518   3.861   4.350   3.874
 7024SOL    HW221519   3.955   4.313   3.745
 7025SOL     OW21520   3.949   3.999   4.720
 7025SOL    HW121521   3.984   3.982   4.812
 7025SOL    HW221522   3.861   3.954   4.708
 7026SOL     OW21523   3.743   4.092   4.371
 7026SOL    HW121524   3.661   4.135   4.410
 7026SOL    HW221525   3.715   4.019   4.308
 7027SOL     OW21526   4.574   4.522   5.547
 7027SOL    HW121527   4.570   4.598   5.612
 7027SOL    HW221528   4.596   4.558   5.456
 7028SOL     OW21529   4.162   4.116   5.223
 7028SOL    HW121530   4.244   4.060   5.232
 7028SOL    HW221531   4.081   4.058   5.227
 7029SOL     OW21532   3.846   4.367   4.287
 7029SOL    HW121533   3.801   4.279   4.304
 7029SOL    HW221534   3.845   4.421   4.371
 7030SOL     OW21535   3.837   4.461   5.321
 7030SOL    HW121536   3.925   4.448   5.366
 7030SOL    HW221537   3.824   4.558   5.299
 7031SOL     OW21538   4.533   3.728   4.226
 7031SOL    HW121539   4.573   3.819   4.217
 7031SOL    HW221540   4.433   3.736   4.232
 7032SOL     OW21541   4.041   3.975   5.525
 7032SOL    HW121542   4.112   4.046   5.531
 7032SOL    HW221543   3.953   4.014   5.553
 7033SOL     OW21544   4.274   3.920   4.609
 7033SOL    HW121545   4.269   3.915   4.709
 7033SOL    HW221546   4.276   4.016   4.580
 7034SOL     OW21547   3.926   4.009   5.222
 7034SOL    HW121548   3.846   4.069   5.209
 7034SOL    HW221549   3.916   3.960   5.308
 7035SOL     OW21550   4.106   4.424   4.204
 7035SOL    HW121551   4.151   4.334   4.201
 7035SOL    HW221552   4.012   4.413   4.237
 7036SOL     OW21553   4.338   3.846   3.841
 7036SOL    HW121554   4.436   3.824   3.848
 7036SOL    HW221555   4.307   3.829   3.748
 7037SOL     OW21556   4.263   3.788   4.236
 7037SOL    HW121557   4.182   3.789   4.294
 7037SOL    HW221558   4.266   3.871   4.181
 7038SOL     OW21559   4.021   3.759   3.895
 7038SOL    HW121560   4.070   3.843   3.874
 7038SOL    HW221561   4.083   3.694   3.940
 7039SOL     OW21562   4.800   4.407   5.188
 7039SOL    HW121563   4.720   4.346   5.191
 7039SOL    HW221564   4.881   4.354   5.164
 7040SOL     OW21565   3.802   4.280   5.110
 7040SOL    HW121566   3.894   4.279   5.069
 7040SOL    HW221567   3.796   4.354   5.177
 7041SOL     OW21568   4.285   3.946   4.871
 7041SOL    HW121569   4.323   3.862   4.908
 7041SOL    HW221570   4.197   3.965   4.915
 7042SOL     OW21571   4.251   3.980   4.052
 7042SOL    HW121572   4.278   3.921   3.977
 7042SOL    HW221573   4.251   4.075   4.021
 7043SOL     OW21574   4.134   4.537   4.975
 7043SOL    HW121575   4.220   4.549   5.025
 7043SOL    HW221576   4.092   4.450   5.002
 7044SOL     OW21577   4.290   4.261   4.589
 7044SOL    HW121578   4.302   4.327   4.515
 7044SOL    HW221579   4.336   4.295   4.672
 7045SOL     OW21580   4.228   3.774   5.464
 7045SOL    HW121581   4.186   3.717   5.394
 7045SOL    HW221582   4.162   3.843   5.496
 7046SOL     OW21583   4.031   3.937   4.955
 7046SOL    HW121584   4.008   3.974   5.045
 7046SOL    HW221585   4.001   3.842   4.949
 7047SOL     OW21586   4.031   3.787   4.342
 7047SOL    HW121587   4.020   3.881   4.375
 7047SOL    HW221588   4.026   3.724   4.419
 7048SOL     OW21589   4.043   4.534   4.673
 7048SOL    HW121590   4.136   4.570   4.678
 7048SOL    HW221591   4.037   4.449   4.725
 7049SOL     OW21592   4.063   4.233   4.730
 7049SOL    HW121593   4.011   4.150   4.713
 7049SOL    HW221594   4.140   4.238   4.666
 7050SOL     OW21595   3.764   4.268   4.838
 7050SOL    HW121596   3.849   4.235   4.797
 7050SOL    HW221597   3.777   4.283   4.936
 7051SOL     OW21598   3.913   4.244   5.446
 7051SOL    HW121599   3.972   4.204   5.376
 7051SOL    HW221600   3.855   4.315   5.405
 7052SOL     OW21601   4.539   4.296   4.049
 7052SOL    HW121602   4.546   4.207   4.003
 7052SOL    HW221603   4.445   4.330   4.041
 7053SOL     OW21604   4.197   4.224   3.915
 7053SOL    HW121605   4.258   4.304   3.919
 7053SOL    HW221606   4.102   4.255   3.922
 7054SOL     OW21607   3.987   4.050   4.444
 7054SOL    HW121608   3.908   4.101   4.410
 7054SOL    HW221609   3.978   4.035   4.542
 7055SOL     OW21610   4.396   3.927   5.213
 7055SOL    HW121611   4.486   3.911   5.173
 7055SOL    HW221612   4.404   3.932   5.312
 7056SOL     OW21613   3.799   4.069   3.757
 7056SOL    HW121614   3.707   4.041   3.728
 7056SOL    HW221615   3.830   4.146   3.701
 7057SOL     OW21616   3.796   3.890   4.042
 7057SOL    HW121617   3.779   3.973   3.988
 7057SOL    HW221618   3.886   3.853   4.020
 7058SOL     OW21619   4.440   4.289   5.432
 7058SOL    HW121620   4.459   4.354   5.506
 7058SOL    HW221621   4.500   4.209   5.441
 7059SOL     OW21622   4.152   4.148   4.244
 7059SOL    HW121623   4.182   4.076   4.182
 7059SOL    HW221624   4.113   4.108   4.327
 7060SOL     OW21625   4.041   4.271   5.004
 7060SOL    HW121626   4.079   4.212   5.076
 7060SOL    HW221627   4.081   4.245   4.916
 7061SOL     OW21628   3.954   4.352   5.699
 7061SOL    HW121629   3.861   4.350   5.736
 7061SOL    HW221630   3.955   4.313   5.607
 7062SOL     OW21631   3.949   3.999   6.582
 7062SOL    HW121632   3.984   3.982   6.674
 7062SOL    HW221633   3.861   3.954   6.570
 7063SOL     OW21634   3.743   4.092   6.233
 7063SOL    HW121635   3.661   4.135   6.272
 7063SOL    HW221636   3.715   4.019   6.170
 7064SOL     OW21637   4.574   4.522   7.409
 7064SOL    HW121638   4.570   4.598   7.474
 7064SOL    HW221639   4.596   4.558   7.318
 7065SOL     OW21640   4.162   4.116   7.085
 7065SOL    HW121641   4.244   4.060   7.094
 7065SOL    HW221642   4.081   4.058   7.089
 7066SOL     OW21643   3.846   4.367   6.149
 7066SOL    HW121644   3.801   4.279   6.166
 7066SOL    HW221645   3.845   4.421   6.233
 7067SOL     OW21646   3.837   4.461   7.183
 7067SOL    HW121647   3.925   4.448   7.228
 7067SOL    HW221648   3.824   4.558   7.161
 7068SOL     OW21649   4.533   3.728   6.088
 7068SOL    HW121650   4.573   3.819   6.079
 7068SOL    HW221651   4.433   3.736   6.094
 7069SOL     OW21652   4.041   3.975   7.387
 7069SOL    HW121653   4.112   4.046   7.393
 7069SOL    HW221654   3.953   4.014   7.415
 7070SOL     OW21655   4.274   3.920   6.471
 7070SOL    HW121656   4.269   3.915   6.571
 7070SOL    HW221657   4.276   4.016   6.442
 7071SOL     OW21658   3.926   4.009   7.084
 7071SOL    HW121659   3.846   4.069   7.071
 7071SOL    HW221660   3.916   3.960   7.170
 7072SOL     OW21661   4.106   4.424   6.066
 7072SOL    HW121662   4.151   4.334   6.063
 7072SOL    HW221663   4.012   4.413   6.099
 7073SOL     OW21664   4.338   3.846   5.703
 7073SOL    HW121665   4.436   3.824   5.710
 7073SOL    HW221666   4.307   3.829   5.610
 7074SOL     OW21667   4.263   3.788   6.098
 7074SOL    HW121668   4.182   3.789   6.156
 7074SOL    HW221669   4.266   3.871   6.043
 7075SOL     OW21670   4.021   3.759   5.757
 7075SOL    HW121671   4.070   3.843   5.736
 7075SOL    HW221672   4.083   3.694   5.802
 7076SOL     OW21673   4.800   4.407   7.050
 7076SOL    HW121674   4.720   4.346   7.053
 7076SOL    HW221675   4.881   4.354   7.026
 7077SOL     OW21676   3.802   4.280   6.972
 7077SOL    HW121677   3.894   4.279   6.931
 7077SOL    HW221678   3.796   4.354   7.039
 7078SOL     OW21679   4.285   3.946   6.733
 7078SOL    HW121680   4.323   3.862   6.770
 7078SOL    HW221681   4.197   3.965   6.777
 7079SOL     OW21682   4.251   3.980   5.914
 7079SOL    HW121683   4.278   3.921   5.839
 7079SOL    HW221684   4.251   4.075   5.883
 7080SOL     OW21685   4.134   4.537   6.837
 7080SOL    HW121686   4.220   4.549   6.887
 7080SOL    HW221687   4.092   4.450   6.864
 7081SOL     OW21688   4.290   4.261   6.451
 7081SOL    HW121689   4.302   4.327   6.377
 7081SOL    HW221690   4.336   4.295   6.534
 7082SOL     OW21691   4.228   3.774   7.326
 7082SOL    HW121692   4.186   3.717   7.256
 7082SOL    HW221693   4.162   3.843   7.358
 7083SOL     OW21694   4.031   3.937   6.817
 7083SOL    HW121695   4.008   3.974   6.907
 7083SOL    HW221696   4.001   3.842   6.811
 7084SOL     OW21697   4.031   3.787   6.204
 7084SOL    HW121698   4.020   3.881   6.237
 7084SOL    HW221699   4.026   3.724   6.281
 7085SOL     OW21700   4.043   4.534   6.535
 7085SOL    HW121701   4.136   4.570   6.540
 7085SOL    HW221702   4.037   4.449   6.587
 7086SOL     OW21703   4.063   4.233   6.592
 7086SOL    HW121704   4.011   4.150   6.575
 7086SOL    HW221705   4.140   4.238   6.528
 7087SOL     OW21706   3.764   4.268   6.700
 7087SOL    HW121707   3.849   4.235   6.659
 7087SOL    HW221708   3.777   4.283   6.798
 7088SOL     OW21709   3.913   4.244   7.308
 7088SOL    HW121710   3.972   4.204   7.238
 7088SOL    HW221711   3.855   4.315   7.267
 7089SOL     OW21712   4.539   4.296   5.911
 7089SOL    HW121713   4.546   4.207   5.865
 7089SOL    HW221714   4.445   4.330   5.903
 7090SOL     OW21715   4.197   4.224   5.777
 7090SOL    HW121716   4.258   4.304   5.781
 7090SOL    HW221717   4.102   4.255   5.784
 7091SOL     OW21718   3.987   4.050   6.306
 7091SOL    HW121719   3.908   4.101   6.272
 7091SOL    HW221720   3.978   4.035   6.404
 7092SOL     OW21721   4.396   3.927   7.075
 7092SOL    HW121722   4.486   3.911   7.035
 7092SOL    HW221723   4.404   3.932   7.174
 7093SOL     OW21724   3.799   4.069   5.619
 7093SOL    HW121725   3.707   4.041   5.590
 7093SOL    HW221726   3.830   4.146   5.563
 7094SOL     OW21727   3.796   3.890   5.904
 7094SOL    HW121728   3.779   3.973   5.850
 7094SOL    HW221729   3.886   3.853   5.882
 7095SOL     OW21730   4.440   4.289   7.294
 7095SOL    HW121731   4.459   4.354   7.368
 7095SOL    HW221732   4.500   4.209   7.303
 7096SOL     OW21733   4.152   4.148   6.106
 7096SOL    HW121734   4.182   4.076   6.044
 7096SOL    HW221735   4.113   4.108   6.189
 7097SOL     OW21736   4.041   4.271   6.866
 7097SOL    HW121737   4.079   4.212   6.938
 7097SOL    HW221738   4.081   4.245   6.778
 7098SOL     OW21739   3.954   4.352   7.561
 7098SOL    HW121740   3.861   4.350   7.598
 7098SOL    HW221741   3.955   4.313   7.469
 7099SOL     OW21742   3.949   3.999   8.444
 7099SOL    HW121743   3.984   3.982   8.536
 7099SOL    HW221744   3.861   3.954   8.432
 7100SOL     OW21745   3.743   4.092   8.095
 7100SOL    HW121746   3.661   4.135   8.134
 7100SOL    HW221747   3.715   4.019   8.032
 7101SOL     OW21748   4.574   4.522   9.271
 7101SOL    HW121749   4.570   4.598   9.336
 7101SOL    HW221750   4.596   4.558   9.180
 7102SOL     OW21751   4.162   4.116   8.947
 7102SOL    HW121752   4.244   4.060   8.956
 7102SOL    HW221753   4.081   4.058   8.951
 7103SOL     OW21754   3.846   4.367   8.011
 7103SOL    HW121755   3.801   4.279   8.028
 7103SOL    HW221756   3.845   4.421   8.095
 7104SOL     OW21757   3.837   4.461   9.045
 7104SOL    HW121758   3.925   4.448   9.090
 7104SOL    HW221759   3.824   4.558   9.023
 7105SOL     OW21760   4.533   3.728   7.950
 7105SOL    HW121761   4.573   3.819   7.941
 7105SOL    HW221762   4.433   3.736   7.956
 7106SOL     OW21763   4.041   3.975   9.249
 7106SOL    HW121764   4.112   4.046   9.255
 7106SOL    HW221765   3.953   4.014   9.277
 7107SOL     OW21766   4.274   3.920   8.333
 7107SOL    HW121767   4.269   3.915   8.433
 7107SOL    HW221768   4.276   4.016   8.304
 7108SOL     OW21769   3.926   4.009   8.946
 7108SOL    HW121770   3.846   4.069   8.933
 7108SOL    HW221771   3.916   3.960   9.032
 7109SOL     OW21772   4.106   4.424   7.928
 7109SOL    HW121773   4.151   4.334   7.925
 7109SOL    HW221774   4.012   4.413   7.961
 7110SOL     OW21775   4.338   3.846   7.565
 7110SOL    HW121776   4.436   3.824   7.572
 7110SOL    HW221777   4.307   3.829   7.472
 7111SOL     OW21778   4.263   3.788   7.960
 7111SOL    HW121779   4.182   3.789   8.018
 7111SOL    HW221780   4.266   3.871   7.905
 7112SOL     OW21781   4.021   3.759   7.619
 7112SOL    HW121782   4.070   3.843   7.598
 7112SOL    HW221783   4.083   3.694   7.664
 7113SOL     OW21784   4.800   4.407   8.912
 7113SOL    HW121785   4.720   4.346   8.915
 7113SOL    HW221786   4.881   4.354   8.888
 7114SOL     OW21787   3.802   4.280   8.834
 7114SOL    HW121788   3.894   4.279   8.793
 7114SOL    HW221789   3.796   4.354   8.901
 7115SOL     OW21790   4.285   3.946   8.595
 7115SOL    HW121791   4.323   3.862   8.632
 7115SOL    HW221792   4.197   3.965   8.639
 7116SOL     OW21793   4.251   3.980   7.776
 7116SOL    HW121794   4.278   3.921   7.701
 7116SOL    HW221795   4.251   4.075   7.745
 7117SOL     OW21796   4.134   4.537   8.699
 7117SOL    HW121797   4.220   4.549   8.749
 7117SOL    HW221798   4.092   4.450   8.726
 7118SOL     OW21799   4.290   4.261   8.313
 7118SOL    HW121800   4.302   4.327   8.239
 7118SOL    HW221801   4.336   4.295   8.396
 7119SOL     OW21802   4.228   3.774   9.188
 7119SOL    HW121803   4.186   3.717   9.118
 7119SOL    HW221804   4.162   3.843   9.220
 7120SOL     OW21805   4.031   3.937   8.679
 7120SOL    HW121806   4.008   3.974   8.769
 7120SOL    HW221807   4.001   3.842   8.673
 7121SOL     OW21808   4.031   3.787   8.066
 7121SOL    HW121809   4.020   3.881   8.099
 7121SOL    HW221810   4.026   3.724   8.143
 7122SOL     OW21811   4.043   4.534   8.397
 7122SOL    HW121812   4.136   4.570   8.402
 7122SOL    HW221813   4.037   4.449   8.449
 7123SOL     OW21814   4.063   4.233   8.454
 7123SOL    HW121815   4.011   4.150   8.437
 7123SOL    HW221816   4.140   4.238   8.390
 7124SOL     OW21817   3.764   4.268   8.562
 7124SOL    HW121818   3.849   4.235   8.521
 7124SOL    HW221819   3.777   4.283   8.660
 7125SOL     OW21820   3.913   4.244   9.170
 7125SOL    HW121821   3.972   4.204   9.100
 7125SOL    HW221822   3.855   4.315   9.129
 7126SOL     OW21823   4.539   4.296   7.773
 7126SOL    HW121824   4.546   4.207   7.727
 7126SOL    HW221825   4.445   4.330   7.765
 7127SOL     OW21826   4.197   4.224   7.639
 7127SOL    HW121827   4.258   4.304   7.643
 7127SOL    HW221828   4.102   4.255   7.646
 7128SOL     OW21829   3.987   4.050   8.168
 7128SOL    HW121830   3.908   4.101   8.134
 7128SOL    HW221831   3.978   4.035   8.266
 7129SOL     OW21832   4.396   3.927   8.937
 7129SOL    HW121833   4.486   3.911   8.897
 7129SOL    HW221834   4.404   3.932   9.036
 7130SOL     OW21835   3.799   4.069   7.481
 7130SOL    HW121836   3.707   4.041   7.452
 7130SOL    HW221837   3.830   4.146   7.425
 7131SOL     OW21838   3.796   3.890   7.766
 7131SOL    HW121839   3.779   3.973   7.712
 7131SOL    HW221840   3.886   3.853   7.744
 7132SOL     OW21841   4.440   4.289   9.156
 7132SOL    HW121842   4.459   4.354   9.230
 7132SOL    HW221843   4.500   4.209   9.165
 7133SOL     OW21844   4.152   4.148   7.968
 7133SOL    HW121845   4.182   4.076   7.906
 7133SOL    HW221846   4.113   4.108   8.051
 7134SOL     OW21847   4.041   4.271   8.728
 7134SOL    HW121848   4.079   4.212   8.800
 7134SOL    HW221849   4.081   4.245   8.640
 7135SOL     OW21850   3.954   4.352   9.423
 7135SOL    HW121851   3.861   4.350   9.460
 7135SOL    HW221852   3.955   4.313   9.331
 7136SOL     OW21853   3.949   3.999  10.306
 7136SOL    HW121854   3.984   3.982  10.398
 7136SOL    HW221855   3.861   3.954  10.294
 7137SOL     OW21856   3.743   4.092   9.957
 7137SOL    HW121857   3.661   4.135   9.996
 7137SOL    HW221858   3.715   4.019   9.894
 7138SOL     OW21859   4.162   4.116  10.809
 7138SOL    HW121860   4.244   4.060  10.818
 7138SOL    HW221861   4.081   4.058  10.813
 7139SOL     OW21862   3.846   4.367   9.873
 7139SOL    HW121863   3.801   4.279   9.890
 7139SOL    HW221864   3.845   4.421   9.957
 7140SOL     OW21865   3.837   4.461  10.907
 7140SOL    HW121866   3.925   4.448  10.952
 7140SOL    HW221867   3.824   4.558  10.885
 7141SOL     OW21868   4.533   3.728   9.812
 7141SOL    HW121869   4.573   3.819   9.803
 7141SOL    HW221870   4.433   3.736   9.818
 7142SOL     OW21871   4.041   3.975  11.111
 7142SOL    HW121872   4.112   4.046  11.117
 7142SOL    HW221873   3.953   4.014  11.139
 7143SOL     OW21874   4.274   3.920  10.195
 7143SOL    HW121875   4.269   3.915  10.295
 7143SOL    HW221876   4.276   4.016  10.166
 7144SOL     OW21877   3.926   4.009  10.808
 7144SOL    HW121878   3.846   4.069  10.795
 7144SOL    HW221879   3.916   3.960  10.894
 7145SOL     OW21880   4.106   4.424   9.790
 7145SOL    HW121881   4.151   4.334   9.787
 7145SOL    HW221882   4.012   4.413   9.823
 7146SOL     OW21883   4.338   3.846   9.427
 7146SOL    HW121884   4.436   3.824   9.434
 7146SOL    HW221885   4.307   3.829   9.334
 7147SOL     OW21886   4.263   3.788   9.822
 7147SOL    HW121887   4.182   3.789   9.880
 7147SOL    HW221888   4.266   3.871   9.767
 7148SOL     OW21889   4.021   3.759   9.481
 7148SOL    HW121890   4.070   3.843   9.460
 7148SOL    HW221891   4.083   3.694   9.526
 7149SOL     OW21892   4.800   4.407  10.774
 7149SOL    HW121893   4.720   4.346  10.777
 7149SOL    HW221894   4.881   4.354  10.750
 7150SOL     OW21895   3.802   4.280  10.696
 7150SOL    HW121896   3.894   4.279  10.655
 7150SOL    HW221897   3.796   4.354  10.763
 7151SOL     OW21898   4.285   3.946  10.457
 7151SOL    HW121899   4.323   3.862  10.494
 7151SOL    HW221900   4.197   3.965  10.501
 7152SOL     OW21901   4.251   3.980   9.638
 7152SOL    HW121902   4.278   3.921   9.563
 7152SOL    HW221903   4.251   4.075   9.607
 7153SOL     OW21904   4.134   4.537  10.561
 7153SOL    HW121905   4.220   4.549  10.611
 7153SOL    HW221906   4.092   4.450  10.588
 7154SOL     OW21907   4.290   4.261  10.175
 7154SOL    HW121908   4.302   4.327  10.101
 7154SOL    HW221909   4.336   4.295  10.258
 7155SOL     OW21910   4.126   4.475  10.908
 7155SOL    HW121911   4.194   4.530  10.861
 7155SOL    HW221912   4.166   4.387  10.935
 7156SOL     OW21913   4.031   3.937  10.541
 7156SOL    HW121914   4.008   3.974  10.631
 7156SOL    HW221915   4.001   3.842  10.535
 7157SOL     OW21916   4.031   3.787   9.928
 7157SOL    HW121917   4.020   3.881   9.961
 7157SOL    HW221918   4.026   3.724  10.005
 7158SOL     OW21919   4.043   4.534  10.259
 7158SOL    HW121920   4.136   4.570  10.264
 7158SOL    HW221921   4.037   4.449  10.311
 7159SOL     OW21922   4.063   4.233  10.316
 7159SOL    HW121923   4.011   4.150  10.299
 7159SOL    HW221924   4.140   4.238  10.252
 7160SOL     OW21925   3.764   4.268  10.424
 7160SOL    HW121926   3.849   4.235  10.383
 7160SOL    HW221927   3.777   4.283  10.522
 7161SOL     OW21928   4.539   4.296   9.635
 7161SOL    HW121929   4.546   4.207   9.589
 7161SOL    HW221930   4.445   4.330   9.627
 7162SOL     OW21931   4.197   4.224   9.501
 7162SOL    HW121932   4.258   4.304   9.505
 7162SOL    HW221933   4.102   4.255   9.508
 7163SOL     OW21934   3.987   4.050  10.030
 7163SOL    HW121935   3.908   4.101   9.996
 7163SOL    HW221936   3.978   4.035  10.128
 7164SOL     OW21937   4.396   3.927  10.799
 7164SOL    HW121938   4.486   3.911  10.759
 7164SOL    HW221939   4.404   3.932  10.898
 7165SOL     OW21940   3.799   4.069   9.343
 7165SOL    HW121941   3.707   4.041   9.314
 7165SOL    HW221942   3.830   4.146   9.287
 7166SOL     OW21943   3.796   3.890   9.628
 7166SOL    HW121944   3.779   3.973   9.574
 7166SOL    HW221945   3.886   3.853   9.606
 7167SOL     OW21946   4.152   4.148   9.830
 7167SOL    HW121947   4.182   4.076   9.768
 7167SOL    HW221948   4.113   4.108   9.913
 7168SOL     OW21949   4.041   4.271  10.590
 7168SOL    HW121950   4.079   4.212  10.662
 7168SOL    HW221951   4.081   4.245  10.502
   4.50000   4.50000  11.10000
