Built with Packmol
29589
    1LIG      O    1   2.627   2.620   0.012
    1LIG      C    2   2.692   2.670   0.130
    1LIG     C1    3   2.621   2.617   0.256
    1LIG     O1    4   2.685   2.667   0.375
    1LIG     C2    5   2.620   2.618   0.493
    1LIG     C3    6   2.691   2.673   0.616
    1LIG     O2    7   2.627   2.625   0.735
    1LIG     C4    8   2.690   2.675   0.854
    1LIG     C5    9   2.618   2.620   0.977
    1LIG     O3   10   2.681   2.670   1.096
    1LIG     C6   11   2.616   2.621   1.214
    1LIG     C7   12   2.688   2.677   1.337
    1LIG     O4   13   2.624   2.629   1.456
    1LIG     C8   14   2.688   2.679   1.575
    1LIG     C9   15   2.615   2.623   1.697
    1LIG     O5   16   2.679   2.673   1.816
    1LIG    C10   17   2.615   2.624   1.935
    1LIG    C11   18   2.687   2.680   2.057
    1LIG     O6   19   2.623   2.631   2.176
    1LIG    C12   20   2.686   2.680   2.295
    1LIG    C13   21   2.613   2.625   2.417
    1LIG     O7   22   2.677   2.674   2.536
    1LIG    C14   23   2.613   2.625   2.655
    1LIG    C15   24   2.685   2.680   2.779
    1LIG     O8   25   2.621   2.631   2.898
    1LIG    C16   26   2.685   2.681   3.016
    1LIG    C17   27   2.614   2.626   3.139
    1LIG     O9   28   2.677   2.675   3.259
    1LIG    C18   29   2.612   2.626   3.376
    1LIG    C19   30   2.684   2.681   3.499
    1LIG    O10   31   2.621   2.632   3.618
    1LIG    C20   32   2.685   2.682   3.736
    1LIG    C21   33   2.612   2.626   3.859
    1LIG    O11   34   2.676   2.675   3.978
    1LIG    C22   35   2.612   2.626   4.096
    1LIG    C23   36   2.684   2.682   4.219
    1LIG    O12   37   2.620   2.633   4.337
    1LIG    C24   38   2.684   2.682   4.457
    1LIG    C25   39   2.612   2.627   4.580
    1LIG    O13   40   2.675   2.676   4.699
    1LIG    C26   41   2.611   2.627   4.818
    1LIG    C27   42   2.683   2.682   4.940
    1LIG    O14   43   2.619   2.633   5.059
    1LIG    C28   44   2.684   2.682   5.178
    1LIG    C29   45   2.612   2.626   5.301
    1LIG    O15   46   2.676   2.675   5.420
    1LIG    C30   47   2.612   2.626   5.538
    1LIG    C31   48   2.684   2.681   5.661
    1LIG    O16   49   2.620   2.632   5.779
    1LIG    C32   50   2.684   2.681   5.898
    1LIG    C33   51   2.612   2.626   6.021
    1LIG    O17   52   2.676   2.675   6.140
    1LIG    C34   53   2.612   2.625   6.258
    1LIG    C35   54   2.684   2.680   6.381
    1LIG    O18   55   2.620   2.631   6.501
    1LIG    C36   56   2.684   2.680   6.619
    1LIG    C37   57   2.613   2.625   6.742
    1LIG    O19   58   2.677   2.674   6.861
    1LIG    C38   59   2.613   2.624   6.979
    1LIG    C39   60   2.684   2.679   7.103
    1LIG    O20   61   2.621   2.630   7.222
    1LIG    C40   62   2.685   2.679   7.340
    1LIG    C41   63   2.614   2.624   7.463
    1LIG    O21   64   2.677   2.673   7.583
    1LIG    C42   65   2.613   2.623   7.700
    1LIG    C43   66   2.685   2.678   7.823
    1LIG    O22   67   2.622   2.629   7.942
    1LIG    C44   68   2.686   2.678   8.061
    1LIG    C45   69   2.614   2.622   8.183
    1LIG    O23   70   2.678   2.671   8.302
    1LIG    C46   71   2.614   2.622   8.421
    1LIG    C47   72   2.687   2.678   8.544
    1LIG    O24   73   2.623   2.628   8.662
    1LIG    C48   74   2.686   2.677   8.781
    1LIG    C49   75   2.614   2.621   8.904
    1LIG    O25   76   2.678   2.670   9.022
    1LIG    C50   77   2.615   2.621   9.141
    1LIG    C51   78   2.687   2.677   9.264
    1LIG    O26   79   2.624   2.627   9.382
    1LIG    C52   80   2.687   2.676   9.501
    1LIG    C53   81   2.615   2.619   9.624
    1LIG    O27   82   2.679   2.669   9.742
    1LIG    C54   83   2.616   2.619   9.861
    1LIG    C55   84   2.688   2.675   9.985
    1LIG    O28   85   2.624   2.625  10.104
    1LIG    C56   86   2.688   2.674  10.223
    1LIG    C57   87   2.617   2.618  10.347
    1LIG    O29   88   2.681   2.667  10.466
    1LIG    C58   89   2.617   2.617  10.584
    1LIG    C59   90   2.688   2.672  10.708
    1LIG      H   91   2.689   2.780   0.128
    1LIG     H1   92   2.797   2.639   0.129
    1LIG     H2   93   2.624   2.508   0.255
    1LIG     H3   94   2.516   2.648   0.254
    1LIG     H4   95   2.623   2.508   0.495
    1LIG     H5   96   2.515   2.649   0.494
    1LIG     H6   97   2.689   2.783   0.614
    1LIG     H7   98   2.797   2.642   0.616
    1LIG     H8   99   2.688   2.784   0.854
    1LIG     H9  100   2.795   2.644   0.856
    1LIG    H10  101   2.621   2.511   0.976
    1LIG    H11  102   2.513   2.651   0.975
    1LIG    H12  103   2.619   2.512   1.216
    1LIG    H13  104   2.511   2.652   1.215
    1LIG    H14  105   2.685   2.787   1.335
    1LIG    H15  106   2.793   2.646   1.336
    1LIG    H16  107   2.685   2.788   1.576
    1LIG    H17  108   2.793   2.648   1.577
    1LIG    H18  109   2.618   2.514   1.696
    1LIG    H19  110   2.510   2.654   1.695
    1LIG    H20  111   2.617   2.514   1.937
    1LIG    H21  112   2.509   2.655   1.936
    1LIG    H22  113   2.684   2.789   2.056
    1LIG    H23  114   2.792   2.649   2.056
    1LIG    H24  115   2.683   2.789   2.296
    1LIG    H25  116   2.791   2.649   2.297
    1LIG    H26  117   2.616   2.515   2.416
    1LIG    H27  118   2.508   2.656   2.416
    1LIG    H28  119   2.616   2.515   2.657
    1LIG    H29  120   2.508   2.656   2.656
    1LIG    H30  121   2.682   2.790   2.777
    1LIG    H31  122   2.790   2.649   2.777
    1LIG    H32  123   2.682   2.791   3.017
    1LIG    H33  124   2.790   2.650   3.017
    1LIG    H34  125   2.616   2.517   3.138
    1LIG    H35  126   2.508   2.657   3.138
    1LIG    H36  127   2.615   2.516   3.378
    1LIG    H37  128   2.507   2.657   3.378
    1LIG    H38  129   2.681   2.791   3.497
    1LIG    H39  130   2.789   2.650   3.498
    1LIG    H40  131   2.682   2.791   3.738
    1LIG    H41  132   2.790   2.651   3.738
    1LIG    H42  133   2.615   2.517   3.858
    1LIG    H43  134   2.507   2.657   3.857
    1LIG    H44  135   2.615   2.517   4.098
    1LIG    H45  136   2.507   2.657   4.098
    1LIG    H46  137   2.681   2.792   4.217
    1LIG    H47  138   2.790   2.651   4.218
    1LIG    H48  139   2.681   2.791   4.458
    1LIG    H49  140   2.789   2.651   4.459
    1LIG    H50  141   2.615   2.517   4.579
    1LIG    H51  142   2.507   2.658   4.579
    1LIG    H52  143   2.614   2.517   4.819
    1LIG    H53  144   2.506   2.658   4.819
    1LIG    H54  145   2.680   2.792   4.939
    1LIG    H55  146   2.788   2.651   4.939
    1LIG    H56  147   2.681   2.791   5.179
    1LIG    H57  148   2.789   2.651   5.179
    1LIG    H58  149   2.615   2.517   5.300
    1LIG    H59  150   2.507   2.657   5.300
    1LIG    H60  151   2.615   2.516   5.540
    1LIG    H61  152   2.507   2.657   5.540
    1LIG    H62  153   2.681   2.791   5.659
    1LIG    H63  154   2.789   2.650   5.659
    1LIG    H64  155   2.681   2.790   5.899
    1LIG    H65  156   2.789   2.650   5.899
    1LIG    H66  157   2.615   2.516   6.020
    1LIG    H67  158   2.507   2.657   6.020
    1LIG    H68  159   2.615   2.516   6.259
    1LIG    H69  160   2.507   2.656   6.259
    1LIG    H70  161   2.681   2.790   6.380
    1LIG    H71  162   2.789   2.650   6.380
    1LIG    H72  163   2.681   2.790   6.620
    1LIG    H73  164   2.790   2.650   6.620
    1LIG    H74  165   2.616   2.516   6.741
    1LIG    H75  166   2.508   2.656   6.741
    1LIG    H76  167   2.616   2.515   6.980
    1LIG    H77  168   2.508   2.655   6.981
    1LIG    H78  169   2.681   2.788   7.102
    1LIG    H79  170   2.790   2.648   7.101
    1LIG    H80  171   2.682   2.789   7.341
    1LIG    H81  172   2.790   2.649   7.341
    1LIG    H82  173   2.617   2.514   7.462
    1LIG    H83  174   2.508   2.654   7.462
    1LIG    H84  175   2.617   2.513   7.702
    1LIG    H85  176   2.508   2.653   7.702
    1LIG    H86  177   2.682   2.788   7.822
    1LIG    H87  178   2.791   2.648   7.821
    1LIG    H88  179   2.683   2.788   8.062
    1LIG    H89  180   2.791   2.648   8.062
    1LIG    H90  181   2.617   2.513   8.182
    1LIG    H91  182   2.509   2.653   8.182
    1LIG    H92  183   2.618   2.512   8.423
    1LIG    H93  184   2.509   2.652   8.423
    1LIG    H94  185   2.683   2.787   8.542
    1LIG    H95  186   2.792   2.647   8.542
    1LIG    H96  187   2.683   2.786   8.783
    1LIG    H97  188   2.791   2.646   8.783
    1LIG    H98  189   2.618   2.511   8.902
    1LIG    H99  190   2.509   2.651   8.902
    1LIG   H100  191   2.618   2.511   9.143
    1LIG   H101  192   2.510   2.651   9.143
    1LIG   H102  193   2.684   2.786   9.263
    1LIG   H103  194   2.792   2.646   9.262
    1LIG   H104  195   2.684   2.785   9.503
    1LIG   H105  196   2.792   2.645   9.503
    1LIG   H106  197   2.619   2.510   9.622
    1LIG   H107  198   2.510   2.650   9.623
    1LIG   H108  199   2.620   2.510   9.862
    1LIG   H109  200   2.511   2.650   9.863
    1LIG   H110  201   2.684   2.784   9.984
    1LIG   H111  202   2.793   2.644   9.983
    1LIG   H112  203   2.685   2.784  10.224
    1LIG   H113  204   2.794   2.644  10.224
    1LIG   H114  205   2.621   2.509  10.345
    1LIG   H115  206   2.512   2.649  10.345
    1LIG   H116  207   2.621   2.507  10.584
    1LIG   H117  208   2.512   2.649  10.585
    1LIG   H118  209   2.793   2.642  10.708
    1LIG   H119  210   2.641   2.635  10.800
    1MOL     C1  211   3.203   2.647   5.382
    1MOL     H1  212   3.292   2.707   5.403
    1MOL     O1  213   3.177   2.574   5.500
    1MOL     C2  214   3.056   2.495   5.494
    1MOL     H2  215   2.971   2.559   5.469
    1MOL     C3  216   3.032   2.439   5.635
    1MOL     H3  217   3.128   2.436   5.688
    1MOL     H4  218   2.992   2.337   5.630
    1MOL     O2  219   2.943   2.521   5.710
    1MOL     H5  220   2.856   2.477   5.709
    1MOL     C4  221   3.225   2.551   5.264
    1MOL     H6  222   3.314   2.491   5.285
    1MOL     O3  223   3.250   2.619   5.142
    1MOL     H7  224   3.196   2.701   5.141
    1MOL     C5  225   3.104   2.459   5.251
    1MOL     H8  226   3.017   2.520   5.222
    1MOL     O4  227   3.126   2.358   5.152
    1MOL     H9  228   3.161   2.404   5.074
    1MOL     C6  229   3.070   2.390   5.382
    1MOL    H10  230   3.147   2.316   5.407
    1MOL     O5  231   2.944   2.325   5.360
    1MOL     C7  232   2.924   2.191   5.400
    1MOL    H11  233   3.019   2.143   5.425
    1MOL     O6  234   2.845   2.183   5.517
    1MOL     C8  235   2.716   2.247   5.506
    1MOL    H12  236   2.730   2.353   5.478
    1MOL     C9  237   2.653   2.243   5.643
    1MOL    H13  238   2.669   2.144   5.687
    1MOL    H14  239   2.545   2.261   5.635
    1MOL     O7  240   2.715   2.344   5.724
    1MOL    H15  241   2.692   2.329   5.817
    1MOL    C10  242   2.854   2.121   5.283
    1MOL    H16  243   2.843   2.015   5.309
    1MOL     O8  244   2.927   2.126   5.163
    1MOL    H17  245   2.973   2.213   5.157
    1MOL    C11  246   2.714   2.181   5.265
    1MOL    H18  247   2.725   2.285   5.234
    1MOL     O9  248   2.641   2.108   5.166
    1MOL    H19  249   2.702   2.098   5.091
    1MOL    C12  250   2.633   2.179   5.395
    1MOL    H20  251   2.610   2.076   5.423
    1MOL    O10  252   2.514   2.253   5.371
    1MOL    C13  253   2.386   2.193   5.390
    1MOL    H21  254   2.398   2.086   5.411
    1MOL    O11  255   2.320   2.247   5.502
    1MOL    C14  256   2.294   2.388   5.497
    1MOL    H22  257   2.390   2.442   5.498
    1MOL    C15  258   2.217   2.425   5.623
    1MOL    H23  259   2.213   2.535   5.629
    1MOL    H24  260   2.273   2.387   5.710
    1MOL    O12  261   2.087   2.369   5.616
    1MOL    H25  262   2.033   2.411   5.684
    1MOL    C16  263   2.304   2.217   5.263
    1MOL    H26  264   2.206   2.170   5.278
    1MOL    O13  265   2.359   2.159   5.147
    1MOL    H27  266   2.457   2.162   5.151
    1MOL    C17  267   2.284   2.367   5.245
    1MOL    H28  268   2.382   2.414   5.231
    1MOL    O14  269   2.201   2.394   5.132
    1MOL    H29  270   2.234   2.337   5.061
    1MOL    C18  271   2.218   2.428   5.368
    1MOL    H30  272   2.114   2.394   5.375
    1MOL    O15  273   2.224   2.570   5.353
    1MOL    C19  274   2.108   2.649   5.368
    1MOL    H31  275   2.019   2.586   5.382
    1MOL    O16  276   2.116   2.730   5.484
    1MOL    C20  277   2.231   2.817   5.488
    1MOL    H32  278   2.322   2.756   5.490
    1MOL    C21  279   2.224   2.896   5.618
    1MOL    H33  280   2.321   2.945   5.633
    1MOL    H34  281   2.207   2.825   5.700
    1MOL    O17  282   2.118   2.991   5.610
    1MOL    H35  283   2.126   3.050   5.686
    1MOL    C22  284   2.096   2.737   5.243
    1MOL    H36  285   2.007   2.799   5.253
    1MOL    O18  286   2.081   2.663   5.123
    1MOL    H37  287   2.138   2.584   5.126
    1MOL    C23  288   2.219   2.828   5.235
    1MOL    H38  289   2.308   2.765   5.221
    1MOL    O19  290   2.208   2.920   5.127
    1MOL    H39  291   2.179   2.868   5.051
    1MOL    C24  292   2.238   2.908   5.364
    1MOL    H40  293   2.161   2.985   5.370
    1MOL    O20  294   2.368   2.967   5.354
    1MOL    C25  295   2.390   3.100   5.395
    1MOL    H41  296   2.295   3.148   5.422
    1MOL    O21  297   2.471   3.106   5.510
    1MOL    C26  298   2.600   3.041   5.495
    1MOL    H42  299   2.582   2.937   5.466
    1MOL    C27  300   2.671   3.043   5.631
    1MOL    H43  301   2.728   2.951   5.644
    1MOL    H44  302   2.593   3.044   5.708
    1MOL    O22  303   2.754   3.156   5.652
    1MOL    H45  304   2.845   3.126   5.634
    1MOL    C28  305   2.457   3.172   5.277
    1MOL    H46  306   2.469   3.278   5.302
    1MOL    O23  307   2.380   3.168   5.158
    1MOL    H47  308   2.342   3.078   5.148
    1MOL    C29  309   2.596   3.111   5.254
    1MOL    H48  310   2.584   3.007   5.221
    1MOL    O24  311   2.668   3.185   5.155
    1MOL    H49  312   2.605   3.198   5.081
    1MOL    C30  313   2.677   3.112   5.382
    1MOL    H50  314   2.699   3.215   5.413
    1MOL    O25  315   2.799   3.043   5.353
    1MOL    C31  316   2.922   3.102   5.387
    1MOL    H51  317   2.909   3.208   5.412
    1MOL    O26  318   2.979   3.042   5.503
    1MOL    C32  319   3.000   2.899   5.493
    1MOL    H52  320   2.904   2.850   5.472
    1MOL    C33  321   3.050   2.851   5.630
    1MOL    H53  322   3.105   2.934   5.676
    1MOL    H54  323   3.120   2.768   5.616
    1MOL    O27  324   2.943   2.814   5.715
    1MOL    H55  325   2.938   2.716   5.715
    1MOL    C34  326   3.016   3.084   5.267
    1MOL    H56  327   3.111   3.135   5.290
    1MOL    O28  328   2.966   3.143   5.149
    1MOL    H57  329   2.868   3.135   5.148
    1MOL    C35  330   3.044   2.935   5.247
    1MOL    H58  331   2.949   2.887   5.220
    1MOL    O29  332   3.140   2.914   5.144
    1MOL    H59  333   3.112   2.970   5.070
    1MOL    C36  334   3.094   2.869   5.375
    1MOL    H60  335   3.197   2.903   5.396
    1MOL    O30  336   3.095   2.729   5.346
    2SOL     OW  337   0.230   0.628   0.113
    2SOL    HW1  338   0.137   0.626   0.150
    2SOL    HW2  339   0.231   0.589   0.021
    3SOL     OW  340   0.225   0.275   0.996
    3SOL    HW1  341   0.260   0.258   1.088
    3SOL    HW2  342   0.137   0.230   0.984
    4SOL     OW  343   0.019   0.368   0.647
    4SOL    HW1  344  -0.063   0.411   0.686
    4SOL    HW2  345  -0.009   0.295   0.584
    5SOL     OW  346   0.569   1.275   1.165
    5SOL    HW1  347   0.476   1.268   1.128
    5SOL    HW2  348   0.580   1.364   1.209
    6SOL     OW  349   1.555   1.511   0.703
    6SOL    HW1  350   1.498   1.495   0.784
    6SOL    HW2  351   1.496   1.521   0.623
    7SOL     OW  352   1.135   0.703   0.717
    7SOL    HW1  353   1.192   0.781   0.692
    7SOL    HW2  354   1.075   0.729   0.793
    8SOL     OW  355   1.755   0.607   0.231
    8SOL    HW1  356   1.743   0.594   0.132
    8SOL    HW2  357   1.725   0.526   0.280
    9SOL     OW  358   0.768   1.144   1.023
    9SOL    HW1  359   0.690   1.161   1.083
    9SOL    HW2  360   0.802   1.231   0.987
   10SOL     OW  361   0.850   0.798   1.823
   10SOL    HW1  362   0.846   0.874   1.888
   10SOL    HW2  363   0.872   0.834   1.732
   11SOL     OW  364   0.685   1.012   0.665
   11SOL    HW1  365   0.754   0.996   0.735
   11SOL    HW2  366   0.612   1.069   0.703
   12SOL     OW  367   0.686   1.161   1.803
   12SOL    HW1  368   0.746   1.240   1.817
   12SOL    HW2  369   0.600   1.192   1.762
   13SOL     OW  370   0.335   1.435   1.061
   13SOL    HW1  371   0.257   1.404   1.008
   13SOL    HW2  372   0.393   1.493   1.004
   14SOL     OW  373   1.460   1.505   1.339
   14SOL    HW1  374   1.484   1.599   1.365
   14SOL    HW2  375   1.444   1.451   1.421
   15SOL     OW  376   0.438   0.392   1.499
   15SOL    HW1  377   0.520   0.336   1.508
   15SOL    HW2  378   0.357   0.334   1.503
   16SOL     OW  379   1.603   0.447   0.737
   16SOL    HW1  380   1.529   0.493   0.687
   16SOL    HW2  381   1.654   0.515   0.790
   17SOL     OW  382   0.231   1.713   0.483
   17SOL    HW1  383   0.265   1.790   0.537
   17SOL    HW2  384   0.275   1.713   0.393
   18SOL     OW  385   1.127   1.341   1.690
   18SOL    HW1  386   1.174   1.341   1.778
   18SOL    HW2  387   1.079   1.254   1.679
   19SOL     OW  388   0.230   1.434   0.538
   19SOL    HW1  389   0.204   1.530   0.538
   19SOL    HW2  390   0.159   1.380   0.583
   20SOL     OW  391   0.240   1.091   0.886
   20SOL    HW1  392   0.254   1.007   0.938
   20SOL    HW2  393   0.185   1.155   0.941
   21SOL     OW  394   0.620   1.786   1.439
   21SOL    HW1  395   0.528   1.769   1.474
   21SOL    HW2  396   0.648   1.878   1.465
   22SOL     OW  397   0.606   0.964   0.123
   22SOL    HW1  398   0.613   1.048   0.069
   22SOL    HW2  399   0.652   0.977   0.211
   23SOL     OW  400   1.594   0.114   1.480
   23SOL    HW1  401   1.576   0.181   1.408
   23SOL    HW2  402   1.591   0.160   1.569
   24SOL     OW  403   0.122   0.643   0.563
   24SOL    HW1  404   0.077   0.555   0.580
   24SOL    HW2  405   0.121   0.697   0.647
   25SOL     OW  406   1.842   1.767   0.359
   25SOL    HW1  407   1.896   1.738   0.439
   25SOL    HW2  408   1.872   1.857   0.330
   26SOL     OW  409   0.027   1.596   0.117
   26SOL    HW1  410   0.008   1.500   0.138
   26SOL    HW2  411  -0.006   1.654   0.192
   27SOL     OW  412   1.689   0.922   0.612
   27SOL    HW1  413   1.784   0.893   0.620
   27SOL    HW2  414   1.681   0.987   0.537
   28SOL     OW  415   1.641   1.108   0.432
   28SOL    HW1  416   1.727   1.110   0.380
   28SOL    HW2  417   1.655   1.155   0.520
   29SOL     OW  418   0.113   0.737   1.597
   29SOL    HW1  419   0.201   0.724   1.642
   29SOL    HW2  420   0.100   0.834   1.575
   30SOL     OW  421   0.613   1.365   0.726
   30SOL    HW1  422   0.564   1.278   0.735
   30SOL    HW2  423   0.590   1.408   0.639
   31SOL     OW  424   1.293   1.228   1.423
   31SOL    HW1  425   1.330   1.155   1.365
   31SOL    HW2  426   1.345   1.233   1.508
   32SOL     OW  427   0.809   0.004   0.502
   32SOL    HW1  428   0.849   0.095   0.493
   32SOL    HW2  429   0.709   0.012   0.508
   33SOL     OW  430   0.197   0.976   1.264
   33SOL    HW1  431   0.286   0.931   1.250
   33SOL    HW2  432   0.124   0.911   1.245
   34SOL     OW  433   1.525   0.999   0.190
   34SOL    HW1  434   1.462   0.923   0.203
   34SOL    HW2  435   1.573   1.017   0.276
   35SOL     OW  436   1.187   1.792   1.616
   35SOL    HW1  437   1.211   1.852   1.540
   35SOL    HW2  438   1.194   1.697   1.586
   36SOL     OW  439   0.317   0.251   1.801
   36SOL    HW1  440   0.388   0.322   1.807
   36SOL    HW2  441   0.229   0.290   1.829
   37SOL     OW  442   1.466   1.417   0.953
   37SOL    HW1  443   1.407   1.423   1.033
   37SOL    HW2  444   1.451   1.329   0.907
   38SOL     OW  445   1.667   1.714   0.572
   38SOL    HW1  446   1.626   1.691   0.484
   38SOL    HW2  447   1.649   1.640   0.637
   39SOL     OW  448   0.598   0.729   0.270
   39SOL    HW1  449   0.622   0.798   0.202
   39SOL    HW2  450   0.520   0.762   0.324
   40SOL     OW  451   1.281   0.345   0.944
   40SOL    HW1  452   1.195   0.295   0.931
   40SOL    HW2  453   1.343   0.291   1.000
   41SOL     OW  454   1.576   1.662   0.307
   41SOL    HW1  455   1.665   1.708   0.310
   41SOL    HW2  456   1.555   1.638   0.212
   42SOL     OW  457   0.807   0.605   1.465
   42SOL    HW1  458   0.760   0.602   1.554
   42SOL    HW2  459   0.756   0.550   1.399
   43SOL     OW  460   1.394   0.469   1.674
   43SOL    HW1  461   1.374   0.512   1.762
   43SOL    HW2  462   1.472   0.407   1.683
   44SOL     OW  463   0.973   0.890   1.572
   44SOL    HW1  464   1.019   0.806   1.543
   44SOL    HW2  465   0.917   0.924   1.497
   45SOL     OW  466   0.991   0.410   1.242
   45SOL    HW1  467   0.914   0.444   1.296
   45SOL    HW2  468   0.957   0.359   1.163
   46SOL     OW  469   1.041   0.701   0.429
   46SOL    HW1  470   1.067   0.697   0.525
   46SOL    HW2  471   0.956   0.650   0.415
   47SOL     OW  472   0.076   0.811   0.789
   47SOL    HW1  473   0.175   0.799   0.798
   47SOL    HW2  474   0.052   0.906   0.810
   48SOL     OW  475   0.130   1.821   1.571
   48SOL    HW1  476   0.120   1.806   1.670
   48SOL    HW2  477   0.044   1.857   1.535
   49SOL     OW  478   0.865   0.348   0.195
   49SOL    HW1  479   0.924   0.411   0.146
   49SOL    HW2  480   0.884   0.254   0.166
   50SOL     OW  481   1.719   0.585   1.831
   50SOL    HW1  482   1.693   0.674   1.795
   50SOL    HW2  483   1.717   0.517   1.758
   51SOL     OW  484   1.362   1.144   0.545
   51SOL    HW1  485   1.445   1.115   0.497
   51SOL    HW2  486   1.313   1.211   0.489
   52SOL     OW  487   0.550   0.196   0.885
   52SOL    HW1  488   0.545   0.191   0.985
   52SOL    HW2  489   0.552   0.292   0.856
   53SOL     OW  490   1.008   1.456   0.477
   53SOL    HW1  491   0.962   1.528   0.425
   53SOL    HW2  492   1.004   1.476   0.575
   54SOL     OW  493   0.351   1.801   0.853
   54SOL    HW1  494   0.401   1.715   0.859
   54SOL    HW2  495   0.416   1.878   0.850
   55SOL     OW  496   1.795   1.066   0.873
   55SOL    HW1  497   1.733   1.051   0.797
   55SOL    HW2  498   1.743   1.077   0.958
   56SOL     OW  499   1.227   1.550   1.506
   56SOL    HW1  500   1.233   1.473   1.570
   56SOL    HW2  501   1.175   1.524   1.426
   57SOL     OW  502   0.321   0.943   0.242
   57SOL    HW1  503   0.403   0.982   0.200
   57SOL    HW2  504   0.294   0.861   0.193
   58SOL     OW  505   1.458   0.735   0.728
   58SOL    HW1  506   1.453   0.670   0.803
   58SOL    HW2  507   1.538   0.794   0.741
   59SOL     OW  508   0.461   1.266   1.727
   59SOL    HW1  509   0.411   1.267   1.641
   59SOL    HW2  510   0.398   1.248   1.803
   60SOL     OW  511   1.111   1.776   0.237
   60SOL    HW1  512   1.051   1.714   0.287
   60SOL    HW2  513   1.142   1.732   0.152
   61SOL     OW  514   0.202   0.285   1.498
   61SOL    HW1  515   0.122   0.345   1.485
   61SOL    HW2  516   0.192   0.236   1.584
   62SOL     OW  517   1.632   1.377   0.081
   62SOL    HW1  518   1.600   1.471   0.071
   62SOL    HW2  519   1.556   1.314   0.069
   63SOL     OW  520   0.464   1.743   0.323
   63SOL    HW1  521   0.497   1.782   0.409
   63SOL    HW2  522   0.540   1.736   0.258
   64SOL     OW  523   1.400   0.107   0.426
   64SOL    HW1  524   1.376   0.070   0.336
   64SOL    HW2  525   1.499   0.123   0.430
   65SOL     OW  526   0.249   1.785   1.241
   65SOL    HW1  527   0.306   1.720   1.291
   65SOL    HW2  528   0.233   1.752   1.148
   66SOL     OW  529   0.940   1.698   0.904
   66SOL    HW1  530   1.020   1.641   0.925
   66SOL    HW2  531   0.891   1.658   0.827
   67SOL     OW  532   0.382   0.700   0.480
   67SOL    HW1  533   0.427   0.610   0.477
   67SOL    HW2  534   0.288   0.689   0.513
   68SOL     OW  535   1.547   0.222   1.729
   68SOL    HW1  536   1.542   0.259   1.821
   68SOL    HW2  537   1.475   0.153   1.717
   69SOL     OW  538   0.614   0.122   0.117
   69SOL    HW1  539   0.712   0.100   0.124
   69SOL    HW2  540   0.583   0.105   0.024
   70SOL     OW  541   0.781   0.264   1.749
   70SOL    HW1  542   0.848   0.203   1.792
   70SOL    HW2  543   0.708   0.283   1.814
   71SOL     OW  544   0.888   1.514   1.195
   71SOL    HW1  545   0.865   1.489   1.101
   71SOL    HW2  546   0.949   1.445   1.234
   72SOL     OW  547   1.351   0.590   1.433
   72SOL    HW1  548   1.379   0.547   1.518
   72SOL    HW2  549   1.376   0.686   1.434
   73SOL     OW  550   0.803   1.402   0.924
   73SOL    HW1  551   0.893   1.416   0.882
   73SOL    HW2  552   0.732   1.404   0.853
   74SOL     OW  553   0.922   0.503   0.899
   74SOL    HW1  554   0.897   0.494   0.803
   74SOL    HW2  555   0.970   0.421   0.930
   75SOL     OW  556   0.539   0.064   0.512
   75SOL    HW1  557   0.458   0.065   0.570
   75SOL    HW2  558   0.542   0.147   0.457
   76SOL     OW  559   1.434   1.188   0.041
   76SOL    HW1  560   1.466   1.112   0.098
   76SOL    HW2  561   1.342   1.215   0.071
   77SOL     OW  562   0.297   0.035   0.171
   77SOL    HW1  563   0.346   0.119   0.150
   77SOL    HW2  564   0.359  -0.030   0.216
   78SOL     OW  565   0.935   0.236   0.480
   78SOL    HW1  566   0.887   0.277   0.402
   78SOL    HW2  567   1.034   0.234   0.461
   79SOL     OW  568   1.076   0.683   1.464
   79SOL    HW1  569   0.996   0.622   1.467
   79SOL    HW2  570   1.157   0.630   1.440
   80SOL     OW  571   1.227   1.570   0.793
   80SOL    HW1  572   1.248   1.644   0.728
   80SOL    HW2  573   1.295   1.570   0.866
   81SOL     OW  574   0.459   1.152   0.741
   81SOL    HW1  575   0.388   1.125   0.806
   81SOL    HW2  576   0.433   1.124   0.648
   82SOL     OW  577   1.271   1.797   0.591
   82SOL    HW1  578   1.315   1.861   0.527
   82SOL    HW2  579   1.221   1.849   0.661
   83SOL     OW  580   1.032   0.549   0.016
   83SOL    HW1  581   0.991   0.631  -0.023
   83SOL    HW2  582   1.096   0.575   0.089
   84SOL     OW  583   0.078   0.556   1.386
   84SOL    HW1  584   0.170   0.555   1.345
   84SOL    HW2  585   0.072   0.630   1.453
   85SOL     OW  586   0.561   0.222   1.147
   85SOL    HW1  587   0.599   0.138   1.184
   85SOL    HW2  588   0.473   0.241   1.191
   86SOL     OW  589   0.866   0.454   0.642
   86SOL    HW1  590   0.834   0.526   0.580
   86SOL    HW2  591   0.890   0.373   0.589
   87SOL     OW  592   1.017   0.039   0.753
   87SOL    HW1  593   0.945   0.044   0.684
   87SOL    HW2  594   0.993  -0.030   0.822
   88SOL     OW  595   1.429   1.173   0.867
   88SOL    HW1  596   1.374   1.089   0.860
   88SOL    HW2  597   1.455   1.202   0.775
   89SOL     OW  598   1.466   0.590   0.992
   89SOL    HW1  599   1.436   0.495   0.999
   89SOL    HW2  600   1.539   0.606   1.058
   90SOL     OW  601   1.857   0.833   0.377
   90SOL    HW1  602   1.899   0.769   0.441
   90SOL    HW2  603   1.819   0.782   0.299
   91SOL     OW  604   0.488   1.385   0.174
   91SOL    HW1  605   0.401   1.370   0.221
   91SOL    HW2  606   0.471   1.411   0.079
   92SOL     OW  607   1.664   1.280   0.657
   92SOL    HW1  608   1.763   1.288   0.671
   92SOL    HW2  609   1.619   1.364   0.688
   93SOL     OW  610   1.390   0.575   0.078
   93SOL    HW1  611   1.336   0.554   0.159
   93SOL    HW2  612   1.481   0.534   0.087
   94SOL     OW  613   0.527   0.256   0.328
   94SOL    HW1  614   0.554   0.197   0.253
   94SOL    HW2  615   0.527   0.351   0.297
   95SOL     OW  616   1.754   1.223   1.588
   95SOL    HW1  617   1.845   1.184   1.575
   95SOL    HW2  618   1.762   1.319   1.612
   96SOL     OW  619   1.064   1.347   1.340
   96SOL    HW1  620   0.984   1.324   1.395
   96SOL    HW2  621   1.147   1.321   1.389
   97SOL     OW  622   1.592   1.629   1.625
   97SOL    HW1  623   1.619   1.663   1.535
   97SOL    HW2  624   1.671   1.591   1.671
   98SOL     OW  625   1.111   1.195   1.100
   98SOL    HW1  626   1.071   1.239   1.181
   98SOL    HW2  627   1.070   1.232   1.017
   99SOL     OW  628   1.638   1.099   1.079
   99SOL    HW1  629   1.643   1.180   1.138
   99SOL    HW2  630   1.552   1.101   1.028
  100SOL     OW  631   0.915   0.089   1.402
  100SOL    HW1  632   0.940   0.069   1.307
  100SOL    HW2  633   0.987   0.145   1.444
  101SOL     OW  634   0.980   1.116   1.719
  101SOL    HW1  635   0.881   1.122   1.729
  101SOL    HW2  636   1.003   1.036   1.663
  102SOL     OW  637   0.705   1.050   0.368
  102SOL    HW1  638   0.691   1.057   0.467
  102SOL    HW2  639   0.789   0.999   0.350
  103SOL     OW  640   0.410   0.813   1.251
  103SOL    HW1  641   0.496   0.825   1.301
  103SOL    HW2  642   0.368   0.726   1.278
  104SOL     OW  643   1.274   0.386   1.262
  104SOL    HW1  644   1.295   0.460   1.326
  104SOL    HW2  645   1.185   0.403   1.219
  105SOL     OW  646   0.064   1.564   1.331
  105SOL    HW1  647   0.018   1.646   1.297
  105SOL    HW2  648   0.162   1.583   1.340
  106SOL     OW  649   0.367   1.100   0.501
  106SOL    HW1  650   0.360   1.183   0.445
  106SOL    HW2  651   0.371   1.020   0.441
  107SOL     OW  652   0.566   0.537   0.865
  107SOL    HW1  653   0.578   0.603   0.791
  107SOL    HW2  654   0.612   0.571   0.948
  108SOL     OW  655   1.252   1.348   0.388
  108SOL    HW1  656   1.302   1.425   0.428
  108SOL    HW2  657   1.157   1.350   0.420
  109SOL     OW  658   1.272   1.445   1.142
  109SOL    HW1  659   1.319   1.458   1.229
  109SOL    HW2  660   1.206   1.371   1.151
  110SOL     OW  661   1.582   0.639   0.472
  110SOL    HW1  662   1.551   0.700   0.545
  110SOL    HW2  663   1.632   0.691   0.403
  111SOL     OW  664   0.354   1.510   1.329
  111SOL    HW1  665   0.333   1.466   1.242
  111SOL    HW2  666   0.451   1.536   1.332
  112SOL     OW  667   0.402   0.751   1.598
  112SOL    HW1  668   0.470   0.806   1.551
  112SOL    HW2  669   0.442   0.663   1.625
  113SOL     OW  670   1.587   0.779   1.670
  113SOL    HW1  671   1.495   0.817   1.665
  113SOL    HW2  672   1.647   0.826   1.605
  114SOL     OW  673   1.013   0.105   1.770
  114SOL    HW1  674   1.019   0.190   1.718
  114SOL    HW2  675   1.045   0.029   1.713
  115SOL     OW  676   0.504   0.050   1.740
  115SOL    HW1  677   0.462  -0.007   1.670
  115SOL    HW2  678   0.438   0.119   1.772
  116SOL     OW  679   0.573   0.870   1.029
  116SOL    HW1  680   0.617   0.959   1.020
  116SOL    HW2  681   0.510   0.870   1.106
  117SOL     OW  682   1.360   0.862   1.045
  117SOL    HW1  683   1.285   0.862   0.979
  117SOL    HW2  684   1.397   0.770   1.054
  118SOL     OW  685   1.209   0.525   0.275
  118SOL    HW1  686   1.222   0.441   0.329
  118SOL    HW2  687   1.180   0.599   0.335
  119SOL     OW  688   0.307   0.213   1.231
  119SOL    HW1  689   0.284   0.250   1.321
  119SOL    HW2  690   0.277   0.118   1.225
  120SOL     OW  691   0.037   1.310   1.282
  120SOL    HW1  692   0.090   1.261   1.350
  120SOL    HW2  693   0.059   1.408   1.287
  121SOL     OW  694   0.732   0.634   1.064
  121SOL    HW1  695   0.791   0.608   0.988
  121SOL    HW2  696   0.704   0.730   1.053
  122SOL     OW  697   1.728   0.935   1.854
  122SOL    HW1  698   1.682   0.928   1.765
  122SOL    HW2  699   1.666   0.979   1.920
  123SOL     OW  700   0.307   0.063   0.618
  123SOL    HW1  701   0.296   0.157   0.651
  123SOL    HW2  702   0.302   0.000   0.695
  124SOL     OW  703   1.622   0.367   0.374
  124SOL    HW1  704   1.624   0.291   0.438
  124SOL    HW2  705   1.574   0.444   0.414
  125SOL     OW  706   1.023   0.766   0.966
  125SOL    HW1  707   1.038   0.787   1.062
  125SOL    HW2  708   0.993   0.671   0.957
  126SOL     OW  709   0.980   1.573   1.700
  126SOL    HW1  710   0.960   1.617   1.612
  126SOL    HW2  711   1.019   1.482   1.684
  127SOL     OW  712   1.859   1.518   1.605
  127SOL    HW1  713   1.873   1.545   1.510
  127SOL    HW2  714   1.942   1.540   1.658
  128SOL     OW  715   0.350   0.898   1.804
  128SOL    HW1  716   0.426   0.942   1.852
  128SOL    HW2  717   0.385   0.851   1.722
  129SOL     OW  718   1.540   0.274   0.125
  129SOL    HW1  719   1.479   0.199   0.148
  129SOL    HW2  720   1.562   0.326   0.208
  130SOL     OW  721   1.303   0.838   0.042
  130SOL    HW1  722   1.337   0.745   0.057
  130SOL    HW2  723   1.321   0.865  -0.053
  131SOL     OW  724   1.068   1.333   0.849
  131SOL    HW1  725   1.075   1.249   0.794
  131SOL    HW2  726   1.130   1.402   0.813
  132SOL     OW  727   0.319   0.810   0.949
  132SOL    HW1  728   0.412   0.846   0.954
  132SOL    HW2  729   0.313   0.725   1.001
  133SOL     OW  730   0.339   0.509   1.006
  133SOL    HW1  731   0.287   0.426   0.989
  133SOL    HW2  732   0.416   0.514   0.942
  134SOL     OW  733   1.138   0.380   1.678
  134SOL    HW1  734   1.093   0.443   1.742
  134SOL    HW2  735   1.231   0.411   1.661
  135SOL     OW  736   1.160   0.207   1.477
  135SOL    HW1  737   1.160   0.271   1.554
  135SOL    HW2  738   1.188   0.255   1.394
  136SOL     OW  739   0.008   1.326   0.200
  136SOL    HW1  740  -0.085   1.347   0.169
  136SOL    HW2  741   0.018   1.227   0.213
  137SOL     OW  742   0.088   1.801   0.927
  137SOL    HW1  743   0.046   1.715   0.900
  137SOL    HW2  744   0.182   1.804   0.893
  138SOL     OW  745   0.504   1.568   0.910
  138SOL    HW1  746   0.570   1.642   0.919
  138SOL    HW2  747   0.548   1.489   0.868
  139SOL     OW  748   1.002   0.796   1.238
  139SOL    HW1  749   1.043   0.764   1.324
  139SOL    HW2  750   0.906   0.769   1.235
  140SOL     OW  751   0.040   0.544   1.114
  140SOL    HW1  752   0.125   0.511   1.073
  140SOL    HW2  753   0.053   0.559   1.212
  141SOL     OW  754   0.189   0.520   1.722
  141SOL    HW1  755   0.248   0.480   1.652
  141SOL    HW2  756   0.131   0.591   1.681
  142SOL     OW  757   1.369   0.950   1.660
  142SOL    HW1  758   1.408   1.039   1.680
  142SOL    HW2  759   1.379   0.930   1.563
  143SOL     OW  760   0.815   0.572   0.325
  143SOL    HW1  761   0.822   0.483   0.279
  143SOL    HW2  762   0.721   0.606   0.317
  144SOL     OW  763   1.657   0.604   1.206
  144SOL    HW1  764   1.619   0.535   1.268
  144SOL    HW2  765   1.739   0.568   1.162
  145SOL     OW  766   0.252   1.564   1.744
  145SOL    HW1  767   0.222   1.621   1.820
  145SOL    HW2  768   0.245   1.467   1.770
  146SOL     OW  769   0.671   0.464   1.269
  146SOL    HW1  770   0.637   0.375   1.239
  146SOL    HW2  771   0.697   0.518   1.189
  147SOL     OW  772   0.930   1.678   1.465
  147SOL    HW1  773   0.906   1.660   1.370
  147SOL    HW2  774   0.960   1.772   1.475
  148SOL     OW  775   0.473   0.500   0.191
  148SOL    HW1  776   0.534   0.580   0.195
  148SOL    HW2  777   0.378   0.531   0.198
  149SOL     OW  778   0.159   1.137   1.466
  149SOL    HW1  779   0.181   1.076   1.542
  149SOL    HW2  780   0.169   1.088   1.380
  150SOL     OW  781   1.347   1.059   1.234
  150SOL    HW1  782   1.371   0.996   1.160
  150SOL    HW2  783   1.257   1.099   1.216
  151SOL     OW  784   1.302   0.855   0.309
  151SOL    HW1  785   1.216   0.824   0.351
  151SOL    HW2  786   1.298   0.841   0.210
  152SOL     OW  787   1.759   1.747   1.154
  152SOL    HW1  788   1.820   1.777   1.081
  152SOL    HW2  789   1.721   1.658   1.132
  153SOL     OW  790   1.252   1.731   1.128
  153SOL    HW1  791   1.336   1.736   1.074
  153SOL    HW2  792   1.229   1.635   1.146
  154SOL     OW  793   0.083   1.258   1.022
  154SOL    HW1  794   0.078   1.257   1.122
  154SOL    HW2  795   0.000   1.217   0.984
  155SOL     OW  796   0.688   1.662   1.716
  155SOL    HW1  797   0.632   1.743   1.725
  155SOL    HW2  798   0.740   1.666   1.630
  156SOL     OW  799   0.903   0.086   0.133
  156SOL    HW1  800   0.954   0.087   0.047
  156SOL    HW2  801   0.959   0.044   0.204
  157SOL     OW  802   1.726   0.135   0.523
  157SOL    HW1  803   1.799   0.118   0.456
  157SOL    HW2  804   1.695   0.048   0.561
  158SOL     OW  805   1.388   1.573   0.477
  158SOL    HW1  806   1.455   1.585   0.403
  158SOL    HW2  807   1.348   1.662   0.500
  159SOL     OW  808   0.130   1.794   1.851
  159SOL    HW1  809   0.089   1.720   1.904
  159SOL    HW2  810   0.194   1.845   1.909
  160SOL     OW  811   1.280   0.927   0.672
  160SOL    HW1  812   1.340   0.846   0.674
  160SOL    HW2  813   1.320   0.996   0.612
  161SOL     OW  814   0.830   1.273   1.422
  161SOL    HW1  815   0.825   1.306   1.517
  161SOL    HW2  816   0.744   1.292   1.376
  162SOL     OW  817   0.672   1.616   0.154
  162SOL    HW1  818   0.681   1.626   0.055
  162SOL    HW2  819   0.632   1.527   0.175
  163SOL     OW  820   1.650   1.720   1.394
  163SOL    HW1  821   1.703   1.730   1.310
  163SOL    HW2  822   1.623   1.810   1.428
  164SOL     OW  823   1.841   0.175   0.963
  164SOL    HW1  824   1.880   0.090   0.927
  164SOL    HW2  825   1.743   0.177   0.944
  165SOL     OW  826   0.263   0.326   0.720
  165SOL    HW1  827   0.184   0.377   0.686
  165SOL    HW2  828   0.254   0.311   0.818
  166SOL     OW  829   1.194   1.612   0.031
  166SOL    HW1  830   1.200   1.519   0.068
  166SOL    HW2  831   1.135   1.612  -0.049
  167SOL     OW  832   0.822   1.002   1.372
  167SOL    HW1  833   0.862   1.001   1.280
  167SOL    HW2  834   0.832   1.094   1.412
  168SOL     OW  835   0.916   0.910   0.291
  168SOL    HW1  836   0.979   0.948   0.223
  168SOL    HW2  837   0.956   0.827   0.330
  169SOL     OW  838   1.504   1.607   0.044
  169SOL    HW1  839   1.412   1.644   0.051
  169SOL    HW2  840   1.542   1.627  -0.046
  170SOL     OW  841   0.372   1.288   1.490
  170SOL    HW1  842   0.359   1.381   1.456
  170SOL    HW2  843   0.288   1.236   1.477
  171SOL     OW  844   1.614   1.292   1.289
  171SOL    HW1  845   1.674   1.295   1.369
  171SOL    HW2  846   1.539   1.356   1.302
  172SOL     OW  847   1.039   1.098   0.696
  172SOL    HW1  848   0.969   1.051   0.750
  172SOL    HW2  849   1.098   1.030   0.653
  173SOL     OW  850   1.014   0.236   0.971
  173SOL    HW1  851   1.006   0.200   0.878
  173SOL    HW2  852   1.012   0.160   1.036
  174SOL     OW  853   0.590   1.487   0.491
  174SOL    HW1  854   0.632   1.429   0.421
  174SOL    HW2  855   0.546   1.566   0.447
  175SOL     OW  856   1.709   0.385   1.381
  175SOL    HW1  857   1.782   0.454   1.385
  175SOL    HW2  858   1.737   0.310   1.322
  176SOL     OW  859   0.255   1.348   0.290
  176SOL    HW1  860   0.159   1.349   0.263
  176SOL    HW2  861   0.267   1.401   0.374
  177SOL     OW  862   0.105   1.013   1.726
  177SOL    HW1  863   0.028   0.980   1.780
  177SOL    HW2  864   0.190   0.983   1.768
  178SOL     OW  865   0.672   0.203   1.489
  178SOL    HW1  866   0.762   0.187   1.449
  178SOL    HW2  867   0.680   0.208   1.588
  179SOL     OW  868   0.075   0.345   0.033
  179SOL    HW1  869  -0.017   0.317   0.004
  179SOL    HW2  870   0.106   0.422  -0.023
  180SOL     OW  871   1.440   0.856   1.398
  180SOL    HW1  872   1.383   0.908   1.335
  180SOL    HW2  873   1.536   0.868   1.374
  181SOL     OW  874   0.072   0.166   0.318
  181SOL    HW1  875   0.055   0.249   0.264
  181SOL    HW2  876   0.162   0.129   0.296
  182SOL     OW  877   1.183   1.335   0.119
  182SOL    HW1  878   1.084   1.324   0.121
  182SOL    HW2  879   1.217   1.350   0.212
  183SOL     OW  880   0.613   0.842   1.431
  183SOL    HW1  881   0.669   0.923   1.414
  183SOL    HW2  882   0.672   0.762   1.434
  184SOL     OW  883   1.493   1.767   0.959
  184SOL    HW1  884   1.526   1.831   0.890
  184SOL    HW2  885   1.559   1.761   1.034
  185SOL     OW  886   0.716   0.565   1.708
  185SOL    HW1  887   0.735   0.630   1.782
  185SOL    HW2  888   0.776   0.485   1.717
  186SOL     OW  889   1.450   1.220   1.633
  186SOL    HW1  890   1.441   1.210   1.732
  186SOL    HW2  891   1.546   1.213   1.607
  187SOL     OW  892   0.390   1.741   1.560
  187SOL    HW1  893   0.299   1.782   1.558
  187SOL    HW2  894   0.383   1.647   1.592
  188SOL     OW  895   1.674   0.883   1.254
  188SOL    HW1  896   1.647   0.794   1.217
  188SOL    HW2  897   1.675   0.951   1.181
  189SOL     OW  898   1.225   0.325   0.449
  189SOL    HW1  899   1.290   0.251   0.438
  189SOL    HW2  900   1.245   0.375   0.533
  190SOL     OW  901   0.594   0.745   0.652
  190SOL    HW1  902   0.644   0.830   0.633
  190SOL    HW2  903   0.506   0.747   0.604
  191SOL     OW  904   1.777   0.342   1.642
  191SOL    HW1  905   1.760   0.373   1.548
  191SOL    HW2  906   1.693   0.305   1.680
  192SOL     OW  907   1.730   0.934   1.517
  192SOL    HW1  908   1.768   1.025   1.532
  192SOL    HW2  909   1.722   0.917   1.418
  193SOL     OW  910   0.859   1.374   0.016
  193SOL    HW1  911   0.813   1.389   0.104
  193SOL    HW2  912   0.903   1.459  -0.014
  194SOL     OW  913   0.661   1.790   0.953
  194SOL    HW1  914   0.615   1.878   0.940
  194SOL    HW2  915   0.760   1.802   0.946
  195SOL     OW  916   0.859   0.956   0.861
  195SOL    HW1  917   0.913   0.887   0.909
  195SOL    HW2  918   0.827   1.025   0.927
  196SOL     OW  919   1.083   0.984   0.087
  196SOL    HW1  920   1.060   1.037   0.005
  196SOL    HW2  921   1.164   0.928   0.068
  197SOL     OW  922   1.861   1.569   0.851
  197SOL    HW1  923   1.790   1.557   0.781
  197SOL    HW2  924   1.862   1.490   0.911
  198SOL     OW  925   0.221   1.314   1.844
  198SOL    HW1  926   0.156   1.241   1.823
  198SOL    HW2  927   0.225   1.328   1.942
  199SOL     OW  928   0.079   1.240   0.653
  199SOL    HW1  929   0.078   1.193   0.741
  199SOL    HW2  930   0.161   1.212   0.602
  200SOL     OW  931   0.672   1.391   1.624
  200SOL    HW1  932   0.594   1.341   1.662
  200SOL    HW2  933   0.669   1.486   1.655
  201SOL     OW  934   1.824   0.192   1.227
  201SOL    HW1  935   1.820   0.102   1.271
  201SOL    HW2  936   1.827   0.181   1.128
  202SOL     OW  937   0.428   0.424   0.520
  202SOL    HW1  938   0.458   0.352   0.458
  202SOL    HW2  939   0.389   0.384   0.603
  203SOL     OW  940   1.705   1.487   1.104
  203SOL    HW1  941   1.612   1.462   1.077
  203SOL    HW2  942   1.731   1.437   1.186
  204SOL     OW  943   0.317   0.547   1.280
  204SOL    HW1  944   0.355   0.488   1.352
  204SOL    HW2  945   0.357   0.521   1.192
  205SOL     OW  946   0.812   1.586   0.687
  205SOL    HW1  947   0.844   1.596   0.593
  205SOL    HW2  948   0.733   1.524   0.689
  206SOL     OW  949   1.424   0.214   1.112
  206SOL    HW1  950   1.476   0.149   1.167
  206SOL    HW2  951   1.375   0.277   1.173
  207SOL     OW  952   1.001   0.034   1.154
  207SOL    HW1  953   0.938  -0.038   1.123
  207SOL    HW2  954   1.094  -0.002   1.154
  208SOL     OW  955   0.770   1.330   0.301
  208SOL    HW1  956   0.724   1.243   0.318
  208SOL    HW2  957   0.861   1.327   0.342
  209SOL     OW  958   0.618   1.567   1.284
  209SOL    HW1  959   0.613   1.649   1.341
  209SOL    HW2  960   0.707   1.564   1.239
  210SOL     OW  961   1.352   0.052   0.168
  210SOL    HW1  962   1.387   0.011   0.084
  210SOL    HW2  963   1.262   0.014   0.188
  211SOL     OW  964   1.300   0.453   0.691
  211SOL    HW1  965   1.241   0.533   0.695
  211SOL    HW2  966   1.315   0.418   0.784
  212SOL     OW  967   1.593   0.221   0.882
  212SOL    HW1  968   1.509   0.220   0.936
  212SOL    HW2  969   1.595   0.304   0.826
  213SOL     OW  970   0.039   1.077   0.300
  213SOL    HW1  971   0.138   1.066   0.291
  213SOL    HW2  972  -0.001   0.991   0.332
  214SOL     OW  973   0.875   1.646   0.337
  214SOL    HW1  974   0.798   1.611   0.283
  214SOL    HW2  975   0.843   1.717   0.399
  215SOL     OW  976   0.230   0.628   1.975
  215SOL    HW1  977   0.137   0.626   2.012
  215SOL    HW2  978   0.231   0.589   1.883
  216SOL     OW  979   0.225   0.275   2.858
  216SOL    HW1  980   0.260   0.258   2.950
  216SOL    HW2  981   0.137   0.230   2.846
  217SOL     OW  982   0.019   0.368   2.509
  217SOL    HW1  983  -0.063   0.411   2.548
  217SOL    HW2  984  -0.009   0.295   2.446
  218SOL     OW  985   0.569   1.275   3.027
  218SOL    HW1  986   0.476   1.268   2.990
  218SOL    HW2  987   0.580   1.364   3.071
  219SOL     OW  988   1.555   1.511   2.565
  219SOL    HW1  989   1.498   1.495   2.646
  219SOL    HW2  990   1.496   1.521   2.485
  220SOL     OW  991   1.135   0.703   2.579
  220SOL    HW1  992   1.192   0.781   2.554
  220SOL    HW2  993   1.075   0.729   2.655
  221SOL     OW  994   1.755   0.607   2.093
  221SOL    HW1  995   1.743   0.594   1.994
  221SOL    HW2  996   1.725   0.526   2.142
  222SOL     OW  997   0.768   1.144   2.885
  222SOL    HW1  998   0.690   1.161   2.945
  222SOL    HW2  999   0.802   1.231   2.849
  223SOL     OW 1000   0.850   0.798   3.685
  223SOL    HW1 1001   0.846   0.874   3.750
  223SOL    HW2 1002   0.872   0.834   3.594
  224SOL     OW 1003   0.685   1.012   2.527
  224SOL    HW1 1004   0.754   0.996   2.597
  224SOL    HW2 1005   0.612   1.069   2.565
  225SOL     OW 1006   0.686   1.161   3.665
  225SOL    HW1 1007   0.746   1.240   3.679
  225SOL    HW2 1008   0.600   1.192   3.624
  226SOL     OW 1009   0.335   1.435   2.923
  226SOL    HW1 1010   0.257   1.404   2.870
  226SOL    HW2 1011   0.393   1.493   2.866
  227SOL     OW 1012   1.460   1.505   3.201
  227SOL    HW1 1013   1.484   1.599   3.227
  227SOL    HW2 1014   1.444   1.451   3.283
  228SOL     OW 1015   0.438   0.392   3.361
  228SOL    HW1 1016   0.520   0.336   3.370
  228SOL    HW2 1017   0.357   0.334   3.365
  229SOL     OW 1018   1.603   0.447   2.599
  229SOL    HW1 1019   1.529   0.493   2.549
  229SOL    HW2 1020   1.654   0.515   2.652
  230SOL     OW 1021   0.231   1.713   2.345
  230SOL    HW1 1022   0.265   1.790   2.399
  230SOL    HW2 1023   0.275   1.713   2.255
  231SOL     OW 1024   1.127   1.341   3.552
  231SOL    HW1 1025   1.174   1.341   3.640
  231SOL    HW2 1026   1.079   1.254   3.541
  232SOL     OW 1027   0.230   1.434   2.400
  232SOL    HW1 1028   0.204   1.530   2.400
  232SOL    HW2 1029   0.159   1.380   2.445
  233SOL     OW 1030   0.240   1.091   2.748
  233SOL    HW1 1031   0.254   1.007   2.800
  233SOL    HW2 1032   0.185   1.155   2.803
  234SOL     OW 1033   0.620   1.786   3.301
  234SOL    HW1 1034   0.528   1.769   3.336
  234SOL    HW2 1035   0.648   1.878   3.327
  235SOL     OW 1036   0.606   0.964   1.985
  235SOL    HW1 1037   0.613   1.048   1.931
  235SOL    HW2 1038   0.652   0.977   2.073
  236SOL     OW 1039   1.594   0.114   3.342
  236SOL    HW1 1040   1.576   0.181   3.270
  236SOL    HW2 1041   1.591   0.160   3.431
  237SOL     OW 1042   0.122   0.643   2.425
  237SOL    HW1 1043   0.077   0.555   2.442
  237SOL    HW2 1044   0.121   0.697   2.509
  238SOL     OW 1045   1.842   1.767   2.221
  238SOL    HW1 1046   1.896   1.738   2.301
  238SOL    HW2 1047   1.872   1.857   2.192
  239SOL     OW 1048   0.027   1.596   1.979
  239SOL    HW1 1049   0.008   1.500   2.000
  239SOL    HW2 1050  -0.006   1.654   2.054
  240SOL     OW 1051   1.689   0.922   2.474
  240SOL    HW1 1052   1.784   0.893   2.482
  240SOL    HW2 1053   1.681   0.987   2.399
  241SOL     OW 1054   1.641   1.108   2.294
  241SOL    HW1 1055   1.727   1.110   2.242
  241SOL    HW2 1056   1.655   1.155   2.382
  242SOL     OW 1057   0.113   0.737   3.459
  242SOL    HW1 1058   0.201   0.724   3.504
  242SOL    HW2 1059   0.100   0.834   3.437
  243SOL     OW 1060   0.613   1.365   2.588
  243SOL    HW1 1061   0.564   1.278   2.597
  243SOL    HW2 1062   0.590   1.408   2.501
  244SOL     OW 1063   1.293   1.228   3.285
  244SOL    HW1 1064   1.330   1.155   3.227
  244SOL    HW2 1065   1.345   1.233   3.370
  245SOL     OW 1066   0.809   0.004   2.364
  245SOL    HW1 1067   0.849   0.095   2.355
  245SOL    HW2 1068   0.709   0.012   2.370
  246SOL     OW 1069   0.197   0.976   3.126
  246SOL    HW1 1070   0.286   0.931   3.112
  246SOL    HW2 1071   0.124   0.911   3.107
  247SOL     OW 1072   1.525   0.999   2.052
  247SOL    HW1 1073   1.462   0.923   2.065
  247SOL    HW2 1074   1.573   1.017   2.138
  248SOL     OW 1075   1.187   1.792   3.478
  248SOL    HW1 1076   1.211   1.852   3.402
  248SOL    HW2 1077   1.194   1.697   3.448
  249SOL     OW 1078   0.317   0.251   3.663
  249SOL    HW1 1079   0.388   0.322   3.669
  249SOL    HW2 1080   0.229   0.290   3.691
  250SOL     OW 1081   1.466   1.417   2.815
  250SOL    HW1 1082   1.407   1.423   2.895
  250SOL    HW2 1083   1.451   1.329   2.769
  251SOL     OW 1084   1.667   1.714   2.434
  251SOL    HW1 1085   1.626   1.691   2.346
  251SOL    HW2 1086   1.649   1.640   2.499
  252SOL     OW 1087   0.598   0.729   2.132
  252SOL    HW1 1088   0.622   0.798   2.064
  252SOL    HW2 1089   0.520   0.762   2.186
  253SOL     OW 1090   1.281   0.345   2.806
  253SOL    HW1 1091   1.195   0.295   2.793
  253SOL    HW2 1092   1.343   0.291   2.862
  254SOL     OW 1093   1.576   1.662   2.169
  254SOL    HW1 1094   1.665   1.708   2.172
  254SOL    HW2 1095   1.555   1.638   2.074
  255SOL     OW 1096   0.807   0.605   3.327
  255SOL    HW1 1097   0.760   0.602   3.416
  255SOL    HW2 1098   0.756   0.550   3.261
  256SOL     OW 1099   1.394   0.469   3.536
  256SOL    HW1 1100   1.374   0.512   3.624
  256SOL    HW2 1101   1.472   0.407   3.545
  257SOL     OW 1102   0.973   0.890   3.434
  257SOL    HW1 1103   1.019   0.806   3.405
  257SOL    HW2 1104   0.917   0.924   3.359
  258SOL     OW 1105   0.991   0.410   3.104
  258SOL    HW1 1106   0.914   0.444   3.158
  258SOL    HW2 1107   0.957   0.359   3.025
  259SOL     OW 1108   1.041   0.701   2.291
  259SOL    HW1 1109   1.067   0.697   2.387
  259SOL    HW2 1110   0.956   0.650   2.277
  260SOL     OW 1111   0.076   0.811   2.651
  260SOL    HW1 1112   0.175   0.799   2.660
  260SOL    HW2 1113   0.052   0.906   2.672
  261SOL     OW 1114   0.130   1.821   3.433
  261SOL    HW1 1115   0.120   1.806   3.532
  261SOL    HW2 1116   0.044   1.857   3.397
  262SOL     OW 1117   0.865   0.348   2.057
  262SOL    HW1 1118   0.924   0.411   2.008
  262SOL    HW2 1119   0.884   0.254   2.028
  263SOL     OW 1120   1.719   0.585   3.693
  263SOL    HW1 1121   1.693   0.674   3.657
  263SOL    HW2 1122   1.717   0.517   3.620
  264SOL     OW 1123   1.362   1.144   2.407
  264SOL    HW1 1124   1.445   1.115   2.359
  264SOL    HW2 1125   1.313   1.211   2.351
  265SOL     OW 1126   0.550   0.196   2.747
  265SOL    HW1 1127   0.545   0.191   2.847
  265SOL    HW2 1128   0.552   0.292   2.718
  266SOL     OW 1129   1.008   1.456   2.339
  266SOL    HW1 1130   0.962   1.528   2.287
  266SOL    HW2 1131   1.004   1.476   2.437
  267SOL     OW 1132   0.351   1.801   2.715
  267SOL    HW1 1133   0.401   1.715   2.721
  267SOL    HW2 1134   0.416   1.878   2.712
  268SOL     OW 1135   1.795   1.066   2.735
  268SOL    HW1 1136   1.733   1.051   2.659
  268SOL    HW2 1137   1.743   1.077   2.820
  269SOL     OW 1138   1.227   1.550   3.368
  269SOL    HW1 1139   1.233   1.473   3.432
  269SOL    HW2 1140   1.175   1.524   3.288
  270SOL     OW 1141   0.321   0.943   2.104
  270SOL    HW1 1142   0.403   0.982   2.062
  270SOL    HW2 1143   0.294   0.861   2.055
  271SOL     OW 1144   1.458   0.735   2.590
  271SOL    HW1 1145   1.453   0.670   2.665
  271SOL    HW2 1146   1.538   0.794   2.603
  272SOL     OW 1147   0.461   1.266   3.589
  272SOL    HW1 1148   0.411   1.267   3.503
  272SOL    HW2 1149   0.398   1.248   3.665
  273SOL     OW 1150   1.111   1.776   2.099
  273SOL    HW1 1151   1.051   1.714   2.149
  273SOL    HW2 1152   1.142   1.732   2.014
  274SOL     OW 1153   0.202   0.285   3.360
  274SOL    HW1 1154   0.122   0.345   3.347
  274SOL    HW2 1155   0.192   0.236   3.446
  275SOL     OW 1156   1.632   1.377   1.943
  275SOL    HW1 1157   1.600   1.471   1.933
  275SOL    HW2 1158   1.556   1.314   1.931
  276SOL     OW 1159   0.464   1.743   2.185
  276SOL    HW1 1160   0.497   1.782   2.271
  276SOL    HW2 1161   0.540   1.736   2.120
  277SOL     OW 1162   1.400   0.107   2.288
  277SOL    HW1 1163   1.376   0.070   2.198
  277SOL    HW2 1164   1.499   0.123   2.292
  278SOL     OW 1165   0.249   1.785   3.103
  278SOL    HW1 1166   0.306   1.720   3.153
  278SOL    HW2 1167   0.233   1.752   3.010
  279SOL     OW 1168   0.940   1.698   2.766
  279SOL    HW1 1169   1.020   1.641   2.787
  279SOL    HW2 1170   0.891   1.658   2.689
  280SOL     OW 1171   0.382   0.700   2.342
  280SOL    HW1 1172   0.427   0.610   2.339
  280SOL    HW2 1173   0.288   0.689   2.375
  281SOL     OW 1174   1.547   0.222   3.591
  281SOL    HW1 1175   1.542   0.259   3.683
  281SOL    HW2 1176   1.475   0.153   3.579
  282SOL     OW 1177   0.614   0.122   1.979
  282SOL    HW1 1178   0.712   0.100   1.986
  282SOL    HW2 1179   0.583   0.105   1.886
  283SOL     OW 1180   0.781   0.264   3.611
  283SOL    HW1 1181   0.848   0.203   3.654
  283SOL    HW2 1182   0.708   0.283   3.676
  284SOL     OW 1183   0.888   1.514   3.057
  284SOL    HW1 1184   0.865   1.489   2.963
  284SOL    HW2 1185   0.949   1.445   3.096
  285SOL     OW 1186   1.351   0.590   3.295
  285SOL    HW1 1187   1.379   0.547   3.380
  285SOL    HW2 1188   1.376   0.686   3.296
  286SOL     OW 1189   0.803   1.402   2.786
  286SOL    HW1 1190   0.893   1.416   2.744
  286SOL    HW2 1191   0.732   1.404   2.715
  287SOL     OW 1192   0.922   0.503   2.761
  287SOL    HW1 1193   0.897   0.494   2.665
  287SOL    HW2 1194   0.970   0.421   2.792
  288SOL     OW 1195   0.539   0.064   2.374
  288SOL    HW1 1196   0.458   0.065   2.432
  288SOL    HW2 1197   0.542   0.147   2.319
  289SOL     OW 1198   1.434   1.188   1.903
  289SOL    HW1 1199   1.466   1.112   1.960
  289SOL    HW2 1200   1.342   1.215   1.933
  290SOL     OW 1201   0.297   0.035   2.033
  290SOL    HW1 1202   0.346   0.119   2.012
  290SOL    HW2 1203   0.359  -0.030   2.078
  291SOL     OW 1204   0.935   0.236   2.342
  291SOL    HW1 1205   0.887   0.277   2.264
  291SOL    HW2 1206   1.034   0.234   2.323
  292SOL     OW 1207   1.076   0.683   3.326
  292SOL    HW1 1208   0.996   0.622   3.329
  292SOL    HW2 1209   1.157   0.630   3.302
  293SOL     OW 1210   1.227   1.570   2.655
  293SOL    HW1 1211   1.248   1.644   2.590
  293SOL    HW2 1212   1.295   1.570   2.728
  294SOL     OW 1213   0.459   1.152   2.603
  294SOL    HW1 1214   0.388   1.125   2.668
  294SOL    HW2 1215   0.433   1.124   2.510
  295SOL     OW 1216   1.271   1.797   2.453
  295SOL    HW1 1217   1.315   1.861   2.389
  295SOL    HW2 1218   1.221   1.849   2.523
  296SOL     OW 1219   1.032   0.549   1.878
  296SOL    HW1 1220   0.991   0.631   1.839
  296SOL    HW2 1221   1.096   0.575   1.951
  297SOL     OW 1222   0.078   0.556   3.248
  297SOL    HW1 1223   0.170   0.555   3.207
  297SOL    HW2 1224   0.072   0.630   3.315
  298SOL     OW 1225   0.561   0.222   3.009
  298SOL    HW1 1226   0.599   0.138   3.046
  298SOL    HW2 1227   0.473   0.241   3.053
  299SOL     OW 1228   0.866   0.454   2.504
  299SOL    HW1 1229   0.834   0.526   2.442
  299SOL    HW2 1230   0.890   0.373   2.451
  300SOL     OW 1231   1.017   0.039   2.615
  300SOL    HW1 1232   0.945   0.044   2.546
  300SOL    HW2 1233   0.993  -0.030   2.684
  301SOL     OW 1234   1.429   1.173   2.729
  301SOL    HW1 1235   1.374   1.089   2.722
  301SOL    HW2 1236   1.455   1.202   2.637
  302SOL     OW 1237   1.466   0.590   2.854
  302SOL    HW1 1238   1.436   0.495   2.861
  302SOL    HW2 1239   1.539   0.606   2.920
  303SOL     OW 1240   1.857   0.833   2.239
  303SOL    HW1 1241   1.899   0.769   2.303
  303SOL    HW2 1242   1.819   0.782   2.161
  304SOL     OW 1243   0.488   1.385   2.036
  304SOL    HW1 1244   0.401   1.370   2.083
  304SOL    HW2 1245   0.471   1.411   1.941
  305SOL     OW 1246   1.664   1.280   2.519
  305SOL    HW1 1247   1.763   1.288   2.533
  305SOL    HW2 1248   1.619   1.364   2.550
  306SOL     OW 1249   1.390   0.575   1.940
  306SOL    HW1 1250   1.336   0.554   2.021
  306SOL    HW2 1251   1.481   0.534   1.949
  307SOL     OW 1252   0.527   0.256   2.190
  307SOL    HW1 1253   0.554   0.197   2.115
  307SOL    HW2 1254   0.527   0.351   2.159
  308SOL     OW 1255   1.754   1.223   3.450
  308SOL    HW1 1256   1.845   1.184   3.437
  308SOL    HW2 1257   1.762   1.319   3.474
  309SOL     OW 1258   1.064   1.347   3.202
  309SOL    HW1 1259   0.984   1.324   3.257
  309SOL    HW2 1260   1.147   1.321   3.251
  310SOL     OW 1261   1.592   1.629   3.487
  310SOL    HW1 1262   1.619   1.663   3.397
  310SOL    HW2 1263   1.671   1.591   3.533
  311SOL     OW 1264   1.111   1.195   2.962
  311SOL    HW1 1265   1.071   1.239   3.043
  311SOL    HW2 1266   1.070   1.232   2.879
  312SOL     OW 1267   1.638   1.099   2.941
  312SOL    HW1 1268   1.643   1.180   3.000
  312SOL    HW2 1269   1.552   1.101   2.890
  313SOL     OW 1270   0.915   0.089   3.264
  313SOL    HW1 1271   0.940   0.069   3.169
  313SOL    HW2 1272   0.987   0.145   3.306
  314SOL     OW 1273   0.980   1.116   3.581
  314SOL    HW1 1274   0.881   1.122   3.591
  314SOL    HW2 1275   1.003   1.036   3.525
  315SOL     OW 1276   0.705   1.050   2.230
  315SOL    HW1 1277   0.691   1.057   2.329
  315SOL    HW2 1278   0.789   0.999   2.212
  316SOL     OW 1279   0.410   0.813   3.113
  316SOL    HW1 1280   0.496   0.825   3.163
  316SOL    HW2 1281   0.368   0.726   3.140
  317SOL     OW 1282   1.274   0.386   3.124
  317SOL    HW1 1283   1.295   0.460   3.188
  317SOL    HW2 1284   1.185   0.403   3.081
  318SOL     OW 1285   0.064   1.564   3.193
  318SOL    HW1 1286   0.018   1.646   3.159
  318SOL    HW2 1287   0.162   1.583   3.202
  319SOL     OW 1288   0.367   1.100   2.363
  319SOL    HW1 1289   0.360   1.183   2.307
  319SOL    HW2 1290   0.371   1.020   2.303
  320SOL     OW 1291   0.566   0.537   2.727
  320SOL    HW1 1292   0.578   0.603   2.653
  320SOL    HW2 1293   0.612   0.571   2.810
  321SOL     OW 1294   1.252   1.348   2.250
  321SOL    HW1 1295   1.302   1.425   2.290
  321SOL    HW2 1296   1.157   1.350   2.282
  322SOL     OW 1297   1.272   1.445   3.004
  322SOL    HW1 1298   1.319   1.458   3.091
  322SOL    HW2 1299   1.206   1.371   3.013
  323SOL     OW 1300   1.582   0.639   2.334
  323SOL    HW1 1301   1.551   0.700   2.407
  323SOL    HW2 1302   1.632   0.691   2.265
  324SOL     OW 1303   0.354   1.510   3.191
  324SOL    HW1 1304   0.333   1.466   3.104
  324SOL    HW2 1305   0.451   1.536   3.194
  325SOL     OW 1306   0.402   0.751   3.460
  325SOL    HW1 1307   0.470   0.806   3.413
  325SOL    HW2 1308   0.442   0.663   3.487
  326SOL     OW 1309   1.587   0.779   3.532
  326SOL    HW1 1310   1.495   0.817   3.527
  326SOL    HW2 1311   1.647   0.826   3.467
  327SOL     OW 1312   1.013   0.105   3.632
  327SOL    HW1 1313   1.019   0.190   3.580
  327SOL    HW2 1314   1.045   0.029   3.575
  328SOL     OW 1315   0.504   0.050   3.602
  328SOL    HW1 1316   0.462  -0.007   3.532
  328SOL    HW2 1317   0.438   0.119   3.634
  329SOL     OW 1318   0.573   0.870   2.891
  329SOL    HW1 1319   0.617   0.959   2.882
  329SOL    HW2 1320   0.510   0.870   2.968
  330SOL     OW 1321   1.360   0.862   2.907
  330SOL    HW1 1322   1.285   0.862   2.841
  330SOL    HW2 1323   1.397   0.770   2.916
  331SOL     OW 1324   1.209   0.525   2.137
  331SOL    HW1 1325   1.222   0.441   2.191
  331SOL    HW2 1326   1.180   0.599   2.197
  332SOL     OW 1327   0.307   0.213   3.093
  332SOL    HW1 1328   0.284   0.250   3.183
  332SOL    HW2 1329   0.277   0.118   3.087
  333SOL     OW 1330   0.037   1.310   3.144
  333SOL    HW1 1331   0.090   1.261   3.212
  333SOL    HW2 1332   0.059   1.408   3.149
  334SOL     OW 1333   0.732   0.634   2.926
  334SOL    HW1 1334   0.791   0.608   2.850
  334SOL    HW2 1335   0.704   0.730   2.915
  335SOL     OW 1336   1.728   0.935   3.716
  335SOL    HW1 1337   1.682   0.928   3.627
  335SOL    HW2 1338   1.666   0.979   3.782
  336SOL     OW 1339   0.307   0.063   2.480
  336SOL    HW1 1340   0.296   0.157   2.513
  336SOL    HW2 1341   0.302   0.000   2.557
  337SOL     OW 1342   1.622   0.367   2.236
  337SOL    HW1 1343   1.624   0.291   2.300
  337SOL    HW2 1344   1.574   0.444   2.276
  338SOL     OW 1345   1.023   0.766   2.828
  338SOL    HW1 1346   1.038   0.787   2.924
  338SOL    HW2 1347   0.993   0.671   2.819
  339SOL     OW 1348   0.980   1.573   3.562
  339SOL    HW1 1349   0.960   1.617   3.474
  339SOL    HW2 1350   1.019   1.482   3.546
  340SOL     OW 1351   1.859   1.518   3.467
  340SOL    HW1 1352   1.873   1.545   3.372
  340SOL    HW2 1353   1.942   1.540   3.520
  341SOL     OW 1354   0.350   0.898   3.666
  341SOL    HW1 1355   0.426   0.942   3.714
  341SOL    HW2 1356   0.385   0.851   3.584
  342SOL     OW 1357   1.540   0.274   1.987
  342SOL    HW1 1358   1.479   0.199   2.010
  342SOL    HW2 1359   1.562   0.326   2.070
  343SOL     OW 1360   1.303   0.838   1.904
  343SOL    HW1 1361   1.337   0.745   1.919
  343SOL    HW2 1362   1.321   0.865   1.809
  344SOL     OW 1363   1.068   1.333   2.711
  344SOL    HW1 1364   1.075   1.249   2.656
  344SOL    HW2 1365   1.130   1.402   2.675
  345SOL     OW 1366   0.319   0.810   2.811
  345SOL    HW1 1367   0.412   0.846   2.816
  345SOL    HW2 1368   0.313   0.725   2.863
  346SOL     OW 1369   0.339   0.509   2.868
  346SOL    HW1 1370   0.287   0.426   2.851
  346SOL    HW2 1371   0.416   0.514   2.804
  347SOL     OW 1372   1.138   0.380   3.540
  347SOL    HW1 1373   1.093   0.443   3.604
  347SOL    HW2 1374   1.231   0.411   3.523
  348SOL     OW 1375   1.160   0.207   3.339
  348SOL    HW1 1376   1.160   0.271   3.416
  348SOL    HW2 1377   1.188   0.255   3.256
  349SOL     OW 1378   0.008   1.326   2.062
  349SOL    HW1 1379  -0.085   1.347   2.031
  349SOL    HW2 1380   0.018   1.227   2.075
  350SOL     OW 1381   0.088   1.801   2.789
  350SOL    HW1 1382   0.046   1.715   2.762
  350SOL    HW2 1383   0.182   1.804   2.755
  351SOL     OW 1384   0.504   1.568   2.772
  351SOL    HW1 1385   0.570   1.642   2.781
  351SOL    HW2 1386   0.548   1.489   2.730
  352SOL     OW 1387   1.002   0.796   3.100
  352SOL    HW1 1388   1.043   0.764   3.186
  352SOL    HW2 1389   0.906   0.769   3.097
  353SOL     OW 1390   0.040   0.544   2.976
  353SOL    HW1 1391   0.125   0.511   2.935
  353SOL    HW2 1392   0.053   0.559   3.074
  354SOL     OW 1393   0.189   0.520   3.584
  354SOL    HW1 1394   0.248   0.480   3.514
  354SOL    HW2 1395   0.131   0.591   3.543
  355SOL     OW 1396   1.369   0.950   3.522
  355SOL    HW1 1397   1.408   1.039   3.542
  355SOL    HW2 1398   1.379   0.930   3.425
  356SOL     OW 1399   0.815   0.572   2.187
  356SOL    HW1 1400   0.822   0.483   2.141
  356SOL    HW2 1401   0.721   0.606   2.179
  357SOL     OW 1402   1.657   0.604   3.068
  357SOL    HW1 1403   1.619   0.535   3.130
  357SOL    HW2 1404   1.739   0.568   3.024
  358SOL     OW 1405   0.252   1.564   3.606
  358SOL    HW1 1406   0.222   1.621   3.682
  358SOL    HW2 1407   0.245   1.467   3.632
  359SOL     OW 1408   0.671   0.464   3.131
  359SOL    HW1 1409   0.637   0.375   3.101
  359SOL    HW2 1410   0.697   0.518   3.051
  360SOL     OW 1411   0.930   1.678   3.327
  360SOL    HW1 1412   0.906   1.660   3.232
  360SOL    HW2 1413   0.960   1.772   3.337
  361SOL     OW 1414   0.473   0.500   2.053
  361SOL    HW1 1415   0.534   0.580   2.057
  361SOL    HW2 1416   0.378   0.531   2.060
  362SOL     OW 1417   0.159   1.137   3.328
  362SOL    HW1 1418   0.181   1.076   3.404
  362SOL    HW2 1419   0.169   1.088   3.242
  363SOL     OW 1420   1.347   1.059   3.096
  363SOL    HW1 1421   1.371   0.996   3.022
  363SOL    HW2 1422   1.257   1.099   3.078
  364SOL     OW 1423   1.302   0.855   2.171
  364SOL    HW1 1424   1.216   0.824   2.213
  364SOL    HW2 1425   1.298   0.841   2.072
  365SOL     OW 1426   1.759   1.747   3.016
  365SOL    HW1 1427   1.820   1.777   2.943
  365SOL    HW2 1428   1.721   1.658   2.994
  366SOL     OW 1429   1.252   1.731   2.990
  366SOL    HW1 1430   1.336   1.736   2.936
  366SOL    HW2 1431   1.229   1.635   3.008
  367SOL     OW 1432   0.083   1.258   2.884
  367SOL    HW1 1433   0.078   1.257   2.984
  367SOL    HW2 1434   0.000   1.217   2.846
  368SOL     OW 1435   0.688   1.662   3.578
  368SOL    HW1 1436   0.632   1.743   3.587
  368SOL    HW2 1437   0.740   1.666   3.492
  369SOL     OW 1438   1.726   0.135   2.385
  369SOL    HW1 1439   1.799   0.118   2.318
  369SOL    HW2 1440   1.695   0.048   2.423
  370SOL     OW 1441   1.388   1.573   2.339
  370SOL    HW1 1442   1.455   1.585   2.265
  370SOL    HW2 1443   1.348   1.662   2.362
  371SOL     OW 1444   0.130   1.794   3.713
  371SOL    HW1 1445   0.089   1.720   3.766
  371SOL    HW2 1446   0.194   1.845   3.771
  372SOL     OW 1447   1.280   0.927   2.534
  372SOL    HW1 1448   1.340   0.846   2.536
  372SOL    HW2 1449   1.320   0.996   2.474
  373SOL     OW 1450   0.830   1.273   3.284
  373SOL    HW1 1451   0.825   1.306   3.379
  373SOL    HW2 1452   0.744   1.292   3.238
  374SOL     OW 1453   0.672   1.616   2.016
  374SOL    HW1 1454   0.681   1.626   1.917
  374SOL    HW2 1455   0.632   1.527   2.037
  375SOL     OW 1456   1.650   1.720   3.256
  375SOL    HW1 1457   1.703   1.730   3.172
  375SOL    HW2 1458   1.623   1.810   3.290
  376SOL     OW 1459   1.841   0.175   2.825
  376SOL    HW1 1460   1.880   0.090   2.789
  376SOL    HW2 1461   1.743   0.177   2.806
  377SOL     OW 1462   0.263   0.326   2.582
  377SOL    HW1 1463   0.184   0.377   2.548
  377SOL    HW2 1464   0.254   0.311   2.680
  378SOL     OW 1465   1.194   1.612   1.893
  378SOL    HW1 1466   1.200   1.519   1.930
  378SOL    HW2 1467   1.135   1.612   1.813
  379SOL     OW 1468   0.822   1.002   3.234
  379SOL    HW1 1469   0.862   1.001   3.142
  379SOL    HW2 1470   0.832   1.094   3.274
  380SOL     OW 1471   0.916   0.910   2.153
  380SOL    HW1 1472   0.979   0.948   2.085
  380SOL    HW2 1473   0.956   0.827   2.192
  381SOL     OW 1474   1.504   1.607   1.906
  381SOL    HW1 1475   1.412   1.644   1.913
  381SOL    HW2 1476   1.542   1.627   1.816
  382SOL     OW 1477   0.372   1.288   3.352
  382SOL    HW1 1478   0.359   1.381   3.318
  382SOL    HW2 1479   0.288   1.236   3.339
  383SOL     OW 1480   1.614   1.292   3.151
  383SOL    HW1 1481   1.674   1.295   3.231
  383SOL    HW2 1482   1.539   1.356   3.164
  384SOL     OW 1483   1.039   1.098   2.558
  384SOL    HW1 1484   0.969   1.051   2.612
  384SOL    HW2 1485   1.098   1.030   2.515
  385SOL     OW 1486   1.014   0.236   2.833
  385SOL    HW1 1487   1.006   0.200   2.740
  385SOL    HW2 1488   1.012   0.160   2.898
  386SOL     OW 1489   0.590   1.487   2.353
  386SOL    HW1 1490   0.632   1.429   2.283
  386SOL    HW2 1491   0.546   1.566   2.309
  387SOL     OW 1492   1.709   0.385   3.243
  387SOL    HW1 1493   1.782   0.454   3.247
  387SOL    HW2 1494   1.737   0.310   3.184
  388SOL     OW 1495   0.255   1.348   2.152
  388SOL    HW1 1496   0.159   1.349   2.125
  388SOL    HW2 1497   0.267   1.401   2.236
  389SOL     OW 1498   0.105   1.013   3.588
  389SOL    HW1 1499   0.028   0.980   3.642
  389SOL    HW2 1500   0.190   0.983   3.630
  390SOL     OW 1501   0.672   0.203   3.351
  390SOL    HW1 1502   0.762   0.187   3.311
  390SOL    HW2 1503   0.680   0.208   3.450
  391SOL     OW 1504   0.075   0.345   1.895
  391SOL    HW1 1505  -0.017   0.317   1.866
  391SOL    HW2 1506   0.106   0.422   1.839
  392SOL     OW 1507   1.440   0.856   3.260
  392SOL    HW1 1508   1.383   0.908   3.197
  392SOL    HW2 1509   1.536   0.868   3.236
  393SOL     OW 1510   0.072   0.166   2.180
  393SOL    HW1 1511   0.055   0.249   2.126
  393SOL    HW2 1512   0.162   0.129   2.158
  394SOL     OW 1513   1.183   1.335   1.981
  394SOL    HW1 1514   1.084   1.324   1.983
  394SOL    HW2 1515   1.217   1.350   2.074
  395SOL     OW 1516   0.613   0.842   3.293
  395SOL    HW1 1517   0.669   0.923   3.276
  395SOL    HW2 1518   0.672   0.762   3.296
  396SOL     OW 1519   1.493   1.767   2.821
  396SOL    HW1 1520   1.526   1.831   2.752
  396SOL    HW2 1521   1.559   1.761   2.896
  397SOL     OW 1522   0.716   0.565   3.570
  397SOL    HW1 1523   0.735   0.630   3.644
  397SOL    HW2 1524   0.776   0.485   3.579
  398SOL     OW 1525   1.450   1.220   3.495
  398SOL    HW1 1526   1.441   1.210   3.594
  398SOL    HW2 1527   1.546   1.213   3.469
  399SOL     OW 1528   0.390   1.741   3.422
  399SOL    HW1 1529   0.299   1.782   3.420
  399SOL    HW2 1530   0.383   1.647   3.454
  400SOL     OW 1531   1.674   0.883   3.116
  400SOL    HW1 1532   1.647   0.794   3.079
  400SOL    HW2 1533   1.675   0.951   3.043
  401SOL     OW 1534   1.225   0.325   2.311
  401SOL    HW1 1535   1.290   0.251   2.300
  401SOL    HW2 1536   1.245   0.375   2.395
  402SOL     OW 1537   0.594   0.745   2.514
  402SOL    HW1 1538   0.644   0.830   2.495
  402SOL    HW2 1539   0.506   0.747   2.466
  403SOL     OW 1540   1.777   0.342   3.504
  403SOL    HW1 1541   1.760   0.373   3.410
  403SOL    HW2 1542   1.693   0.305   3.542
  404SOL     OW 1543   1.730   0.934   3.379
  404SOL    HW1 1544   1.768   1.025   3.394
  404SOL    HW2 1545   1.722   0.917   3.280
  405SOL     OW 1546   0.859   1.374   1.878
  405SOL    HW1 1547   0.813   1.389   1.966
  405SOL    HW2 1548   0.903   1.459   1.848
  406SOL     OW 1549   0.661   1.790   2.815
  406SOL    HW1 1550   0.615   1.878   2.802
  406SOL    HW2 1551   0.760   1.802   2.808
  407SOL     OW 1552   0.859   0.956   2.723
  407SOL    HW1 1553   0.913   0.887   2.771
  407SOL    HW2 1554   0.827   1.025   2.789
  408SOL     OW 1555   1.083   0.984   1.949
  408SOL    HW1 1556   1.060   1.037   1.867
  408SOL    HW2 1557   1.164   0.928   1.930
  409SOL     OW 1558   1.861   1.569   2.713
  409SOL    HW1 1559   1.790   1.557   2.643
  409SOL    HW2 1560   1.862   1.490   2.773
  410SOL     OW 1561   0.221   1.314   3.706
  410SOL    HW1 1562   0.156   1.241   3.685
  410SOL    HW2 1563   0.225   1.328   3.804
  411SOL     OW 1564   0.079   1.240   2.515
  411SOL    HW1 1565   0.078   1.193   2.603
  411SOL    HW2 1566   0.161   1.212   2.464
  412SOL     OW 1567   0.672   1.391   3.486
  412SOL    HW1 1568   0.594   1.341   3.524
  412SOL    HW2 1569   0.669   1.486   3.517
  413SOL     OW 1570   1.824   0.192   3.089
  413SOL    HW1 1571   1.820   0.102   3.133
  413SOL    HW2 1572   1.827   0.181   2.990
  414SOL     OW 1573   0.428   0.424   2.382
  414SOL    HW1 1574   0.458   0.352   2.320
  414SOL    HW2 1575   0.389   0.384   2.465
  415SOL     OW 1576   1.705   1.487   2.966
  415SOL    HW1 1577   1.612   1.462   2.939
  415SOL    HW2 1578   1.731   1.437   3.048
  416SOL     OW 1579   0.317   0.547   3.142
  416SOL    HW1 1580   0.355   0.488   3.214
  416SOL    HW2 1581   0.357   0.521   3.054
  417SOL     OW 1582   0.812   1.586   2.549
  417SOL    HW1 1583   0.844   1.596   2.455
  417SOL    HW2 1584   0.733   1.524   2.551
  418SOL     OW 1585   1.424   0.214   2.974
  418SOL    HW1 1586   1.476   0.149   3.029
  418SOL    HW2 1587   1.375   0.277   3.035
  419SOL     OW 1588   1.001   0.034   3.016
  419SOL    HW1 1589   0.938  -0.038   2.985
  419SOL    HW2 1590   1.094  -0.002   3.016
  420SOL     OW 1591   0.770   1.330   2.163
  420SOL    HW1 1592   0.724   1.243   2.180
  420SOL    HW2 1593   0.861   1.327   2.204
  421SOL     OW 1594   0.618   1.567   3.146
  421SOL    HW1 1595   0.613   1.649   3.203
  421SOL    HW2 1596   0.707   1.564   3.101
  422SOL     OW 1597   1.352   0.052   2.030
  422SOL    HW1 1598   1.387   0.011   1.946
  422SOL    HW2 1599   1.262   0.014   2.050
  423SOL     OW 1600   1.300   0.453   2.553
  423SOL    HW1 1601   1.241   0.533   2.557
  423SOL    HW2 1602   1.315   0.418   2.646
  424SOL     OW 1603   1.593   0.221   2.744
  424SOL    HW1 1604   1.509   0.220   2.798
  424SOL    HW2 1605   1.595   0.304   2.688
  425SOL     OW 1606   0.039   1.077   2.162
  425SOL    HW1 1607   0.138   1.066   2.153
  425SOL    HW2 1608  -0.001   0.991   2.194
  426SOL     OW 1609   0.875   1.646   2.199
  426SOL    HW1 1610   0.798   1.611   2.145
  426SOL    HW2 1611   0.843   1.717   2.261
  427SOL     OW 1612   0.230   0.628   3.837
  427SOL    HW1 1613   0.137   0.626   3.874
  427SOL    HW2 1614   0.231   0.589   3.745
  428SOL     OW 1615   0.225   0.275   4.720
  428SOL    HW1 1616   0.260   0.258   4.812
  428SOL    HW2 1617   0.137   0.230   4.708
  429SOL     OW 1618   0.019   0.368   4.371
  429SOL    HW1 1619  -0.063   0.411   4.410
  429SOL    HW2 1620  -0.009   0.295   4.308
  430SOL     OW 1621   0.569   1.275   4.889
  430SOL    HW1 1622   0.476   1.268   4.852
  430SOL    HW2 1623   0.580   1.364   4.933
  431SOL     OW 1624   1.555   1.511   4.427
  431SOL    HW1 1625   1.498   1.495   4.508
  431SOL    HW2 1626   1.496   1.521   4.347
  432SOL     OW 1627   1.135   0.703   4.441
  432SOL    HW1 1628   1.192   0.781   4.416
  432SOL    HW2 1629   1.075   0.729   4.517
  433SOL     OW 1630   1.755   0.607   3.955
  433SOL    HW1 1631   1.743   0.594   3.856
  433SOL    HW2 1632   1.725   0.526   4.004
  434SOL     OW 1633   0.768   1.144   4.747
  434SOL    HW1 1634   0.690   1.161   4.807
  434SOL    HW2 1635   0.802   1.231   4.711
  435SOL     OW 1636   0.850   0.798   5.547
  435SOL    HW1 1637   0.846   0.874   5.612
  435SOL    HW2 1638   0.872   0.834   5.456
  436SOL     OW 1639   0.685   1.012   4.389
  436SOL    HW1 1640   0.754   0.996   4.459
  436SOL    HW2 1641   0.612   1.069   4.427
  437SOL     OW 1642   0.686   1.161   5.527
  437SOL    HW1 1643   0.746   1.240   5.541
  437SOL    HW2 1644   0.600   1.192   5.486
  438SOL     OW 1645   0.335   1.435   4.785
  438SOL    HW1 1646   0.257   1.404   4.732
  438SOL    HW2 1647   0.393   1.493   4.728
  439SOL     OW 1648   1.460   1.505   5.063
  439SOL    HW1 1649   1.484   1.599   5.089
  439SOL    HW2 1650   1.444   1.451   5.145
  440SOL     OW 1651   0.438   0.392   5.223
  440SOL    HW1 1652   0.520   0.336   5.232
  440SOL    HW2 1653   0.357   0.334   5.227
  441SOL     OW 1654   1.603   0.447   4.461
  441SOL    HW1 1655   1.529   0.493   4.411
  441SOL    HW2 1656   1.654   0.515   4.514
  442SOL     OW 1657   0.231   1.713   4.207
  442SOL    HW1 1658   0.265   1.790   4.261
  442SOL    HW2 1659   0.275   1.713   4.117
  443SOL     OW 1660   1.127   1.341   5.414
  443SOL    HW1 1661   1.174   1.341   5.502
  443SOL    HW2 1662   1.079   1.254   5.403
  444SOL     OW 1663   0.230   1.434   4.262
  444SOL    HW1 1664   0.204   1.530   4.262
  444SOL    HW2 1665   0.159   1.380   4.307
  445SOL     OW 1666   0.240   1.091   4.610
  445SOL    HW1 1667   0.254   1.007   4.662
  445SOL    HW2 1668   0.185   1.155   4.665
  446SOL     OW 1669   0.620   1.786   5.163
  446SOL    HW1 1670   0.528   1.769   5.198
  446SOL    HW2 1671   0.648   1.878   5.189
  447SOL     OW 1672   0.606   0.964   3.847
  447SOL    HW1 1673   0.613   1.048   3.793
  447SOL    HW2 1674   0.652   0.977   3.935
  448SOL     OW 1675   1.594   0.114   5.204
  448SOL    HW1 1676   1.576   0.181   5.132
  448SOL    HW2 1677   1.591   0.160   5.293
  449SOL     OW 1678   0.122   0.643   4.287
  449SOL    HW1 1679   0.077   0.555   4.304
  449SOL    HW2 1680   0.121   0.697   4.371
  450SOL     OW 1681   1.842   1.767   4.083
  450SOL    HW1 1682   1.896   1.738   4.163
  450SOL    HW2 1683   1.872   1.857   4.054
  451SOL     OW 1684   0.027   1.596   3.841
  451SOL    HW1 1685   0.008   1.500   3.862
  451SOL    HW2 1686  -0.006   1.654   3.916
  452SOL     OW 1687   1.689   0.922   4.336
  452SOL    HW1 1688   1.784   0.893   4.344
  452SOL    HW2 1689   1.681   0.987   4.261
  453SOL     OW 1690   1.641   1.108   4.156
  453SOL    HW1 1691   1.727   1.110   4.104
  453SOL    HW2 1692   1.655   1.155   4.244
  454SOL     OW 1693   0.113   0.737   5.321
  454SOL    HW1 1694   0.201   0.724   5.366
  454SOL    HW2 1695   0.100   0.834   5.299
  455SOL     OW 1696   0.613   1.365   4.450
  455SOL    HW1 1697   0.564   1.278   4.459
  455SOL    HW2 1698   0.590   1.408   4.363
  456SOL     OW 1699   1.293   1.228   5.147
  456SOL    HW1 1700   1.330   1.155   5.089
  456SOL    HW2 1701   1.345   1.233   5.232
  457SOL     OW 1702   0.809   0.004   4.226
  457SOL    HW1 1703   0.849   0.095   4.217
  457SOL    HW2 1704   0.709   0.012   4.232
  458SOL     OW 1705   0.197   0.976   4.988
  458SOL    HW1 1706   0.286   0.931   4.974
  458SOL    HW2 1707   0.124   0.911   4.969
  459SOL     OW 1708   1.525   0.999   3.914
  459SOL    HW1 1709   1.462   0.923   3.927
  459SOL    HW2 1710   1.573   1.017   4.000
  460SOL     OW 1711   1.187   1.792   5.340
  460SOL    HW1 1712   1.211   1.852   5.264
  460SOL    HW2 1713   1.194   1.697   5.310
  461SOL     OW 1714   0.317   0.251   5.525
  461SOL    HW1 1715   0.388   0.322   5.531
  461SOL    HW2 1716   0.229   0.290   5.553
  462SOL     OW 1717   1.466   1.417   4.677
  462SOL    HW1 1718   1.407   1.423   4.757
  462SOL    HW2 1719   1.451   1.329   4.631
  463SOL     OW 1720   1.667   1.714   4.296
  463SOL    HW1 1721   1.626   1.691   4.208
  463SOL    HW2 1722   1.649   1.640   4.361
  464SOL     OW 1723   0.598   0.729   3.994
  464SOL    HW1 1724   0.622   0.798   3.926
  464SOL    HW2 1725   0.520   0.762   4.048
  465SOL     OW 1726   1.281   0.345   4.668
  465SOL    HW1 1727   1.195   0.295   4.655
  465SOL    HW2 1728   1.343   0.291   4.724
  466SOL     OW 1729   1.576   1.662   4.031
  466SOL    HW1 1730   1.665   1.708   4.034
  466SOL    HW2 1731   1.555   1.638   3.936
  467SOL     OW 1732   0.807   0.605   5.189
  467SOL    HW1 1733   0.760   0.602   5.278
  467SOL    HW2 1734   0.756   0.550   5.123
  468SOL     OW 1735   1.394   0.469   5.398
  468SOL    HW1 1736   1.374   0.512   5.486
  468SOL    HW2 1737   1.472   0.407   5.407
  469SOL     OW 1738   0.973   0.890   5.296
  469SOL    HW1 1739   1.019   0.806   5.267
  469SOL    HW2 1740   0.917   0.924   5.221
  470SOL     OW 1741   0.991   0.410   4.966
  470SOL    HW1 1742   0.914   0.444   5.020
  470SOL    HW2 1743   0.957   0.359   4.887
  471SOL     OW 1744   1.041   0.701   4.153
  471SOL    HW1 1745   1.067   0.697   4.249
  471SOL    HW2 1746   0.956   0.650   4.139
  472SOL     OW 1747   0.076   0.811   4.513
  472SOL    HW1 1748   0.175   0.799   4.522
  472SOL    HW2 1749   0.052   0.906   4.534
  473SOL     OW 1750   0.130   1.821   5.295
  473SOL    HW1 1751   0.120   1.806   5.394
  473SOL    HW2 1752   0.044   1.857   5.259
  474SOL     OW 1753   0.865   0.348   3.919
  474SOL    HW1 1754   0.924   0.411   3.870
  474SOL    HW2 1755   0.884   0.254   3.890
  475SOL     OW 1756   1.719   0.585   5.555
  475SOL    HW1 1757   1.693   0.674   5.519
  475SOL    HW2 1758   1.717   0.517   5.482
  476SOL     OW 1759   1.362   1.144   4.269
  476SOL    HW1 1760   1.445   1.115   4.221
  476SOL    HW2 1761   1.313   1.211   4.213
  477SOL     OW 1762   0.550   0.196   4.609
  477SOL    HW1 1763   0.545   0.191   4.709
  477SOL    HW2 1764   0.552   0.292   4.580
  478SOL     OW 1765   1.008   1.456   4.201
  478SOL    HW1 1766   0.962   1.528   4.149
  478SOL    HW2 1767   1.004   1.476   4.299
  479SOL     OW 1768   0.351   1.801   4.577
  479SOL    HW1 1769   0.401   1.715   4.583
  479SOL    HW2 1770   0.416   1.878   4.574
  480SOL     OW 1771   1.795   1.066   4.597
  480SOL    HW1 1772   1.733   1.051   4.521
  480SOL    HW2 1773   1.743   1.077   4.682
  481SOL     OW 1774   1.227   1.550   5.230
  481SOL    HW1 1775   1.233   1.473   5.294
  481SOL    HW2 1776   1.175   1.524   5.150
  482SOL     OW 1777   0.321   0.943   3.966
  482SOL    HW1 1778   0.403   0.982   3.924
  482SOL    HW2 1779   0.294   0.861   3.917
  483SOL     OW 1780   1.458   0.735   4.452
  483SOL    HW1 1781   1.453   0.670   4.527
  483SOL    HW2 1782   1.538   0.794   4.465
  484SOL     OW 1783   0.461   1.266   5.451
  484SOL    HW1 1784   0.411   1.267   5.365
  484SOL    HW2 1785   0.398   1.248   5.527
  485SOL     OW 1786   1.111   1.776   3.961
  485SOL    HW1 1787   1.051   1.714   4.011
  485SOL    HW2 1788   1.142   1.732   3.876
  486SOL     OW 1789   0.202   0.285   5.222
  486SOL    HW1 1790   0.122   0.345   5.209
  486SOL    HW2 1791   0.192   0.236   5.308
  487SOL     OW 1792   1.632   1.377   3.805
  487SOL    HW1 1793   1.600   1.471   3.795
  487SOL    HW2 1794   1.556   1.314   3.793
  488SOL     OW 1795   0.464   1.743   4.047
  488SOL    HW1 1796   0.497   1.782   4.133
  488SOL    HW2 1797   0.540   1.736   3.982
  489SOL     OW 1798   1.400   0.107   4.150
  489SOL    HW1 1799   1.376   0.070   4.060
  489SOL    HW2 1800   1.499   0.123   4.154
  490SOL     OW 1801   0.249   1.785   4.965
  490SOL    HW1 1802   0.306   1.720   5.015
  490SOL    HW2 1803   0.233   1.752   4.872
  491SOL     OW 1804   0.940   1.698   4.628
  491SOL    HW1 1805   1.020   1.641   4.649
  491SOL    HW2 1806   0.891   1.658   4.551
  492SOL     OW 1807   0.382   0.700   4.204
  492SOL    HW1 1808   0.427   0.610   4.201
  492SOL    HW2 1809   0.288   0.689   4.237
  493SOL     OW 1810   1.547   0.222   5.453
  493SOL    HW1 1811   1.542   0.259   5.545
  493SOL    HW2 1812   1.475   0.153   5.441
  494SOL     OW 1813   0.614   0.122   3.841
  494SOL    HW1 1814   0.712   0.100   3.848
  494SOL    HW2 1815   0.583   0.105   3.748
  495SOL     OW 1816   0.781   0.264   5.473
  495SOL    HW1 1817   0.848   0.203   5.516
  495SOL    HW2 1818   0.708   0.283   5.538
  496SOL     OW 1819   0.888   1.514   4.919
  496SOL    HW1 1820   0.865   1.489   4.825
  496SOL    HW2 1821   0.949   1.445   4.958
  497SOL     OW 1822   1.351   0.590   5.157
  497SOL    HW1 1823   1.379   0.547   5.242
  497SOL    HW2 1824   1.376   0.686   5.158
  498SOL     OW 1825   0.803   1.402   4.648
  498SOL    HW1 1826   0.893   1.416   4.606
  498SOL    HW2 1827   0.732   1.404   4.577
  499SOL     OW 1828   0.922   0.503   4.623
  499SOL    HW1 1829   0.897   0.494   4.527
  499SOL    HW2 1830   0.970   0.421   4.654
  500SOL     OW 1831   0.539   0.064   4.236
  500SOL    HW1 1832   0.458   0.065   4.294
  500SOL    HW2 1833   0.542   0.147   4.181
  501SOL     OW 1834   1.434   1.188   3.765
  501SOL    HW1 1835   1.466   1.112   3.822
  501SOL    HW2 1836   1.342   1.215   3.795
  502SOL     OW 1837   0.297   0.035   3.895
  502SOL    HW1 1838   0.346   0.119   3.874
  502SOL    HW2 1839   0.359  -0.030   3.940
  503SOL     OW 1840   0.935   0.236   4.204
  503SOL    HW1 1841   0.887   0.277   4.126
  503SOL    HW2 1842   1.034   0.234   4.185
  504SOL     OW 1843   1.076   0.683   5.188
  504SOL    HW1 1844   0.996   0.622   5.191
  504SOL    HW2 1845   1.157   0.630   5.164
  505SOL     OW 1846   1.227   1.570   4.517
  505SOL    HW1 1847   1.248   1.644   4.452
  505SOL    HW2 1848   1.295   1.570   4.590
  506SOL     OW 1849   0.459   1.152   4.465
  506SOL    HW1 1850   0.388   1.125   4.530
  506SOL    HW2 1851   0.433   1.124   4.372
  507SOL     OW 1852   1.271   1.797   4.315
  507SOL    HW1 1853   1.315   1.861   4.251
  507SOL    HW2 1854   1.221   1.849   4.385
  508SOL     OW 1855   1.032   0.549   3.740
  508SOL    HW1 1856   0.991   0.631   3.701
  508SOL    HW2 1857   1.096   0.575   3.813
  509SOL     OW 1858   0.078   0.556   5.110
  509SOL    HW1 1859   0.170   0.555   5.069
  509SOL    HW2 1860   0.072   0.630   5.177
  510SOL     OW 1861   0.561   0.222   4.871
  510SOL    HW1 1862   0.599   0.138   4.908
  510SOL    HW2 1863   0.473   0.241   4.915
  511SOL     OW 1864   0.866   0.454   4.366
  511SOL    HW1 1865   0.834   0.526   4.304
  511SOL    HW2 1866   0.890   0.373   4.313
  512SOL     OW 1867   1.017   0.039   4.477
  512SOL    HW1 1868   0.945   0.044   4.408
  512SOL    HW2 1869   0.993  -0.030   4.546
  513SOL     OW 1870   1.429   1.173   4.591
  513SOL    HW1 1871   1.374   1.089   4.584
  513SOL    HW2 1872   1.455   1.202   4.499
  514SOL     OW 1873   1.466   0.590   4.716
  514SOL    HW1 1874   1.436   0.495   4.723
  514SOL    HW2 1875   1.539   0.606   4.782
  515SOL     OW 1876   1.857   0.833   4.101
  515SOL    HW1 1877   1.899   0.769   4.165
  515SOL    HW2 1878   1.819   0.782   4.023
  516SOL     OW 1879   0.488   1.385   3.898
  516SOL    HW1 1880   0.401   1.370   3.945
  516SOL    HW2 1881   0.471   1.411   3.803
  517SOL     OW 1882   1.664   1.280   4.381
  517SOL    HW1 1883   1.763   1.288   4.395
  517SOL    HW2 1884   1.619   1.364   4.412
  518SOL     OW 1885   1.390   0.575   3.802
  518SOL    HW1 1886   1.336   0.554   3.883
  518SOL    HW2 1887   1.481   0.534   3.811
  519SOL     OW 1888   0.527   0.256   4.052
  519SOL    HW1 1889   0.554   0.197   3.977
  519SOL    HW2 1890   0.527   0.351   4.021
  520SOL     OW 1891   1.754   1.223   5.312
  520SOL    HW1 1892   1.845   1.184   5.299
  520SOL    HW2 1893   1.762   1.319   5.336
  521SOL     OW 1894   1.064   1.347   5.064
  521SOL    HW1 1895   0.984   1.324   5.119
  521SOL    HW2 1896   1.147   1.321   5.113
  522SOL     OW 1897   1.592   1.629   5.349
  522SOL    HW1 1898   1.619   1.663   5.259
  522SOL    HW2 1899   1.671   1.591   5.395
  523SOL     OW 1900   1.111   1.195   4.824
  523SOL    HW1 1901   1.071   1.239   4.905
  523SOL    HW2 1902   1.070   1.232   4.741
  524SOL     OW 1903   1.638   1.099   4.803
  524SOL    HW1 1904   1.643   1.180   4.862
  524SOL    HW2 1905   1.552   1.101   4.752
  525SOL     OW 1906   0.915   0.089   5.126
  525SOL    HW1 1907   0.940   0.069   5.031
  525SOL    HW2 1908   0.987   0.145   5.168
  526SOL     OW 1909   0.980   1.116   5.443
  526SOL    HW1 1910   0.881   1.122   5.453
  526SOL    HW2 1911   1.003   1.036   5.387
  527SOL     OW 1912   0.705   1.050   4.092
  527SOL    HW1 1913   0.691   1.057   4.191
  527SOL    HW2 1914   0.789   0.999   4.074
  528SOL     OW 1915   0.410   0.813   4.975
  528SOL    HW1 1916   0.496   0.825   5.025
  528SOL    HW2 1917   0.368   0.726   5.002
  529SOL     OW 1918   1.274   0.386   4.986
  529SOL    HW1 1919   1.295   0.460   5.050
  529SOL    HW2 1920   1.185   0.403   4.943
  530SOL     OW 1921   0.064   1.564   5.055
  530SOL    HW1 1922   0.018   1.646   5.021
  530SOL    HW2 1923   0.162   1.583   5.064
  531SOL     OW 1924   0.367   1.100   4.225
  531SOL    HW1 1925   0.360   1.183   4.169
  531SOL    HW2 1926   0.371   1.020   4.165
  532SOL     OW 1927   0.566   0.537   4.589
  532SOL    HW1 1928   0.578   0.603   4.515
  532SOL    HW2 1929   0.612   0.571   4.672
  533SOL     OW 1930   1.252   1.348   4.112
  533SOL    HW1 1931   1.302   1.425   4.152
  533SOL    HW2 1932   1.157   1.350   4.144
  534SOL     OW 1933   1.272   1.445   4.866
  534SOL    HW1 1934   1.319   1.458   4.953
  534SOL    HW2 1935   1.206   1.371   4.875
  535SOL     OW 1936   1.582   0.639   4.196
  535SOL    HW1 1937   1.551   0.700   4.269
  535SOL    HW2 1938   1.632   0.691   4.127
  536SOL     OW 1939   0.354   1.510   5.053
  536SOL    HW1 1940   0.333   1.466   4.966
  536SOL    HW2 1941   0.451   1.536   5.056
  537SOL     OW 1942   0.402   0.751   5.322
  537SOL    HW1 1943   0.470   0.806   5.275
  537SOL    HW2 1944   0.442   0.663   5.349
  538SOL     OW 1945   1.587   0.779   5.394
  538SOL    HW1 1946   1.495   0.817   5.389
  538SOL    HW2 1947   1.647   0.826   5.329
  539SOL     OW 1948   1.013   0.105   5.494
  539SOL    HW1 1949   1.019   0.190   5.442
  539SOL    HW2 1950   1.045   0.029   5.437
  540SOL     OW 1951   0.504   0.050   5.464
  540SOL    HW1 1952   0.462  -0.007   5.394
  540SOL    HW2 1953   0.438   0.119   5.496
  541SOL     OW 1954   0.573   0.870   4.753
  541SOL    HW1 1955   0.617   0.959   4.744
  541SOL    HW2 1956   0.510   0.870   4.830
  542SOL     OW 1957   1.360   0.862   4.769
  542SOL    HW1 1958   1.285   0.862   4.703
  542SOL    HW2 1959   1.397   0.770   4.778
  543SOL     OW 1960   1.209   0.525   3.999
  543SOL    HW1 1961   1.222   0.441   4.053
  543SOL    HW2 1962   1.180   0.599   4.059
  544SOL     OW 1963   0.307   0.213   4.955
  544SOL    HW1 1964   0.284   0.250   5.045
  544SOL    HW2 1965   0.277   0.118   4.949
  545SOL     OW 1966   0.037   1.310   5.006
  545SOL    HW1 1967   0.090   1.261   5.074
  545SOL    HW2 1968   0.059   1.408   5.011
  546SOL     OW 1969   0.732   0.634   4.788
  546SOL    HW1 1970   0.791   0.608   4.712
  546SOL    HW2 1971   0.704   0.730   4.777
  547SOL     OW 1972   1.728   0.935   5.578
  547SOL    HW1 1973   1.682   0.928   5.489
  547SOL    HW2 1974   1.666   0.979   5.644
  548SOL     OW 1975   0.307   0.063   4.342
  548SOL    HW1 1976   0.296   0.157   4.375
  548SOL    HW2 1977   0.302   0.000   4.419
  549SOL     OW 1978   1.622   0.367   4.098
  549SOL    HW1 1979   1.624   0.291   4.162
  549SOL    HW2 1980   1.574   0.444   4.138
  550SOL     OW 1981   1.023   0.766   4.690
  550SOL    HW1 1982   1.038   0.787   4.786
  550SOL    HW2 1983   0.993   0.671   4.681
  551SOL     OW 1984   0.980   1.573   5.424
  551SOL    HW1 1985   0.960   1.617   5.336
  551SOL    HW2 1986   1.019   1.482   5.408
  552SOL     OW 1987   1.859   1.518   5.329
  552SOL    HW1 1988   1.873   1.545   5.234
  552SOL    HW2 1989   1.942   1.540   5.382
  553SOL     OW 1990   0.350   0.898   5.528
  553SOL    HW1 1991   0.426   0.942   5.576
  553SOL    HW2 1992   0.385   0.851   5.446
  554SOL     OW 1993   1.540   0.274   3.849
  554SOL    HW1 1994   1.479   0.199   3.872
  554SOL    HW2 1995   1.562   0.326   3.932
  555SOL     OW 1996   1.303   0.838   3.766
  555SOL    HW1 1997   1.337   0.745   3.781
  555SOL    HW2 1998   1.321   0.865   3.671
  556SOL     OW 1999   1.068   1.333   4.573
  556SOL    HW1 2000   1.075   1.249   4.518
  556SOL    HW2 2001   1.130   1.402   4.537
  557SOL     OW 2002   0.319   0.810   4.673
  557SOL    HW1 2003   0.412   0.846   4.678
  557SOL    HW2 2004   0.313   0.725   4.725
  558SOL     OW 2005   0.339   0.509   4.730
  558SOL    HW1 2006   0.287   0.426   4.713
  558SOL    HW2 2007   0.416   0.514   4.666
  559SOL     OW 2008   1.138   0.380   5.402
  559SOL    HW1 2009   1.093   0.443   5.466
  559SOL    HW2 2010   1.231   0.411   5.385
  560SOL     OW 2011   1.160   0.207   5.201
  560SOL    HW1 2012   1.160   0.271   5.278
  560SOL    HW2 2013   1.188   0.255   5.118
  561SOL     OW 2014   0.008   1.326   3.924
  561SOL    HW1 2015  -0.085   1.347   3.893
  561SOL    HW2 2016   0.018   1.227   3.937
  562SOL     OW 2017   0.088   1.801   4.651
  562SOL    HW1 2018   0.046   1.715   4.624
  562SOL    HW2 2019   0.182   1.804   4.617
  563SOL     OW 2020   0.504   1.568   4.634
  563SOL    HW1 2021   0.570   1.642   4.643
  563SOL    HW2 2022   0.548   1.489   4.592
  564SOL     OW 2023   1.002   0.796   4.962
  564SOL    HW1 2024   1.043   0.764   5.048
  564SOL    HW2 2025   0.906   0.769   4.959
  565SOL     OW 2026   0.040   0.544   4.838
  565SOL    HW1 2027   0.125   0.511   4.797
  565SOL    HW2 2028   0.053   0.559   4.936
  566SOL     OW 2029   0.189   0.520   5.446
  566SOL    HW1 2030   0.248   0.480   5.376
  566SOL    HW2 2031   0.131   0.591   5.405
  567SOL     OW 2032   1.369   0.950   5.384
  567SOL    HW1 2033   1.408   1.039   5.404
  567SOL    HW2 2034   1.379   0.930   5.287
  568SOL     OW 2035   0.815   0.572   4.049
  568SOL    HW1 2036   0.822   0.483   4.003
  568SOL    HW2 2037   0.721   0.606   4.041
  569SOL     OW 2038   1.657   0.604   4.930
  569SOL    HW1 2039   1.619   0.535   4.992
  569SOL    HW2 2040   1.739   0.568   4.886
  570SOL     OW 2041   0.252   1.564   5.468
  570SOL    HW1 2042   0.222   1.621   5.544
  570SOL    HW2 2043   0.245   1.467   5.494
  571SOL     OW 2044   0.671   0.464   4.993
  571SOL    HW1 2045   0.637   0.375   4.963
  571SOL    HW2 2046   0.697   0.518   4.913
  572SOL     OW 2047   0.930   1.678   5.189
  572SOL    HW1 2048   0.906   1.660   5.094
  572SOL    HW2 2049   0.960   1.772   5.199
  573SOL     OW 2050   0.473   0.500   3.915
  573SOL    HW1 2051   0.534   0.580   3.919
  573SOL    HW2 2052   0.378   0.531   3.922
  574SOL     OW 2053   0.159   1.137   5.190
  574SOL    HW1 2054   0.181   1.076   5.266
  574SOL    HW2 2055   0.169   1.088   5.104
  575SOL     OW 2056   1.347   1.059   4.958
  575SOL    HW1 2057   1.371   0.996   4.884
  575SOL    HW2 2058   1.257   1.099   4.940
  576SOL     OW 2059   1.302   0.855   4.033
  576SOL    HW1 2060   1.216   0.824   4.075
  576SOL    HW2 2061   1.298   0.841   3.934
  577SOL     OW 2062   1.759   1.747   4.878
  577SOL    HW1 2063   1.820   1.777   4.805
  577SOL    HW2 2064   1.721   1.658   4.856
  578SOL     OW 2065   1.252   1.731   4.852
  578SOL    HW1 2066   1.336   1.736   4.798
  578SOL    HW2 2067   1.229   1.635   4.870
  579SOL     OW 2068   0.083   1.258   4.746
  579SOL    HW1 2069   0.078   1.257   4.846
  579SOL    HW2 2070   0.000   1.217   4.708
  580SOL     OW 2071   0.688   1.662   5.440
  580SOL    HW1 2072   0.632   1.743   5.449
  580SOL    HW2 2073   0.740   1.666   5.354
  581SOL     OW 2074   1.726   0.135   4.247
  581SOL    HW1 2075   1.799   0.118   4.180
  581SOL    HW2 2076   1.695   0.048   4.285
  582SOL     OW 2077   1.388   1.573   4.201
  582SOL    HW1 2078   1.455   1.585   4.127
  582SOL    HW2 2079   1.348   1.662   4.224
  583SOL     OW 2080   0.130   1.794   5.575
  583SOL    HW1 2081   0.089   1.720   5.628
  583SOL    HW2 2082   0.194   1.845   5.633
  584SOL     OW 2083   1.280   0.927   4.396
  584SOL    HW1 2084   1.340   0.846   4.398
  584SOL    HW2 2085   1.320   0.996   4.336
  585SOL     OW 2086   0.830   1.273   5.146
  585SOL    HW1 2087   0.825   1.306   5.241
  585SOL    HW2 2088   0.744   1.292   5.100
  586SOL     OW 2089   0.672   1.616   3.878
  586SOL    HW1 2090   0.681   1.626   3.779
  586SOL    HW2 2091   0.632   1.527   3.899
  587SOL     OW 2092   1.650   1.720   5.118
  587SOL    HW1 2093   1.703   1.730   5.034
  587SOL    HW2 2094   1.623   1.810   5.152
  588SOL     OW 2095   1.841   0.175   4.687
  588SOL    HW1 2096   1.880   0.090   4.651
  588SOL    HW2 2097   1.743   0.177   4.668
  589SOL     OW 2098   0.263   0.326   4.444
  589SOL    HW1 2099   0.184   0.377   4.410
  589SOL    HW2 2100   0.254   0.311   4.542
  590SOL     OW 2101   1.194   1.612   3.755
  590SOL    HW1 2102   1.200   1.519   3.792
  590SOL    HW2 2103   1.135   1.612   3.675
  591SOL     OW 2104   0.822   1.002   5.096
  591SOL    HW1 2105   0.862   1.001   5.004
  591SOL    HW2 2106   0.832   1.094   5.136
  592SOL     OW 2107   0.916   0.910   4.015
  592SOL    HW1 2108   0.979   0.948   3.947
  592SOL    HW2 2109   0.956   0.827   4.054
  593SOL     OW 2110   1.504   1.607   3.768
  593SOL    HW1 2111   1.412   1.644   3.775
  593SOL    HW2 2112   1.542   1.627   3.678
  594SOL     OW 2113   0.372   1.288   5.214
  594SOL    HW1 2114   0.359   1.381   5.180
  594SOL    HW2 2115   0.288   1.236   5.201
  595SOL     OW 2116   1.614   1.292   5.013
  595SOL    HW1 2117   1.674   1.295   5.093
  595SOL    HW2 2118   1.539   1.356   5.026
  596SOL     OW 2119   1.039   1.098   4.420
  596SOL    HW1 2120   0.969   1.051   4.474
  596SOL    HW2 2121   1.098   1.030   4.377
  597SOL     OW 2122   1.014   0.236   4.695
  597SOL    HW1 2123   1.006   0.200   4.602
  597SOL    HW2 2124   1.012   0.160   4.760
  598SOL     OW 2125   0.590   1.487   4.215
  598SOL    HW1 2126   0.632   1.429   4.145
  598SOL    HW2 2127   0.546   1.566   4.171
  599SOL     OW 2128   1.709   0.385   5.105
  599SOL    HW1 2129   1.782   0.454   5.109
  599SOL    HW2 2130   1.737   0.310   5.046
  600SOL     OW 2131   0.255   1.348   4.014
  600SOL    HW1 2132   0.159   1.349   3.987
  600SOL    HW2 2133   0.267   1.401   4.098
  601SOL     OW 2134   0.105   1.013   5.450
  601SOL    HW1 2135   0.028   0.980   5.504
  601SOL    HW2 2136   0.190   0.983   5.492
  602SOL     OW 2137   0.672   0.203   5.213
  602SOL    HW1 2138   0.762   0.187   5.173
  602SOL    HW2 2139   0.680   0.208   5.312
  603SOL     OW 2140   0.075   0.345   3.757
  603SOL    HW1 2141  -0.017   0.317   3.728
  603SOL    HW2 2142   0.106   0.422   3.701
  604SOL     OW 2143   1.440   0.856   5.122
  604SOL    HW1 2144   1.383   0.908   5.059
  604SOL    HW2 2145   1.536   0.868   5.098
  605SOL     OW 2146   0.072   0.166   4.042
  605SOL    HW1 2147   0.055   0.249   3.988
  605SOL    HW2 2148   0.162   0.129   4.020
  606SOL     OW 2149   1.183   1.335   3.843
  606SOL    HW1 2150   1.084   1.324   3.845
  606SOL    HW2 2151   1.217   1.350   3.936
  607SOL     OW 2152   0.613   0.842   5.155
  607SOL    HW1 2153   0.669   0.923   5.138
  607SOL    HW2 2154   0.672   0.762   5.158
  608SOL     OW 2155   1.493   1.767   4.683
  608SOL    HW1 2156   1.526   1.831   4.614
  608SOL    HW2 2157   1.559   1.761   4.758
  609SOL     OW 2158   0.716   0.565   5.432
  609SOL    HW1 2159   0.735   0.630   5.506
  609SOL    HW2 2160   0.776   0.485   5.441
  610SOL     OW 2161   1.450   1.220   5.357
  610SOL    HW1 2162   1.441   1.210   5.456
  610SOL    HW2 2163   1.546   1.213   5.331
  611SOL     OW 2164   0.390   1.741   5.284
  611SOL    HW1 2165   0.299   1.782   5.282
  611SOL    HW2 2166   0.383   1.647   5.316
  612SOL     OW 2167   1.674   0.883   4.978
  612SOL    HW1 2168   1.647   0.794   4.941
  612SOL    HW2 2169   1.675   0.951   4.905
  613SOL     OW 2170   1.225   0.325   4.173
  613SOL    HW1 2171   1.290   0.251   4.162
  613SOL    HW2 2172   1.245   0.375   4.257
  614SOL     OW 2173   0.594   0.745   4.376
  614SOL    HW1 2174   0.644   0.830   4.357
  614SOL    HW2 2175   0.506   0.747   4.328
  615SOL     OW 2176   1.777   0.342   5.366
  615SOL    HW1 2177   1.760   0.373   5.272
  615SOL    HW2 2178   1.693   0.305   5.404
  616SOL     OW 2179   1.730   0.934   5.241
  616SOL    HW1 2180   1.768   1.025   5.256
  616SOL    HW2 2181   1.722   0.917   5.142
  617SOL     OW 2182   0.859   1.374   3.740
  617SOL    HW1 2183   0.813   1.389   3.828
  617SOL    HW2 2184   0.903   1.459   3.710
  618SOL     OW 2185   0.661   1.790   4.677
  618SOL    HW1 2186   0.615   1.878   4.664
  618SOL    HW2 2187   0.760   1.802   4.670
  619SOL     OW 2188   0.859   0.956   4.585
  619SOL    HW1 2189   0.913   0.887   4.633
  619SOL    HW2 2190   0.827   1.025   4.651
  620SOL     OW 2191   1.083   0.984   3.811
  620SOL    HW1 2192   1.060   1.037   3.729
  620SOL    HW2 2193   1.164   0.928   3.792
  621SOL     OW 2194   1.861   1.569   4.575
  621SOL    HW1 2195   1.790   1.557   4.505
  621SOL    HW2 2196   1.862   1.490   4.635
  622SOL     OW 2197   0.221   1.314   5.568
  622SOL    HW1 2198   0.156   1.241   5.547
  622SOL    HW2 2199   0.225   1.328   5.666
  623SOL     OW 2200   0.079   1.240   4.377
  623SOL    HW1 2201   0.078   1.193   4.465
  623SOL    HW2 2202   0.161   1.212   4.326
  624SOL     OW 2203   0.672   1.391   5.348
  624SOL    HW1 2204   0.594   1.341   5.386
  624SOL    HW2 2205   0.669   1.486   5.379
  625SOL     OW 2206   1.824   0.192   4.951
  625SOL    HW1 2207   1.820   0.102   4.995
  625SOL    HW2 2208   1.827   0.181   4.852
  626SOL     OW 2209   0.428   0.424   4.244
  626SOL    HW1 2210   0.458   0.352   4.182
  626SOL    HW2 2211   0.389   0.384   4.327
  627SOL     OW 2212   1.705   1.487   4.828
  627SOL    HW1 2213   1.612   1.462   4.801
  627SOL    HW2 2214   1.731   1.437   4.910
  628SOL     OW 2215   0.317   0.547   5.004
  628SOL    HW1 2216   0.355   0.488   5.076
  628SOL    HW2 2217   0.357   0.521   4.916
  629SOL     OW 2218   0.812   1.586   4.411
  629SOL    HW1 2219   0.844   1.596   4.317
  629SOL    HW2 2220   0.733   1.524   4.413
  630SOL     OW 2221   1.424   0.214   4.836
  630SOL    HW1 2222   1.476   0.149   4.891
  630SOL    HW2 2223   1.375   0.277   4.897
  631SOL     OW 2224   1.001   0.034   4.878
  631SOL    HW1 2225   0.938  -0.038   4.847
  631SOL    HW2 2226   1.094  -0.002   4.878
  632SOL     OW 2227   0.770   1.330   4.025
  632SOL    HW1 2228   0.724   1.243   4.042
  632SOL    HW2 2229   0.861   1.327   4.066
  633SOL     OW 2230   0.618   1.567   5.008
  633SOL    HW1 2231   0.613   1.649   5.065
  633SOL    HW2 2232   0.707   1.564   4.963
  634SOL     OW 2233   1.352   0.052   3.892
  634SOL    HW1 2234   1.387   0.011   3.808
  634SOL    HW2 2235   1.262   0.014   3.912
  635SOL     OW 2236   1.300   0.453   4.415
  635SOL    HW1 2237   1.241   0.533   4.419
  635SOL    HW2 2238   1.315   0.418   4.508
  636SOL     OW 2239   1.593   0.221   4.606
  636SOL    HW1 2240   1.509   0.220   4.660
  636SOL    HW2 2241   1.595   0.304   4.550
  637SOL     OW 2242   0.039   1.077   4.024
  637SOL    HW1 2243   0.138   1.066   4.015
  637SOL    HW2 2244  -0.001   0.991   4.056
  638SOL     OW 2245   0.875   1.646   4.061
  638SOL    HW1 2246   0.798   1.611   4.007
  638SOL    HW2 2247   0.843   1.717   4.123
  639SOL     OW 2248   0.230   0.628   5.699
  639SOL    HW1 2249   0.137   0.626   5.736
  639SOL    HW2 2250   0.231   0.589   5.607
  640SOL     OW 2251   0.225   0.275   6.582
  640SOL    HW1 2252   0.260   0.258   6.674
  640SOL    HW2 2253   0.137   0.230   6.570
  641SOL     OW 2254   0.019   0.368   6.233
  641SOL    HW1 2255  -0.063   0.411   6.272
  641SOL    HW2 2256  -0.009   0.295   6.170
  642SOL     OW 2257   0.569   1.275   6.751
  642SOL    HW1 2258   0.476   1.268   6.714
  642SOL    HW2 2259   0.580   1.364   6.795
  643SOL     OW 2260   1.555   1.511   6.289
  643SOL    HW1 2261   1.498   1.495   6.370
  643SOL    HW2 2262   1.496   1.521   6.209
  644SOL     OW 2263   1.135   0.703   6.303
  644SOL    HW1 2264   1.192   0.781   6.278
  644SOL    HW2 2265   1.075   0.729   6.379
  645SOL     OW 2266   1.755   0.607   5.817
  645SOL    HW1 2267   1.743   0.594   5.718
  645SOL    HW2 2268   1.725   0.526   5.866
  646SOL     OW 2269   0.768   1.144   6.609
  646SOL    HW1 2270   0.690   1.161   6.669
  646SOL    HW2 2271   0.802   1.231   6.573
  647SOL     OW 2272   0.850   0.798   7.409
  647SOL    HW1 2273   0.846   0.874   7.474
  647SOL    HW2 2274   0.872   0.834   7.318
  648SOL     OW 2275   0.685   1.012   6.251
  648SOL    HW1 2276   0.754   0.996   6.321
  648SOL    HW2 2277   0.612   1.069   6.289
  649SOL     OW 2278   0.686   1.161   7.389
  649SOL    HW1 2279   0.746   1.240   7.403
  649SOL    HW2 2280   0.600   1.192   7.348
  650SOL     OW 2281   0.335   1.435   6.647
  650SOL    HW1 2282   0.257   1.404   6.594
  650SOL    HW2 2283   0.393   1.493   6.590
  651SOL     OW 2284   1.460   1.505   6.925
  651SOL    HW1 2285   1.484   1.599   6.951
  651SOL    HW2 2286   1.444   1.451   7.007
  652SOL     OW 2287   0.438   0.392   7.085
  652SOL    HW1 2288   0.520   0.336   7.094
  652SOL    HW2 2289   0.357   0.334   7.089
  653SOL     OW 2290   1.603   0.447   6.323
  653SOL    HW1 2291   1.529   0.493   6.273
  653SOL    HW2 2292   1.654   0.515   6.376
  654SOL     OW 2293   0.231   1.713   6.069
  654SOL    HW1 2294   0.265   1.790   6.123
  654SOL    HW2 2295   0.275   1.713   5.979
  655SOL     OW 2296   1.127   1.341   7.276
  655SOL    HW1 2297   1.174   1.341   7.364
  655SOL    HW2 2298   1.079   1.254   7.265
  656SOL     OW 2299   0.230   1.434   6.124
  656SOL    HW1 2300   0.204   1.530   6.124
  656SOL    HW2 2301   0.159   1.380   6.169
  657SOL     OW 2302   0.240   1.091   6.472
  657SOL    HW1 2303   0.254   1.007   6.524
  657SOL    HW2 2304   0.185   1.155   6.527
  658SOL     OW 2305   0.620   1.786   7.025
  658SOL    HW1 2306   0.528   1.769   7.060
  658SOL    HW2 2307   0.648   1.878   7.051
  659SOL     OW 2308   0.606   0.964   5.709
  659SOL    HW1 2309   0.613   1.048   5.655
  659SOL    HW2 2310   0.652   0.977   5.797
  660SOL     OW 2311   1.594   0.114   7.066
  660SOL    HW1 2312   1.576   0.181   6.994
  660SOL    HW2 2313   1.591   0.160   7.155
  661SOL     OW 2314   0.122   0.643   6.149
  661SOL    HW1 2315   0.077   0.555   6.166
  661SOL    HW2 2316   0.121   0.697   6.233
  662SOL     OW 2317   1.842   1.767   5.945
  662SOL    HW1 2318   1.896   1.738   6.025
  662SOL    HW2 2319   1.872   1.857   5.916
  663SOL     OW 2320   0.027   1.596   5.703
  663SOL    HW1 2321   0.008   1.500   5.724
  663SOL    HW2 2322  -0.006   1.654   5.778
  664SOL     OW 2323   1.689   0.922   6.198
  664SOL    HW1 2324   1.784   0.893   6.206
  664SOL    HW2 2325   1.681   0.987   6.123
  665SOL     OW 2326   1.641   1.108   6.018
  665SOL    HW1 2327   1.727   1.110   5.966
  665SOL    HW2 2328   1.655   1.155   6.106
  666SOL     OW 2329   0.113   0.737   7.183
  666SOL    HW1 2330   0.201   0.724   7.228
  666SOL    HW2 2331   0.100   0.834   7.161
  667SOL     OW 2332   0.613   1.365   6.312
  667SOL    HW1 2333   0.564   1.278   6.321
  667SOL    HW2 2334   0.590   1.408   6.225
  668SOL     OW 2335   1.293   1.228   7.009
  668SOL    HW1 2336   1.330   1.155   6.951
  668SOL    HW2 2337   1.345   1.233   7.094
  669SOL     OW 2338   0.809   0.004   6.088
  669SOL    HW1 2339   0.849   0.095   6.079
  669SOL    HW2 2340   0.709   0.012   6.094
  670SOL     OW 2341   0.197   0.976   6.850
  670SOL    HW1 2342   0.286   0.931   6.836
  670SOL    HW2 2343   0.124   0.911   6.831
  671SOL     OW 2344   1.525   0.999   5.776
  671SOL    HW1 2345   1.462   0.923   5.789
  671SOL    HW2 2346   1.573   1.017   5.862
  672SOL     OW 2347   1.187   1.792   7.202
  672SOL    HW1 2348   1.211   1.852   7.126
  672SOL    HW2 2349   1.194   1.697   7.172
  673SOL     OW 2350   0.317   0.251   7.387
  673SOL    HW1 2351   0.388   0.322   7.393
  673SOL    HW2 2352   0.229   0.290   7.415
  674SOL     OW 2353   1.466   1.417   6.539
  674SOL    HW1 2354   1.407   1.423   6.619
  674SOL    HW2 2355   1.451   1.329   6.493
  675SOL     OW 2356   1.667   1.714   6.158
  675SOL    HW1 2357   1.626   1.691   6.070
  675SOL    HW2 2358   1.649   1.640   6.223
  676SOL     OW 2359   0.598   0.729   5.856
  676SOL    HW1 2360   0.622   0.798   5.788
  676SOL    HW2 2361   0.520   0.762   5.910
  677SOL     OW 2362   1.281   0.345   6.530
  677SOL    HW1 2363   1.195   0.295   6.517
  677SOL    HW2 2364   1.343   0.291   6.586
  678SOL     OW 2365   1.576   1.662   5.893
  678SOL    HW1 2366   1.665   1.708   5.896
  678SOL    HW2 2367   1.555   1.638   5.798
  679SOL     OW 2368   0.807   0.605   7.051
  679SOL    HW1 2369   0.760   0.602   7.140
  679SOL    HW2 2370   0.756   0.550   6.985
  680SOL     OW 2371   1.394   0.469   7.260
  680SOL    HW1 2372   1.374   0.512   7.348
  680SOL    HW2 2373   1.472   0.407   7.269
  681SOL     OW 2374   0.973   0.890   7.158
  681SOL    HW1 2375   1.019   0.806   7.129
  681SOL    HW2 2376   0.917   0.924   7.083
  682SOL     OW 2377   0.991   0.410   6.828
  682SOL    HW1 2378   0.914   0.444   6.882
  682SOL    HW2 2379   0.957   0.359   6.749
  683SOL     OW 2380   1.041   0.701   6.015
  683SOL    HW1 2381   1.067   0.697   6.111
  683SOL    HW2 2382   0.956   0.650   6.001
  684SOL     OW 2383   0.076   0.811   6.375
  684SOL    HW1 2384   0.175   0.799   6.384
  684SOL    HW2 2385   0.052   0.906   6.396
  685SOL     OW 2386   0.130   1.821   7.157
  685SOL    HW1 2387   0.120   1.806   7.256
  685SOL    HW2 2388   0.044   1.857   7.121
  686SOL     OW 2389   0.865   0.348   5.781
  686SOL    HW1 2390   0.924   0.411   5.732
  686SOL    HW2 2391   0.884   0.254   5.752
  687SOL     OW 2392   1.719   0.585   7.417
  687SOL    HW1 2393   1.693   0.674   7.381
  687SOL    HW2 2394   1.717   0.517   7.344
  688SOL     OW 2395   1.362   1.144   6.131
  688SOL    HW1 2396   1.445   1.115   6.083
  688SOL    HW2 2397   1.313   1.211   6.075
  689SOL     OW 2398   0.550   0.196   6.471
  689SOL    HW1 2399   0.545   0.191   6.571
  689SOL    HW2 2400   0.552   0.292   6.442
  690SOL     OW 2401   1.008   1.456   6.063
  690SOL    HW1 2402   0.962   1.528   6.011
  690SOL    HW2 2403   1.004   1.476   6.161
  691SOL     OW 2404   0.351   1.801   6.439
  691SOL    HW1 2405   0.401   1.715   6.445
  691SOL    HW2 2406   0.416   1.878   6.436
  692SOL     OW 2407   1.795   1.066   6.459
  692SOL    HW1 2408   1.733   1.051   6.383
  692SOL    HW2 2409   1.743   1.077   6.544
  693SOL     OW 2410   1.227   1.550   7.092
  693SOL    HW1 2411   1.233   1.473   7.156
  693SOL    HW2 2412   1.175   1.524   7.012
  694SOL     OW 2413   0.321   0.943   5.828
  694SOL    HW1 2414   0.403   0.982   5.786
  694SOL    HW2 2415   0.294   0.861   5.779
  695SOL     OW 2416   1.458   0.735   6.314
  695SOL    HW1 2417   1.453   0.670   6.389
  695SOL    HW2 2418   1.538   0.794   6.327
  696SOL     OW 2419   0.461   1.266   7.313
  696SOL    HW1 2420   0.411   1.267   7.227
  696SOL    HW2 2421   0.398   1.248   7.389
  697SOL     OW 2422   1.111   1.776   5.823
  697SOL    HW1 2423   1.051   1.714   5.873
  697SOL    HW2 2424   1.142   1.732   5.738
  698SOL     OW 2425   0.202   0.285   7.084
  698SOL    HW1 2426   0.122   0.345   7.071
  698SOL    HW2 2427   0.192   0.236   7.170
  699SOL     OW 2428   1.632   1.377   5.667
  699SOL    HW1 2429   1.600   1.471   5.657
  699SOL    HW2 2430   1.556   1.314   5.655
  700SOL     OW 2431   0.464   1.743   5.909
  700SOL    HW1 2432   0.497   1.782   5.995
  700SOL    HW2 2433   0.540   1.736   5.844
  701SOL     OW 2434   1.400   0.107   6.012
  701SOL    HW1 2435   1.376   0.070   5.922
  701SOL    HW2 2436   1.499   0.123   6.016
  702SOL     OW 2437   0.249   1.785   6.827
  702SOL    HW1 2438   0.306   1.720   6.877
  702SOL    HW2 2439   0.233   1.752   6.734
  703SOL     OW 2440   0.940   1.698   6.490
  703SOL    HW1 2441   1.020   1.641   6.511
  703SOL    HW2 2442   0.891   1.658   6.413
  704SOL     OW 2443   0.382   0.700   6.066
  704SOL    HW1 2444   0.427   0.610   6.063
  704SOL    HW2 2445   0.288   0.689   6.099
  705SOL     OW 2446   1.547   0.222   7.315
  705SOL    HW1 2447   1.542   0.259   7.407
  705SOL    HW2 2448   1.475   0.153   7.303
  706SOL     OW 2449   0.614   0.122   5.703
  706SOL    HW1 2450   0.712   0.100   5.710
  706SOL    HW2 2451   0.583   0.105   5.610
  707SOL     OW 2452   0.781   0.264   7.335
  707SOL    HW1 2453   0.848   0.203   7.378
  707SOL    HW2 2454   0.708   0.283   7.400
  708SOL     OW 2455   0.888   1.514   6.781
  708SOL    HW1 2456   0.865   1.489   6.687
  708SOL    HW2 2457   0.949   1.445   6.820
  709SOL     OW 2458   1.351   0.590   7.019
  709SOL    HW1 2459   1.379   0.547   7.104
  709SOL    HW2 2460   1.376   0.686   7.020
  710SOL     OW 2461   0.803   1.402   6.510
  710SOL    HW1 2462   0.893   1.416   6.468
  710SOL    HW2 2463   0.732   1.404   6.439
  711SOL     OW 2464   0.922   0.503   6.485
  711SOL    HW1 2465   0.897   0.494   6.389
  711SOL    HW2 2466   0.970   0.421   6.516
  712SOL     OW 2467   0.539   0.064   6.098
  712SOL    HW1 2468   0.458   0.065   6.156
  712SOL    HW2 2469   0.542   0.147   6.043
  713SOL     OW 2470   1.434   1.188   5.627
  713SOL    HW1 2471   1.466   1.112   5.684
  713SOL    HW2 2472   1.342   1.215   5.657
  714SOL     OW 2473   0.297   0.035   5.757
  714SOL    HW1 2474   0.346   0.119   5.736
  714SOL    HW2 2475   0.359  -0.030   5.802
  715SOL     OW 2476   0.935   0.236   6.066
  715SOL    HW1 2477   0.887   0.277   5.988
  715SOL    HW2 2478   1.034   0.234   6.047
  716SOL     OW 2479   1.076   0.683   7.050
  716SOL    HW1 2480   0.996   0.622   7.053
  716SOL    HW2 2481   1.157   0.630   7.026
  717SOL     OW 2482   1.227   1.570   6.379
  717SOL    HW1 2483   1.248   1.644   6.314
  717SOL    HW2 2484   1.295   1.570   6.452
  718SOL     OW 2485   0.459   1.152   6.327
  718SOL    HW1 2486   0.388   1.125   6.392
  718SOL    HW2 2487   0.433   1.124   6.234
  719SOL     OW 2488   1.271   1.797   6.177
  719SOL    HW1 2489   1.315   1.861   6.113
  719SOL    HW2 2490   1.221   1.849   6.247
  720SOL     OW 2491   1.032   0.549   5.602
  720SOL    HW1 2492   0.991   0.631   5.563
  720SOL    HW2 2493   1.096   0.575   5.675
  721SOL     OW 2494   0.078   0.556   6.972
  721SOL    HW1 2495   0.170   0.555   6.931
  721SOL    HW2 2496   0.072   0.630   7.039
  722SOL     OW 2497   0.561   0.222   6.733
  722SOL    HW1 2498   0.599   0.138   6.770
  722SOL    HW2 2499   0.473   0.241   6.777
  723SOL     OW 2500   0.866   0.454   6.228
  723SOL    HW1 2501   0.834   0.526   6.166
  723SOL    HW2 2502   0.890   0.373   6.175
  724SOL     OW 2503   1.017   0.039   6.339
  724SOL    HW1 2504   0.945   0.044   6.270
  724SOL    HW2 2505   0.993  -0.030   6.408
  725SOL     OW 2506   1.429   1.173   6.453
  725SOL    HW1 2507   1.374   1.089   6.446
  725SOL    HW2 2508   1.455   1.202   6.361
  726SOL     OW 2509   1.466   0.590   6.578
  726SOL    HW1 2510   1.436   0.495   6.585
  726SOL    HW2 2511   1.539   0.606   6.644
  727SOL     OW 2512   1.857   0.833   5.963
  727SOL    HW1 2513   1.899   0.769   6.027
  727SOL    HW2 2514   1.819   0.782   5.885
  728SOL     OW 2515   0.488   1.385   5.760
  728SOL    HW1 2516   0.401   1.370   5.807
  728SOL    HW2 2517   0.471   1.411   5.665
  729SOL     OW 2518   1.664   1.280   6.243
  729SOL    HW1 2519   1.763   1.288   6.257
  729SOL    HW2 2520   1.619   1.364   6.274
  730SOL     OW 2521   1.390   0.575   5.664
  730SOL    HW1 2522   1.336   0.554   5.745
  730SOL    HW2 2523   1.481   0.534   5.673
  731SOL     OW 2524   0.527   0.256   5.914
  731SOL    HW1 2525   0.554   0.197   5.839
  731SOL    HW2 2526   0.527   0.351   5.883
  732SOL     OW 2527   1.754   1.223   7.174
  732SOL    HW1 2528   1.845   1.184   7.161
  732SOL    HW2 2529   1.762   1.319   7.198
  733SOL     OW 2530   1.064   1.347   6.926
  733SOL    HW1 2531   0.984   1.324   6.981
  733SOL    HW2 2532   1.147   1.321   6.975
  734SOL     OW 2533   1.592   1.629   7.211
  734SOL    HW1 2534   1.619   1.663   7.121
  734SOL    HW2 2535   1.671   1.591   7.257
  735SOL     OW 2536   1.111   1.195   6.686
  735SOL    HW1 2537   1.071   1.239   6.767
  735SOL    HW2 2538   1.070   1.232   6.603
  736SOL     OW 2539   1.638   1.099   6.665
  736SOL    HW1 2540   1.643   1.180   6.724
  736SOL    HW2 2541   1.552   1.101   6.614
  737SOL     OW 2542   0.915   0.089   6.988
  737SOL    HW1 2543   0.940   0.069   6.893
  737SOL    HW2 2544   0.987   0.145   7.030
  738SOL     OW 2545   0.980   1.116   7.305
  738SOL    HW1 2546   0.881   1.122   7.315
  738SOL    HW2 2547   1.003   1.036   7.249
  739SOL     OW 2548   0.705   1.050   5.954
  739SOL    HW1 2549   0.691   1.057   6.053
  739SOL    HW2 2550   0.789   0.999   5.936
  740SOL     OW 2551   0.410   0.813   6.837
  740SOL    HW1 2552   0.496   0.825   6.887
  740SOL    HW2 2553   0.368   0.726   6.864
  741SOL     OW 2554   1.274   0.386   6.848
  741SOL    HW1 2555   1.295   0.460   6.912
  741SOL    HW2 2556   1.185   0.403   6.805
  742SOL     OW 2557   0.064   1.564   6.917
  742SOL    HW1 2558   0.018   1.646   6.883
  742SOL    HW2 2559   0.162   1.583   6.926
  743SOL     OW 2560   0.367   1.100   6.087
  743SOL    HW1 2561   0.360   1.183   6.031
  743SOL    HW2 2562   0.371   1.020   6.027
  744SOL     OW 2563   0.566   0.537   6.451
  744SOL    HW1 2564   0.578   0.603   6.377
  744SOL    HW2 2565   0.612   0.571   6.534
  745SOL     OW 2566   1.252   1.348   5.974
  745SOL    HW1 2567   1.302   1.425   6.014
  745SOL    HW2 2568   1.157   1.350   6.006
  746SOL     OW 2569   1.272   1.445   6.728
  746SOL    HW1 2570   1.319   1.458   6.815
  746SOL    HW2 2571   1.206   1.371   6.737
  747SOL     OW 2572   1.582   0.639   6.058
  747SOL    HW1 2573   1.551   0.700   6.131
  747SOL    HW2 2574   1.632   0.691   5.989
  748SOL     OW 2575   0.354   1.510   6.915
  748SOL    HW1 2576   0.333   1.466   6.828
  748SOL    HW2 2577   0.451   1.536   6.918
  749SOL     OW 2578   0.402   0.751   7.184
  749SOL    HW1 2579   0.470   0.806   7.137
  749SOL    HW2 2580   0.442   0.663   7.211
  750SOL     OW 2581   1.587   0.779   7.256
  750SOL    HW1 2582   1.495   0.817   7.251
  750SOL    HW2 2583   1.647   0.826   7.191
  751SOL     OW 2584   1.013   0.105   7.356
  751SOL    HW1 2585   1.019   0.190   7.304
  751SOL    HW2 2586   1.045   0.029   7.299
  752SOL     OW 2587   0.504   0.050   7.326
  752SOL    HW1 2588   0.462  -0.007   7.256
  752SOL    HW2 2589   0.438   0.119   7.358
  753SOL     OW 2590   0.573   0.870   6.615
  753SOL    HW1 2591   0.617   0.959   6.606
  753SOL    HW2 2592   0.510   0.870   6.692
  754SOL     OW 2593   1.360   0.862   6.631
  754SOL    HW1 2594   1.285   0.862   6.565
  754SOL    HW2 2595   1.397   0.770   6.640
  755SOL     OW 2596   1.209   0.525   5.861
  755SOL    HW1 2597   1.222   0.441   5.915
  755SOL    HW2 2598   1.180   0.599   5.921
  756SOL     OW 2599   0.307   0.213   6.817
  756SOL    HW1 2600   0.284   0.250   6.907
  756SOL    HW2 2601   0.277   0.118   6.811
  757SOL     OW 2602   0.037   1.310   6.868
  757SOL    HW1 2603   0.090   1.261   6.936
  757SOL    HW2 2604   0.059   1.408   6.873
  758SOL     OW 2605   0.732   0.634   6.650
  758SOL    HW1 2606   0.791   0.608   6.574
  758SOL    HW2 2607   0.704   0.730   6.639
  759SOL     OW 2608   1.728   0.935   7.440
  759SOL    HW1 2609   1.682   0.928   7.351
  759SOL    HW2 2610   1.666   0.979   7.506
  760SOL     OW 2611   0.307   0.063   6.204
  760SOL    HW1 2612   0.296   0.157   6.237
  760SOL    HW2 2613   0.302   0.000   6.281
  761SOL     OW 2614   1.622   0.367   5.960
  761SOL    HW1 2615   1.624   0.291   6.024
  761SOL    HW2 2616   1.574   0.444   6.000
  762SOL     OW 2617   1.023   0.766   6.552
  762SOL    HW1 2618   1.038   0.787   6.648
  762SOL    HW2 2619   0.993   0.671   6.543
  763SOL     OW 2620   0.980   1.573   7.286
  763SOL    HW1 2621   0.960   1.617   7.198
  763SOL    HW2 2622   1.019   1.482   7.270
  764SOL     OW 2623   1.859   1.518   7.191
  764SOL    HW1 2624   1.873   1.545   7.096
  764SOL    HW2 2625   1.942   1.540   7.244
  765SOL     OW 2626   0.350   0.898   7.390
  765SOL    HW1 2627   0.426   0.942   7.438
  765SOL    HW2 2628   0.385   0.851   7.308
  766SOL     OW 2629   1.540   0.274   5.711
  766SOL    HW1 2630   1.479   0.199   5.734
  766SOL    HW2 2631   1.562   0.326   5.794
  767SOL     OW 2632   1.303   0.838   5.628
  767SOL    HW1 2633   1.337   0.745   5.643
  767SOL    HW2 2634   1.321   0.865   5.533
  768SOL     OW 2635   1.068   1.333   6.435
  768SOL    HW1 2636   1.075   1.249   6.380
  768SOL    HW2 2637   1.130   1.402   6.399
  769SOL     OW 2638   0.319   0.810   6.535
  769SOL    HW1 2639   0.412   0.846   6.540
  769SOL    HW2 2640   0.313   0.725   6.587
  770SOL     OW 2641   0.339   0.509   6.592
  770SOL    HW1 2642   0.287   0.426   6.575
  770SOL    HW2 2643   0.416   0.514   6.528
  771SOL     OW 2644   1.138   0.380   7.264
  771SOL    HW1 2645   1.093   0.443   7.328
  771SOL    HW2 2646   1.231   0.411   7.247
  772SOL     OW 2647   1.160   0.207   7.063
  772SOL    HW1 2648   1.160   0.271   7.140
  772SOL    HW2 2649   1.188   0.255   6.980
  773SOL     OW 2650   0.008   1.326   5.786
  773SOL    HW1 2651  -0.085   1.347   5.755
  773SOL    HW2 2652   0.018   1.227   5.799
  774SOL     OW 2653   0.088   1.801   6.513
  774SOL    HW1 2654   0.046   1.715   6.486
  774SOL    HW2 2655   0.182   1.804   6.479
  775SOL     OW 2656   0.504   1.568   6.496
  775SOL    HW1 2657   0.570   1.642   6.505
  775SOL    HW2 2658   0.548   1.489   6.454
  776SOL     OW 2659   1.002   0.796   6.824
  776SOL    HW1 2660   1.043   0.764   6.910
  776SOL    HW2 2661   0.906   0.769   6.821
  777SOL     OW 2662   0.040   0.544   6.700
  777SOL    HW1 2663   0.125   0.511   6.659
  777SOL    HW2 2664   0.053   0.559   6.798
  778SOL     OW 2665   0.189   0.520   7.308
  778SOL    HW1 2666   0.248   0.480   7.238
  778SOL    HW2 2667   0.131   0.591   7.267
  779SOL     OW 2668   1.369   0.950   7.246
  779SOL    HW1 2669   1.408   1.039   7.266
  779SOL    HW2 2670   1.379   0.930   7.149
  780SOL     OW 2671   0.815   0.572   5.911
  780SOL    HW1 2672   0.822   0.483   5.865
  780SOL    HW2 2673   0.721   0.606   5.903
  781SOL     OW 2674   1.657   0.604   6.792
  781SOL    HW1 2675   1.619   0.535   6.854
  781SOL    HW2 2676   1.739   0.568   6.748
  782SOL     OW 2677   0.252   1.564   7.330
  782SOL    HW1 2678   0.222   1.621   7.406
  782SOL    HW2 2679   0.245   1.467   7.356
  783SOL     OW 2680   0.671   0.464   6.855
  783SOL    HW1 2681   0.637   0.375   6.825
  783SOL    HW2 2682   0.697   0.518   6.775
  784SOL     OW 2683   0.930   1.678   7.051
  784SOL    HW1 2684   0.906   1.660   6.956
  784SOL    HW2 2685   0.960   1.772   7.061
  785SOL     OW 2686   0.473   0.500   5.777
  785SOL    HW1 2687   0.534   0.580   5.781
  785SOL    HW2 2688   0.378   0.531   5.784
  786SOL     OW 2689   0.159   1.137   7.052
  786SOL    HW1 2690   0.181   1.076   7.128
  786SOL    HW2 2691   0.169   1.088   6.966
  787SOL     OW 2692   1.347   1.059   6.820
  787SOL    HW1 2693   1.371   0.996   6.746
  787SOL    HW2 2694   1.257   1.099   6.802
  788SOL     OW 2695   1.302   0.855   5.895
  788SOL    HW1 2696   1.216   0.824   5.937
  788SOL    HW2 2697   1.298   0.841   5.796
  789SOL     OW 2698   1.759   1.747   6.740
  789SOL    HW1 2699   1.820   1.777   6.667
  789SOL    HW2 2700   1.721   1.658   6.718
  790SOL     OW 2701   1.252   1.731   6.714
  790SOL    HW1 2702   1.336   1.736   6.660
  790SOL    HW2 2703   1.229   1.635   6.732
  791SOL     OW 2704   0.083   1.258   6.608
  791SOL    HW1 2705   0.078   1.257   6.708
  791SOL    HW2 2706   0.000   1.217   6.570
  792SOL     OW 2707   0.688   1.662   7.302
  792SOL    HW1 2708   0.632   1.743   7.311
  792SOL    HW2 2709   0.740   1.666   7.216
  793SOL     OW 2710   1.726   0.135   6.109
  793SOL    HW1 2711   1.799   0.118   6.042
  793SOL    HW2 2712   1.695   0.048   6.147
  794SOL     OW 2713   1.388   1.573   6.063
  794SOL    HW1 2714   1.455   1.585   5.989
  794SOL    HW2 2715   1.348   1.662   6.086
  795SOL     OW 2716   0.130   1.794   7.437
  795SOL    HW1 2717   0.089   1.720   7.490
  795SOL    HW2 2718   0.194   1.845   7.495
  796SOL     OW 2719   1.280   0.927   6.258
  796SOL    HW1 2720   1.340   0.846   6.260
  796SOL    HW2 2721   1.320   0.996   6.198
  797SOL     OW 2722   0.830   1.273   7.008
  797SOL    HW1 2723   0.825   1.306   7.103
  797SOL    HW2 2724   0.744   1.292   6.962
  798SOL     OW 2725   0.672   1.616   5.740
  798SOL    HW1 2726   0.681   1.626   5.641
  798SOL    HW2 2727   0.632   1.527   5.761
  799SOL     OW 2728   1.650   1.720   6.980
  799SOL    HW1 2729   1.703   1.730   6.896
  799SOL    HW2 2730   1.623   1.810   7.014
  800SOL     OW 2731   1.841   0.175   6.549
  800SOL    HW1 2732   1.880   0.090   6.513
  800SOL    HW2 2733   1.743   0.177   6.530
  801SOL     OW 2734   0.263   0.326   6.306
  801SOL    HW1 2735   0.184   0.377   6.272
  801SOL    HW2 2736   0.254   0.311   6.404
  802SOL     OW 2737   1.194   1.612   5.617
  802SOL    HW1 2738   1.200   1.519   5.654
  802SOL    HW2 2739   1.135   1.612   5.537
  803SOL     OW 2740   0.822   1.002   6.958
  803SOL    HW1 2741   0.862   1.001   6.866
  803SOL    HW2 2742   0.832   1.094   6.998
  804SOL     OW 2743   0.916   0.910   5.877
  804SOL    HW1 2744   0.979   0.948   5.809
  804SOL    HW2 2745   0.956   0.827   5.916
  805SOL     OW 2746   1.504   1.607   5.630
  805SOL    HW1 2747   1.412   1.644   5.637
  805SOL    HW2 2748   1.542   1.627   5.540
  806SOL     OW 2749   0.372   1.288   7.076
  806SOL    HW1 2750   0.359   1.381   7.042
  806SOL    HW2 2751   0.288   1.236   7.063
  807SOL     OW 2752   1.614   1.292   6.875
  807SOL    HW1 2753   1.674   1.295   6.955
  807SOL    HW2 2754   1.539   1.356   6.888
  808SOL     OW 2755   1.039   1.098   6.282
  808SOL    HW1 2756   0.969   1.051   6.336
  808SOL    HW2 2757   1.098   1.030   6.239
  809SOL     OW 2758   1.014   0.236   6.557
  809SOL    HW1 2759   1.006   0.200   6.464
  809SOL    HW2 2760   1.012   0.160   6.622
  810SOL     OW 2761   0.590   1.487   6.077
  810SOL    HW1 2762   0.632   1.429   6.007
  810SOL    HW2 2763   0.546   1.566   6.033
  811SOL     OW 2764   1.709   0.385   6.967
  811SOL    HW1 2765   1.782   0.454   6.971
  811SOL    HW2 2766   1.737   0.310   6.908
  812SOL     OW 2767   0.255   1.348   5.876
  812SOL    HW1 2768   0.159   1.349   5.849
  812SOL    HW2 2769   0.267   1.401   5.960
  813SOL     OW 2770   0.105   1.013   7.312
  813SOL    HW1 2771   0.028   0.980   7.366
  813SOL    HW2 2772   0.190   0.983   7.354
  814SOL     OW 2773   0.672   0.203   7.075
  814SOL    HW1 2774   0.762   0.187   7.035
  814SOL    HW2 2775   0.680   0.208   7.174
  815SOL     OW 2776   0.075   0.345   5.619
  815SOL    HW1 2777  -0.017   0.317   5.590
  815SOL    HW2 2778   0.106   0.422   5.563
  816SOL     OW 2779   1.440   0.856   6.984
  816SOL    HW1 2780   1.383   0.908   6.921
  816SOL    HW2 2781   1.536   0.868   6.960
  817SOL     OW 2782   0.072   0.166   5.904
  817SOL    HW1 2783   0.055   0.249   5.850
  817SOL    HW2 2784   0.162   0.129   5.882
  818SOL     OW 2785   1.183   1.335   5.705
  818SOL    HW1 2786   1.084   1.324   5.707
  818SOL    HW2 2787   1.217   1.350   5.798
  819SOL     OW 2788   0.613   0.842   7.017
  819SOL    HW1 2789   0.669   0.923   7.000
  819SOL    HW2 2790   0.672   0.762   7.020
  820SOL     OW 2791   1.493   1.767   6.545
  820SOL    HW1 2792   1.526   1.831   6.476
  820SOL    HW2 2793   1.559   1.761   6.620
  821SOL     OW 2794   0.716   0.565   7.294
  821SOL    HW1 2795   0.735   0.630   7.368
  821SOL    HW2 2796   0.776   0.485   7.303
  822SOL     OW 2797   1.450   1.220   7.219
  822SOL    HW1 2798   1.441   1.210   7.318
  822SOL    HW2 2799   1.546   1.213   7.193
  823SOL     OW 2800   0.390   1.741   7.146
  823SOL    HW1 2801   0.299   1.782   7.144
  823SOL    HW2 2802   0.383   1.647   7.178
  824SOL     OW 2803   1.674   0.883   6.840
  824SOL    HW1 2804   1.647   0.794   6.803
  824SOL    HW2 2805   1.675   0.951   6.767
  825SOL     OW 2806   1.225   0.325   6.035
  825SOL    HW1 2807   1.290   0.251   6.024
  825SOL    HW2 2808   1.245   0.375   6.119
  826SOL     OW 2809   0.594   0.745   6.238
  826SOL    HW1 2810   0.644   0.830   6.219
  826SOL    HW2 2811   0.506   0.747   6.190
  827SOL     OW 2812   1.777   0.342   7.228
  827SOL    HW1 2813   1.760   0.373   7.134
  827SOL    HW2 2814   1.693   0.305   7.266
  828SOL     OW 2815   1.730   0.934   7.103
  828SOL    HW1 2816   1.768   1.025   7.118
  828SOL    HW2 2817   1.722   0.917   7.004
  829SOL     OW 2818   0.859   1.374   5.602
  829SOL    HW1 2819   0.813   1.389   5.690
  829SOL    HW2 2820   0.903   1.459   5.572
  830SOL     OW 2821   0.661   1.790   6.539
  830SOL    HW1 2822   0.615   1.878   6.526
  830SOL    HW2 2823   0.760   1.802   6.532
  831SOL     OW 2824   0.859   0.956   6.447
  831SOL    HW1 2825   0.913   0.887   6.495
  831SOL    HW2 2826   0.827   1.025   6.513
  832SOL     OW 2827   1.083   0.984   5.673
  832SOL    HW1 2828   1.060   1.037   5.591
  832SOL    HW2 2829   1.164   0.928   5.654
  833SOL     OW 2830   1.861   1.569   6.437
  833SOL    HW1 2831   1.790   1.557   6.367
  833SOL    HW2 2832   1.862   1.490   6.497
  834SOL     OW 2833   0.221   1.314   7.430
  834SOL    HW1 2834   0.156   1.241   7.409
  834SOL    HW2 2835   0.225   1.328   7.528
  835SOL     OW 2836   0.079   1.240   6.239
  835SOL    HW1 2837   0.078   1.193   6.327
  835SOL    HW2 2838   0.161   1.212   6.188
  836SOL     OW 2839   0.672   1.391   7.210
  836SOL    HW1 2840   0.594   1.341   7.248
  836SOL    HW2 2841   0.669   1.486   7.241
  837SOL     OW 2842   1.824   0.192   6.813
  837SOL    HW1 2843   1.820   0.102   6.857
  837SOL    HW2 2844   1.827   0.181   6.714
  838SOL     OW 2845   0.428   0.424   6.106
  838SOL    HW1 2846   0.458   0.352   6.044
  838SOL    HW2 2847   0.389   0.384   6.189
  839SOL     OW 2848   1.705   1.487   6.690
  839SOL    HW1 2849   1.612   1.462   6.663
  839SOL    HW2 2850   1.731   1.437   6.772
  840SOL     OW 2851   0.317   0.547   6.866
  840SOL    HW1 2852   0.355   0.488   6.938
  840SOL    HW2 2853   0.357   0.521   6.778
  841SOL     OW 2854   0.812   1.586   6.273
  841SOL    HW1 2855   0.844   1.596   6.179
  841SOL    HW2 2856   0.733   1.524   6.275
  842SOL     OW 2857   1.424   0.214   6.698
  842SOL    HW1 2858   1.476   0.149   6.753
  842SOL    HW2 2859   1.375   0.277   6.759
  843SOL     OW 2860   1.001   0.034   6.740
  843SOL    HW1 2861   0.938  -0.038   6.709
  843SOL    HW2 2862   1.094  -0.002   6.740
  844SOL     OW 2863   0.770   1.330   5.887
  844SOL    HW1 2864   0.724   1.243   5.904
  844SOL    HW2 2865   0.861   1.327   5.928
  845SOL     OW 2866   0.618   1.567   6.870
  845SOL    HW1 2867   0.613   1.649   6.927
  845SOL    HW2 2868   0.707   1.564   6.825
  846SOL     OW 2869   1.352   0.052   5.754
  846SOL    HW1 2870   1.387   0.011   5.670
  846SOL    HW2 2871   1.262   0.014   5.774
  847SOL     OW 2872   1.300   0.453   6.277
  847SOL    HW1 2873   1.241   0.533   6.281
  847SOL    HW2 2874   1.315   0.418   6.370
  848SOL     OW 2875   1.593   0.221   6.468
  848SOL    HW1 2876   1.509   0.220   6.522
  848SOL    HW2 2877   1.595   0.304   6.412
  849SOL     OW 2878   0.039   1.077   5.886
  849SOL    HW1 2879   0.138   1.066   5.877
  849SOL    HW2 2880  -0.001   0.991   5.918
  850SOL     OW 2881   0.875   1.646   5.923
  850SOL    HW1 2882   0.798   1.611   5.869
  850SOL    HW2 2883   0.843   1.717   5.985
  851SOL     OW 2884   0.230   0.628   7.561
  851SOL    HW1 2885   0.137   0.626   7.598
  851SOL    HW2 2886   0.231   0.589   7.469
  852SOL     OW 2887   0.225   0.275   8.444
  852SOL    HW1 2888   0.260   0.258   8.536
  852SOL    HW2 2889   0.137   0.230   8.432
  853SOL     OW 2890   0.019   0.368   8.095
  853SOL    HW1 2891  -0.063   0.411   8.134
  853SOL    HW2 2892  -0.009   0.295   8.032
  854SOL     OW 2893   0.569   1.275   8.613
  854SOL    HW1 2894   0.476   1.268   8.576
  854SOL    HW2 2895   0.580   1.364   8.657
  855SOL     OW 2896   1.555   1.511   8.151
  855SOL    HW1 2897   1.498   1.495   8.232
  855SOL    HW2 2898   1.496   1.521   8.071
  856SOL     OW 2899   1.135   0.703   8.165
  856SOL    HW1 2900   1.192   0.781   8.140
  856SOL    HW2 2901   1.075   0.729   8.241
  857SOL     OW 2902   1.755   0.607   7.679
  857SOL    HW1 2903   1.743   0.594   7.580
  857SOL    HW2 2904   1.725   0.526   7.728
  858SOL     OW 2905   0.768   1.144   8.471
  858SOL    HW1 2906   0.690   1.161   8.531
  858SOL    HW2 2907   0.802   1.231   8.435
  859SOL     OW 2908   0.850   0.798   9.271
  859SOL    HW1 2909   0.846   0.874   9.336
  859SOL    HW2 2910   0.872   0.834   9.180
  860SOL     OW 2911   0.685   1.012   8.113
  860SOL    HW1 2912   0.754   0.996   8.183
  860SOL    HW2 2913   0.612   1.069   8.151
  861SOL     OW 2914   0.686   1.161   9.251
  861SOL    HW1 2915   0.746   1.240   9.265
  861SOL    HW2 2916   0.600   1.192   9.210
  862SOL     OW 2917   0.335   1.435   8.509
  862SOL    HW1 2918   0.257   1.404   8.456
  862SOL    HW2 2919   0.393   1.493   8.452
  863SOL     OW 2920   1.460   1.505   8.787
  863SOL    HW1 2921   1.484   1.599   8.813
  863SOL    HW2 2922   1.444   1.451   8.869
  864SOL     OW 2923   0.438   0.392   8.947
  864SOL    HW1 2924   0.520   0.336   8.956
  864SOL    HW2 2925   0.357   0.334   8.951
  865SOL     OW 2926   1.603   0.447   8.185
  865SOL    HW1 2927   1.529   0.493   8.135
  865SOL    HW2 2928   1.654   0.515   8.238
  866SOL     OW 2929   0.231   1.713   7.931
  866SOL    HW1 2930   0.265   1.790   7.985
  866SOL    HW2 2931   0.275   1.713   7.841
  867SOL     OW 2932   1.127   1.341   9.138
  867SOL    HW1 2933   1.174   1.341   9.226
  867SOL    HW2 2934   1.079   1.254   9.127
  868SOL     OW 2935   0.230   1.434   7.986
  868SOL    HW1 2936   0.204   1.530   7.986
  868SOL    HW2 2937   0.159   1.380   8.031
  869SOL     OW 2938   0.240   1.091   8.334
  869SOL    HW1 2939   0.254   1.007   8.386
  869SOL    HW2 2940   0.185   1.155   8.389
  870SOL     OW 2941   0.620   1.786   8.887
  870SOL    HW1 2942   0.528   1.769   8.922
  870SOL    HW2 2943   0.648   1.878   8.913
  871SOL     OW 2944   0.606   0.964   7.571
  871SOL    HW1 2945   0.613   1.048   7.517
  871SOL    HW2 2946   0.652   0.977   7.659
  872SOL     OW 2947   1.594   0.114   8.928
  872SOL    HW1 2948   1.576   0.181   8.856
  872SOL    HW2 2949   1.591   0.160   9.017
  873SOL     OW 2950   0.122   0.643   8.011
  873SOL    HW1 2951   0.077   0.555   8.028
  873SOL    HW2 2952   0.121   0.697   8.095
  874SOL     OW 2953   1.842   1.767   7.807
  874SOL    HW1 2954   1.896   1.738   7.887
  874SOL    HW2 2955   1.872   1.857   7.778
  875SOL     OW 2956   0.027   1.596   7.565
  875SOL    HW1 2957   0.008   1.500   7.586
  875SOL    HW2 2958  -0.006   1.654   7.640
  876SOL     OW 2959   1.689   0.922   8.060
  876SOL    HW1 2960   1.784   0.893   8.068
  876SOL    HW2 2961   1.681   0.987   7.985
  877SOL     OW 2962   1.641   1.108   7.880
  877SOL    HW1 2963   1.727   1.110   7.828
  877SOL    HW2 2964   1.655   1.155   7.968
  878SOL     OW 2965   0.113   0.737   9.045
  878SOL    HW1 2966   0.201   0.724   9.090
  878SOL    HW2 2967   0.100   0.834   9.023
  879SOL     OW 2968   0.613   1.365   8.174
  879SOL    HW1 2969   0.564   1.278   8.183
  879SOL    HW2 2970   0.590   1.408   8.087
  880SOL     OW 2971   1.293   1.228   8.871
  880SOL    HW1 2972   1.330   1.155   8.813
  880SOL    HW2 2973   1.345   1.233   8.956
  881SOL     OW 2974   0.809   0.004   7.950
  881SOL    HW1 2975   0.849   0.095   7.941
  881SOL    HW2 2976   0.709   0.012   7.956
  882SOL     OW 2977   0.197   0.976   8.712
  882SOL    HW1 2978   0.286   0.931   8.698
  882SOL    HW2 2979   0.124   0.911   8.693
  883SOL     OW 2980   1.525   0.999   7.638
  883SOL    HW1 2981   1.462   0.923   7.651
  883SOL    HW2 2982   1.573   1.017   7.724
  884SOL     OW 2983   1.187   1.792   9.064
  884SOL    HW1 2984   1.211   1.852   8.988
  884SOL    HW2 2985   1.194   1.697   9.034
  885SOL     OW 2986   0.317   0.251   9.249
  885SOL    HW1 2987   0.388   0.322   9.255
  885SOL    HW2 2988   0.229   0.290   9.277
  886SOL     OW 2989   1.466   1.417   8.401
  886SOL    HW1 2990   1.407   1.423   8.481
  886SOL    HW2 2991   1.451   1.329   8.355
  887SOL     OW 2992   1.667   1.714   8.020
  887SOL    HW1 2993   1.626   1.691   7.932
  887SOL    HW2 2994   1.649   1.640   8.085
  888SOL     OW 2995   0.598   0.729   7.718
  888SOL    HW1 2996   0.622   0.798   7.650
  888SOL    HW2 2997   0.520   0.762   7.772
  889SOL     OW 2998   1.281   0.345   8.392
  889SOL    HW1 2999   1.195   0.295   8.379
  889SOL    HW2 3000   1.343   0.291   8.448
  890SOL     OW 3001   1.576   1.662   7.755
  890SOL    HW1 3002   1.665   1.708   7.758
  890SOL    HW2 3003   1.555   1.638   7.660
  891SOL     OW 3004   0.807   0.605   8.913
  891SOL    HW1 3005   0.760   0.602   9.002
  891SOL    HW2 3006   0.756   0.550   8.847
  892SOL     OW 3007   1.394   0.469   9.122
  892SOL    HW1 3008   1.374   0.512   9.210
  892SOL    HW2 3009   1.472   0.407   9.131
  893SOL     OW 3010   0.973   0.890   9.020
  893SOL    HW1 3011   1.019   0.806   8.991
  893SOL    HW2 3012   0.917   0.924   8.945
  894SOL     OW 3013   0.991   0.410   8.690
  894SOL    HW1 3014   0.914   0.444   8.744
  894SOL    HW2 3015   0.957   0.359   8.611
  895SOL     OW 3016   1.041   0.701   7.877
  895SOL    HW1 3017   1.067   0.697   7.973
  895SOL    HW2 3018   0.956   0.650   7.863
  896SOL     OW 3019   0.076   0.811   8.237
  896SOL    HW1 3020   0.175   0.799   8.246
  896SOL    HW2 3021   0.052   0.906   8.258
  897SOL     OW 3022   0.130   1.821   9.019
  897SOL    HW1 3023   0.120   1.806   9.118
  897SOL    HW2 3024   0.044   1.857   8.983
  898SOL     OW 3025   0.865   0.348   7.643
  898SOL    HW1 3026   0.924   0.411   7.594
  898SOL    HW2 3027   0.884   0.254   7.614
  899SOL     OW 3028   1.719   0.585   9.279
  899SOL    HW1 3029   1.693   0.674   9.243
  899SOL    HW2 3030   1.717   0.517   9.206
  900SOL     OW 3031   1.362   1.144   7.993
  900SOL    HW1 3032   1.445   1.115   7.945
  900SOL    HW2 3033   1.313   1.211   7.937
  901SOL     OW 3034   0.550   0.196   8.333
  901SOL    HW1 3035   0.545   0.191   8.433
  901SOL    HW2 3036   0.552   0.292   8.304
  902SOL     OW 3037   1.008   1.456   7.925
  902SOL    HW1 3038   0.962   1.528   7.873
  902SOL    HW2 3039   1.004   1.476   8.023
  903SOL     OW 3040   0.351   1.801   8.301
  903SOL    HW1 3041   0.401   1.715   8.307
  903SOL    HW2 3042   0.416   1.878   8.298
  904SOL     OW 3043   1.795   1.066   8.321
  904SOL    HW1 3044   1.733   1.051   8.245
  904SOL    HW2 3045   1.743   1.077   8.406
  905SOL     OW 3046   1.227   1.550   8.954
  905SOL    HW1 3047   1.233   1.473   9.018
  905SOL    HW2 3048   1.175   1.524   8.874
  906SOL     OW 3049   0.321   0.943   7.690
  906SOL    HW1 3050   0.403   0.982   7.648
  906SOL    HW2 3051   0.294   0.861   7.641
  907SOL     OW 3052   1.458   0.735   8.176
  907SOL    HW1 3053   1.453   0.670   8.251
  907SOL    HW2 3054   1.538   0.794   8.189
  908SOL     OW 3055   0.461   1.266   9.175
  908SOL    HW1 3056   0.411   1.267   9.089
  908SOL    HW2 3057   0.398   1.248   9.251
  909SOL     OW 3058   1.111   1.776   7.685
  909SOL    HW1 3059   1.051   1.714   7.735
  909SOL    HW2 3060   1.142   1.732   7.600
  910SOL     OW 3061   0.202   0.285   8.946
  910SOL    HW1 3062   0.122   0.345   8.933
  910SOL    HW2 3063   0.192   0.236   9.032
  911SOL     OW 3064   1.632   1.377   7.529
  911SOL    HW1 3065   1.600   1.471   7.519
  911SOL    HW2 3066   1.556   1.314   7.517
  912SOL     OW 3067   0.464   1.743   7.771
  912SOL    HW1 3068   0.497   1.782   7.857
  912SOL    HW2 3069   0.540   1.736   7.706
  913SOL     OW 3070   1.400   0.107   7.874
  913SOL    HW1 3071   1.376   0.070   7.784
  913SOL    HW2 3072   1.499   0.123   7.878
  914SOL     OW 3073   0.249   1.785   8.689
  914SOL    HW1 3074   0.306   1.720   8.739
  914SOL    HW2 3075   0.233   1.752   8.596
  915SOL     OW 3076   0.940   1.698   8.352
  915SOL    HW1 3077   1.020   1.641   8.373
  915SOL    HW2 3078   0.891   1.658   8.275
  916SOL     OW 3079   0.382   0.700   7.928
  916SOL    HW1 3080   0.427   0.610   7.925
  916SOL    HW2 3081   0.288   0.689   7.961
  917SOL     OW 3082   1.547   0.222   9.177
  917SOL    HW1 3083   1.542   0.259   9.269
  917SOL    HW2 3084   1.475   0.153   9.165
  918SOL     OW 3085   0.614   0.122   7.565
  918SOL    HW1 3086   0.712   0.100   7.572
  918SOL    HW2 3087   0.583   0.105   7.472
  919SOL     OW 3088   0.781   0.264   9.197
  919SOL    HW1 3089   0.848   0.203   9.240
  919SOL    HW2 3090   0.708   0.283   9.262
  920SOL     OW 3091   0.888   1.514   8.643
  920SOL    HW1 3092   0.865   1.489   8.549
  920SOL    HW2 3093   0.949   1.445   8.682
  921SOL     OW 3094   1.351   0.590   8.881
  921SOL    HW1 3095   1.379   0.547   8.966
  921SOL    HW2 3096   1.376   0.686   8.882
  922SOL     OW 3097   0.803   1.402   8.372
  922SOL    HW1 3098   0.893   1.416   8.330
  922SOL    HW2 3099   0.732   1.404   8.301
  923SOL     OW 3100   0.922   0.503   8.347
  923SOL    HW1 3101   0.897   0.494   8.251
  923SOL    HW2 3102   0.970   0.421   8.378
  924SOL     OW 3103   0.539   0.064   7.960
  924SOL    HW1 3104   0.458   0.065   8.018
  924SOL    HW2 3105   0.542   0.147   7.905
  925SOL     OW 3106   1.434   1.188   7.489
  925SOL    HW1 3107   1.466   1.112   7.546
  925SOL    HW2 3108   1.342   1.215   7.519
  926SOL     OW 3109   0.297   0.035   7.619
  926SOL    HW1 3110   0.346   0.119   7.598
  926SOL    HW2 3111   0.359  -0.030   7.664
  927SOL     OW 3112   0.935   0.236   7.928
  927SOL    HW1 3113   0.887   0.277   7.850
  927SOL    HW2 3114   1.034   0.234   7.909
  928SOL     OW 3115   1.076   0.683   8.912
  928SOL    HW1 3116   0.996   0.622   8.915
  928SOL    HW2 3117   1.157   0.630   8.888
  929SOL     OW 3118   1.227   1.570   8.241
  929SOL    HW1 3119   1.248   1.644   8.176
  929SOL    HW2 3120   1.295   1.570   8.314
  930SOL     OW 3121   0.459   1.152   8.189
  930SOL    HW1 3122   0.388   1.125   8.254
  930SOL    HW2 3123   0.433   1.124   8.096
  931SOL     OW 3124   1.271   1.797   8.039
  931SOL    HW1 3125   1.315   1.861   7.975
  931SOL    HW2 3126   1.221   1.849   8.109
  932SOL     OW 3127   1.032   0.549   7.464
  932SOL    HW1 3128   0.991   0.631   7.425
  932SOL    HW2 3129   1.096   0.575   7.537
  933SOL     OW 3130   0.078   0.556   8.834
  933SOL    HW1 3131   0.170   0.555   8.793
  933SOL    HW2 3132   0.072   0.630   8.901
  934SOL     OW 3133   0.561   0.222   8.595
  934SOL    HW1 3134   0.599   0.138   8.632
  934SOL    HW2 3135   0.473   0.241   8.639
  935SOL     OW 3136   0.866   0.454   8.090
  935SOL    HW1 3137   0.834   0.526   8.028
  935SOL    HW2 3138   0.890   0.373   8.037
  936SOL     OW 3139   1.017   0.039   8.201
  936SOL    HW1 3140   0.945   0.044   8.132
  936SOL    HW2 3141   0.993  -0.030   8.270
  937SOL     OW 3142   1.429   1.173   8.315
  937SOL    HW1 3143   1.374   1.089   8.308
  937SOL    HW2 3144   1.455   1.202   8.223
  938SOL     OW 3145   1.466   0.590   8.440
  938SOL    HW1 3146   1.436   0.495   8.447
  938SOL    HW2 3147   1.539   0.606   8.506
  939SOL     OW 3148   1.857   0.833   7.825
  939SOL    HW1 3149   1.899   0.769   7.889
  939SOL    HW2 3150   1.819   0.782   7.747
  940SOL     OW 3151   0.488   1.385   7.622
  940SOL    HW1 3152   0.401   1.370   7.669
  940SOL    HW2 3153   0.471   1.411   7.527
  941SOL     OW 3154   1.664   1.280   8.105
  941SOL    HW1 3155   1.763   1.288   8.119
  941SOL    HW2 3156   1.619   1.364   8.136
  942SOL     OW 3157   1.390   0.575   7.526
  942SOL    HW1 3158   1.336   0.554   7.607
  942SOL    HW2 3159   1.481   0.534   7.535
  943SOL     OW 3160   0.527   0.256   7.776
  943SOL    HW1 3161   0.554   0.197   7.701
  943SOL    HW2 3162   0.527   0.351   7.745
  944SOL     OW 3163   1.754   1.223   9.036
  944SOL    HW1 3164   1.845   1.184   9.023
  944SOL    HW2 3165   1.762   1.319   9.060
  945SOL     OW 3166   1.064   1.347   8.788
  945SOL    HW1 3167   0.984   1.324   8.843
  945SOL    HW2 3168   1.147   1.321   8.837
  946SOL     OW 3169   1.592   1.629   9.073
  946SOL    HW1 3170   1.619   1.663   8.983
  946SOL    HW2 3171   1.671   1.591   9.119
  947SOL     OW 3172   1.111   1.195   8.548
  947SOL    HW1 3173   1.071   1.239   8.629
  947SOL    HW2 3174   1.070   1.232   8.465
  948SOL     OW 3175   1.638   1.099   8.527
  948SOL    HW1 3176   1.643   1.180   8.586
  948SOL    HW2 3177   1.552   1.101   8.476
  949SOL     OW 3178   0.915   0.089   8.850
  949SOL    HW1 3179   0.940   0.069   8.755
  949SOL    HW2 3180   0.987   0.145   8.892
  950SOL     OW 3181   0.980   1.116   9.167
  950SOL    HW1 3182   0.881   1.122   9.177
  950SOL    HW2 3183   1.003   1.036   9.111
  951SOL     OW 3184   0.705   1.050   7.816
  951SOL    HW1 3185   0.691   1.057   7.915
  951SOL    HW2 3186   0.789   0.999   7.798
  952SOL     OW 3187   0.410   0.813   8.699
  952SOL    HW1 3188   0.496   0.825   8.749
  952SOL    HW2 3189   0.368   0.726   8.726
  953SOL     OW 3190   1.274   0.386   8.710
  953SOL    HW1 3191   1.295   0.460   8.774
  953SOL    HW2 3192   1.185   0.403   8.667
  954SOL     OW 3193   0.064   1.564   8.779
  954SOL    HW1 3194   0.018   1.646   8.745
  954SOL    HW2 3195   0.162   1.583   8.788
  955SOL     OW 3196   0.367   1.100   7.949
  955SOL    HW1 3197   0.360   1.183   7.893
  955SOL    HW2 3198   0.371   1.020   7.889
  956SOL     OW 3199   0.566   0.537   8.313
  956SOL    HW1 3200   0.578   0.603   8.239
  956SOL    HW2 3201   0.612   0.571   8.396
  957SOL     OW 3202   1.252   1.348   7.836
  957SOL    HW1 3203   1.302   1.425   7.876
  957SOL    HW2 3204   1.157   1.350   7.868
  958SOL     OW 3205   1.272   1.445   8.590
  958SOL    HW1 3206   1.319   1.458   8.677
  958SOL    HW2 3207   1.206   1.371   8.599
  959SOL     OW 3208   1.582   0.639   7.920
  959SOL    HW1 3209   1.551   0.700   7.993
  959SOL    HW2 3210   1.632   0.691   7.851
  960SOL     OW 3211   0.354   1.510   8.777
  960SOL    HW1 3212   0.333   1.466   8.690
  960SOL    HW2 3213   0.451   1.536   8.780
  961SOL     OW 3214   0.402   0.751   9.046
  961SOL    HW1 3215   0.470   0.806   8.999
  961SOL    HW2 3216   0.442   0.663   9.073
  962SOL     OW 3217   1.587   0.779   9.118
  962SOL    HW1 3218   1.495   0.817   9.113
  962SOL    HW2 3219   1.647   0.826   9.053
  963SOL     OW 3220   1.013   0.105   9.218
  963SOL    HW1 3221   1.019   0.190   9.166
  963SOL    HW2 3222   1.045   0.029   9.161
  964SOL     OW 3223   0.504   0.050   9.188
  964SOL    HW1 3224   0.462  -0.007   9.118
  964SOL    HW2 3225   0.438   0.119   9.220
  965SOL     OW 3226   0.573   0.870   8.477
  965SOL    HW1 3227   0.617   0.959   8.468
  965SOL    HW2 3228   0.510   0.870   8.554
  966SOL     OW 3229   1.360   0.862   8.493
  966SOL    HW1 3230   1.285   0.862   8.427
  966SOL    HW2 3231   1.397   0.770   8.502
  967SOL     OW 3232   1.209   0.525   7.723
  967SOL    HW1 3233   1.222   0.441   7.777
  967SOL    HW2 3234   1.180   0.599   7.783
  968SOL     OW 3235   0.307   0.213   8.679
  968SOL    HW1 3236   0.284   0.250   8.769
  968SOL    HW2 3237   0.277   0.118   8.673
  969SOL     OW 3238   0.037   1.310   8.730
  969SOL    HW1 3239   0.090   1.261   8.798
  969SOL    HW2 3240   0.059   1.408   8.735
  970SOL     OW 3241   0.732   0.634   8.512
  970SOL    HW1 3242   0.791   0.608   8.436
  970SOL    HW2 3243   0.704   0.730   8.501
  971SOL     OW 3244   1.728   0.935   9.302
  971SOL    HW1 3245   1.682   0.928   9.213
  971SOL    HW2 3246   1.666   0.979   9.368
  972SOL     OW 3247   0.307   0.063   8.066
  972SOL    HW1 3248   0.296   0.157   8.099
  972SOL    HW2 3249   0.302   0.000   8.143
  973SOL     OW 3250   1.622   0.367   7.822
  973SOL    HW1 3251   1.624   0.291   7.886
  973SOL    HW2 3252   1.574   0.444   7.862
  974SOL     OW 3253   1.023   0.766   8.414
  974SOL    HW1 3254   1.038   0.787   8.510
  974SOL    HW2 3255   0.993   0.671   8.405
  975SOL     OW 3256   0.980   1.573   9.148
  975SOL    HW1 3257   0.960   1.617   9.060
  975SOL    HW2 3258   1.019   1.482   9.132
  976SOL     OW 3259   1.859   1.518   9.053
  976SOL    HW1 3260   1.873   1.545   8.958
  976SOL    HW2 3261   1.942   1.540   9.106
  977SOL     OW 3262   0.350   0.898   9.252
  977SOL    HW1 3263   0.426   0.942   9.300
  977SOL    HW2 3264   0.385   0.851   9.170
  978SOL     OW 3265   1.540   0.274   7.573
  978SOL    HW1 3266   1.479   0.199   7.596
  978SOL    HW2 3267   1.562   0.326   7.656
  979SOL     OW 3268   1.303   0.838   7.490
  979SOL    HW1 3269   1.337   0.745   7.505
  979SOL    HW2 3270   1.321   0.865   7.395
  980SOL     OW 3271   1.068   1.333   8.297
  980SOL    HW1 3272   1.075   1.249   8.242
  980SOL    HW2 3273   1.130   1.402   8.261
  981SOL     OW 3274   0.319   0.810   8.397
  981SOL    HW1 3275   0.412   0.846   8.402
  981SOL    HW2 3276   0.313   0.725   8.449
  982SOL     OW 3277   0.339   0.509   8.454
  982SOL    HW1 3278   0.287   0.426   8.437
  982SOL    HW2 3279   0.416   0.514   8.390
  983SOL     OW 3280   1.138   0.380   9.126
  983SOL    HW1 3281   1.093   0.443   9.190
  983SOL    HW2 3282   1.231   0.411   9.109
  984SOL     OW 3283   1.160   0.207   8.925
  984SOL    HW1 3284   1.160   0.271   9.002
  984SOL    HW2 3285   1.188   0.255   8.842
  985SOL     OW 3286   0.008   1.326   7.648
  985SOL    HW1 3287  -0.085   1.347   7.617
  985SOL    HW2 3288   0.018   1.227   7.661
  986SOL     OW 3289   0.088   1.801   8.375
  986SOL    HW1 3290   0.046   1.715   8.348
  986SOL    HW2 3291   0.182   1.804   8.341
  987SOL     OW 3292   0.504   1.568   8.358
  987SOL    HW1 3293   0.570   1.642   8.367
  987SOL    HW2 3294   0.548   1.489   8.316
  988SOL     OW 3295   1.002   0.796   8.686
  988SOL    HW1 3296   1.043   0.764   8.772
  988SOL    HW2 3297   0.906   0.769   8.683
  989SOL     OW 3298   0.040   0.544   8.562
  989SOL    HW1 3299   0.125   0.511   8.521
  989SOL    HW2 3300   0.053   0.559   8.660
  990SOL     OW 3301   0.189   0.520   9.170
  990SOL    HW1 3302   0.248   0.480   9.100
  990SOL    HW2 3303   0.131   0.591   9.129
  991SOL     OW 3304   1.369   0.950   9.108
  991SOL    HW1 3305   1.408   1.039   9.128
  991SOL    HW2 3306   1.379   0.930   9.011
  992SOL     OW 3307   0.815   0.572   7.773
  992SOL    HW1 3308   0.822   0.483   7.727
  992SOL    HW2 3309   0.721   0.606   7.765
  993SOL     OW 3310   1.657   0.604   8.654
  993SOL    HW1 3311   1.619   0.535   8.716
  993SOL    HW2 3312   1.739   0.568   8.610
  994SOL     OW 3313   0.252   1.564   9.192
  994SOL    HW1 3314   0.222   1.621   9.268
  994SOL    HW2 3315   0.245   1.467   9.218
  995SOL     OW 3316   0.671   0.464   8.717
  995SOL    HW1 3317   0.637   0.375   8.687
  995SOL    HW2 3318   0.697   0.518   8.637
  996SOL     OW 3319   0.930   1.678   8.913
  996SOL    HW1 3320   0.906   1.660   8.818
  996SOL    HW2 3321   0.960   1.772   8.923
  997SOL     OW 3322   0.473   0.500   7.639
  997SOL    HW1 3323   0.534   0.580   7.643
  997SOL    HW2 3324   0.378   0.531   7.646
  998SOL     OW 3325   0.159   1.137   8.914
  998SOL    HW1 3326   0.181   1.076   8.990
  998SOL    HW2 3327   0.169   1.088   8.828
  999SOL     OW 3328   1.347   1.059   8.682
  999SOL    HW1 3329   1.371   0.996   8.608
  999SOL    HW2 3330   1.257   1.099   8.664
 1000SOL     OW 3331   1.302   0.855   7.757
 1000SOL    HW1 3332   1.216   0.824   7.799
 1000SOL    HW2 3333   1.298   0.841   7.658
 1001SOL     OW 3334   1.759   1.747   8.602
 1001SOL    HW1 3335   1.820   1.777   8.529
 1001SOL    HW2 3336   1.721   1.658   8.580
 1002SOL     OW 3337   1.252   1.731   8.576
 1002SOL    HW1 3338   1.336   1.736   8.522
 1002SOL    HW2 3339   1.229   1.635   8.594
 1003SOL     OW 3340   0.083   1.258   8.470
 1003SOL    HW1 3341   0.078   1.257   8.570
 1003SOL    HW2 3342   0.000   1.217   8.432
 1004SOL     OW 3343   0.688   1.662   9.164
 1004SOL    HW1 3344   0.632   1.743   9.173
 1004SOL    HW2 3345   0.740   1.666   9.078
 1005SOL     OW 3346   1.726   0.135   7.971
 1005SOL    HW1 3347   1.799   0.118   7.904
 1005SOL    HW2 3348   1.695   0.048   8.009
 1006SOL     OW 3349   1.388   1.573   7.925
 1006SOL    HW1 3350   1.455   1.585   7.851
 1006SOL    HW2 3351   1.348   1.662   7.948
 1007SOL     OW 3352   0.130   1.794   9.299
 1007SOL    HW1 3353   0.089   1.720   9.352
 1007SOL    HW2 3354   0.194   1.845   9.357
 1008SOL     OW 3355   1.280   0.927   8.120
 1008SOL    HW1 3356   1.340   0.846   8.122
 1008SOL    HW2 3357   1.320   0.996   8.060
 1009SOL     OW 3358   0.830   1.273   8.870
 1009SOL    HW1 3359   0.825   1.306   8.965
 1009SOL    HW2 3360   0.744   1.292   8.824
 1010SOL     OW 3361   0.672   1.616   7.602
 1010SOL    HW1 3362   0.681   1.626   7.503
 1010SOL    HW2 3363   0.632   1.527   7.623
 1011SOL     OW 3364   1.650   1.720   8.842
 1011SOL    HW1 3365   1.703   1.730   8.758
 1011SOL    HW2 3366   1.623   1.810   8.876
 1012SOL     OW 3367   1.841   0.175   8.411
 1012SOL    HW1 3368   1.880   0.090   8.375
 1012SOL    HW2 3369   1.743   0.177   8.392
 1013SOL     OW 3370   0.263   0.326   8.168
 1013SOL    HW1 3371   0.184   0.377   8.134
 1013SOL    HW2 3372   0.254   0.311   8.266
 1014SOL     OW 3373   1.194   1.612   7.479
 1014SOL    HW1 3374   1.200   1.519   7.516
 1014SOL    HW2 3375   1.135   1.612   7.399
 1015SOL     OW 3376   0.822   1.002   8.820
 1015SOL    HW1 3377   0.862   1.001   8.728
 1015SOL    HW2 3378   0.832   1.094   8.860
 1016SOL     OW 3379   0.916   0.910   7.739
 1016SOL    HW1 3380   0.979   0.948   7.671
 1016SOL    HW2 3381   0.956   0.827   7.778
 1017SOL     OW 3382   1.504   1.607   7.492
 1017SOL    HW1 3383   1.412   1.644   7.499
 1017SOL    HW2 3384   1.542   1.627   7.402
 1018SOL     OW 3385   0.372   1.288   8.938
 1018SOL    HW1 3386   0.359   1.381   8.904
 1018SOL    HW2 3387   0.288   1.236   8.925
 1019SOL     OW 3388   1.614   1.292   8.737
 1019SOL    HW1 3389   1.674   1.295   8.817
 1019SOL    HW2 3390   1.539   1.356   8.750
 1020SOL     OW 3391   1.039   1.098   8.144
 1020SOL    HW1 3392   0.969   1.051   8.198
 1020SOL    HW2 3393   1.098   1.030   8.101
 1021SOL     OW 3394   1.014   0.236   8.419
 1021SOL    HW1 3395   1.006   0.200   8.326
 1021SOL    HW2 3396   1.012   0.160   8.484
 1022SOL     OW 3397   0.590   1.487   7.939
 1022SOL    HW1 3398   0.632   1.429   7.869
 1022SOL    HW2 3399   0.546   1.566   7.895
 1023SOL     OW 3400   1.709   0.385   8.829
 1023SOL    HW1 3401   1.782   0.454   8.833
 1023SOL    HW2 3402   1.737   0.310   8.770
 1024SOL     OW 3403   0.255   1.348   7.738
 1024SOL    HW1 3404   0.159   1.349   7.711
 1024SOL    HW2 3405   0.267   1.401   7.822
 1025SOL     OW 3406   0.105   1.013   9.174
 1025SOL    HW1 3407   0.028   0.980   9.228
 1025SOL    HW2 3408   0.190   0.983   9.216
 1026SOL     OW 3409   0.672   0.203   8.937
 1026SOL    HW1 3410   0.762   0.187   8.897
 1026SOL    HW2 3411   0.680   0.208   9.036
 1027SOL     OW 3412   0.075   0.345   7.481
 1027SOL    HW1 3413  -0.017   0.317   7.452
 1027SOL    HW2 3414   0.106   0.422   7.425
 1028SOL     OW 3415   1.440   0.856   8.846
 1028SOL    HW1 3416   1.383   0.908   8.783
 1028SOL    HW2 3417   1.536   0.868   8.822
 1029SOL     OW 3418   0.072   0.166   7.766
 1029SOL    HW1 3419   0.055   0.249   7.712
 1029SOL    HW2 3420   0.162   0.129   7.744
 1030SOL     OW 3421   1.183   1.335   7.567
 1030SOL    HW1 3422   1.084   1.324   7.569
 1030SOL    HW2 3423   1.217   1.350   7.660
 1031SOL     OW 3424   0.613   0.842   8.879
 1031SOL    HW1 3425   0.669   0.923   8.862
 1031SOL    HW2 3426   0.672   0.762   8.882
 1032SOL     OW 3427   1.493   1.767   8.407
 1032SOL    HW1 3428   1.526   1.831   8.338
 1032SOL    HW2 3429   1.559   1.761   8.482
 1033SOL     OW 3430   0.716   0.565   9.156
 1033SOL    HW1 3431   0.735   0.630   9.230
 1033SOL    HW2 3432   0.776   0.485   9.165
 1034SOL     OW 3433   1.450   1.220   9.081
 1034SOL    HW1 3434   1.441   1.210   9.180
 1034SOL    HW2 3435   1.546   1.213   9.055
 1035SOL     OW 3436   0.390   1.741   9.008
 1035SOL    HW1 3437   0.299   1.782   9.006
 1035SOL    HW2 3438   0.383   1.647   9.040
 1036SOL     OW 3439   1.674   0.883   8.702
 1036SOL    HW1 3440   1.647   0.794   8.665
 1036SOL    HW2 3441   1.675   0.951   8.629
 1037SOL     OW 3442   1.225   0.325   7.897
 1037SOL    HW1 3443   1.290   0.251   7.886
 1037SOL    HW2 3444   1.245   0.375   7.981
 1038SOL     OW 3445   0.594   0.745   8.100
 1038SOL    HW1 3446   0.644   0.830   8.081
 1038SOL    HW2 3447   0.506   0.747   8.052
 1039SOL     OW 3448   1.777   0.342   9.090
 1039SOL    HW1 3449   1.760   0.373   8.996
 1039SOL    HW2 3450   1.693   0.305   9.128
 1040SOL     OW 3451   1.730   0.934   8.965
 1040SOL    HW1 3452   1.768   1.025   8.980
 1040SOL    HW2 3453   1.722   0.917   8.866
 1041SOL     OW 3454   0.859   1.374   7.464
 1041SOL    HW1 3455   0.813   1.389   7.552
 1041SOL    HW2 3456   0.903   1.459   7.434
 1042SOL     OW 3457   0.661   1.790   8.401
 1042SOL    HW1 3458   0.615   1.878   8.388
 1042SOL    HW2 3459   0.760   1.802   8.394
 1043SOL     OW 3460   0.859   0.956   8.309
 1043SOL    HW1 3461   0.913   0.887   8.357
 1043SOL    HW2 3462   0.827   1.025   8.375
 1044SOL     OW 3463   1.083   0.984   7.535
 1044SOL    HW1 3464   1.060   1.037   7.453
 1044SOL    HW2 3465   1.164   0.928   7.516
 1045SOL     OW 3466   1.861   1.569   8.299
 1045SOL    HW1 3467   1.790   1.557   8.229
 1045SOL    HW2 3468   1.862   1.490   8.359
 1046SOL     OW 3469   0.221   1.314   9.292
 1046SOL    HW1 3470   0.156   1.241   9.271
 1046SOL    HW2 3471   0.225   1.328   9.390
 1047SOL     OW 3472   0.079   1.240   8.101
 1047SOL    HW1 3473   0.078   1.193   8.189
 1047SOL    HW2 3474   0.161   1.212   8.050
 1048SOL     OW 3475   0.672   1.391   9.072
 1048SOL    HW1 3476   0.594   1.341   9.110
 1048SOL    HW2 3477   0.669   1.486   9.103
 1049SOL     OW 3478   1.824   0.192   8.675
 1049SOL    HW1 3479   1.820   0.102   8.719
 1049SOL    HW2 3480   1.827   0.181   8.576
 1050SOL     OW 3481   0.428   0.424   7.968
 1050SOL    HW1 3482   0.458   0.352   7.906
 1050SOL    HW2 3483   0.389   0.384   8.051
 1051SOL     OW 3484   1.705   1.487   8.552
 1051SOL    HW1 3485   1.612   1.462   8.525
 1051SOL    HW2 3486   1.731   1.437   8.634
 1052SOL     OW 3487   0.317   0.547   8.728
 1052SOL    HW1 3488   0.355   0.488   8.800
 1052SOL    HW2 3489   0.357   0.521   8.640
 1053SOL     OW 3490   0.812   1.586   8.135
 1053SOL    HW1 3491   0.844   1.596   8.041
 1053SOL    HW2 3492   0.733   1.524   8.137
 1054SOL     OW 3493   1.424   0.214   8.560
 1054SOL    HW1 3494   1.476   0.149   8.615
 1054SOL    HW2 3495   1.375   0.277   8.621
 1055SOL     OW 3496   1.001   0.034   8.602
 1055SOL    HW1 3497   0.938  -0.038   8.571
 1055SOL    HW2 3498   1.094  -0.002   8.602
 1056SOL     OW 3499   0.770   1.330   7.749
 1056SOL    HW1 3500   0.724   1.243   7.766
 1056SOL    HW2 3501   0.861   1.327   7.790
 1057SOL     OW 3502   0.618   1.567   8.732
 1057SOL    HW1 3503   0.613   1.649   8.789
 1057SOL    HW2 3504   0.707   1.564   8.687
 1058SOL     OW 3505   1.352   0.052   7.616
 1058SOL    HW1 3506   1.387   0.011   7.532
 1058SOL    HW2 3507   1.262   0.014   7.636
 1059SOL     OW 3508   1.300   0.453   8.139
 1059SOL    HW1 3509   1.241   0.533   8.143
 1059SOL    HW2 3510   1.315   0.418   8.232
 1060SOL     OW 3511   1.593   0.221   8.330
 1060SOL    HW1 3512   1.509   0.220   8.384
 1060SOL    HW2 3513   1.595   0.304   8.274
 1061SOL     OW 3514   0.039   1.077   7.748
 1061SOL    HW1 3515   0.138   1.066   7.739
 1061SOL    HW2 3516  -0.001   0.991   7.780
 1062SOL     OW 3517   0.875   1.646   7.785
 1062SOL    HW1 3518   0.798   1.611   7.731
 1062SOL    HW2 3519   0.843   1.717   7.847
 1063SOL     OW 3520   0.230   0.628   9.423
 1063SOL    HW1 3521   0.137   0.626   9.460
 1063SOL    HW2 3522   0.231   0.589   9.331
 1064SOL     OW 3523   0.225   0.275  10.306
 1064SOL    HW1 3524   0.260   0.258  10.398
 1064SOL    HW2 3525   0.137   0.230  10.294
 1065SOL     OW 3526   0.019   0.368   9.957
 1065SOL    HW1 3527  -0.063   0.411   9.996
 1065SOL    HW2 3528  -0.009   0.295   9.894
 1066SOL     OW 3529   0.569   1.275  10.475
 1066SOL    HW1 3530   0.476   1.268  10.438
 1066SOL    HW2 3531   0.580   1.364  10.519
 1067SOL     OW 3532   1.555   1.511  10.013
 1067SOL    HW1 3533   1.498   1.495  10.094
 1067SOL    HW2 3534   1.496   1.521   9.933
 1068SOL     OW 3535   1.135   0.703  10.027
 1068SOL    HW1 3536   1.192   0.781  10.002
 1068SOL    HW2 3537   1.075   0.729  10.103
 1069SOL     OW 3538   1.755   0.607   9.541
 1069SOL    HW1 3539   1.743   0.594   9.442
 1069SOL    HW2 3540   1.725   0.526   9.590
 1070SOL     OW 3541   0.768   1.144  10.333
 1070SOL    HW1 3542   0.690   1.161  10.393
 1070SOL    HW2 3543   0.802   1.231  10.297
 1071SOL     OW 3544   0.685   1.012   9.975
 1071SOL    HW1 3545   0.754   0.996  10.045
 1071SOL    HW2 3546   0.612   1.069  10.013
 1072SOL     OW 3547   0.335   1.435  10.371
 1072SOL    HW1 3548   0.257   1.404  10.318
 1072SOL    HW2 3549   0.393   1.493  10.314
 1073SOL     OW 3550   0.438   0.392  10.809
 1073SOL    HW1 3551   0.520   0.336  10.818
 1073SOL    HW2 3552   0.357   0.334  10.813
 1074SOL     OW 3553   1.603   0.447  10.047
 1074SOL    HW1 3554   1.529   0.493   9.997
 1074SOL    HW2 3555   1.654   0.515  10.100
 1075SOL     OW 3556   0.231   1.713   9.793
 1075SOL    HW1 3557   0.265   1.790   9.847
 1075SOL    HW2 3558   0.275   1.713   9.703
 1076SOL     OW 3559   0.230   1.434   9.848
 1076SOL    HW1 3560   0.204   1.530   9.848
 1076SOL    HW2 3561   0.159   1.380   9.893
 1077SOL     OW 3562   0.240   1.091  10.196
 1077SOL    HW1 3563   0.254   1.007  10.248
 1077SOL    HW2 3564   0.185   1.155  10.251
 1078SOL     OW 3565   0.620   1.786  10.749
 1078SOL    HW1 3566   0.528   1.769  10.784
 1078SOL    HW2 3567   0.648   1.878  10.775
 1079SOL     OW 3568   0.606   0.964   9.433
 1079SOL    HW1 3569   0.613   1.048   9.379
 1079SOL    HW2 3570   0.652   0.977   9.521
 1080SOL     OW 3571   0.122   0.643   9.873
 1080SOL    HW1 3572   0.077   0.555   9.890
 1080SOL    HW2 3573   0.121   0.697   9.957
 1081SOL     OW 3574   1.842   1.767   9.669
 1081SOL    HW1 3575   1.896   1.738   9.749
 1081SOL    HW2 3576   1.872   1.857   9.640
 1082SOL     OW 3577   0.027   1.596   9.427
 1082SOL    HW1 3578   0.008   1.500   9.448
 1082SOL    HW2 3579  -0.006   1.654   9.502
 1083SOL     OW 3580   1.689   0.922   9.922
 1083SOL    HW1 3581   1.784   0.893   9.930
 1083SOL    HW2 3582   1.681   0.987   9.847
 1084SOL     OW 3583   1.641   1.108   9.742
 1084SOL    HW1 3584   1.727   1.110   9.690
 1084SOL    HW2 3585   1.655   1.155   9.830
 1085SOL     OW 3586   0.613   1.365  10.036
 1085SOL    HW1 3587   0.564   1.278  10.045
 1085SOL    HW2 3588   0.590   1.408   9.949
 1086SOL     OW 3589   0.809   0.004   9.812
 1086SOL    HW1 3590   0.849   0.095   9.803
 1086SOL    HW2 3591   0.709   0.012   9.818
 1087SOL     OW 3592   0.197   0.976  10.574
 1087SOL    HW1 3593   0.286   0.931  10.560
 1087SOL    HW2 3594   0.124   0.911  10.555
 1088SOL     OW 3595   1.525   0.999   9.500
 1088SOL    HW1 3596   1.462   0.923   9.513
 1088SOL    HW2 3597   1.573   1.017   9.586
 1089SOL     OW 3598   1.466   1.417  10.263
 1089SOL    HW1 3599   1.407   1.423  10.343
 1089SOL    HW2 3600   1.451   1.329  10.217
 1090SOL     OW 3601   1.667   1.714   9.882
 1090SOL    HW1 3602   1.626   1.691   9.794
 1090SOL    HW2 3603   1.649   1.640   9.947
 1091SOL     OW 3604   0.598   0.729   9.580
 1091SOL    HW1 3605   0.622   0.798   9.512
 1091SOL    HW2 3606   0.520   0.762   9.634
 1092SOL     OW 3607   1.281   0.345  10.254
 1092SOL    HW1 3608   1.195   0.295  10.241
 1092SOL    HW2 3609   1.343   0.291  10.310
 1093SOL     OW 3610   1.576   1.662   9.617
 1093SOL    HW1 3611   1.665   1.708   9.620
 1093SOL    HW2 3612   1.555   1.638   9.522
 1094SOL     OW 3613   0.807   0.605  10.775
 1094SOL    HW1 3614   0.760   0.602  10.864
 1094SOL    HW2 3615   0.756   0.550  10.709
 1095SOL     OW 3616   0.991   0.410  10.552
 1095SOL    HW1 3617   0.914   0.444  10.606
 1095SOL    HW2 3618   0.957   0.359  10.473
 1096SOL     OW 3619   1.041   0.701   9.739
 1096SOL    HW1 3620   1.067   0.697   9.835
 1096SOL    HW2 3621   0.956   0.650   9.725
 1097SOL     OW 3622   0.076   0.811  10.099
 1097SOL    HW1 3623   0.175   0.799  10.108
 1097SOL    HW2 3624   0.052   0.906  10.120
 1098SOL     OW 3625   0.130   1.821  10.881
 1098SOL    HW1 3626   0.120   1.806  10.980
 1098SOL    HW2 3627   0.044   1.857  10.845
 1099SOL     OW 3628   0.865   0.348   9.505
 1099SOL    HW1 3629   0.924   0.411   9.456
 1099SOL    HW2 3630   0.884   0.254   9.476
 1100SOL     OW 3631   1.362   1.144   9.855
 1100SOL    HW1 3632   1.445   1.115   9.807
 1100SOL    HW2 3633   1.313   1.211   9.799
 1101SOL     OW 3634   0.550   0.196  10.195
 1101SOL    HW1 3635   0.545   0.191  10.295
 1101SOL    HW2 3636   0.552   0.292  10.166
 1102SOL     OW 3637   1.008   1.456   9.787
 1102SOL    HW1 3638   0.962   1.528   9.735
 1102SOL    HW2 3639   1.004   1.476   9.885
 1103SOL     OW 3640   0.351   1.801  10.163
 1103SOL    HW1 3641   0.401   1.715  10.169
 1103SOL    HW2 3642   0.416   1.878  10.160
 1104SOL     OW 3643   1.795   1.066  10.183
 1104SOL    HW1 3644   1.733   1.051  10.107
 1104SOL    HW2 3645   1.743   1.077  10.268
 1105SOL     OW 3646   0.321   0.943   9.552
 1105SOL    HW1 3647   0.403   0.982   9.510
 1105SOL    HW2 3648   0.294   0.861   9.503
 1106SOL     OW 3649   1.458   0.735  10.038
 1106SOL    HW1 3650   1.453   0.670  10.113
 1106SOL    HW2 3651   1.538   0.794  10.051
 1107SOL     OW 3652   1.111   1.776   9.547
 1107SOL    HW1 3653   1.051   1.714   9.597
 1107SOL    HW2 3654   1.142   1.732   9.462
 1108SOL     OW 3655   1.632   1.377   9.391
 1108SOL    HW1 3656   1.600   1.471   9.381
 1108SOL    HW2 3657   1.556   1.314   9.379
 1109SOL     OW 3658   0.464   1.743   9.633
 1109SOL    HW1 3659   0.497   1.782   9.719
 1109SOL    HW2 3660   0.540   1.736   9.568
 1110SOL     OW 3661   1.400   0.107   9.736
 1110SOL    HW1 3662   1.376   0.070   9.646
 1110SOL    HW2 3663   1.499   0.123   9.740
 1111SOL     OW 3664   0.249   1.785  10.551
 1111SOL    HW1 3665   0.306   1.720  10.601
 1111SOL    HW2 3666   0.233   1.752  10.458
 1112SOL     OW 3667   0.940   1.698  10.214
 1112SOL    HW1 3668   1.020   1.641  10.235
 1112SOL    HW2 3669   0.891   1.658  10.137
 1113SOL     OW 3670   0.382   0.700   9.790
 1113SOL    HW1 3671   0.427   0.610   9.787
 1113SOL    HW2 3672   0.288   0.689   9.823
 1114SOL     OW 3673   0.614   0.122   9.427
 1114SOL    HW1 3674   0.712   0.100   9.434
 1114SOL    HW2 3675   0.583   0.105   9.334
 1115SOL     OW 3676   0.888   1.514  10.505
 1115SOL    HW1 3677   0.865   1.489  10.411
 1115SOL    HW2 3678   0.949   1.445  10.544
 1116SOL     OW 3679   0.803   1.402  10.234
 1116SOL    HW1 3680   0.893   1.416  10.192
 1116SOL    HW2 3681   0.732   1.404  10.163
 1117SOL     OW 3682   0.922   0.503  10.209
 1117SOL    HW1 3683   0.897   0.494  10.113
 1117SOL    HW2 3684   0.970   0.421  10.240
 1118SOL     OW 3685   0.539   0.064   9.822
 1118SOL    HW1 3686   0.458   0.065   9.880
 1118SOL    HW2 3687   0.542   0.147   9.767
 1119SOL     OW 3688   1.434   1.188   9.351
 1119SOL    HW1 3689   1.466   1.112   9.408
 1119SOL    HW2 3690   1.342   1.215   9.381
 1120SOL     OW 3691   0.297   0.035   9.481
 1120SOL    HW1 3692   0.346   0.119   9.460
 1120SOL    HW2 3693   0.359  -0.030   9.526
 1121SOL     OW 3694   0.935   0.236   9.790
 1121SOL    HW1 3695   0.887   0.277   9.712
 1121SOL    HW2 3696   1.034   0.234   9.771
 1122SOL     OW 3697   1.227   1.570  10.103
 1122SOL    HW1 3698   1.248   1.644  10.038
 1122SOL    HW2 3699   1.295   1.570  10.176
 1123SOL     OW 3700   0.459   1.152  10.051
 1123SOL    HW1 3701   0.388   1.125  10.116
 1123SOL    HW2 3702   0.433   1.124   9.958
 1124SOL     OW 3703   1.271   1.797   9.901
 1124SOL    HW1 3704   1.315   1.861   9.837
 1124SOL    HW2 3705   1.221   1.849   9.971
 1125SOL     OW 3706   1.032   0.549   9.326
 1125SOL    HW1 3707   0.991   0.631   9.287
 1125SOL    HW2 3708   1.096   0.575   9.399
 1126SOL     OW 3709   0.561   0.222  10.457
 1126SOL    HW1 3710   0.599   0.138  10.494
 1126SOL    HW2 3711   0.473   0.241  10.501
 1127SOL     OW 3712   0.866   0.454   9.952
 1127SOL    HW1 3713   0.834   0.526   9.890
 1127SOL    HW2 3714   0.890   0.373   9.899
 1128SOL     OW 3715   1.017   0.039  10.063
 1128SOL    HW1 3716   0.945   0.044   9.994
 1128SOL    HW2 3717   0.993  -0.030  10.132
 1129SOL     OW 3718   1.429   1.173  10.177
 1129SOL    HW1 3719   1.374   1.089  10.170
 1129SOL    HW2 3720   1.455   1.202  10.085
 1130SOL     OW 3721   1.466   0.590  10.302
 1130SOL    HW1 3722   1.436   0.495  10.309
 1130SOL    HW2 3723   1.539   0.606  10.368
 1131SOL     OW 3724   1.857   0.833   9.687
 1131SOL    HW1 3725   1.899   0.769   9.751
 1131SOL    HW2 3726   1.819   0.782   9.609
 1132SOL     OW 3727   0.488   1.385   9.484
 1132SOL    HW1 3728   0.401   1.370   9.531
 1132SOL    HW2 3729   0.471   1.411   9.389
 1133SOL     OW 3730   1.664   1.280   9.967
 1133SOL    HW1 3731   1.763   1.288   9.981
 1133SOL    HW2 3732   1.619   1.364   9.998
 1134SOL     OW 3733   1.390   0.575   9.388
 1134SOL    HW1 3734   1.336   0.554   9.469
 1134SOL    HW2 3735   1.481   0.534   9.397
 1135SOL     OW 3736   0.527   0.256   9.638
 1135SOL    HW1 3737   0.554   0.197   9.563
 1135SOL    HW2 3738   0.527   0.351   9.607
 1136SOL     OW 3739   1.064   1.347  10.650
 1136SOL    HW1 3740   0.984   1.324  10.705
 1136SOL    HW2 3741   1.147   1.321  10.699
 1137SOL     OW 3742   1.111   1.195  10.410
 1137SOL    HW1 3743   1.071   1.239  10.491
 1137SOL    HW2 3744   1.070   1.232  10.327
 1138SOL     OW 3745   1.638   1.099  10.389
 1138SOL    HW1 3746   1.643   1.180  10.448
 1138SOL    HW2 3747   1.552   1.101  10.338
 1139SOL     OW 3748   0.705   1.050   9.678
 1139SOL    HW1 3749   0.691   1.057   9.777
 1139SOL    HW2 3750   0.789   0.999   9.660
 1140SOL     OW 3751   0.410   0.813  10.561
 1140SOL    HW1 3752   0.496   0.825  10.611
 1140SOL    HW2 3753   0.368   0.726  10.588
 1141SOL     OW 3754   1.274   0.386  10.572
 1141SOL    HW1 3755   1.295   0.460  10.636
 1141SOL    HW2 3756   1.185   0.403  10.529
 1142SOL     OW 3757   0.064   1.564  10.641
 1142SOL    HW1 3758   0.018   1.646  10.607
 1142SOL    HW2 3759   0.162   1.583  10.650
 1143SOL     OW 3760   0.367   1.100   9.811
 1143SOL    HW1 3761   0.360   1.183   9.755
 1143SOL    HW2 3762   0.371   1.020   9.751
 1144SOL     OW 3763   0.566   0.537  10.175
 1144SOL    HW1 3764   0.578   0.603  10.101
 1144SOL    HW2 3765   0.612   0.571  10.258
 1145SOL     OW 3766   1.252   1.348   9.698
 1145SOL    HW1 3767   1.302   1.425   9.738
 1145SOL    HW2 3768   1.157   1.350   9.730
 1146SOL     OW 3769   1.272   1.445  10.452
 1146SOL    HW1 3770   1.319   1.458  10.539
 1146SOL    HW2 3771   1.206   1.371  10.461
 1147SOL     OW 3772   1.582   0.639   9.782
 1147SOL    HW1 3773   1.551   0.700   9.855
 1147SOL    HW2 3774   1.632   0.691   9.713
 1148SOL     OW 3775   0.354   1.510  10.639
 1148SOL    HW1 3776   0.333   1.466  10.552
 1148SOL    HW2 3777   0.451   1.536  10.642
 1149SOL     OW 3778   0.573   0.870  10.339
 1149SOL    HW1 3779   0.617   0.959  10.330
 1149SOL    HW2 3780   0.510   0.870  10.416
 1150SOL     OW 3781   1.360   0.862  10.355
 1150SOL    HW1 3782   1.285   0.862  10.289
 1150SOL    HW2 3783   1.397   0.770  10.364
 1151SOL     OW 3784   1.209   0.525   9.585
 1151SOL    HW1 3785   1.222   0.441   9.639
 1151SOL    HW2 3786   1.180   0.599   9.645
 1152SOL     OW 3787   0.307   0.213  10.541
 1152SOL    HW1 3788   0.284   0.250  10.631
 1152SOL    HW2 3789   0.277   0.118  10.535
 1153SOL     OW 3790   0.037   1.310  10.592
 1153SOL    HW1 3791   0.090   1.261  10.660
 1153SOL    HW2 3792   0.059   1.408  10.597
 1154SOL     OW 3793   0.732   0.634  10.374
 1154SOL    HW1 3794   0.791   0.608  10.298
 1154SOL    HW2 3795   0.704   0.730  10.363
 1155SOL     OW 3796   0.307   0.063   9.928
 1155SOL    HW1 3797   0.296   0.157   9.961
 1155SOL    HW2 3798   0.302   0.000  10.005
 1156SOL     OW 3799   1.622   0.367   9.684
 1156SOL    HW1 3800   1.624   0.291   9.748
 1156SOL    HW2 3801   1.574   0.444   9.724
 1157SOL     OW 3802   1.023   0.766  10.276
 1157SOL    HW1 3803   1.038   0.787  10.372
 1157SOL    HW2 3804   0.993   0.671  10.267
 1158SOL     OW 3805   1.540   0.274   9.435
 1158SOL    HW1 3806   1.479   0.199   9.458
 1158SOL    HW2 3807   1.562   0.326   9.518
 1159SOL     OW 3808   1.303   0.838   9.352
 1159SOL    HW1 3809   1.337   0.745   9.367
 1159SOL    HW2 3810   1.321   0.865   9.257
 1160SOL     OW 3811   1.068   1.333  10.159
 1160SOL    HW1 3812   1.075   1.249  10.104
 1160SOL    HW2 3813   1.130   1.402  10.123
 1161SOL     OW 3814   0.319   0.810  10.259
 1161SOL    HW1 3815   0.412   0.846  10.264
 1161SOL    HW2 3816   0.313   0.725  10.311
 1162SOL     OW 3817   0.339   0.509  10.316
 1162SOL    HW1 3818   0.287   0.426  10.299
 1162SOL    HW2 3819   0.416   0.514  10.252
 1163SOL     OW 3820   1.160   0.207  10.787
 1163SOL    HW1 3821   1.160   0.271  10.864
 1163SOL    HW2 3822   1.188   0.255  10.704
 1164SOL     OW 3823   0.008   1.326   9.510
 1164SOL    HW1 3824  -0.085   1.347   9.479
 1164SOL    HW2 3825   0.018   1.227   9.523
 1165SOL     OW 3826   0.088   1.801  10.237
 1165SOL    HW1 3827   0.046   1.715  10.210
 1165SOL    HW2 3828   0.182   1.804  10.203
 1166SOL     OW 3829   0.504   1.568  10.220
 1166SOL    HW1 3830   0.570   1.642  10.229
 1166SOL    HW2 3831   0.548   1.489  10.178
 1167SOL     OW 3832   1.002   0.796  10.548
 1167SOL    HW1 3833   1.043   0.764  10.634
 1167SOL    HW2 3834   0.906   0.769  10.545
 1168SOL     OW 3835   0.040   0.544  10.424
 1168SOL    HW1 3836   0.125   0.511  10.383
 1168SOL    HW2 3837   0.053   0.559  10.522
 1169SOL     OW 3838   0.815   0.572   9.635
 1169SOL    HW1 3839   0.822   0.483   9.589
 1169SOL    HW2 3840   0.721   0.606   9.627
 1170SOL     OW 3841   1.657   0.604  10.516
 1170SOL    HW1 3842   1.619   0.535  10.578
 1170SOL    HW2 3843   1.739   0.568  10.472
 1171SOL     OW 3844   0.671   0.464  10.579
 1171SOL    HW1 3845   0.637   0.375  10.549
 1171SOL    HW2 3846   0.697   0.518  10.499
 1172SOL     OW 3847   0.930   1.678  10.775
 1172SOL    HW1 3848   0.906   1.660  10.680
 1172SOL    HW2 3849   0.960   1.772  10.785
 1173SOL     OW 3850   0.473   0.500   9.501
 1173SOL    HW1 3851   0.534   0.580   9.505
 1173SOL    HW2 3852   0.378   0.531   9.508
 1174SOL     OW 3853   0.159   1.137  10.776
 1174SOL    HW1 3854   0.181   1.076  10.852
 1174SOL    HW2 3855   0.169   1.088  10.690
 1175SOL     OW 3856   1.347   1.059  10.544
 1175SOL    HW1 3857   1.371   0.996  10.470
 1175SOL    HW2 3858   1.257   1.099  10.526
 1176SOL     OW 3859   1.302   0.855   9.619
 1176SOL    HW1 3860   1.216   0.824   9.661
 1176SOL    HW2 3861   1.298   0.841   9.520
 1177SOL     OW 3862   1.759   1.747  10.464
 1177SOL    HW1 3863   1.820   1.777  10.391
 1177SOL    HW2 3864   1.721   1.658  10.442
 1178SOL     OW 3865   1.252   1.731  10.438
 1178SOL    HW1 3866   1.336   1.736  10.384
 1178SOL    HW2 3867   1.229   1.635  10.456
 1179SOL     OW 3868   0.083   1.258  10.332
 1179SOL    HW1 3869   0.078   1.257  10.432
 1179SOL    HW2 3870   0.000   1.217  10.294
 1180SOL     OW 3871   1.726   0.135   9.833
 1180SOL    HW1 3872   1.799   0.118   9.766
 1180SOL    HW2 3873   1.695   0.048   9.871
 1181SOL     OW 3874   1.388   1.573   9.787
 1181SOL    HW1 3875   1.455   1.585   9.713
 1181SOL    HW2 3876   1.348   1.662   9.810
 1182SOL     OW 3877   1.280   0.927   9.982
 1182SOL    HW1 3878   1.340   0.846   9.984
 1182SOL    HW2 3879   1.320   0.996   9.922
 1183SOL     OW 3880   0.672   1.616   9.464
 1183SOL    HW1 3881   0.681   1.626   9.365
 1183SOL    HW2 3882   0.632   1.527   9.485
 1184SOL     OW 3883   1.841   0.175  10.273
 1184SOL    HW1 3884   1.880   0.090  10.237
 1184SOL    HW2 3885   1.743   0.177  10.254
 1185SOL     OW 3886   0.263   0.326  10.030
 1185SOL    HW1 3887   0.184   0.377   9.996
 1185SOL    HW2 3888   0.254   0.311  10.128
 1186SOL     OW 3889   1.194   1.612   9.341
 1186SOL    HW1 3890   1.200   1.519   9.378
 1186SOL    HW2 3891   1.135   1.612   9.261
 1187SOL     OW 3892   0.822   1.002  10.682
 1187SOL    HW1 3893   0.862   1.001  10.590
 1187SOL    HW2 3894   0.832   1.094  10.722
 1188SOL     OW 3895   0.916   0.910   9.601
 1188SOL    HW1 3896   0.979   0.948   9.533
 1188SOL    HW2 3897   0.956   0.827   9.640
 1189SOL     OW 3898   1.504   1.607   9.354
 1189SOL    HW1 3899   1.412   1.644   9.361
 1189SOL    HW2 3900   1.542   1.627   9.264
 1190SOL     OW 3901   0.372   1.288  10.800
 1190SOL    HW1 3902   0.359   1.381  10.766
 1190SOL    HW2 3903   0.288   1.236  10.787
 1191SOL     OW 3904   1.614   1.292  10.599
 1191SOL    HW1 3905   1.674   1.295  10.679
 1191SOL    HW2 3906   1.539   1.356  10.612
 1192SOL     OW 3907   1.039   1.098  10.006
 1192SOL    HW1 3908   0.969   1.051  10.060
 1192SOL    HW2 3909   1.098   1.030   9.963
 1193SOL     OW 3910   1.014   0.236  10.281
 1193SOL    HW1 3911   1.006   0.200  10.188
 1193SOL    HW2 3912   1.012   0.160  10.346
 1194SOL     OW 3913   0.590   1.487   9.801
 1194SOL    HW1 3914   0.632   1.429   9.731
 1194SOL    HW2 3915   0.546   1.566   9.757
 1195SOL     OW 3916   1.709   0.385  10.691
 1195SOL    HW1 3917   1.782   0.454  10.695
 1195SOL    HW2 3918   1.737   0.310  10.632
 1196SOL     OW 3919   0.255   1.348   9.600
 1196SOL    HW1 3920   0.159   1.349   9.573
 1196SOL    HW2 3921   0.267   1.401   9.684
 1197SOL     OW 3922   0.075   0.345   9.343
 1197SOL    HW1 3923  -0.017   0.317   9.314
 1197SOL    HW2 3924   0.106   0.422   9.287
 1198SOL     OW 3925   0.072   0.166   9.628
 1198SOL    HW1 3926   0.055   0.249   9.574
 1198SOL    HW2 3927   0.162   0.129   9.606
 1199SOL     OW 3928   1.183   1.335   9.429
 1199SOL    HW1 3929   1.084   1.324   9.431
 1199SOL    HW2 3930   1.217   1.350   9.522
 1200SOL     OW 3931   0.613   0.842  10.741
 1200SOL    HW1 3932   0.669   0.923  10.724
 1200SOL    HW2 3933   0.672   0.762  10.744
 1201SOL     OW 3934   1.493   1.767  10.269
 1201SOL    HW1 3935   1.526   1.831  10.200
 1201SOL    HW2 3936   1.559   1.761  10.344
 1202SOL     OW 3937   0.390   1.741  10.870
 1202SOL    HW1 3938   0.299   1.782  10.868
 1202SOL    HW2 3939   0.383   1.647  10.902
 1203SOL     OW 3940   1.674   0.883  10.564
 1203SOL    HW1 3941   1.647   0.794  10.527
 1203SOL    HW2 3942   1.675   0.951  10.491
 1204SOL     OW 3943   1.225   0.325   9.759
 1204SOL    HW1 3944   1.290   0.251   9.748
 1204SOL    HW2 3945   1.245   0.375   9.843
 1205SOL     OW 3946   0.594   0.745   9.962
 1205SOL    HW1 3947   0.644   0.830   9.943
 1205SOL    HW2 3948   0.506   0.747   9.914
 1206SOL     OW 3949   1.730   0.934  10.827
 1206SOL    HW1 3950   1.768   1.025  10.842
 1206SOL    HW2 3951   1.722   0.917  10.728
 1207SOL     OW 3952   0.859   1.374   9.326
 1207SOL    HW1 3953   0.813   1.389   9.414
 1207SOL    HW2 3954   0.903   1.459   9.296
 1208SOL     OW 3955   0.661   1.790  10.263
 1208SOL    HW1 3956   0.615   1.878  10.250
 1208SOL    HW2 3957   0.760   1.802  10.256
 1209SOL     OW 3958   0.859   0.956  10.171
 1209SOL    HW1 3959   0.913   0.887  10.219
 1209SOL    HW2 3960   0.827   1.025  10.237
 1210SOL     OW 3961   1.083   0.984   9.397
 1210SOL    HW1 3962   1.060   1.037   9.315
 1210SOL    HW2 3963   1.164   0.928   9.378
 1211SOL     OW 3964   1.861   1.569  10.161
 1211SOL    HW1 3965   1.790   1.557  10.091
 1211SOL    HW2 3966   1.862   1.490  10.221
 1212SOL     OW 3967   0.079   1.240   9.963
 1212SOL    HW1 3968   0.078   1.193  10.051
 1212SOL    HW2 3969   0.161   1.212   9.912
 1213SOL     OW 3970   1.824   0.192  10.537
 1213SOL    HW1 3971   1.820   0.102  10.581
 1213SOL    HW2 3972   1.827   0.181  10.438
 1214SOL     OW 3973   0.428   0.424   9.830
 1214SOL    HW1 3974   0.458   0.352   9.768
 1214SOL    HW2 3975   0.389   0.384   9.913
 1215SOL     OW 3976   1.705   1.487  10.414
 1215SOL    HW1 3977   1.612   1.462  10.387
 1215SOL    HW2 3978   1.731   1.437  10.496
 1216SOL     OW 3979   0.317   0.547  10.590
 1216SOL    HW1 3980   0.355   0.488  10.662
 1216SOL    HW2 3981   0.357   0.521  10.502
 1217SOL     OW 3982   0.812   1.586   9.997
 1217SOL    HW1 3983   0.844   1.596   9.903
 1217SOL    HW2 3984   0.733   1.524   9.999
 1218SOL     OW 3985   1.424   0.214  10.422
 1218SOL    HW1 3986   1.476   0.149  10.477
 1218SOL    HW2 3987   1.375   0.277  10.483
 1219SOL     OW 3988   1.001   0.034  10.464
 1219SOL    HW1 3989   0.938  -0.038  10.433
 1219SOL    HW2 3990   1.094  -0.002  10.464
 1220SOL     OW 3991   0.770   1.330   9.611
 1220SOL    HW1 3992   0.724   1.243   9.628
 1220SOL    HW2 3993   0.861   1.327   9.652
 1221SOL     OW 3994   0.618   1.567  10.594
 1221SOL    HW1 3995   0.613   1.649  10.651
 1221SOL    HW2 3996   0.707   1.564  10.549
 1222SOL     OW 3997   1.352   0.052   9.478
 1222SOL    HW1 3998   1.387   0.011   9.394
 1222SOL    HW2 3999   1.262   0.014   9.498
 1223SOL     OW 4000   1.300   0.453  10.001
 1223SOL    HW1 4001   1.241   0.533  10.005
 1223SOL    HW2 4002   1.315   0.418  10.094
 1224SOL     OW 4003   1.593   0.221  10.192
 1224SOL    HW1 4004   1.509   0.220  10.246
 1224SOL    HW2 4005   1.595   0.304  10.136
 1225SOL     OW 4006   0.039   1.077   9.610
 1225SOL    HW1 4007   0.138   1.066   9.601
 1225SOL    HW2 4008  -0.001   0.991   9.642
 1226SOL     OW 4009   0.875   1.646   9.647
 1226SOL    HW1 4010   0.798   1.611   9.593
 1226SOL    HW2 4011   0.843   1.717   9.709
 1227SOL     OW 4012   0.230   2.490   0.113
 1227SOL    HW1 4013   0.137   2.488   0.150
 1227SOL    HW2 4014   0.231   2.451   0.021
 1228SOL     OW 4015   0.225   2.137   0.996
 1228SOL    HW1 4016   0.260   2.120   1.088
 1228SOL    HW2 4017   0.137   2.092   0.984
 1229SOL     OW 4018   0.019   2.230   0.647
 1229SOL    HW1 4019  -0.063   2.273   0.686
 1229SOL    HW2 4020  -0.009   2.157   0.584
 1230SOL     OW 4021   0.569   3.137   1.165
 1230SOL    HW1 4022   0.476   3.130   1.128
 1230SOL    HW2 4023   0.580   3.226   1.209
 1231SOL     OW 4024   1.555   3.373   0.703
 1231SOL    HW1 4025   1.498   3.357   0.784
 1231SOL    HW2 4026   1.496   3.383   0.623
 1232SOL     OW 4027   1.135   2.565   0.717
 1232SOL    HW1 4028   1.192   2.643   0.692
 1232SOL    HW2 4029   1.075   2.591   0.793
 1233SOL     OW 4030   1.755   2.469   0.231
 1233SOL    HW1 4031   1.743   2.456   0.132
 1233SOL    HW2 4032   1.725   2.388   0.280
 1234SOL     OW 4033   0.768   3.006   1.023
 1234SOL    HW1 4034   0.690   3.023   1.083
 1234SOL    HW2 4035   0.802   3.093   0.987
 1235SOL     OW 4036   0.850   2.660   1.823
 1235SOL    HW1 4037   0.846   2.736   1.888
 1235SOL    HW2 4038   0.872   2.696   1.732
 1236SOL     OW 4039   0.685   2.874   0.665
 1236SOL    HW1 4040   0.754   2.858   0.735
 1236SOL    HW2 4041   0.612   2.931   0.703
 1237SOL     OW 4042   0.686   3.023   1.803
 1237SOL    HW1 4043   0.746   3.102   1.817
 1237SOL    HW2 4044   0.600   3.054   1.762
 1238SOL     OW 4045   0.335   3.297   1.061
 1238SOL    HW1 4046   0.257   3.266   1.008
 1238SOL    HW2 4047   0.393   3.355   1.004
 1239SOL     OW 4048   1.460   3.367   1.339
 1239SOL    HW1 4049   1.484   3.461   1.365
 1239SOL    HW2 4050   1.444   3.313   1.421
 1240SOL     OW 4051   0.438   2.254   1.499
 1240SOL    HW1 4052   0.520   2.198   1.508
 1240SOL    HW2 4053   0.357   2.196   1.503
 1241SOL     OW 4054   1.603   2.309   0.737
 1241SOL    HW1 4055   1.529   2.355   0.687
 1241SOL    HW2 4056   1.654   2.377   0.790
 1242SOL     OW 4057   0.231   3.575   0.483
 1242SOL    HW1 4058   0.265   3.652   0.537
 1242SOL    HW2 4059   0.275   3.575   0.393
 1243SOL     OW 4060   1.127   3.203   1.690
 1243SOL    HW1 4061   1.174   3.203   1.778
 1243SOL    HW2 4062   1.079   3.116   1.679
 1244SOL     OW 4063   0.230   3.296   0.538
 1244SOL    HW1 4064   0.204   3.392   0.538
 1244SOL    HW2 4065   0.159   3.242   0.583
 1245SOL     OW 4066   0.240   2.953   0.886
 1245SOL    HW1 4067   0.254   2.869   0.938
 1245SOL    HW2 4068   0.185   3.017   0.941
 1246SOL     OW 4069   0.620   3.648   1.439
 1246SOL    HW1 4070   0.528   3.631   1.474
 1246SOL    HW2 4071   0.648   3.740   1.465
 1247SOL     OW 4072   0.606   2.826   0.123
 1247SOL    HW1 4073   0.613   2.910   0.069
 1247SOL    HW2 4074   0.652   2.839   0.211
 1248SOL     OW 4075   1.594   1.976   1.480
 1248SOL    HW1 4076   1.576   2.043   1.408
 1248SOL    HW2 4077   1.591   2.022   1.569
 1249SOL     OW 4078   0.122   2.505   0.563
 1249SOL    HW1 4079   0.077   2.417   0.580
 1249SOL    HW2 4080   0.121   2.559   0.647
 1250SOL     OW 4081   1.842   3.629   0.359
 1250SOL    HW1 4082   1.896   3.600   0.439
 1250SOL    HW2 4083   1.872   3.719   0.330
 1251SOL     OW 4084   0.027   3.458   0.117
 1251SOL    HW1 4085   0.008   3.362   0.138
 1251SOL    HW2 4086  -0.006   3.516   0.192
 1252SOL     OW 4087   1.689   2.784   0.612
 1252SOL    HW1 4088   1.784   2.755   0.620
 1252SOL    HW2 4089   1.681   2.849   0.537
 1253SOL     OW 4090   1.641   2.970   0.432
 1253SOL    HW1 4091   1.727   2.972   0.380
 1253SOL    HW2 4092   1.655   3.017   0.520
 1254SOL     OW 4093   0.113   2.599   1.597
 1254SOL    HW1 4094   0.201   2.586   1.642
 1254SOL    HW2 4095   0.100   2.696   1.575
 1255SOL     OW 4096   0.613   3.227   0.726
 1255SOL    HW1 4097   0.564   3.140   0.735
 1255SOL    HW2 4098   0.590   3.270   0.639
 1256SOL     OW 4099   1.293   3.090   1.423
 1256SOL    HW1 4100   1.330   3.017   1.365
 1256SOL    HW2 4101   1.345   3.095   1.508
 1257SOL     OW 4102   0.809   1.866   0.502
 1257SOL    HW1 4103   0.849   1.957   0.493
 1257SOL    HW2 4104   0.709   1.874   0.508
 1258SOL     OW 4105   0.197   2.838   1.264
 1258SOL    HW1 4106   0.286   2.793   1.250
 1258SOL    HW2 4107   0.124   2.773   1.245
 1259SOL     OW 4108   1.525   2.861   0.190
 1259SOL    HW1 4109   1.462   2.785   0.203
 1259SOL    HW2 4110   1.573   2.879   0.276
 1260SOL     OW 4111   1.187   3.654   1.616
 1260SOL    HW1 4112   1.211   3.714   1.540
 1260SOL    HW2 4113   1.194   3.559   1.586
 1261SOL     OW 4114   0.317   2.113   1.801
 1261SOL    HW1 4115   0.388   2.184   1.807
 1261SOL    HW2 4116   0.229   2.152   1.829
 1262SOL     OW 4117   1.466   3.279   0.953
 1262SOL    HW1 4118   1.407   3.285   1.033
 1262SOL    HW2 4119   1.451   3.191   0.907
 1263SOL     OW 4120   1.667   3.576   0.572
 1263SOL    HW1 4121   1.626   3.553   0.484
 1263SOL    HW2 4122   1.649   3.502   0.637
 1264SOL     OW 4123   0.598   2.591   0.270
 1264SOL    HW1 4124   0.622   2.660   0.202
 1264SOL    HW2 4125   0.520   2.624   0.324
 1265SOL     OW 4126   1.281   2.207   0.944
 1265SOL    HW1 4127   1.195   2.157   0.931
 1265SOL    HW2 4128   1.343   2.153   1.000
 1266SOL     OW 4129   1.576   3.524   0.307
 1266SOL    HW1 4130   1.665   3.570   0.310
 1266SOL    HW2 4131   1.555   3.500   0.212
 1267SOL     OW 4132   0.807   2.467   1.465
 1267SOL    HW1 4133   0.760   2.464   1.554
 1267SOL    HW2 4134   0.756   2.412   1.399
 1268SOL     OW 4135   1.394   2.331   1.674
 1268SOL    HW1 4136   1.374   2.374   1.762
 1268SOL    HW2 4137   1.472   2.269   1.683
 1269SOL     OW 4138   0.973   2.752   1.572
 1269SOL    HW1 4139   1.019   2.668   1.543
 1269SOL    HW2 4140   0.917   2.786   1.497
 1270SOL     OW 4141   0.991   2.272   1.242
 1270SOL    HW1 4142   0.914   2.306   1.296
 1270SOL    HW2 4143   0.957   2.221   1.163
 1271SOL     OW 4144   1.041   2.563   0.429
 1271SOL    HW1 4145   1.067   2.559   0.525
 1271SOL    HW2 4146   0.956   2.512   0.415
 1272SOL     OW 4147   0.076   2.673   0.789
 1272SOL    HW1 4148   0.175   2.661   0.798
 1272SOL    HW2 4149   0.052   2.768   0.810
 1273SOL     OW 4150   0.130   3.683   1.571
 1273SOL    HW1 4151   0.120   3.668   1.670
 1273SOL    HW2 4152   0.044   3.719   1.535
 1274SOL     OW 4153   0.865   2.210   0.195
 1274SOL    HW1 4154   0.924   2.273   0.146
 1274SOL    HW2 4155   0.884   2.116   0.166
 1275SOL     OW 4156   1.719   2.447   1.831
 1275SOL    HW1 4157   1.693   2.536   1.795
 1275SOL    HW2 4158   1.717   2.379   1.758
 1276SOL     OW 4159   1.362   3.006   0.545
 1276SOL    HW1 4160   1.445   2.977   0.497
 1276SOL    HW2 4161   1.313   3.073   0.489
 1277SOL     OW 4162   0.550   2.058   0.885
 1277SOL    HW1 4163   0.545   2.053   0.985
 1277SOL    HW2 4164   0.552   2.154   0.856
 1278SOL     OW 4165   1.008   3.318   0.477
 1278SOL    HW1 4166   0.962   3.390   0.425
 1278SOL    HW2 4167   1.004   3.338   0.575
 1279SOL     OW 4168   0.351   3.663   0.853
 1279SOL    HW1 4169   0.401   3.577   0.859
 1279SOL    HW2 4170   0.416   3.740   0.850
 1280SOL     OW 4171   1.795   2.928   0.873
 1280SOL    HW1 4172   1.733   2.913   0.797
 1280SOL    HW2 4173   1.743   2.939   0.958
 1281SOL     OW 4174   1.227   3.412   1.506
 1281SOL    HW1 4175   1.233   3.335   1.570
 1281SOL    HW2 4176   1.175   3.386   1.426
 1282SOL     OW 4177   0.321   2.805   0.242
 1282SOL    HW1 4178   0.403   2.844   0.200
 1282SOL    HW2 4179   0.294   2.723   0.193
 1283SOL     OW 4180   1.458   2.597   0.728
 1283SOL    HW1 4181   1.453   2.532   0.803
 1283SOL    HW2 4182   1.538   2.656   0.741
 1284SOL     OW 4183   0.461   3.128   1.727
 1284SOL    HW1 4184   0.411   3.129   1.641
 1284SOL    HW2 4185   0.398   3.110   1.803
 1285SOL     OW 4186   1.111   3.638   0.237
 1285SOL    HW1 4187   1.051   3.576   0.287
 1285SOL    HW2 4188   1.142   3.594   0.152
 1286SOL     OW 4189   0.202   2.147   1.498
 1286SOL    HW1 4190   0.122   2.207   1.485
 1286SOL    HW2 4191   0.192   2.098   1.584
 1287SOL     OW 4192   1.632   3.239   0.081
 1287SOL    HW1 4193   1.600   3.333   0.071
 1287SOL    HW2 4194   1.556   3.176   0.069
 1288SOL     OW 4195   0.464   3.605   0.323
 1288SOL    HW1 4196   0.497   3.644   0.409
 1288SOL    HW2 4197   0.540   3.598   0.258
 1289SOL     OW 4198   1.400   1.969   0.426
 1289SOL    HW1 4199   1.376   1.932   0.336
 1289SOL    HW2 4200   1.499   1.985   0.430
 1290SOL     OW 4201   0.249   3.647   1.241
 1290SOL    HW1 4202   0.306   3.582   1.291
 1290SOL    HW2 4203   0.233   3.614   1.148
 1291SOL     OW 4204   0.940   3.560   0.904
 1291SOL    HW1 4205   1.020   3.503   0.925
 1291SOL    HW2 4206   0.891   3.520   0.827
 1292SOL     OW 4207   0.382   2.562   0.480
 1292SOL    HW1 4208   0.427   2.472   0.477
 1292SOL    HW2 4209   0.288   2.551   0.513
 1293SOL     OW 4210   1.547   2.084   1.729
 1293SOL    HW1 4211   1.542   2.121   1.821
 1293SOL    HW2 4212   1.475   2.015   1.717
 1294SOL     OW 4213   0.781   2.126   1.749
 1294SOL    HW1 4214   0.848   2.065   1.792
 1294SOL    HW2 4215   0.708   2.145   1.814
 1295SOL     OW 4216   0.888   3.376   1.195
 1295SOL    HW1 4217   0.865   3.351   1.101
 1295SOL    HW2 4218   0.949   3.307   1.234
 1296SOL     OW 4219   1.351   2.452   1.433
 1296SOL    HW1 4220   1.379   2.409   1.518
 1296SOL    HW2 4221   1.376   2.548   1.434
 1297SOL     OW 4222   0.803   3.264   0.924
 1297SOL    HW1 4223   0.893   3.278   0.882
 1297SOL    HW2 4224   0.732   3.266   0.853
 1298SOL     OW 4225   0.922   2.365   0.899
 1298SOL    HW1 4226   0.897   2.356   0.803
 1298SOL    HW2 4227   0.970   2.283   0.930
 1299SOL     OW 4228   0.539   1.926   0.512
 1299SOL    HW1 4229   0.458   1.927   0.570
 1299SOL    HW2 4230   0.542   2.009   0.457
 1300SOL     OW 4231   1.434   3.050   0.041
 1300SOL    HW1 4232   1.466   2.974   0.098
 1300SOL    HW2 4233   1.342   3.077   0.071
 1301SOL     OW 4234   0.935   2.098   0.480
 1301SOL    HW1 4235   0.887   2.139   0.402
 1301SOL    HW2 4236   1.034   2.096   0.461
 1302SOL     OW 4237   1.076   2.545   1.464
 1302SOL    HW1 4238   0.996   2.484   1.467
 1302SOL    HW2 4239   1.157   2.492   1.440
 1303SOL     OW 4240   1.227   3.432   0.793
 1303SOL    HW1 4241   1.248   3.506   0.728
 1303SOL    HW2 4242   1.295   3.432   0.866
 1304SOL     OW 4243   0.459   3.014   0.741
 1304SOL    HW1 4244   0.388   2.987   0.806
 1304SOL    HW2 4245   0.433   2.986   0.648
 1305SOL     OW 4246   1.271   3.659   0.591
 1305SOL    HW1 4247   1.315   3.723   0.527
 1305SOL    HW2 4248   1.221   3.711   0.661
 1306SOL     OW 4249   1.032   2.411   0.016
 1306SOL    HW1 4250   0.991   2.493  -0.023
 1306SOL    HW2 4251   1.096   2.437   0.089
 1307SOL     OW 4252   0.078   2.418   1.386
 1307SOL    HW1 4253   0.170   2.417   1.345
 1307SOL    HW2 4254   0.072   2.492   1.453
 1308SOL     OW 4255   0.561   2.084   1.147
 1308SOL    HW1 4256   0.599   2.000   1.184
 1308SOL    HW2 4257   0.473   2.103   1.191
 1309SOL     OW 4258   0.866   2.316   0.642
 1309SOL    HW1 4259   0.834   2.388   0.580
 1309SOL    HW2 4260   0.890   2.235   0.589
 1310SOL     OW 4261   1.017   1.901   0.753
 1310SOL    HW1 4262   0.945   1.906   0.684
 1310SOL    HW2 4263   0.993   1.832   0.822
 1311SOL     OW 4264   1.429   3.035   0.867
 1311SOL    HW1 4265   1.374   2.951   0.860
 1311SOL    HW2 4266   1.455   3.064   0.775
 1312SOL     OW 4267   1.466   2.452   0.992
 1312SOL    HW1 4268   1.436   2.357   0.999
 1312SOL    HW2 4269   1.539   2.468   1.058
 1313SOL     OW 4270   1.857   2.695   0.377
 1313SOL    HW1 4271   1.899   2.631   0.441
 1313SOL    HW2 4272   1.819   2.644   0.299
 1314SOL     OW 4273   0.488   3.247   0.174
 1314SOL    HW1 4274   0.401   3.232   0.221
 1314SOL    HW2 4275   0.471   3.273   0.079
 1315SOL     OW 4276   1.664   3.142   0.657
 1315SOL    HW1 4277   1.763   3.150   0.671
 1315SOL    HW2 4278   1.619   3.226   0.688
 1316SOL     OW 4279   1.390   2.437   0.078
 1316SOL    HW1 4280   1.336   2.416   0.159
 1316SOL    HW2 4281   1.481   2.396   0.087
 1317SOL     OW 4282   0.527   2.118   0.328
 1317SOL    HW1 4283   0.554   2.059   0.253
 1317SOL    HW2 4284   0.527   2.213   0.297
 1318SOL     OW 4285   1.754   3.085   1.588
 1318SOL    HW1 4286   1.845   3.046   1.575
 1318SOL    HW2 4287   1.762   3.181   1.612
 1319SOL     OW 4288   1.064   3.209   1.340
 1319SOL    HW1 4289   0.984   3.186   1.395
 1319SOL    HW2 4290   1.147   3.183   1.389
 1320SOL     OW 4291   1.592   3.491   1.625
 1320SOL    HW1 4292   1.619   3.525   1.535
 1320SOL    HW2 4293   1.671   3.453   1.671
 1321SOL     OW 4294   1.111   3.057   1.100
 1321SOL    HW1 4295   1.071   3.101   1.181
 1321SOL    HW2 4296   1.070   3.094   1.017
 1322SOL     OW 4297   1.638   2.961   1.079
 1322SOL    HW1 4298   1.643   3.042   1.138
 1322SOL    HW2 4299   1.552   2.963   1.028
 1323SOL     OW 4300   0.915   1.951   1.402
 1323SOL    HW1 4301   0.940   1.931   1.307
 1323SOL    HW2 4302   0.987   2.007   1.444
 1324SOL     OW 4303   0.980   2.978   1.719
 1324SOL    HW1 4304   0.881   2.984   1.729
 1324SOL    HW2 4305   1.003   2.898   1.663
 1325SOL     OW 4306   0.705   2.912   0.368
 1325SOL    HW1 4307   0.691   2.919   0.467
 1325SOL    HW2 4308   0.789   2.861   0.350
 1326SOL     OW 4309   0.410   2.675   1.251
 1326SOL    HW1 4310   0.496   2.687   1.301
 1326SOL    HW2 4311   0.368   2.588   1.278
 1327SOL     OW 4312   1.274   2.248   1.262
 1327SOL    HW1 4313   1.295   2.322   1.326
 1327SOL    HW2 4314   1.185   2.265   1.219
 1328SOL     OW 4315   0.064   3.426   1.331
 1328SOL    HW1 4316   0.018   3.508   1.297
 1328SOL    HW2 4317   0.162   3.445   1.340
 1329SOL     OW 4318   0.367   2.962   0.501
 1329SOL    HW1 4319   0.360   3.045   0.445
 1329SOL    HW2 4320   0.371   2.882   0.441
 1330SOL     OW 4321   0.566   2.399   0.865
 1330SOL    HW1 4322   0.578   2.465   0.791
 1330SOL    HW2 4323   0.612   2.433   0.948
 1331SOL     OW 4324   1.252   3.210   0.388
 1331SOL    HW1 4325   1.302   3.287   0.428
 1331SOL    HW2 4326   1.157   3.212   0.420
 1332SOL     OW 4327   1.272   3.307   1.142
 1332SOL    HW1 4328   1.319   3.320   1.229
 1332SOL    HW2 4329   1.206   3.233   1.151
 1333SOL     OW 4330   1.582   2.501   0.472
 1333SOL    HW1 4331   1.551   2.562   0.545
 1333SOL    HW2 4332   1.632   2.553   0.403
 1334SOL     OW 4333   0.354   3.372   1.329
 1334SOL    HW1 4334   0.333   3.328   1.242
 1334SOL    HW2 4335   0.451   3.398   1.332
 1335SOL     OW 4336   0.402   2.613   1.598
 1335SOL    HW1 4337   0.470   2.668   1.551
 1335SOL    HW2 4338   0.442   2.525   1.625
 1336SOL     OW 4339   1.587   2.641   1.670
 1336SOL    HW1 4340   1.495   2.679   1.665
 1336SOL    HW2 4341   1.647   2.688   1.605
 1337SOL     OW 4342   1.013   1.967   1.770
 1337SOL    HW1 4343   1.019   2.052   1.718
 1337SOL    HW2 4344   1.045   1.891   1.713
 1338SOL     OW 4345   0.504   1.912   1.740
 1338SOL    HW1 4346   0.462   1.855   1.670
 1338SOL    HW2 4347   0.438   1.981   1.772
 1339SOL     OW 4348   0.573   2.732   1.029
 1339SOL    HW1 4349   0.617   2.821   1.020
 1339SOL    HW2 4350   0.510   2.732   1.106
 1340SOL     OW 4351   1.360   2.724   1.045
 1340SOL    HW1 4352   1.285   2.724   0.979
 1340SOL    HW2 4353   1.397   2.632   1.054
 1341SOL     OW 4354   1.209   2.387   0.275
 1341SOL    HW1 4355   1.222   2.303   0.329
 1341SOL    HW2 4356   1.180   2.461   0.335
 1342SOL     OW 4357   0.307   2.075   1.231
 1342SOL    HW1 4358   0.284   2.112   1.321
 1342SOL    HW2 4359   0.277   1.980   1.225
 1343SOL     OW 4360   0.037   3.172   1.282
 1343SOL    HW1 4361   0.090   3.123   1.350
 1343SOL    HW2 4362   0.059   3.270   1.287
 1344SOL     OW 4363   0.732   2.496   1.064
 1344SOL    HW1 4364   0.791   2.470   0.988
 1344SOL    HW2 4365   0.704   2.592   1.053
 1345SOL     OW 4366   1.728   2.797   1.854
 1345SOL    HW1 4367   1.682   2.790   1.765
 1345SOL    HW2 4368   1.666   2.841   1.920
 1346SOL     OW 4369   0.307   1.925   0.618
 1346SOL    HW1 4370   0.296   2.019   0.651
 1346SOL    HW2 4371   0.302   1.862   0.695
 1347SOL     OW 4372   1.622   2.229   0.374
 1347SOL    HW1 4373   1.624   2.153   0.438
 1347SOL    HW2 4374   1.574   2.306   0.414
 1348SOL     OW 4375   1.023   2.628   0.966
 1348SOL    HW1 4376   1.038   2.649   1.062
 1348SOL    HW2 4377   0.993   2.533   0.957
 1349SOL     OW 4378   0.980   3.435   1.700
 1349SOL    HW1 4379   0.960   3.479   1.612
 1349SOL    HW2 4380   1.019   3.344   1.684
 1350SOL     OW 4381   1.859   3.380   1.605
 1350SOL    HW1 4382   1.873   3.407   1.510
 1350SOL    HW2 4383   1.942   3.402   1.658
 1351SOL     OW 4384   0.350   2.760   1.804
 1351SOL    HW1 4385   0.426   2.804   1.852
 1351SOL    HW2 4386   0.385   2.713   1.722
 1352SOL     OW 4387   1.540   2.136   0.125
 1352SOL    HW1 4388   1.479   2.061   0.148
 1352SOL    HW2 4389   1.562   2.188   0.208
 1353SOL     OW 4390   1.303   2.700   0.042
 1353SOL    HW1 4391   1.337   2.607   0.057
 1353SOL    HW2 4392   1.321   2.727  -0.053
 1354SOL     OW 4393   1.068   3.195   0.849
 1354SOL    HW1 4394   1.075   3.111   0.794
 1354SOL    HW2 4395   1.130   3.264   0.813
 1355SOL     OW 4396   0.319   2.672   0.949
 1355SOL    HW1 4397   0.412   2.708   0.954
 1355SOL    HW2 4398   0.313   2.587   1.001
 1356SOL     OW 4399   0.339   2.371   1.006
 1356SOL    HW1 4400   0.287   2.288   0.989
 1356SOL    HW2 4401   0.416   2.376   0.942
 1357SOL     OW 4402   1.138   2.242   1.678
 1357SOL    HW1 4403   1.093   2.305   1.742
 1357SOL    HW2 4404   1.231   2.273   1.661
 1358SOL     OW 4405   1.160   2.069   1.477
 1358SOL    HW1 4406   1.160   2.133   1.554
 1358SOL    HW2 4407   1.188   2.117   1.394
 1359SOL     OW 4408   0.008   3.188   0.200
 1359SOL    HW1 4409  -0.085   3.209   0.169
 1359SOL    HW2 4410   0.018   3.089   0.213
 1360SOL     OW 4411   0.088   3.663   0.927
 1360SOL    HW1 4412   0.046   3.577   0.900
 1360SOL    HW2 4413   0.182   3.666   0.893
 1361SOL     OW 4414   0.504   3.430   0.910
 1361SOL    HW1 4415   0.570   3.504   0.919
 1361SOL    HW2 4416   0.548   3.351   0.868
 1362SOL     OW 4417   1.002   2.658   1.238
 1362SOL    HW1 4418   1.043   2.626   1.324
 1362SOL    HW2 4419   0.906   2.631   1.235
 1363SOL     OW 4420   0.040   2.406   1.114
 1363SOL    HW1 4421   0.125   2.373   1.073
 1363SOL    HW2 4422   0.053   2.421   1.212
 1364SOL     OW 4423   0.189   2.382   1.722
 1364SOL    HW1 4424   0.248   2.342   1.652
 1364SOL    HW2 4425   0.131   2.453   1.681
 1365SOL     OW 4426   1.369   2.812   1.660
 1365SOL    HW1 4427   1.408   2.901   1.680
 1365SOL    HW2 4428   1.379   2.792   1.563
 1366SOL     OW 4429   0.815   2.434   0.325
 1366SOL    HW1 4430   0.822   2.345   0.279
 1366SOL    HW2 4431   0.721   2.468   0.317
 1367SOL     OW 4432   1.657   2.466   1.206
 1367SOL    HW1 4433   1.619   2.397   1.268
 1367SOL    HW2 4434   1.739   2.430   1.162
 1368SOL     OW 4435   0.252   3.426   1.744
 1368SOL    HW1 4436   0.222   3.483   1.820
 1368SOL    HW2 4437   0.245   3.329   1.770
 1369SOL     OW 4438   0.671   2.326   1.269
 1369SOL    HW1 4439   0.637   2.237   1.239
 1369SOL    HW2 4440   0.697   2.380   1.189
 1370SOL     OW 4441   0.930   3.540   1.465
 1370SOL    HW1 4442   0.906   3.522   1.370
 1370SOL    HW2 4443   0.960   3.634   1.475
 1371SOL     OW 4444   0.473   2.362   0.191
 1371SOL    HW1 4445   0.534   2.442   0.195
 1371SOL    HW2 4446   0.378   2.393   0.198
 1372SOL     OW 4447   0.159   2.999   1.466
 1372SOL    HW1 4448   0.181   2.938   1.542
 1372SOL    HW2 4449   0.169   2.950   1.380
 1373SOL     OW 4450   1.347   2.921   1.234
 1373SOL    HW1 4451   1.371   2.858   1.160
 1373SOL    HW2 4452   1.257   2.961   1.216
 1374SOL     OW 4453   1.302   2.717   0.309
 1374SOL    HW1 4454   1.216   2.686   0.351
 1374SOL    HW2 4455   1.298   2.703   0.210
 1375SOL     OW 4456   1.759   3.609   1.154
 1375SOL    HW1 4457   1.820   3.639   1.081
 1375SOL    HW2 4458   1.721   3.520   1.132
 1376SOL     OW 4459   1.252   3.593   1.128
 1376SOL    HW1 4460   1.336   3.598   1.074
 1376SOL    HW2 4461   1.229   3.497   1.146
 1377SOL     OW 4462   0.083   3.120   1.022
 1377SOL    HW1 4463   0.078   3.119   1.122
 1377SOL    HW2 4464   0.000   3.079   0.984
 1378SOL     OW 4465   0.688   3.524   1.716
 1378SOL    HW1 4466   0.632   3.605   1.725
 1378SOL    HW2 4467   0.740   3.528   1.630
 1379SOL     OW 4468   0.903   1.948   0.133
 1379SOL    HW1 4469   0.954   1.949   0.047
 1379SOL    HW2 4470   0.959   1.906   0.204
 1380SOL     OW 4471   1.726   1.997   0.523
 1380SOL    HW1 4472   1.799   1.980   0.456
 1380SOL    HW2 4473   1.695   1.910   0.561
 1381SOL     OW 4474   1.388   3.435   0.477
 1381SOL    HW1 4475   1.455   3.447   0.403
 1381SOL    HW2 4476   1.348   3.524   0.500
 1382SOL     OW 4477   0.130   3.656   1.851
 1382SOL    HW1 4478   0.089   3.582   1.904
 1382SOL    HW2 4479   0.194   3.707   1.909
 1383SOL     OW 4480   1.280   2.789   0.672
 1383SOL    HW1 4481   1.340   2.708   0.674
 1383SOL    HW2 4482   1.320   2.858   0.612
 1384SOL     OW 4483   0.830   3.135   1.422
 1384SOL    HW1 4484   0.825   3.168   1.517
 1384SOL    HW2 4485   0.744   3.154   1.376
 1385SOL     OW 4486   0.672   3.478   0.154
 1385SOL    HW1 4487   0.681   3.488   0.055
 1385SOL    HW2 4488   0.632   3.389   0.175
 1386SOL     OW 4489   1.650   3.582   1.394
 1386SOL    HW1 4490   1.703   3.592   1.310
 1386SOL    HW2 4491   1.623   3.672   1.428
 1387SOL     OW 4492   1.841   2.037   0.963
 1387SOL    HW1 4493   1.880   1.952   0.927
 1387SOL    HW2 4494   1.743   2.039   0.944
 1388SOL     OW 4495   0.263   2.188   0.720
 1388SOL    HW1 4496   0.184   2.239   0.686
 1388SOL    HW2 4497   0.254   2.173   0.818
 1389SOL     OW 4498   1.194   3.474   0.031
 1389SOL    HW1 4499   1.200   3.381   0.068
 1389SOL    HW2 4500   1.135   3.474  -0.049
 1390SOL     OW 4501   0.822   2.864   1.372
 1390SOL    HW1 4502   0.862   2.863   1.280
 1390SOL    HW2 4503   0.832   2.956   1.412
 1391SOL     OW 4504   0.916   2.772   0.291
 1391SOL    HW1 4505   0.979   2.810   0.223
 1391SOL    HW2 4506   0.956   2.689   0.330
 1392SOL     OW 4507   1.504   3.469   0.044
 1392SOL    HW1 4508   1.412   3.506   0.051
 1392SOL    HW2 4509   1.542   3.489  -0.046
 1393SOL     OW 4510   0.372   3.150   1.490
 1393SOL    HW1 4511   0.359   3.243   1.456
 1393SOL    HW2 4512   0.288   3.098   1.477
 1394SOL     OW 4513   1.614   3.154   1.289
 1394SOL    HW1 4514   1.674   3.157   1.369
 1394SOL    HW2 4515   1.539   3.218   1.302
 1395SOL     OW 4516   1.039   2.960   0.696
 1395SOL    HW1 4517   0.969   2.913   0.750
 1395SOL    HW2 4518   1.098   2.892   0.653
 1396SOL     OW 4519   1.014   2.098   0.971
 1396SOL    HW1 4520   1.006   2.062   0.878
 1396SOL    HW2 4521   1.012   2.022   1.036
 1397SOL     OW 4522   0.590   3.349   0.491
 1397SOL    HW1 4523   0.632   3.291   0.421
 1397SOL    HW2 4524   0.546   3.428   0.447
 1398SOL     OW 4525   1.709   2.247   1.381
 1398SOL    HW1 4526   1.782   2.316   1.385
 1398SOL    HW2 4527   1.737   2.172   1.322
 1399SOL     OW 4528   0.255   3.210   0.290
 1399SOL    HW1 4529   0.159   3.211   0.263
 1399SOL    HW2 4530   0.267   3.263   0.374
 1400SOL     OW 4531   0.105   2.875   1.726
 1400SOL    HW1 4532   0.028   2.842   1.780
 1400SOL    HW2 4533   0.190   2.845   1.768
 1401SOL     OW 4534   0.672   2.065   1.489
 1401SOL    HW1 4535   0.762   2.049   1.449
 1401SOL    HW2 4536   0.680   2.070   1.588
 1402SOL     OW 4537   0.075   2.207   0.033
 1402SOL    HW1 4538  -0.017   2.179   0.004
 1402SOL    HW2 4539   0.106   2.284  -0.023
 1403SOL     OW 4540   1.440   2.718   1.398
 1403SOL    HW1 4541   1.383   2.770   1.335
 1403SOL    HW2 4542   1.536   2.730   1.374
 1404SOL     OW 4543   0.072   2.028   0.318
 1404SOL    HW1 4544   0.055   2.111   0.264
 1404SOL    HW2 4545   0.162   1.991   0.296
 1405SOL     OW 4546   1.183   3.197   0.119
 1405SOL    HW1 4547   1.084   3.186   0.121
 1405SOL    HW2 4548   1.217   3.212   0.212
 1406SOL     OW 4549   0.613   2.704   1.431
 1406SOL    HW1 4550   0.669   2.785   1.414
 1406SOL    HW2 4551   0.672   2.624   1.434
 1407SOL     OW 4552   1.493   3.629   0.959
 1407SOL    HW1 4553   1.526   3.693   0.890
 1407SOL    HW2 4554   1.559   3.623   1.034
 1408SOL     OW 4555   0.716   2.427   1.708
 1408SOL    HW1 4556   0.735   2.492   1.782
 1408SOL    HW2 4557   0.776   2.347   1.717
 1409SOL     OW 4558   1.450   3.082   1.633
 1409SOL    HW1 4559   1.441   3.072   1.732
 1409SOL    HW2 4560   1.546   3.075   1.607
 1410SOL     OW 4561   0.390   3.603   1.560
 1410SOL    HW1 4562   0.299   3.644   1.558
 1410SOL    HW2 4563   0.383   3.509   1.592
 1411SOL     OW 4564   1.674   2.745   1.254
 1411SOL    HW1 4565   1.647   2.656   1.217
 1411SOL    HW2 4566   1.675   2.813   1.181
 1412SOL     OW 4567   1.225   2.187   0.449
 1412SOL    HW1 4568   1.290   2.113   0.438
 1412SOL    HW2 4569   1.245   2.237   0.533
 1413SOL     OW 4570   0.594   2.607   0.652
 1413SOL    HW1 4571   0.644   2.692   0.633
 1413SOL    HW2 4572   0.506   2.609   0.604
 1414SOL     OW 4573   1.777   2.204   1.642
 1414SOL    HW1 4574   1.760   2.235   1.548
 1414SOL    HW2 4575   1.693   2.167   1.680
 1415SOL     OW 4576   1.730   2.796   1.517
 1415SOL    HW1 4577   1.768   2.887   1.532
 1415SOL    HW2 4578   1.722   2.779   1.418
 1416SOL     OW 4579   0.859   3.236   0.016
 1416SOL    HW1 4580   0.813   3.251   0.104
 1416SOL    HW2 4581   0.903   3.321  -0.014
 1417SOL     OW 4582   0.661   3.652   0.953
 1417SOL    HW1 4583   0.615   3.740   0.940
 1417SOL    HW2 4584   0.760   3.664   0.946
 1418SOL     OW 4585   0.859   2.818   0.861
 1418SOL    HW1 4586   0.913   2.749   0.909
 1418SOL    HW2 4587   0.827   2.887   0.927
 1419SOL     OW 4588   1.083   2.846   0.087
 1419SOL    HW1 4589   1.060   2.899   0.005
 1419SOL    HW2 4590   1.164   2.790   0.068
 1420SOL     OW 4591   1.861   3.431   0.851
 1420SOL    HW1 4592   1.790   3.419   0.781
 1420SOL    HW2 4593   1.862   3.352   0.911
 1421SOL     OW 4594   0.221   3.176   1.844
 1421SOL    HW1 4595   0.156   3.103   1.823
 1421SOL    HW2 4596   0.225   3.190   1.942
 1422SOL     OW 4597   0.079   3.102   0.653
 1422SOL    HW1 4598   0.078   3.055   0.741
 1422SOL    HW2 4599   0.161   3.074   0.602
 1423SOL     OW 4600   0.672   3.253   1.624
 1423SOL    HW1 4601   0.594   3.203   1.662
 1423SOL    HW2 4602   0.669   3.348   1.655
 1424SOL     OW 4603   1.824   2.054   1.227
 1424SOL    HW1 4604   1.820   1.964   1.271
 1424SOL    HW2 4605   1.827   2.043   1.128
 1425SOL     OW 4606   0.428   2.286   0.520
 1425SOL    HW1 4607   0.458   2.214   0.458
 1425SOL    HW2 4608   0.389   2.246   0.603
 1426SOL     OW 4609   1.705   3.349   1.104
 1426SOL    HW1 4610   1.612   3.324   1.077
 1426SOL    HW2 4611   1.731   3.299   1.186
 1427SOL     OW 4612   0.317   2.409   1.280
 1427SOL    HW1 4613   0.355   2.350   1.352
 1427SOL    HW2 4614   0.357   2.383   1.192
 1428SOL     OW 4615   0.812   3.448   0.687
 1428SOL    HW1 4616   0.844   3.458   0.593
 1428SOL    HW2 4617   0.733   3.386   0.689
 1429SOL     OW 4618   1.424   2.076   1.112
 1429SOL    HW1 4619   1.476   2.011   1.167
 1429SOL    HW2 4620   1.375   2.139   1.173
 1430SOL     OW 4621   1.001   1.896   1.154
 1430SOL    HW1 4622   0.938   1.824   1.123
 1430SOL    HW2 4623   1.094   1.860   1.154
 1431SOL     OW 4624   0.770   3.192   0.301
 1431SOL    HW1 4625   0.724   3.105   0.318
 1431SOL    HW2 4626   0.861   3.189   0.342
 1432SOL     OW 4627   0.618   3.429   1.284
 1432SOL    HW1 4628   0.613   3.511   1.341
 1432SOL    HW2 4629   0.707   3.426   1.239
 1433SOL     OW 4630   1.352   1.914   0.168
 1433SOL    HW1 4631   1.387   1.873   0.084
 1433SOL    HW2 4632   1.262   1.876   0.188
 1434SOL     OW 4633   1.300   2.315   0.691
 1434SOL    HW1 4634   1.241   2.395   0.695
 1434SOL    HW2 4635   1.315   2.280   0.784
 1435SOL     OW 4636   1.593   2.083   0.882
 1435SOL    HW1 4637   1.509   2.082   0.936
 1435SOL    HW2 4638   1.595   2.166   0.826
 1436SOL     OW 4639   0.039   2.939   0.300
 1436SOL    HW1 4640   0.138   2.928   0.291
 1436SOL    HW2 4641  -0.001   2.853   0.332
 1437SOL     OW 4642   0.875   3.508   0.337
 1437SOL    HW1 4643   0.798   3.473   0.283
 1437SOL    HW2 4644   0.843   3.579   0.399
 1438SOL     OW 4645   0.230   2.490   1.975
 1438SOL    HW1 4646   0.137   2.488   2.012
 1438SOL    HW2 4647   0.231   2.451   1.883
 1439SOL     OW 4648   0.225   2.137   2.858
 1439SOL    HW1 4649   0.260   2.120   2.950
 1439SOL    HW2 4650   0.137   2.092   2.846
 1440SOL     OW 4651   0.019   2.230   2.509
 1440SOL    HW1 4652  -0.063   2.273   2.548
 1440SOL    HW2 4653  -0.009   2.157   2.446
 1441SOL     OW 4654   0.569   3.137   3.027
 1441SOL    HW1 4655   0.476   3.130   2.990
 1441SOL    HW2 4656   0.580   3.226   3.071
 1442SOL     OW 4657   1.555   3.373   2.565
 1442SOL    HW1 4658   1.498   3.357   2.646
 1442SOL    HW2 4659   1.496   3.383   2.485
 1443SOL     OW 4660   1.135   2.565   2.579
 1443SOL    HW1 4661   1.192   2.643   2.554
 1443SOL    HW2 4662   1.075   2.591   2.655
 1444SOL     OW 4663   1.755   2.469   2.093
 1444SOL    HW1 4664   1.743   2.456   1.994
 1444SOL    HW2 4665   1.725   2.388   2.142
 1445SOL     OW 4666   0.768   3.006   2.885
 1445SOL    HW1 4667   0.690   3.023   2.945
 1445SOL    HW2 4668   0.802   3.093   2.849
 1446SOL     OW 4669   0.850   2.660   3.685
 1446SOL    HW1 4670   0.846   2.736   3.750
 1446SOL    HW2 4671   0.872   2.696   3.594
 1447SOL     OW 4672   0.685   2.874   2.527
 1447SOL    HW1 4673   0.754   2.858   2.597
 1447SOL    HW2 4674   0.612   2.931   2.565
 1448SOL     OW 4675   0.686   3.023   3.665
 1448SOL    HW1 4676   0.746   3.102   3.679
 1448SOL    HW2 4677   0.600   3.054   3.624
 1449SOL     OW 4678   0.335   3.297   2.923
 1449SOL    HW1 4679   0.257   3.266   2.870
 1449SOL    HW2 4680   0.393   3.355   2.866
 1450SOL     OW 4681   1.460   3.367   3.201
 1450SOL    HW1 4682   1.484   3.461   3.227
 1450SOL    HW2 4683   1.444   3.313   3.283
 1451SOL     OW 4684   0.438   2.254   3.361
 1451SOL    HW1 4685   0.520   2.198   3.370
 1451SOL    HW2 4686   0.357   2.196   3.365
 1452SOL     OW 4687   1.603   2.309   2.599
 1452SOL    HW1 4688   1.529   2.355   2.549
 1452SOL    HW2 4689   1.654   2.377   2.652
 1453SOL     OW 4690   0.231   3.575   2.345
 1453SOL    HW1 4691   0.265   3.652   2.399
 1453SOL    HW2 4692   0.275   3.575   2.255
 1454SOL     OW 4693   1.127   3.203   3.552
 1454SOL    HW1 4694   1.174   3.203   3.640
 1454SOL    HW2 4695   1.079   3.116   3.541
 1455SOL     OW 4696   0.230   3.296   2.400
 1455SOL    HW1 4697   0.204   3.392   2.400
 1455SOL    HW2 4698   0.159   3.242   2.445
 1456SOL     OW 4699   0.240   2.953   2.748
 1456SOL    HW1 4700   0.254   2.869   2.800
 1456SOL    HW2 4701   0.185   3.017   2.803
 1457SOL     OW 4702   0.620   3.648   3.301
 1457SOL    HW1 4703   0.528   3.631   3.336
 1457SOL    HW2 4704   0.648   3.740   3.327
 1458SOL     OW 4705   0.606   2.826   1.985
 1458SOL    HW1 4706   0.613   2.910   1.931
 1458SOL    HW2 4707   0.652   2.839   2.073
 1459SOL     OW 4708   1.594   1.976   3.342
 1459SOL    HW1 4709   1.576   2.043   3.270
 1459SOL    HW2 4710   1.591   2.022   3.431
 1460SOL     OW 4711   0.122   2.505   2.425
 1460SOL    HW1 4712   0.077   2.417   2.442
 1460SOL    HW2 4713   0.121   2.559   2.509
 1461SOL     OW 4714   1.842   3.629   2.221
 1461SOL    HW1 4715   1.896   3.600   2.301
 1461SOL    HW2 4716   1.872   3.719   2.192
 1462SOL     OW 4717   0.027   3.458   1.979
 1462SOL    HW1 4718   0.008   3.362   2.000
 1462SOL    HW2 4719  -0.006   3.516   2.054
 1463SOL     OW 4720   1.689   2.784   2.474
 1463SOL    HW1 4721   1.784   2.755   2.482
 1463SOL    HW2 4722   1.681   2.849   2.399
 1464SOL     OW 4723   1.641   2.970   2.294
 1464SOL    HW1 4724   1.727   2.972   2.242
 1464SOL    HW2 4725   1.655   3.017   2.382
 1465SOL     OW 4726   0.113   2.599   3.459
 1465SOL    HW1 4727   0.201   2.586   3.504
 1465SOL    HW2 4728   0.100   2.696   3.437
 1466SOL     OW 4729   0.613   3.227   2.588
 1466SOL    HW1 4730   0.564   3.140   2.597
 1466SOL    HW2 4731   0.590   3.270   2.501
 1467SOL     OW 4732   1.293   3.090   3.285
 1467SOL    HW1 4733   1.330   3.017   3.227
 1467SOL    HW2 4734   1.345   3.095   3.370
 1468SOL     OW 4735   0.809   1.866   2.364
 1468SOL    HW1 4736   0.849   1.957   2.355
 1468SOL    HW2 4737   0.709   1.874   2.370
 1469SOL     OW 4738   0.197   2.838   3.126
 1469SOL    HW1 4739   0.286   2.793   3.112
 1469SOL    HW2 4740   0.124   2.773   3.107
 1470SOL     OW 4741   1.525   2.861   2.052
 1470SOL    HW1 4742   1.462   2.785   2.065
 1470SOL    HW2 4743   1.573   2.879   2.138
 1471SOL     OW 4744   1.187   3.654   3.478
 1471SOL    HW1 4745   1.211   3.714   3.402
 1471SOL    HW2 4746   1.194   3.559   3.448
 1472SOL     OW 4747   0.317   2.113   3.663
 1472SOL    HW1 4748   0.388   2.184   3.669
 1472SOL    HW2 4749   0.229   2.152   3.691
 1473SOL     OW 4750   1.466   3.279   2.815
 1473SOL    HW1 4751   1.407   3.285   2.895
 1473SOL    HW2 4752   1.451   3.191   2.769
 1474SOL     OW 4753   1.667   3.576   2.434
 1474SOL    HW1 4754   1.626   3.553   2.346
 1474SOL    HW2 4755   1.649   3.502   2.499
 1475SOL     OW 4756   0.598   2.591   2.132
 1475SOL    HW1 4757   0.622   2.660   2.064
 1475SOL    HW2 4758   0.520   2.624   2.186
 1476SOL     OW 4759   1.281   2.207   2.806
 1476SOL    HW1 4760   1.195   2.157   2.793
 1476SOL    HW2 4761   1.343   2.153   2.862
 1477SOL     OW 4762   1.576   3.524   2.169
 1477SOL    HW1 4763   1.665   3.570   2.172
 1477SOL    HW2 4764   1.555   3.500   2.074
 1478SOL     OW 4765   0.807   2.467   3.327
 1478SOL    HW1 4766   0.760   2.464   3.416
 1478SOL    HW2 4767   0.756   2.412   3.261
 1479SOL     OW 4768   1.394   2.331   3.536
 1479SOL    HW1 4769   1.374   2.374   3.624
 1479SOL    HW2 4770   1.472   2.269   3.545
 1480SOL     OW 4771   0.973   2.752   3.434
 1480SOL    HW1 4772   1.019   2.668   3.405
 1480SOL    HW2 4773   0.917   2.786   3.359
 1481SOL     OW 4774   0.991   2.272   3.104
 1481SOL    HW1 4775   0.914   2.306   3.158
 1481SOL    HW2 4776   0.957   2.221   3.025
 1482SOL     OW 4777   1.041   2.563   2.291
 1482SOL    HW1 4778   1.067   2.559   2.387
 1482SOL    HW2 4779   0.956   2.512   2.277
 1483SOL     OW 4780   0.076   2.673   2.651
 1483SOL    HW1 4781   0.175   2.661   2.660
 1483SOL    HW2 4782   0.052   2.768   2.672
 1484SOL     OW 4783   0.130   3.683   3.433
 1484SOL    HW1 4784   0.120   3.668   3.532
 1484SOL    HW2 4785   0.044   3.719   3.397
 1485SOL     OW 4786   0.865   2.210   2.057
 1485SOL    HW1 4787   0.924   2.273   2.008
 1485SOL    HW2 4788   0.884   2.116   2.028
 1486SOL     OW 4789   1.719   2.447   3.693
 1486SOL    HW1 4790   1.693   2.536   3.657
 1486SOL    HW2 4791   1.717   2.379   3.620
 1487SOL     OW 4792   1.362   3.006   2.407
 1487SOL    HW1 4793   1.445   2.977   2.359
 1487SOL    HW2 4794   1.313   3.073   2.351
 1488SOL     OW 4795   0.550   2.058   2.747
 1488SOL    HW1 4796   0.545   2.053   2.847
 1488SOL    HW2 4797   0.552   2.154   2.718
 1489SOL     OW 4798   1.008   3.318   2.339
 1489SOL    HW1 4799   0.962   3.390   2.287
 1489SOL    HW2 4800   1.004   3.338   2.437
 1490SOL     OW 4801   0.351   3.663   2.715
 1490SOL    HW1 4802   0.401   3.577   2.721
 1490SOL    HW2 4803   0.416   3.740   2.712
 1491SOL     OW 4804   1.795   2.928   2.735
 1491SOL    HW1 4805   1.733   2.913   2.659
 1491SOL    HW2 4806   1.743   2.939   2.820
 1492SOL     OW 4807   1.227   3.412   3.368
 1492SOL    HW1 4808   1.233   3.335   3.432
 1492SOL    HW2 4809   1.175   3.386   3.288
 1493SOL     OW 4810   0.321   2.805   2.104
 1493SOL    HW1 4811   0.403   2.844   2.062
 1493SOL    HW2 4812   0.294   2.723   2.055
 1494SOL     OW 4813   1.458   2.597   2.590
 1494SOL    HW1 4814   1.453   2.532   2.665
 1494SOL    HW2 4815   1.538   2.656   2.603
 1495SOL     OW 4816   0.461   3.128   3.589
 1495SOL    HW1 4817   0.411   3.129   3.503
 1495SOL    HW2 4818   0.398   3.110   3.665
 1496SOL     OW 4819   1.111   3.638   2.099
 1496SOL    HW1 4820   1.051   3.576   2.149
 1496SOL    HW2 4821   1.142   3.594   2.014
 1497SOL     OW 4822   0.202   2.147   3.360
 1497SOL    HW1 4823   0.122   2.207   3.347
 1497SOL    HW2 4824   0.192   2.098   3.446
 1498SOL     OW 4825   1.632   3.239   1.943
 1498SOL    HW1 4826   1.600   3.333   1.933
 1498SOL    HW2 4827   1.556   3.176   1.931
 1499SOL     OW 4828   0.464   3.605   2.185
 1499SOL    HW1 4829   0.497   3.644   2.271
 1499SOL    HW2 4830   0.540   3.598   2.120
 1500SOL     OW 4831   1.400   1.969   2.288
 1500SOL    HW1 4832   1.376   1.932   2.198
 1500SOL    HW2 4833   1.499   1.985   2.292
 1501SOL     OW 4834   0.249   3.647   3.103
 1501SOL    HW1 4835   0.306   3.582   3.153
 1501SOL    HW2 4836   0.233   3.614   3.010
 1502SOL     OW 4837   0.940   3.560   2.766
 1502SOL    HW1 4838   1.020   3.503   2.787
 1502SOL    HW2 4839   0.891   3.520   2.689
 1503SOL     OW 4840   0.382   2.562   2.342
 1503SOL    HW1 4841   0.427   2.472   2.339
 1503SOL    HW2 4842   0.288   2.551   2.375
 1504SOL     OW 4843   1.547   2.084   3.591
 1504SOL    HW1 4844   1.542   2.121   3.683
 1504SOL    HW2 4845   1.475   2.015   3.579
 1505SOL     OW 4846   0.614   1.984   1.979
 1505SOL    HW1 4847   0.712   1.962   1.986
 1505SOL    HW2 4848   0.583   1.967   1.886
 1506SOL     OW 4849   0.781   2.126   3.611
 1506SOL    HW1 4850   0.848   2.065   3.654
 1506SOL    HW2 4851   0.708   2.145   3.676
 1507SOL     OW 4852   0.888   3.376   3.057
 1507SOL    HW1 4853   0.865   3.351   2.963
 1507SOL    HW2 4854   0.949   3.307   3.096
 1508SOL     OW 4855   1.351   2.452   3.295
 1508SOL    HW1 4856   1.379   2.409   3.380
 1508SOL    HW2 4857   1.376   2.548   3.296
 1509SOL     OW 4858   0.803   3.264   2.786
 1509SOL    HW1 4859   0.893   3.278   2.744
 1509SOL    HW2 4860   0.732   3.266   2.715
 1510SOL     OW 4861   0.922   2.365   2.761
 1510SOL    HW1 4862   0.897   2.356   2.665
 1510SOL    HW2 4863   0.970   2.283   2.792
 1511SOL     OW 4864   0.539   1.926   2.374
 1511SOL    HW1 4865   0.458   1.927   2.432
 1511SOL    HW2 4866   0.542   2.009   2.319
 1512SOL     OW 4867   1.434   3.050   1.903
 1512SOL    HW1 4868   1.466   2.974   1.960
 1512SOL    HW2 4869   1.342   3.077   1.933
 1513SOL     OW 4870   0.297   1.897   2.033
 1513SOL    HW1 4871   0.346   1.981   2.012
 1513SOL    HW2 4872   0.359   1.832   2.078
 1514SOL     OW 4873   0.935   2.098   2.342
 1514SOL    HW1 4874   0.887   2.139   2.264
 1514SOL    HW2 4875   1.034   2.096   2.323
 1515SOL     OW 4876   1.076   2.545   3.326
 1515SOL    HW1 4877   0.996   2.484   3.329
 1515SOL    HW2 4878   1.157   2.492   3.302
 1516SOL     OW 4879   1.227   3.432   2.655
 1516SOL    HW1 4880   1.248   3.506   2.590
 1516SOL    HW2 4881   1.295   3.432   2.728
 1517SOL     OW 4882   0.459   3.014   2.603
 1517SOL    HW1 4883   0.388   2.987   2.668
 1517SOL    HW2 4884   0.433   2.986   2.510
 1518SOL     OW 4885   1.271   3.659   2.453
 1518SOL    HW1 4886   1.315   3.723   2.389
 1518SOL    HW2 4887   1.221   3.711   2.523
 1519SOL     OW 4888   1.032   2.411   1.878
 1519SOL    HW1 4889   0.991   2.493   1.839
 1519SOL    HW2 4890   1.096   2.437   1.951
 1520SOL     OW 4891   0.078   2.418   3.248
 1520SOL    HW1 4892   0.170   2.417   3.207
 1520SOL    HW2 4893   0.072   2.492   3.315
 1521SOL     OW 4894   0.561   2.084   3.009
 1521SOL    HW1 4895   0.599   2.000   3.046
 1521SOL    HW2 4896   0.473   2.103   3.053
 1522SOL     OW 4897   0.866   2.316   2.504
 1522SOL    HW1 4898   0.834   2.388   2.442
 1522SOL    HW2 4899   0.890   2.235   2.451
 1523SOL     OW 4900   1.017   1.901   2.615
 1523SOL    HW1 4901   0.945   1.906   2.546
 1523SOL    HW2 4902   0.993   1.832   2.684
 1524SOL     OW 4903   1.429   3.035   2.729
 1524SOL    HW1 4904   1.374   2.951   2.722
 1524SOL    HW2 4905   1.455   3.064   2.637
 1525SOL     OW 4906   1.466   2.452   2.854
 1525SOL    HW1 4907   1.436   2.357   2.861
 1525SOL    HW2 4908   1.539   2.468   2.920
 1526SOL     OW 4909   1.857   2.695   2.239
 1526SOL    HW1 4910   1.899   2.631   2.303
 1526SOL    HW2 4911   1.819   2.644   2.161
 1527SOL     OW 4912   0.488   3.247   2.036
 1527SOL    HW1 4913   0.401   3.232   2.083
 1527SOL    HW2 4914   0.471   3.273   1.941
 1528SOL     OW 4915   1.664   3.142   2.519
 1528SOL    HW1 4916   1.763   3.150   2.533
 1528SOL    HW2 4917   1.619   3.226   2.550
 1529SOL     OW 4918   1.390   2.437   1.940
 1529SOL    HW1 4919   1.336   2.416   2.021
 1529SOL    HW2 4920   1.481   2.396   1.949
 1530SOL     OW 4921   0.527   2.118   2.190
 1530SOL    HW1 4922   0.554   2.059   2.115
 1530SOL    HW2 4923   0.527   2.213   2.159
 1531SOL     OW 4924   1.754   3.085   3.450
 1531SOL    HW1 4925   1.845   3.046   3.437
 1531SOL    HW2 4926   1.762   3.181   3.474
 1532SOL     OW 4927   1.064   3.209   3.202
 1532SOL    HW1 4928   0.984   3.186   3.257
 1532SOL    HW2 4929   1.147   3.183   3.251
 1533SOL     OW 4930   1.592   3.491   3.487
 1533SOL    HW1 4931   1.619   3.525   3.397
 1533SOL    HW2 4932   1.671   3.453   3.533
 1534SOL     OW 4933   1.111   3.057   2.962
 1534SOL    HW1 4934   1.071   3.101   3.043
 1534SOL    HW2 4935   1.070   3.094   2.879
 1535SOL     OW 4936   1.638   2.961   2.941
 1535SOL    HW1 4937   1.643   3.042   3.000
 1535SOL    HW2 4938   1.552   2.963   2.890
 1536SOL     OW 4939   0.915   1.951   3.264
 1536SOL    HW1 4940   0.940   1.931   3.169
 1536SOL    HW2 4941   0.987   2.007   3.306
 1537SOL     OW 4942   0.980   2.978   3.581
 1537SOL    HW1 4943   0.881   2.984   3.591
 1537SOL    HW2 4944   1.003   2.898   3.525
 1538SOL     OW 4945   0.705   2.912   2.230
 1538SOL    HW1 4946   0.691   2.919   2.329
 1538SOL    HW2 4947   0.789   2.861   2.212
 1539SOL     OW 4948   0.410   2.675   3.113
 1539SOL    HW1 4949   0.496   2.687   3.163
 1539SOL    HW2 4950   0.368   2.588   3.140
 1540SOL     OW 4951   1.274   2.248   3.124
 1540SOL    HW1 4952   1.295   2.322   3.188
 1540SOL    HW2 4953   1.185   2.265   3.081
 1541SOL     OW 4954   0.064   3.426   3.193
 1541SOL    HW1 4955   0.018   3.508   3.159
 1541SOL    HW2 4956   0.162   3.445   3.202
 1542SOL     OW 4957   0.367   2.962   2.363
 1542SOL    HW1 4958   0.360   3.045   2.307
 1542SOL    HW2 4959   0.371   2.882   2.303
 1543SOL     OW 4960   0.566   2.399   2.727
 1543SOL    HW1 4961   0.578   2.465   2.653
 1543SOL    HW2 4962   0.612   2.433   2.810
 1544SOL     OW 4963   1.252   3.210   2.250
 1544SOL    HW1 4964   1.302   3.287   2.290
 1544SOL    HW2 4965   1.157   3.212   2.282
 1545SOL     OW 4966   1.272   3.307   3.004
 1545SOL    HW1 4967   1.319   3.320   3.091
 1545SOL    HW2 4968   1.206   3.233   3.013
 1546SOL     OW 4969   1.582   2.501   2.334
 1546SOL    HW1 4970   1.551   2.562   2.407
 1546SOL    HW2 4971   1.632   2.553   2.265
 1547SOL     OW 4972   0.354   3.372   3.191
 1547SOL    HW1 4973   0.333   3.328   3.104
 1547SOL    HW2 4974   0.451   3.398   3.194
 1548SOL     OW 4975   0.402   2.613   3.460
 1548SOL    HW1 4976   0.470   2.668   3.413
 1548SOL    HW2 4977   0.442   2.525   3.487
 1549SOL     OW 4978   1.587   2.641   3.532
 1549SOL    HW1 4979   1.495   2.679   3.527
 1549SOL    HW2 4980   1.647   2.688   3.467
 1550SOL     OW 4981   1.013   1.967   3.632
 1550SOL    HW1 4982   1.019   2.052   3.580
 1550SOL    HW2 4983   1.045   1.891   3.575
 1551SOL     OW 4984   0.504   1.912   3.602
 1551SOL    HW1 4985   0.462   1.855   3.532
 1551SOL    HW2 4986   0.438   1.981   3.634
 1552SOL     OW 4987   0.573   2.732   2.891
 1552SOL    HW1 4988   0.617   2.821   2.882
 1552SOL    HW2 4989   0.510   2.732   2.968
 1553SOL     OW 4990   1.360   2.724   2.907
 1553SOL    HW1 4991   1.285   2.724   2.841
 1553SOL    HW2 4992   1.397   2.632   2.916
 1554SOL     OW 4993   1.209   2.387   2.137
 1554SOL    HW1 4994   1.222   2.303   2.191
 1554SOL    HW2 4995   1.180   2.461   2.197
 1555SOL     OW 4996   0.307   2.075   3.093
 1555SOL    HW1 4997   0.284   2.112   3.183
 1555SOL    HW2 4998   0.277   1.980   3.087
 1556SOL     OW 4999   0.037   3.172   3.144
 1556SOL    HW1 5000   0.090   3.123   3.212
 1556SOL    HW2 5001   0.059   3.270   3.149
 1557SOL     OW 5002   0.732   2.496   2.926
 1557SOL    HW1 5003   0.791   2.470   2.850
 1557SOL    HW2 5004   0.704   2.592   2.915
 1558SOL     OW 5005   1.728   2.797   3.716
 1558SOL    HW1 5006   1.682   2.790   3.627
 1558SOL    HW2 5007   1.666   2.841   3.782
 1559SOL     OW 5008   0.307   1.925   2.480
 1559SOL    HW1 5009   0.296   2.019   2.513
 1559SOL    HW2 5010   0.302   1.862   2.557
 1560SOL     OW 5011   1.622   2.229   2.236
 1560SOL    HW1 5012   1.624   2.153   2.300
 1560SOL    HW2 5013   1.574   2.306   2.276
 1561SOL     OW 5014   1.023   2.628   2.828
 1561SOL    HW1 5015   1.038   2.649   2.924
 1561SOL    HW2 5016   0.993   2.533   2.819
 1562SOL     OW 5017   0.980   3.435   3.562
 1562SOL    HW1 5018   0.960   3.479   3.474
 1562SOL    HW2 5019   1.019   3.344   3.546
 1563SOL     OW 5020   1.859   3.380   3.467
 1563SOL    HW1 5021   1.873   3.407   3.372
 1563SOL    HW2 5022   1.942   3.402   3.520
 1564SOL     OW 5023   0.350   2.760   3.666
 1564SOL    HW1 5024   0.426   2.804   3.714
 1564SOL    HW2 5025   0.385   2.713   3.584
 1565SOL     OW 5026   1.540   2.136   1.987
 1565SOL    HW1 5027   1.479   2.061   2.010
 1565SOL    HW2 5028   1.562   2.188   2.070
 1566SOL     OW 5029   1.303   2.700   1.904
 1566SOL    HW1 5030   1.337   2.607   1.919
 1566SOL    HW2 5031   1.321   2.727   1.809
 1567SOL     OW 5032   1.068   3.195   2.711
 1567SOL    HW1 5033   1.075   3.111   2.656
 1567SOL    HW2 5034   1.130   3.264   2.675
 1568SOL     OW 5035   0.319   2.672   2.811
 1568SOL    HW1 5036   0.412   2.708   2.816
 1568SOL    HW2 5037   0.313   2.587   2.863
 1569SOL     OW 5038   0.339   2.371   2.868
 1569SOL    HW1 5039   0.287   2.288   2.851
 1569SOL    HW2 5040   0.416   2.376   2.804
 1570SOL     OW 5041   1.138   2.242   3.540
 1570SOL    HW1 5042   1.093   2.305   3.604
 1570SOL    HW2 5043   1.231   2.273   3.523
 1571SOL     OW 5044   1.160   2.069   3.339
 1571SOL    HW1 5045   1.160   2.133   3.416
 1571SOL    HW2 5046   1.188   2.117   3.256
 1572SOL     OW 5047   0.008   3.188   2.062
 1572SOL    HW1 5048  -0.085   3.209   2.031
 1572SOL    HW2 5049   0.018   3.089   2.075
 1573SOL     OW 5050   0.088   3.663   2.789
 1573SOL    HW1 5051   0.046   3.577   2.762
 1573SOL    HW2 5052   0.182   3.666   2.755
 1574SOL     OW 5053   0.504   3.430   2.772
 1574SOL    HW1 5054   0.570   3.504   2.781
 1574SOL    HW2 5055   0.548   3.351   2.730
 1575SOL     OW 5056   1.002   2.658   3.100
 1575SOL    HW1 5057   1.043   2.626   3.186
 1575SOL    HW2 5058   0.906   2.631   3.097
 1576SOL     OW 5059   0.040   2.406   2.976
 1576SOL    HW1 5060   0.125   2.373   2.935
 1576SOL    HW2 5061   0.053   2.421   3.074
 1577SOL     OW 5062   0.189   2.382   3.584
 1577SOL    HW1 5063   0.248   2.342   3.514
 1577SOL    HW2 5064   0.131   2.453   3.543
 1578SOL     OW 5065   1.369   2.812   3.522
 1578SOL    HW1 5066   1.408   2.901   3.542
 1578SOL    HW2 5067   1.379   2.792   3.425
 1579SOL     OW 5068   0.815   2.434   2.187
 1579SOL    HW1 5069   0.822   2.345   2.141
 1579SOL    HW2 5070   0.721   2.468   2.179
 1580SOL     OW 5071   1.657   2.466   3.068
 1580SOL    HW1 5072   1.619   2.397   3.130
 1580SOL    HW2 5073   1.739   2.430   3.024
 1581SOL     OW 5074   0.252   3.426   3.606
 1581SOL    HW1 5075   0.222   3.483   3.682
 1581SOL    HW2 5076   0.245   3.329   3.632
 1582SOL     OW 5077   0.671   2.326   3.131
 1582SOL    HW1 5078   0.637   2.237   3.101
 1582SOL    HW2 5079   0.697   2.380   3.051
 1583SOL     OW 5080   0.930   3.540   3.327
 1583SOL    HW1 5081   0.906   3.522   3.232
 1583SOL    HW2 5082   0.960   3.634   3.337
 1584SOL     OW 5083   0.473   2.362   2.053
 1584SOL    HW1 5084   0.534   2.442   2.057
 1584SOL    HW2 5085   0.378   2.393   2.060
 1585SOL     OW 5086   0.159   2.999   3.328
 1585SOL    HW1 5087   0.181   2.938   3.404
 1585SOL    HW2 5088   0.169   2.950   3.242
 1586SOL     OW 5089   1.347   2.921   3.096
 1586SOL    HW1 5090   1.371   2.858   3.022
 1586SOL    HW2 5091   1.257   2.961   3.078
 1587SOL     OW 5092   1.302   2.717   2.171
 1587SOL    HW1 5093   1.216   2.686   2.213
 1587SOL    HW2 5094   1.298   2.703   2.072
 1588SOL     OW 5095   1.759   3.609   3.016
 1588SOL    HW1 5096   1.820   3.639   2.943
 1588SOL    HW2 5097   1.721   3.520   2.994
 1589SOL     OW 5098   1.252   3.593   2.990
 1589SOL    HW1 5099   1.336   3.598   2.936
 1589SOL    HW2 5100   1.229   3.497   3.008
 1590SOL     OW 5101   0.083   3.120   2.884
 1590SOL    HW1 5102   0.078   3.119   2.984
 1590SOL    HW2 5103   0.000   3.079   2.846
 1591SOL     OW 5104   0.688   3.524   3.578
 1591SOL    HW1 5105   0.632   3.605   3.587
 1591SOL    HW2 5106   0.740   3.528   3.492
 1592SOL     OW 5107   1.726   1.997   2.385
 1592SOL    HW1 5108   1.799   1.980   2.318
 1592SOL    HW2 5109   1.695   1.910   2.423
 1593SOL     OW 5110   1.388   3.435   2.339
 1593SOL    HW1 5111   1.455   3.447   2.265
 1593SOL    HW2 5112   1.348   3.524   2.362
 1594SOL     OW 5113   0.130   3.656   3.713
 1594SOL    HW1 5114   0.089   3.582   3.766
 1594SOL    HW2 5115   0.194   3.707   3.771
 1595SOL     OW 5116   1.280   2.789   2.534
 1595SOL    HW1 5117   1.340   2.708   2.536
 1595SOL    HW2 5118   1.320   2.858   2.474
 1596SOL     OW 5119   0.830   3.135   3.284
 1596SOL    HW1 5120   0.825   3.168   3.379
 1596SOL    HW2 5121   0.744   3.154   3.238
 1597SOL     OW 5122   0.672   3.478   2.016
 1597SOL    HW1 5123   0.681   3.488   1.917
 1597SOL    HW2 5124   0.632   3.389   2.037
 1598SOL     OW 5125   1.650   3.582   3.256
 1598SOL    HW1 5126   1.703   3.592   3.172
 1598SOL    HW2 5127   1.623   3.672   3.290
 1599SOL     OW 5128   1.841   2.037   2.825
 1599SOL    HW1 5129   1.880   1.952   2.789
 1599SOL    HW2 5130   1.743   2.039   2.806
 1600SOL     OW 5131   0.263   2.188   2.582
 1600SOL    HW1 5132   0.184   2.239   2.548
 1600SOL    HW2 5133   0.254   2.173   2.680
 1601SOL     OW 5134   1.194   3.474   1.893
 1601SOL    HW1 5135   1.200   3.381   1.930
 1601SOL    HW2 5136   1.135   3.474   1.813
 1602SOL     OW 5137   0.822   2.864   3.234
 1602SOL    HW1 5138   0.862   2.863   3.142
 1602SOL    HW2 5139   0.832   2.956   3.274
 1603SOL     OW 5140   0.916   2.772   2.153
 1603SOL    HW1 5141   0.979   2.810   2.085
 1603SOL    HW2 5142   0.956   2.689   2.192
 1604SOL     OW 5143   1.504   3.469   1.906
 1604SOL    HW1 5144   1.412   3.506   1.913
 1604SOL    HW2 5145   1.542   3.489   1.816
 1605SOL     OW 5146   0.372   3.150   3.352
 1605SOL    HW1 5147   0.359   3.243   3.318
 1605SOL    HW2 5148   0.288   3.098   3.339
 1606SOL     OW 5149   1.614   3.154   3.151
 1606SOL    HW1 5150   1.674   3.157   3.231
 1606SOL    HW2 5151   1.539   3.218   3.164
 1607SOL     OW 5152   1.039   2.960   2.558
 1607SOL    HW1 5153   0.969   2.913   2.612
 1607SOL    HW2 5154   1.098   2.892   2.515
 1608SOL     OW 5155   1.014   2.098   2.833
 1608SOL    HW1 5156   1.006   2.062   2.740
 1608SOL    HW2 5157   1.012   2.022   2.898
 1609SOL     OW 5158   0.590   3.349   2.353
 1609SOL    HW1 5159   0.632   3.291   2.283
 1609SOL    HW2 5160   0.546   3.428   2.309
 1610SOL     OW 5161   1.709   2.247   3.243
 1610SOL    HW1 5162   1.782   2.316   3.247
 1610SOL    HW2 5163   1.737   2.172   3.184
 1611SOL     OW 5164   0.255   3.210   2.152
 1611SOL    HW1 5165   0.159   3.211   2.125
 1611SOL    HW2 5166   0.267   3.263   2.236
 1612SOL     OW 5167   0.105   2.875   3.588
 1612SOL    HW1 5168   0.028   2.842   3.642
 1612SOL    HW2 5169   0.190   2.845   3.630
 1613SOL     OW 5170   0.672   2.065   3.351
 1613SOL    HW1 5171   0.762   2.049   3.311
 1613SOL    HW2 5172   0.680   2.070   3.450
 1614SOL     OW 5173   0.075   2.207   1.895
 1614SOL    HW1 5174  -0.017   2.179   1.866
 1614SOL    HW2 5175   0.106   2.284   1.839
 1615SOL     OW 5176   1.440   2.718   3.260
 1615SOL    HW1 5177   1.383   2.770   3.197
 1615SOL    HW2 5178   1.536   2.730   3.236
 1616SOL     OW 5179   0.072   2.028   2.180
 1616SOL    HW1 5180   0.055   2.111   2.126
 1616SOL    HW2 5181   0.162   1.991   2.158
 1617SOL     OW 5182   1.183   3.197   1.981
 1617SOL    HW1 5183   1.084   3.186   1.983
 1617SOL    HW2 5184   1.217   3.212   2.074
 1618SOL     OW 5185   0.613   2.704   3.293
 1618SOL    HW1 5186   0.669   2.785   3.276
 1618SOL    HW2 5187   0.672   2.624   3.296
 1619SOL     OW 5188   1.493   3.629   2.821
 1619SOL    HW1 5189   1.526   3.693   2.752
 1619SOL    HW2 5190   1.559   3.623   2.896
 1620SOL     OW 5191   0.716   2.427   3.570
 1620SOL    HW1 5192   0.735   2.492   3.644
 1620SOL    HW2 5193   0.776   2.347   3.579
 1621SOL     OW 5194   1.450   3.082   3.495
 1621SOL    HW1 5195   1.441   3.072   3.594
 1621SOL    HW2 5196   1.546   3.075   3.469
 1622SOL     OW 5197   0.390   3.603   3.422
 1622SOL    HW1 5198   0.299   3.644   3.420
 1622SOL    HW2 5199   0.383   3.509   3.454
 1623SOL     OW 5200   1.674   2.745   3.116
 1623SOL    HW1 5201   1.647   2.656   3.079
 1623SOL    HW2 5202   1.675   2.813   3.043
 1624SOL     OW 5203   1.225   2.187   2.311
 1624SOL    HW1 5204   1.290   2.113   2.300
 1624SOL    HW2 5205   1.245   2.237   2.395
 1625SOL     OW 5206   0.594   2.607   2.514
 1625SOL    HW1 5207   0.644   2.692   2.495
 1625SOL    HW2 5208   0.506   2.609   2.466
 1626SOL     OW 5209   1.777   2.204   3.504
 1626SOL    HW1 5210   1.760   2.235   3.410
 1626SOL    HW2 5211   1.693   2.167   3.542
 1627SOL     OW 5212   1.730   2.796   3.379
 1627SOL    HW1 5213   1.768   2.887   3.394
 1627SOL    HW2 5214   1.722   2.779   3.280
 1628SOL     OW 5215   0.859   3.236   1.878
 1628SOL    HW1 5216   0.813   3.251   1.966
 1628SOL    HW2 5217   0.903   3.321   1.848
 1629SOL     OW 5218   0.661   3.652   2.815
 1629SOL    HW1 5219   0.615   3.740   2.802
 1629SOL    HW2 5220   0.760   3.664   2.808
 1630SOL     OW 5221   0.859   2.818   2.723
 1630SOL    HW1 5222   0.913   2.749   2.771
 1630SOL    HW2 5223   0.827   2.887   2.789
 1631SOL     OW 5224   1.083   2.846   1.949
 1631SOL    HW1 5225   1.060   2.899   1.867
 1631SOL    HW2 5226   1.164   2.790   1.930
 1632SOL     OW 5227   1.861   3.431   2.713
 1632SOL    HW1 5228   1.790   3.419   2.643
 1632SOL    HW2 5229   1.862   3.352   2.773
 1633SOL     OW 5230   0.221   3.176   3.706
 1633SOL    HW1 5231   0.156   3.103   3.685
 1633SOL    HW2 5232   0.225   3.190   3.804
 1634SOL     OW 5233   0.079   3.102   2.515
 1634SOL    HW1 5234   0.078   3.055   2.603
 1634SOL    HW2 5235   0.161   3.074   2.464
 1635SOL     OW 5236   0.672   3.253   3.486
 1635SOL    HW1 5237   0.594   3.203   3.524
 1635SOL    HW2 5238   0.669   3.348   3.517
 1636SOL     OW 5239   1.824   2.054   3.089
 1636SOL    HW1 5240   1.820   1.964   3.133
 1636SOL    HW2 5241   1.827   2.043   2.990
 1637SOL     OW 5242   0.428   2.286   2.382
 1637SOL    HW1 5243   0.458   2.214   2.320
 1637SOL    HW2 5244   0.389   2.246   2.465
 1638SOL     OW 5245   1.705   3.349   2.966
 1638SOL    HW1 5246   1.612   3.324   2.939
 1638SOL    HW2 5247   1.731   3.299   3.048
 1639SOL     OW 5248   0.317   2.409   3.142
 1639SOL    HW1 5249   0.355   2.350   3.214
 1639SOL    HW2 5250   0.357   2.383   3.054
 1640SOL     OW 5251   0.812   3.448   2.549
 1640SOL    HW1 5252   0.844   3.458   2.455
 1640SOL    HW2 5253   0.733   3.386   2.551
 1641SOL     OW 5254   1.424   2.076   2.974
 1641SOL    HW1 5255   1.476   2.011   3.029
 1641SOL    HW2 5256   1.375   2.139   3.035
 1642SOL     OW 5257   1.001   1.896   3.016
 1642SOL    HW1 5258   0.938   1.824   2.985
 1642SOL    HW2 5259   1.094   1.860   3.016
 1643SOL     OW 5260   0.770   3.192   2.163
 1643SOL    HW1 5261   0.724   3.105   2.180
 1643SOL    HW2 5262   0.861   3.189   2.204
 1644SOL     OW 5263   0.618   3.429   3.146
 1644SOL    HW1 5264   0.613   3.511   3.203
 1644SOL    HW2 5265   0.707   3.426   3.101
 1645SOL     OW 5266   1.352   1.914   2.030
 1645SOL    HW1 5267   1.387   1.873   1.946
 1645SOL    HW2 5268   1.262   1.876   2.050
 1646SOL     OW 5269   1.300   2.315   2.553
 1646SOL    HW1 5270   1.241   2.395   2.557
 1646SOL    HW2 5271   1.315   2.280   2.646
 1647SOL     OW 5272   1.593   2.083   2.744
 1647SOL    HW1 5273   1.509   2.082   2.798
 1647SOL    HW2 5274   1.595   2.166   2.688
 1648SOL     OW 5275   0.039   2.939   2.162
 1648SOL    HW1 5276   0.138   2.928   2.153
 1648SOL    HW2 5277  -0.001   2.853   2.194
 1649SOL     OW 5278   0.875   3.508   2.199
 1649SOL    HW1 5279   0.798   3.473   2.145
 1649SOL    HW2 5280   0.843   3.579   2.261
 1650SOL     OW 5281   0.230   2.490   3.837
 1650SOL    HW1 5282   0.137   2.488   3.874
 1650SOL    HW2 5283   0.231   2.451   3.745
 1651SOL     OW 5284   0.225   2.137   4.720
 1651SOL    HW1 5285   0.260   2.120   4.812
 1651SOL    HW2 5286   0.137   2.092   4.708
 1652SOL     OW 5287   0.019   2.230   4.371
 1652SOL    HW1 5288  -0.063   2.273   4.410
 1652SOL    HW2 5289  -0.009   2.157   4.308
 1653SOL     OW 5290   0.569   3.137   4.889
 1653SOL    HW1 5291   0.476   3.130   4.852
 1653SOL    HW2 5292   0.580   3.226   4.933
 1654SOL     OW 5293   1.555   3.373   4.427
 1654SOL    HW1 5294   1.498   3.357   4.508
 1654SOL    HW2 5295   1.496   3.383   4.347
 1655SOL     OW 5296   1.135   2.565   4.441
 1655SOL    HW1 5297   1.192   2.643   4.416
 1655SOL    HW2 5298   1.075   2.591   4.517
 1656SOL     OW 5299   1.755   2.469   3.955
 1656SOL    HW1 5300   1.743   2.456   3.856
 1656SOL    HW2 5301   1.725   2.388   4.004
 1657SOL     OW 5302   0.768   3.006   4.747
 1657SOL    HW1 5303   0.690   3.023   4.807
 1657SOL    HW2 5304   0.802   3.093   4.711
 1658SOL     OW 5305   0.850   2.660   5.547
 1658SOL    HW1 5306   0.846   2.736   5.612
 1658SOL    HW2 5307   0.872   2.696   5.456
 1659SOL     OW 5308   0.685   2.874   4.389
 1659SOL    HW1 5309   0.754   2.858   4.459
 1659SOL    HW2 5310   0.612   2.931   4.427
 1660SOL     OW 5311   0.686   3.023   5.527
 1660SOL    HW1 5312   0.746   3.102   5.541
 1660SOL    HW2 5313   0.600   3.054   5.486
 1661SOL     OW 5314   0.335   3.297   4.785
 1661SOL    HW1 5315   0.257   3.266   4.732
 1661SOL    HW2 5316   0.393   3.355   4.728
 1662SOL     OW 5317   1.460   3.367   5.063
 1662SOL    HW1 5318   1.484   3.461   5.089
 1662SOL    HW2 5319   1.444   3.313   5.145
 1663SOL     OW 5320   0.438   2.254   5.223
 1663SOL    HW1 5321   0.520   2.198   5.232
 1663SOL    HW2 5322   0.357   2.196   5.227
 1664SOL     OW 5323   1.603   2.309   4.461
 1664SOL    HW1 5324   1.529   2.355   4.411
 1664SOL    HW2 5325   1.654   2.377   4.514
 1665SOL     OW 5326   0.231   3.575   4.207
 1665SOL    HW1 5327   0.265   3.652   4.261
 1665SOL    HW2 5328   0.275   3.575   4.117
 1666SOL     OW 5329   1.127   3.203   5.414
 1666SOL    HW1 5330   1.174   3.203   5.502
 1666SOL    HW2 5331   1.079   3.116   5.403
 1667SOL     OW 5332   0.230   3.296   4.262
 1667SOL    HW1 5333   0.204   3.392   4.262
 1667SOL    HW2 5334   0.159   3.242   4.307
 1668SOL     OW 5335   0.240   2.953   4.610
 1668SOL    HW1 5336   0.254   2.869   4.662
 1668SOL    HW2 5337   0.185   3.017   4.665
 1669SOL     OW 5338   0.620   3.648   5.163
 1669SOL    HW1 5339   0.528   3.631   5.198
 1669SOL    HW2 5340   0.648   3.740   5.189
 1670SOL     OW 5341   0.606   2.826   3.847
 1670SOL    HW1 5342   0.613   2.910   3.793
 1670SOL    HW2 5343   0.652   2.839   3.935
 1671SOL     OW 5344   1.594   1.976   5.204
 1671SOL    HW1 5345   1.576   2.043   5.132
 1671SOL    HW2 5346   1.591   2.022   5.293
 1672SOL     OW 5347   0.122   2.505   4.287
 1672SOL    HW1 5348   0.077   2.417   4.304
 1672SOL    HW2 5349   0.121   2.559   4.371
 1673SOL     OW 5350   1.842   3.629   4.083
 1673SOL    HW1 5351   1.896   3.600   4.163
 1673SOL    HW2 5352   1.872   3.719   4.054
 1674SOL     OW 5353   0.027   3.458   3.841
 1674SOL    HW1 5354   0.008   3.362   3.862
 1674SOL    HW2 5355  -0.006   3.516   3.916
 1675SOL     OW 5356   1.689   2.784   4.336
 1675SOL    HW1 5357   1.784   2.755   4.344
 1675SOL    HW2 5358   1.681   2.849   4.261
 1676SOL     OW 5359   1.641   2.970   4.156
 1676SOL    HW1 5360   1.727   2.972   4.104
 1676SOL    HW2 5361   1.655   3.017   4.244
 1677SOL     OW 5362   0.113   2.599   5.321
 1677SOL    HW1 5363   0.201   2.586   5.366
 1677SOL    HW2 5364   0.100   2.696   5.299
 1678SOL     OW 5365   0.613   3.227   4.450
 1678SOL    HW1 5366   0.564   3.140   4.459
 1678SOL    HW2 5367   0.590   3.270   4.363
 1679SOL     OW 5368   1.293   3.090   5.147
 1679SOL    HW1 5369   1.330   3.017   5.089
 1679SOL    HW2 5370   1.345   3.095   5.232
 1680SOL     OW 5371   0.809   1.866   4.226
 1680SOL    HW1 5372   0.849   1.957   4.217
 1680SOL    HW2 5373   0.709   1.874   4.232
 1681SOL     OW 5374   0.197   2.838   4.988
 1681SOL    HW1 5375   0.286   2.793   4.974
 1681SOL    HW2 5376   0.124   2.773   4.969
 1682SOL     OW 5377   1.525   2.861   3.914
 1682SOL    HW1 5378   1.462   2.785   3.927
 1682SOL    HW2 5379   1.573   2.879   4.000
 1683SOL     OW 5380   1.187   3.654   5.340
 1683SOL    HW1 5381   1.211   3.714   5.264
 1683SOL    HW2 5382   1.194   3.559   5.310
 1684SOL     OW 5383   0.317   2.113   5.525
 1684SOL    HW1 5384   0.388   2.184   5.531
 1684SOL    HW2 5385   0.229   2.152   5.553
 1685SOL     OW 5386   1.466   3.279   4.677
 1685SOL    HW1 5387   1.407   3.285   4.757
 1685SOL    HW2 5388   1.451   3.191   4.631
 1686SOL     OW 5389   1.667   3.576   4.296
 1686SOL    HW1 5390   1.626   3.553   4.208
 1686SOL    HW2 5391   1.649   3.502   4.361
 1687SOL     OW 5392   0.598   2.591   3.994
 1687SOL    HW1 5393   0.622   2.660   3.926
 1687SOL    HW2 5394   0.520   2.624   4.048
 1688SOL     OW 5395   1.281   2.207   4.668
 1688SOL    HW1 5396   1.195   2.157   4.655
 1688SOL    HW2 5397   1.343   2.153   4.724
 1689SOL     OW 5398   1.576   3.524   4.031
 1689SOL    HW1 5399   1.665   3.570   4.034
 1689SOL    HW2 5400   1.555   3.500   3.936
 1690SOL     OW 5401   0.807   2.467   5.189
 1690SOL    HW1 5402   0.760   2.464   5.278
 1690SOL    HW2 5403   0.756   2.412   5.123
 1691SOL     OW 5404   1.394   2.331   5.398
 1691SOL    HW1 5405   1.374   2.374   5.486
 1691SOL    HW2 5406   1.472   2.269   5.407
 1692SOL     OW 5407   0.973   2.752   5.296
 1692SOL    HW1 5408   1.019   2.668   5.267
 1692SOL    HW2 5409   0.917   2.786   5.221
 1693SOL     OW 5410   0.991   2.272   4.966
 1693SOL    HW1 5411   0.914   2.306   5.020
 1693SOL    HW2 5412   0.957   2.221   4.887
 1694SOL     OW 5413   1.041   2.563   4.153
 1694SOL    HW1 5414   1.067   2.559   4.249
 1694SOL    HW2 5415   0.956   2.512   4.139
 1695SOL     OW 5416   0.076   2.673   4.513
 1695SOL    HW1 5417   0.175   2.661   4.522
 1695SOL    HW2 5418   0.052   2.768   4.534
 1696SOL     OW 5419   0.130   3.683   5.295
 1696SOL    HW1 5420   0.120   3.668   5.394
 1696SOL    HW2 5421   0.044   3.719   5.259
 1697SOL     OW 5422   0.865   2.210   3.919
 1697SOL    HW1 5423   0.924   2.273   3.870
 1697SOL    HW2 5424   0.884   2.116   3.890
 1698SOL     OW 5425   1.719   2.447   5.555
 1698SOL    HW1 5426   1.693   2.536   5.519
 1698SOL    HW2 5427   1.717   2.379   5.482
 1699SOL     OW 5428   1.362   3.006   4.269
 1699SOL    HW1 5429   1.445   2.977   4.221
 1699SOL    HW2 5430   1.313   3.073   4.213
 1700SOL     OW 5431   0.550   2.058   4.609
 1700SOL    HW1 5432   0.545   2.053   4.709
 1700SOL    HW2 5433   0.552   2.154   4.580
 1701SOL     OW 5434   1.008   3.318   4.201
 1701SOL    HW1 5435   0.962   3.390   4.149
 1701SOL    HW2 5436   1.004   3.338   4.299
 1702SOL     OW 5437   0.351   3.663   4.577
 1702SOL    HW1 5438   0.401   3.577   4.583
 1702SOL    HW2 5439   0.416   3.740   4.574
 1703SOL     OW 5440   1.795   2.928   4.597
 1703SOL    HW1 5441   1.733   2.913   4.521
 1703SOL    HW2 5442   1.743   2.939   4.682
 1704SOL     OW 5443   1.227   3.412   5.230
 1704SOL    HW1 5444   1.233   3.335   5.294
 1704SOL    HW2 5445   1.175   3.386   5.150
 1705SOL     OW 5446   0.321   2.805   3.966
 1705SOL    HW1 5447   0.403   2.844   3.924
 1705SOL    HW2 5448   0.294   2.723   3.917
 1706SOL     OW 5449   1.458   2.597   4.452
 1706SOL    HW1 5450   1.453   2.532   4.527
 1706SOL    HW2 5451   1.538   2.656   4.465
 1707SOL     OW 5452   0.461   3.128   5.451
 1707SOL    HW1 5453   0.411   3.129   5.365
 1707SOL    HW2 5454   0.398   3.110   5.527
 1708SOL     OW 5455   1.111   3.638   3.961
 1708SOL    HW1 5456   1.051   3.576   4.011
 1708SOL    HW2 5457   1.142   3.594   3.876
 1709SOL     OW 5458   0.202   2.147   5.222
 1709SOL    HW1 5459   0.122   2.207   5.209
 1709SOL    HW2 5460   0.192   2.098   5.308
 1710SOL     OW 5461   1.632   3.239   3.805
 1710SOL    HW1 5462   1.600   3.333   3.795
 1710SOL    HW2 5463   1.556   3.176   3.793
 1711SOL     OW 5464   0.464   3.605   4.047
 1711SOL    HW1 5465   0.497   3.644   4.133
 1711SOL    HW2 5466   0.540   3.598   3.982
 1712SOL     OW 5467   1.400   1.969   4.150
 1712SOL    HW1 5468   1.376   1.932   4.060
 1712SOL    HW2 5469   1.499   1.985   4.154
 1713SOL     OW 5470   0.249   3.647   4.965
 1713SOL    HW1 5471   0.306   3.582   5.015
 1713SOL    HW2 5472   0.233   3.614   4.872
 1714SOL     OW 5473   0.940   3.560   4.628
 1714SOL    HW1 5474   1.020   3.503   4.649
 1714SOL    HW2 5475   0.891   3.520   4.551
 1715SOL     OW 5476   0.382   2.562   4.204
 1715SOL    HW1 5477   0.427   2.472   4.201
 1715SOL    HW2 5478   0.288   2.551   4.237
 1716SOL     OW 5479   1.547   2.084   5.453
 1716SOL    HW1 5480   1.542   2.121   5.545
 1716SOL    HW2 5481   1.475   2.015   5.441
 1717SOL     OW 5482   0.614   1.984   3.841
 1717SOL    HW1 5483   0.712   1.962   3.848
 1717SOL    HW2 5484   0.583   1.967   3.748
 1718SOL     OW 5485   0.781   2.126   5.473
 1718SOL    HW1 5486   0.848   2.065   5.516
 1718SOL    HW2 5487   0.708   2.145   5.538
 1719SOL     OW 5488   0.888   3.376   4.919
 1719SOL    HW1 5489   0.865   3.351   4.825
 1719SOL    HW2 5490   0.949   3.307   4.958
 1720SOL     OW 5491   1.351   2.452   5.157
 1720SOL    HW1 5492   1.379   2.409   5.242
 1720SOL    HW2 5493   1.376   2.548   5.158
 1721SOL     OW 5494   0.803   3.264   4.648
 1721SOL    HW1 5495   0.893   3.278   4.606
 1721SOL    HW2 5496   0.732   3.266   4.577
 1722SOL     OW 5497   0.922   2.365   4.623
 1722SOL    HW1 5498   0.897   2.356   4.527
 1722SOL    HW2 5499   0.970   2.283   4.654
 1723SOL     OW 5500   0.539   1.926   4.236
 1723SOL    HW1 5501   0.458   1.927   4.294
 1723SOL    HW2 5502   0.542   2.009   4.181
 1724SOL     OW 5503   1.434   3.050   3.765
 1724SOL    HW1 5504   1.466   2.974   3.822
 1724SOL    HW2 5505   1.342   3.077   3.795
 1725SOL     OW 5506   0.297   1.897   3.895
 1725SOL    HW1 5507   0.346   1.981   3.874
 1725SOL    HW2 5508   0.359   1.832   3.940
 1726SOL     OW 5509   0.935   2.098   4.204
 1726SOL    HW1 5510   0.887   2.139   4.126
 1726SOL    HW2 5511   1.034   2.096   4.185
 1727SOL     OW 5512   1.076   2.545   5.188
 1727SOL    HW1 5513   0.996   2.484   5.191
 1727SOL    HW2 5514   1.157   2.492   5.164
 1728SOL     OW 5515   1.227   3.432   4.517
 1728SOL    HW1 5516   1.248   3.506   4.452
 1728SOL    HW2 5517   1.295   3.432   4.590
 1729SOL     OW 5518   0.459   3.014   4.465
 1729SOL    HW1 5519   0.388   2.987   4.530
 1729SOL    HW2 5520   0.433   2.986   4.372
 1730SOL     OW 5521   1.271   3.659   4.315
 1730SOL    HW1 5522   1.315   3.723   4.251
 1730SOL    HW2 5523   1.221   3.711   4.385
 1731SOL     OW 5524   1.032   2.411   3.740
 1731SOL    HW1 5525   0.991   2.493   3.701
 1731SOL    HW2 5526   1.096   2.437   3.813
 1732SOL     OW 5527   0.078   2.418   5.110
 1732SOL    HW1 5528   0.170   2.417   5.069
 1732SOL    HW2 5529   0.072   2.492   5.177
 1733SOL     OW 5530   0.561   2.084   4.871
 1733SOL    HW1 5531   0.599   2.000   4.908
 1733SOL    HW2 5532   0.473   2.103   4.915
 1734SOL     OW 5533   0.866   2.316   4.366
 1734SOL    HW1 5534   0.834   2.388   4.304
 1734SOL    HW2 5535   0.890   2.235   4.313
 1735SOL     OW 5536   1.017   1.901   4.477
 1735SOL    HW1 5537   0.945   1.906   4.408
 1735SOL    HW2 5538   0.993   1.832   4.546
 1736SOL     OW 5539   1.429   3.035   4.591
 1736SOL    HW1 5540   1.374   2.951   4.584
 1736SOL    HW2 5541   1.455   3.064   4.499
 1737SOL     OW 5542   1.466   2.452   4.716
 1737SOL    HW1 5543   1.436   2.357   4.723
 1737SOL    HW2 5544   1.539   2.468   4.782
 1738SOL     OW 5545   1.857   2.695   4.101
 1738SOL    HW1 5546   1.899   2.631   4.165
 1738SOL    HW2 5547   1.819   2.644   4.023
 1739SOL     OW 5548   0.488   3.247   3.898
 1739SOL    HW1 5549   0.401   3.232   3.945
 1739SOL    HW2 5550   0.471   3.273   3.803
 1740SOL     OW 5551   1.664   3.142   4.381
 1740SOL    HW1 5552   1.763   3.150   4.395
 1740SOL    HW2 5553   1.619   3.226   4.412
 1741SOL     OW 5554   1.390   2.437   3.802
 1741SOL    HW1 5555   1.336   2.416   3.883
 1741SOL    HW2 5556   1.481   2.396   3.811
 1742SOL     OW 5557   0.527   2.118   4.052
 1742SOL    HW1 5558   0.554   2.059   3.977
 1742SOL    HW2 5559   0.527   2.213   4.021
 1743SOL     OW 5560   1.754   3.085   5.312
 1743SOL    HW1 5561   1.845   3.046   5.299
 1743SOL    HW2 5562   1.762   3.181   5.336
 1744SOL     OW 5563   1.064   3.209   5.064
 1744SOL    HW1 5564   0.984   3.186   5.119
 1744SOL    HW2 5565   1.147   3.183   5.113
 1745SOL     OW 5566   1.592   3.491   5.349
 1745SOL    HW1 5567   1.619   3.525   5.259
 1745SOL    HW2 5568   1.671   3.453   5.395
 1746SOL     OW 5569   1.111   3.057   4.824
 1746SOL    HW1 5570   1.071   3.101   4.905
 1746SOL    HW2 5571   1.070   3.094   4.741
 1747SOL     OW 5572   1.638   2.961   4.803
 1747SOL    HW1 5573   1.643   3.042   4.862
 1747SOL    HW2 5574   1.552   2.963   4.752
 1748SOL     OW 5575   0.915   1.951   5.126
 1748SOL    HW1 5576   0.940   1.931   5.031
 1748SOL    HW2 5577   0.987   2.007   5.168
 1749SOL     OW 5578   0.980   2.978   5.443
 1749SOL    HW1 5579   0.881   2.984   5.453
 1749SOL    HW2 5580   1.003   2.898   5.387
 1750SOL     OW 5581   0.705   2.912   4.092
 1750SOL    HW1 5582   0.691   2.919   4.191
 1750SOL    HW2 5583   0.789   2.861   4.074
 1751SOL     OW 5584   0.410   2.675   4.975
 1751SOL    HW1 5585   0.496   2.687   5.025
 1751SOL    HW2 5586   0.368   2.588   5.002
 1752SOL     OW 5587   1.274   2.248   4.986
 1752SOL    HW1 5588   1.295   2.322   5.050
 1752SOL    HW2 5589   1.185   2.265   4.943
 1753SOL     OW 5590   0.064   3.426   5.055
 1753SOL    HW1 5591   0.018   3.508   5.021
 1753SOL    HW2 5592   0.162   3.445   5.064
 1754SOL     OW 5593   0.367   2.962   4.225
 1754SOL    HW1 5594   0.360   3.045   4.169
 1754SOL    HW2 5595   0.371   2.882   4.165
 1755SOL     OW 5596   0.566   2.399   4.589
 1755SOL    HW1 5597   0.578   2.465   4.515
 1755SOL    HW2 5598   0.612   2.433   4.672
 1756SOL     OW 5599   1.252   3.210   4.112
 1756SOL    HW1 5600   1.302   3.287   4.152
 1756SOL    HW2 5601   1.157   3.212   4.144
 1757SOL     OW 5602   1.272   3.307   4.866
 1757SOL    HW1 5603   1.319   3.320   4.953
 1757SOL    HW2 5604   1.206   3.233   4.875
 1758SOL     OW 5605   1.582   2.501   4.196
 1758SOL    HW1 5606   1.551   2.562   4.269
 1758SOL    HW2 5607   1.632   2.553   4.127
 1759SOL     OW 5608   0.354   3.372   5.053
 1759SOL    HW1 5609   0.333   3.328   4.966
 1759SOL    HW2 5610   0.451   3.398   5.056
 1760SOL     OW 5611   0.402   2.613   5.322
 1760SOL    HW1 5612   0.470   2.668   5.275
 1760SOL    HW2 5613   0.442   2.525   5.349
 1761SOL     OW 5614   1.587   2.641   5.394
 1761SOL    HW1 5615   1.495   2.679   5.389
 1761SOL    HW2 5616   1.647   2.688   5.329
 1762SOL     OW 5617   1.013   1.967   5.494
 1762SOL    HW1 5618   1.019   2.052   5.442
 1762SOL    HW2 5619   1.045   1.891   5.437
 1763SOL     OW 5620   0.504   1.912   5.464
 1763SOL    HW1 5621   0.462   1.855   5.394
 1763SOL    HW2 5622   0.438   1.981   5.496
 1764SOL     OW 5623   0.573   2.732   4.753
 1764SOL    HW1 5624   0.617   2.821   4.744
 1764SOL    HW2 5625   0.510   2.732   4.830
 1765SOL     OW 5626   1.360   2.724   4.769
 1765SOL    HW1 5627   1.285   2.724   4.703
 1765SOL    HW2 5628   1.397   2.632   4.778
 1766SOL     OW 5629   1.209   2.387   3.999
 1766SOL    HW1 5630   1.222   2.303   4.053
 1766SOL    HW2 5631   1.180   2.461   4.059
 1767SOL     OW 5632   0.307   2.075   4.955
 1767SOL    HW1 5633   0.284   2.112   5.045
 1767SOL    HW2 5634   0.277   1.980   4.949
 1768SOL     OW 5635   0.037   3.172   5.006
 1768SOL    HW1 5636   0.090   3.123   5.074
 1768SOL    HW2 5637   0.059   3.270   5.011
 1769SOL     OW 5638   0.732   2.496   4.788
 1769SOL    HW1 5639   0.791   2.470   4.712
 1769SOL    HW2 5640   0.704   2.592   4.777
 1770SOL     OW 5641   1.728   2.797   5.578
 1770SOL    HW1 5642   1.682   2.790   5.489
 1770SOL    HW2 5643   1.666   2.841   5.644
 1771SOL     OW 5644   0.307   1.925   4.342
 1771SOL    HW1 5645   0.296   2.019   4.375
 1771SOL    HW2 5646   0.302   1.862   4.419
 1772SOL     OW 5647   1.622   2.229   4.098
 1772SOL    HW1 5648   1.624   2.153   4.162
 1772SOL    HW2 5649   1.574   2.306   4.138
 1773SOL     OW 5650   1.023   2.628   4.690
 1773SOL    HW1 5651   1.038   2.649   4.786
 1773SOL    HW2 5652   0.993   2.533   4.681
 1774SOL     OW 5653   0.980   3.435   5.424
 1774SOL    HW1 5654   0.960   3.479   5.336
 1774SOL    HW2 5655   1.019   3.344   5.408
 1775SOL     OW 5656   1.859   3.380   5.329
 1775SOL    HW1 5657   1.873   3.407   5.234
 1775SOL    HW2 5658   1.942   3.402   5.382
 1776SOL     OW 5659   0.350   2.760   5.528
 1776SOL    HW1 5660   0.426   2.804   5.576
 1776SOL    HW2 5661   0.385   2.713   5.446
 1777SOL     OW 5662   1.540   2.136   3.849
 1777SOL    HW1 5663   1.479   2.061   3.872
 1777SOL    HW2 5664   1.562   2.188   3.932
 1778SOL     OW 5665   1.303   2.700   3.766
 1778SOL    HW1 5666   1.337   2.607   3.781
 1778SOL    HW2 5667   1.321   2.727   3.671
 1779SOL     OW 5668   1.068   3.195   4.573
 1779SOL    HW1 5669   1.075   3.111   4.518
 1779SOL    HW2 5670   1.130   3.264   4.537
 1780SOL     OW 5671   0.319   2.672   4.673
 1780SOL    HW1 5672   0.412   2.708   4.678
 1780SOL    HW2 5673   0.313   2.587   4.725
 1781SOL     OW 5674   0.339   2.371   4.730
 1781SOL    HW1 5675   0.287   2.288   4.713
 1781SOL    HW2 5676   0.416   2.376   4.666
 1782SOL     OW 5677   1.138   2.242   5.402
 1782SOL    HW1 5678   1.093   2.305   5.466
 1782SOL    HW2 5679   1.231   2.273   5.385
 1783SOL     OW 5680   1.160   2.069   5.201
 1783SOL    HW1 5681   1.160   2.133   5.278
 1783SOL    HW2 5682   1.188   2.117   5.118
 1784SOL     OW 5683   0.008   3.188   3.924
 1784SOL    HW1 5684  -0.085   3.209   3.893
 1784SOL    HW2 5685   0.018   3.089   3.937
 1785SOL     OW 5686   0.088   3.663   4.651
 1785SOL    HW1 5687   0.046   3.577   4.624
 1785SOL    HW2 5688   0.182   3.666   4.617
 1786SOL     OW 5689   0.504   3.430   4.634
 1786SOL    HW1 5690   0.570   3.504   4.643
 1786SOL    HW2 5691   0.548   3.351   4.592
 1787SOL     OW 5692   1.002   2.658   4.962
 1787SOL    HW1 5693   1.043   2.626   5.048
 1787SOL    HW2 5694   0.906   2.631   4.959
 1788SOL     OW 5695   0.040   2.406   4.838
 1788SOL    HW1 5696   0.125   2.373   4.797
 1788SOL    HW2 5697   0.053   2.421   4.936
 1789SOL     OW 5698   0.189   2.382   5.446
 1789SOL    HW1 5699   0.248   2.342   5.376
 1789SOL    HW2 5700   0.131   2.453   5.405
 1790SOL     OW 5701   1.369   2.812   5.384
 1790SOL    HW1 5702   1.408   2.901   5.404
 1790SOL    HW2 5703   1.379   2.792   5.287
 1791SOL     OW 5704   0.815   2.434   4.049
 1791SOL    HW1 5705   0.822   2.345   4.003
 1791SOL    HW2 5706   0.721   2.468   4.041
 1792SOL     OW 5707   1.657   2.466   4.930
 1792SOL    HW1 5708   1.619   2.397   4.992
 1792SOL    HW2 5709   1.739   2.430   4.886
 1793SOL     OW 5710   0.252   3.426   5.468
 1793SOL    HW1 5711   0.222   3.483   5.544
 1793SOL    HW2 5712   0.245   3.329   5.494
 1794SOL     OW 5713   0.671   2.326   4.993
 1794SOL    HW1 5714   0.637   2.237   4.963
 1794SOL    HW2 5715   0.697   2.380   4.913
 1795SOL     OW 5716   0.930   3.540   5.189
 1795SOL    HW1 5717   0.906   3.522   5.094
 1795SOL    HW2 5718   0.960   3.634   5.199
 1796SOL     OW 5719   0.473   2.362   3.915
 1796SOL    HW1 5720   0.534   2.442   3.919
 1796SOL    HW2 5721   0.378   2.393   3.922
 1797SOL     OW 5722   0.159   2.999   5.190
 1797SOL    HW1 5723   0.181   2.938   5.266
 1797SOL    HW2 5724   0.169   2.950   5.104
 1798SOL     OW 5725   1.347   2.921   4.958
 1798SOL    HW1 5726   1.371   2.858   4.884
 1798SOL    HW2 5727   1.257   2.961   4.940
 1799SOL     OW 5728   1.302   2.717   4.033
 1799SOL    HW1 5729   1.216   2.686   4.075
 1799SOL    HW2 5730   1.298   2.703   3.934
 1800SOL     OW 5731   1.759   3.609   4.878
 1800SOL    HW1 5732   1.820   3.639   4.805
 1800SOL    HW2 5733   1.721   3.520   4.856
 1801SOL     OW 5734   1.252   3.593   4.852
 1801SOL    HW1 5735   1.336   3.598   4.798
 1801SOL    HW2 5736   1.229   3.497   4.870
 1802SOL     OW 5737   0.083   3.120   4.746
 1802SOL    HW1 5738   0.078   3.119   4.846
 1802SOL    HW2 5739   0.000   3.079   4.708
 1803SOL     OW 5740   0.688   3.524   5.440
 1803SOL    HW1 5741   0.632   3.605   5.449
 1803SOL    HW2 5742   0.740   3.528   5.354
 1804SOL     OW 5743   1.726   1.997   4.247
 1804SOL    HW1 5744   1.799   1.980   4.180
 1804SOL    HW2 5745   1.695   1.910   4.285
 1805SOL     OW 5746   1.388   3.435   4.201
 1805SOL    HW1 5747   1.455   3.447   4.127
 1805SOL    HW2 5748   1.348   3.524   4.224
 1806SOL     OW 5749   0.130   3.656   5.575
 1806SOL    HW1 5750   0.089   3.582   5.628
 1806SOL    HW2 5751   0.194   3.707   5.633
 1807SOL     OW 5752   1.280   2.789   4.396
 1807SOL    HW1 5753   1.340   2.708   4.398
 1807SOL    HW2 5754   1.320   2.858   4.336
 1808SOL     OW 5755   0.830   3.135   5.146
 1808SOL    HW1 5756   0.825   3.168   5.241
 1808SOL    HW2 5757   0.744   3.154   5.100
 1809SOL     OW 5758   0.672   3.478   3.878
 1809SOL    HW1 5759   0.681   3.488   3.779
 1809SOL    HW2 5760   0.632   3.389   3.899
 1810SOL     OW 5761   1.650   3.582   5.118
 1810SOL    HW1 5762   1.703   3.592   5.034
 1810SOL    HW2 5763   1.623   3.672   5.152
 1811SOL     OW 5764   1.841   2.037   4.687
 1811SOL    HW1 5765   1.880   1.952   4.651
 1811SOL    HW2 5766   1.743   2.039   4.668
 1812SOL     OW 5767   0.263   2.188   4.444
 1812SOL    HW1 5768   0.184   2.239   4.410
 1812SOL    HW2 5769   0.254   2.173   4.542
 1813SOL     OW 5770   1.194   3.474   3.755
 1813SOL    HW1 5771   1.200   3.381   3.792
 1813SOL    HW2 5772   1.135   3.474   3.675
 1814SOL     OW 5773   0.822   2.864   5.096
 1814SOL    HW1 5774   0.862   2.863   5.004
 1814SOL    HW2 5775   0.832   2.956   5.136
 1815SOL     OW 5776   0.916   2.772   4.015
 1815SOL    HW1 5777   0.979   2.810   3.947
 1815SOL    HW2 5778   0.956   2.689   4.054
 1816SOL     OW 5779   1.504   3.469   3.768
 1816SOL    HW1 5780   1.412   3.506   3.775
 1816SOL    HW2 5781   1.542   3.489   3.678
 1817SOL     OW 5782   0.372   3.150   5.214
 1817SOL    HW1 5783   0.359   3.243   5.180
 1817SOL    HW2 5784   0.288   3.098   5.201
 1818SOL     OW 5785   1.614   3.154   5.013
 1818SOL    HW1 5786   1.674   3.157   5.093
 1818SOL    HW2 5787   1.539   3.218   5.026
 1819SOL     OW 5788   1.039   2.960   4.420
 1819SOL    HW1 5789   0.969   2.913   4.474
 1819SOL    HW2 5790   1.098   2.892   4.377
 1820SOL     OW 5791   1.014   2.098   4.695
 1820SOL    HW1 5792   1.006   2.062   4.602
 1820SOL    HW2 5793   1.012   2.022   4.760
 1821SOL     OW 5794   0.590   3.349   4.215
 1821SOL    HW1 5795   0.632   3.291   4.145
 1821SOL    HW2 5796   0.546   3.428   4.171
 1822SOL     OW 5797   1.709   2.247   5.105
 1822SOL    HW1 5798   1.782   2.316   5.109
 1822SOL    HW2 5799   1.737   2.172   5.046
 1823SOL     OW 5800   0.255   3.210   4.014
 1823SOL    HW1 5801   0.159   3.211   3.987
 1823SOL    HW2 5802   0.267   3.263   4.098
 1824SOL     OW 5803   0.105   2.875   5.450
 1824SOL    HW1 5804   0.028   2.842   5.504
 1824SOL    HW2 5805   0.190   2.845   5.492
 1825SOL     OW 5806   0.672   2.065   5.213
 1825SOL    HW1 5807   0.762   2.049   5.173
 1825SOL    HW2 5808   0.680   2.070   5.312
 1826SOL     OW 5809   0.075   2.207   3.757
 1826SOL    HW1 5810  -0.017   2.179   3.728
 1826SOL    HW2 5811   0.106   2.284   3.701
 1827SOL     OW 5812   1.440   2.718   5.122
 1827SOL    HW1 5813   1.383   2.770   5.059
 1827SOL    HW2 5814   1.536   2.730   5.098
 1828SOL     OW 5815   0.072   2.028   4.042
 1828SOL    HW1 5816   0.055   2.111   3.988
 1828SOL    HW2 5817   0.162   1.991   4.020
 1829SOL     OW 5818   1.183   3.197   3.843
 1829SOL    HW1 5819   1.084   3.186   3.845
 1829SOL    HW2 5820   1.217   3.212   3.936
 1830SOL     OW 5821   0.613   2.704   5.155
 1830SOL    HW1 5822   0.669   2.785   5.138
 1830SOL    HW2 5823   0.672   2.624   5.158
 1831SOL     OW 5824   1.493   3.629   4.683
 1831SOL    HW1 5825   1.526   3.693   4.614
 1831SOL    HW2 5826   1.559   3.623   4.758
 1832SOL     OW 5827   0.716   2.427   5.432
 1832SOL    HW1 5828   0.735   2.492   5.506
 1832SOL    HW2 5829   0.776   2.347   5.441
 1833SOL     OW 5830   1.450   3.082   5.357
 1833SOL    HW1 5831   1.441   3.072   5.456
 1833SOL    HW2 5832   1.546   3.075   5.331
 1834SOL     OW 5833   0.390   3.603   5.284
 1834SOL    HW1 5834   0.299   3.644   5.282
 1834SOL    HW2 5835   0.383   3.509   5.316
 1835SOL     OW 5836   1.674   2.745   4.978
 1835SOL    HW1 5837   1.647   2.656   4.941
 1835SOL    HW2 5838   1.675   2.813   4.905
 1836SOL     OW 5839   1.225   2.187   4.173
 1836SOL    HW1 5840   1.290   2.113   4.162
 1836SOL    HW2 5841   1.245   2.237   4.257
 1837SOL     OW 5842   0.594   2.607   4.376
 1837SOL    HW1 5843   0.644   2.692   4.357
 1837SOL    HW2 5844   0.506   2.609   4.328
 1838SOL     OW 5845   1.777   2.204   5.366
 1838SOL    HW1 5846   1.760   2.235   5.272
 1838SOL    HW2 5847   1.693   2.167   5.404
 1839SOL     OW 5848   1.730   2.796   5.241
 1839SOL    HW1 5849   1.768   2.887   5.256
 1839SOL    HW2 5850   1.722   2.779   5.142
 1840SOL     OW 5851   0.859   3.236   3.740
 1840SOL    HW1 5852   0.813   3.251   3.828
 1840SOL    HW2 5853   0.903   3.321   3.710
 1841SOL     OW 5854   0.661   3.652   4.677
 1841SOL    HW1 5855   0.615   3.740   4.664
 1841SOL    HW2 5856   0.760   3.664   4.670
 1842SOL     OW 5857   0.859   2.818   4.585
 1842SOL    HW1 5858   0.913   2.749   4.633
 1842SOL    HW2 5859   0.827   2.887   4.651
 1843SOL     OW 5860   1.083   2.846   3.811
 1843SOL    HW1 5861   1.060   2.899   3.729
 1843SOL    HW2 5862   1.164   2.790   3.792
 1844SOL     OW 5863   1.861   3.431   4.575
 1844SOL    HW1 5864   1.790   3.419   4.505
 1844SOL    HW2 5865   1.862   3.352   4.635
 1845SOL     OW 5866   0.221   3.176   5.568
 1845SOL    HW1 5867   0.156   3.103   5.547
 1845SOL    HW2 5868   0.225   3.190   5.666
 1846SOL     OW 5869   0.079   3.102   4.377
 1846SOL    HW1 5870   0.078   3.055   4.465
 1846SOL    HW2 5871   0.161   3.074   4.326
 1847SOL     OW 5872   0.672   3.253   5.348
 1847SOL    HW1 5873   0.594   3.203   5.386
 1847SOL    HW2 5874   0.669   3.348   5.379
 1848SOL     OW 5875   1.824   2.054   4.951
 1848SOL    HW1 5876   1.820   1.964   4.995
 1848SOL    HW2 5877   1.827   2.043   4.852
 1849SOL     OW 5878   0.428   2.286   4.244
 1849SOL    HW1 5879   0.458   2.214   4.182
 1849SOL    HW2 5880   0.389   2.246   4.327
 1850SOL     OW 5881   1.705   3.349   4.828
 1850SOL    HW1 5882   1.612   3.324   4.801
 1850SOL    HW2 5883   1.731   3.299   4.910
 1851SOL     OW 5884   0.317   2.409   5.004
 1851SOL    HW1 5885   0.355   2.350   5.076
 1851SOL    HW2 5886   0.357   2.383   4.916
 1852SOL     OW 5887   0.812   3.448   4.411
 1852SOL    HW1 5888   0.844   3.458   4.317
 1852SOL    HW2 5889   0.733   3.386   4.413
 1853SOL     OW 5890   1.424   2.076   4.836
 1853SOL    HW1 5891   1.476   2.011   4.891
 1853SOL    HW2 5892   1.375   2.139   4.897
 1854SOL     OW 5893   1.001   1.896   4.878
 1854SOL    HW1 5894   0.938   1.824   4.847
 1854SOL    HW2 5895   1.094   1.860   4.878
 1855SOL     OW 5896   0.770   3.192   4.025
 1855SOL    HW1 5897   0.724   3.105   4.042
 1855SOL    HW2 5898   0.861   3.189   4.066
 1856SOL     OW 5899   0.618   3.429   5.008
 1856SOL    HW1 5900   0.613   3.511   5.065
 1856SOL    HW2 5901   0.707   3.426   4.963
 1857SOL     OW 5902   1.352   1.914   3.892
 1857SOL    HW1 5903   1.387   1.873   3.808
 1857SOL    HW2 5904   1.262   1.876   3.912
 1858SOL     OW 5905   1.300   2.315   4.415
 1858SOL    HW1 5906   1.241   2.395   4.419
 1858SOL    HW2 5907   1.315   2.280   4.508
 1859SOL     OW 5908   1.593   2.083   4.606
 1859SOL    HW1 5909   1.509   2.082   4.660
 1859SOL    HW2 5910   1.595   2.166   4.550
 1860SOL     OW 5911   0.039   2.939   4.024
 1860SOL    HW1 5912   0.138   2.928   4.015
 1860SOL    HW2 5913  -0.001   2.853   4.056
 1861SOL     OW 5914   0.875   3.508   4.061
 1861SOL    HW1 5915   0.798   3.473   4.007
 1861SOL    HW2 5916   0.843   3.579   4.123
 1862SOL     OW 5917   0.230   2.490   5.699
 1862SOL    HW1 5918   0.137   2.488   5.736
 1862SOL    HW2 5919   0.231   2.451   5.607
 1863SOL     OW 5920   0.225   2.137   6.582
 1863SOL    HW1 5921   0.260   2.120   6.674
 1863SOL    HW2 5922   0.137   2.092   6.570
 1864SOL     OW 5923   0.019   2.230   6.233
 1864SOL    HW1 5924  -0.063   2.273   6.272
 1864SOL    HW2 5925  -0.009   2.157   6.170
 1865SOL     OW 5926   0.569   3.137   6.751
 1865SOL    HW1 5927   0.476   3.130   6.714
 1865SOL    HW2 5928   0.580   3.226   6.795
 1866SOL     OW 5929   1.555   3.373   6.289
 1866SOL    HW1 5930   1.498   3.357   6.370
 1866SOL    HW2 5931   1.496   3.383   6.209
 1867SOL     OW 5932   1.135   2.565   6.303
 1867SOL    HW1 5933   1.192   2.643   6.278
 1867SOL    HW2 5934   1.075   2.591   6.379
 1868SOL     OW 5935   1.755   2.469   5.817
 1868SOL    HW1 5936   1.743   2.456   5.718
 1868SOL    HW2 5937   1.725   2.388   5.866
 1869SOL     OW 5938   0.768   3.006   6.609
 1869SOL    HW1 5939   0.690   3.023   6.669
 1869SOL    HW2 5940   0.802   3.093   6.573
 1870SOL     OW 5941   0.850   2.660   7.409
 1870SOL    HW1 5942   0.846   2.736   7.474
 1870SOL    HW2 5943   0.872   2.696   7.318
 1871SOL     OW 5944   0.685   2.874   6.251
 1871SOL    HW1 5945   0.754   2.858   6.321
 1871SOL    HW2 5946   0.612   2.931   6.289
 1872SOL     OW 5947   0.686   3.023   7.389
 1872SOL    HW1 5948   0.746   3.102   7.403
 1872SOL    HW2 5949   0.600   3.054   7.348
 1873SOL     OW 5950   0.335   3.297   6.647
 1873SOL    HW1 5951   0.257   3.266   6.594
 1873SOL    HW2 5952   0.393   3.355   6.590
 1874SOL     OW 5953   1.460   3.367   6.925
 1874SOL    HW1 5954   1.484   3.461   6.951
 1874SOL    HW2 5955   1.444   3.313   7.007
 1875SOL     OW 5956   0.438   2.254   7.085
 1875SOL    HW1 5957   0.520   2.198   7.094
 1875SOL    HW2 5958   0.357   2.196   7.089
 1876SOL     OW 5959   1.603   2.309   6.323
 1876SOL    HW1 5960   1.529   2.355   6.273
 1876SOL    HW2 5961   1.654   2.377   6.376
 1877SOL     OW 5962   0.231   3.575   6.069
 1877SOL    HW1 5963   0.265   3.652   6.123
 1877SOL    HW2 5964   0.275   3.575   5.979
 1878SOL     OW 5965   1.127   3.203   7.276
 1878SOL    HW1 5966   1.174   3.203   7.364
 1878SOL    HW2 5967   1.079   3.116   7.265
 1879SOL     OW 5968   0.230   3.296   6.124
 1879SOL    HW1 5969   0.204   3.392   6.124
 1879SOL    HW2 5970   0.159   3.242   6.169
 1880SOL     OW 5971   0.240   2.953   6.472
 1880SOL    HW1 5972   0.254   2.869   6.524
 1880SOL    HW2 5973   0.185   3.017   6.527
 1881SOL     OW 5974   0.620   3.648   7.025
 1881SOL    HW1 5975   0.528   3.631   7.060
 1881SOL    HW2 5976   0.648   3.740   7.051
 1882SOL     OW 5977   0.606   2.826   5.709
 1882SOL    HW1 5978   0.613   2.910   5.655
 1882SOL    HW2 5979   0.652   2.839   5.797
 1883SOL     OW 5980   1.594   1.976   7.066
 1883SOL    HW1 5981   1.576   2.043   6.994
 1883SOL    HW2 5982   1.591   2.022   7.155
 1884SOL     OW 5983   0.122   2.505   6.149
 1884SOL    HW1 5984   0.077   2.417   6.166
 1884SOL    HW2 5985   0.121   2.559   6.233
 1885SOL     OW 5986   1.842   3.629   5.945
 1885SOL    HW1 5987   1.896   3.600   6.025
 1885SOL    HW2 5988   1.872   3.719   5.916
 1886SOL     OW 5989   0.027   3.458   5.703
 1886SOL    HW1 5990   0.008   3.362   5.724
 1886SOL    HW2 5991  -0.006   3.516   5.778
 1887SOL     OW 5992   1.689   2.784   6.198
 1887SOL    HW1 5993   1.784   2.755   6.206
 1887SOL    HW2 5994   1.681   2.849   6.123
 1888SOL     OW 5995   1.641   2.970   6.018
 1888SOL    HW1 5996   1.727   2.972   5.966
 1888SOL    HW2 5997   1.655   3.017   6.106
 1889SOL     OW 5998   0.113   2.599   7.183
 1889SOL    HW1 5999   0.201   2.586   7.228
 1889SOL    HW2 6000   0.100   2.696   7.161
 1890SOL     OW 6001   0.613   3.227   6.312
 1890SOL    HW1 6002   0.564   3.140   6.321
 1890SOL    HW2 6003   0.590   3.270   6.225
 1891SOL     OW 6004   1.293   3.090   7.009
 1891SOL    HW1 6005   1.330   3.017   6.951
 1891SOL    HW2 6006   1.345   3.095   7.094
 1892SOL     OW 6007   0.809   1.866   6.088
 1892SOL    HW1 6008   0.849   1.957   6.079
 1892SOL    HW2 6009   0.709   1.874   6.094
 1893SOL     OW 6010   0.197   2.838   6.850
 1893SOL    HW1 6011   0.286   2.793   6.836
 1893SOL    HW2 6012   0.124   2.773   6.831
 1894SOL     OW 6013   1.525   2.861   5.776
 1894SOL    HW1 6014   1.462   2.785   5.789
 1894SOL    HW2 6015   1.573   2.879   5.862
 1895SOL     OW 6016   1.187   3.654   7.202
 1895SOL    HW1 6017   1.211   3.714   7.126
 1895SOL    HW2 6018   1.194   3.559   7.172
 1896SOL     OW 6019   0.317   2.113   7.387
 1896SOL    HW1 6020   0.388   2.184   7.393
 1896SOL    HW2 6021   0.229   2.152   7.415
 1897SOL     OW 6022   1.466   3.279   6.539
 1897SOL    HW1 6023   1.407   3.285   6.619
 1897SOL    HW2 6024   1.451   3.191   6.493
 1898SOL     OW 6025   1.667   3.576   6.158
 1898SOL    HW1 6026   1.626   3.553   6.070
 1898SOL    HW2 6027   1.649   3.502   6.223
 1899SOL     OW 6028   0.598   2.591   5.856
 1899SOL    HW1 6029   0.622   2.660   5.788
 1899SOL    HW2 6030   0.520   2.624   5.910
 1900SOL     OW 6031   1.281   2.207   6.530
 1900SOL    HW1 6032   1.195   2.157   6.517
 1900SOL    HW2 6033   1.343   2.153   6.586
 1901SOL     OW 6034   1.576   3.524   5.893
 1901SOL    HW1 6035   1.665   3.570   5.896
 1901SOL    HW2 6036   1.555   3.500   5.798
 1902SOL     OW 6037   0.807   2.467   7.051
 1902SOL    HW1 6038   0.760   2.464   7.140
 1902SOL    HW2 6039   0.756   2.412   6.985
 1903SOL     OW 6040   1.394   2.331   7.260
 1903SOL    HW1 6041   1.374   2.374   7.348
 1903SOL    HW2 6042   1.472   2.269   7.269
 1904SOL     OW 6043   0.973   2.752   7.158
 1904SOL    HW1 6044   1.019   2.668   7.129
 1904SOL    HW2 6045   0.917   2.786   7.083
 1905SOL     OW 6046   0.991   2.272   6.828
 1905SOL    HW1 6047   0.914   2.306   6.882
 1905SOL    HW2 6048   0.957   2.221   6.749
 1906SOL     OW 6049   1.041   2.563   6.015
 1906SOL    HW1 6050   1.067   2.559   6.111
 1906SOL    HW2 6051   0.956   2.512   6.001
 1907SOL     OW 6052   0.076   2.673   6.375
 1907SOL    HW1 6053   0.175   2.661   6.384
 1907SOL    HW2 6054   0.052   2.768   6.396
 1908SOL     OW 6055   0.130   3.683   7.157
 1908SOL    HW1 6056   0.120   3.668   7.256
 1908SOL    HW2 6057   0.044   3.719   7.121
 1909SOL     OW 6058   0.865   2.210   5.781
 1909SOL    HW1 6059   0.924   2.273   5.732
 1909SOL    HW2 6060   0.884   2.116   5.752
 1910SOL     OW 6061   1.719   2.447   7.417
 1910SOL    HW1 6062   1.693   2.536   7.381
 1910SOL    HW2 6063   1.717   2.379   7.344
 1911SOL     OW 6064   1.362   3.006   6.131
 1911SOL    HW1 6065   1.445   2.977   6.083
 1911SOL    HW2 6066   1.313   3.073   6.075
 1912SOL     OW 6067   0.550   2.058   6.471
 1912SOL    HW1 6068   0.545   2.053   6.571
 1912SOL    HW2 6069   0.552   2.154   6.442
 1913SOL     OW 6070   1.008   3.318   6.063
 1913SOL    HW1 6071   0.962   3.390   6.011
 1913SOL    HW2 6072   1.004   3.338   6.161
 1914SOL     OW 6073   0.351   3.663   6.439
 1914SOL    HW1 6074   0.401   3.577   6.445
 1914SOL    HW2 6075   0.416   3.740   6.436
 1915SOL     OW 6076   1.795   2.928   6.459
 1915SOL    HW1 6077   1.733   2.913   6.383
 1915SOL    HW2 6078   1.743   2.939   6.544
 1916SOL     OW 6079   1.227   3.412   7.092
 1916SOL    HW1 6080   1.233   3.335   7.156
 1916SOL    HW2 6081   1.175   3.386   7.012
 1917SOL     OW 6082   0.321   2.805   5.828
 1917SOL    HW1 6083   0.403   2.844   5.786
 1917SOL    HW2 6084   0.294   2.723   5.779
 1918SOL     OW 6085   1.458   2.597   6.314
 1918SOL    HW1 6086   1.453   2.532   6.389
 1918SOL    HW2 6087   1.538   2.656   6.327
 1919SOL     OW 6088   0.461   3.128   7.313
 1919SOL    HW1 6089   0.411   3.129   7.227
 1919SOL    HW2 6090   0.398   3.110   7.389
 1920SOL     OW 6091   1.111   3.638   5.823
 1920SOL    HW1 6092   1.051   3.576   5.873
 1920SOL    HW2 6093   1.142   3.594   5.738
 1921SOL     OW 6094   0.202   2.147   7.084
 1921SOL    HW1 6095   0.122   2.207   7.071
 1921SOL    HW2 6096   0.192   2.098   7.170
 1922SOL     OW 6097   1.632   3.239   5.667
 1922SOL    HW1 6098   1.600   3.333   5.657
 1922SOL    HW2 6099   1.556   3.176   5.655
 1923SOL     OW 6100   0.464   3.605   5.909
 1923SOL    HW1 6101   0.497   3.644   5.995
 1923SOL    HW2 6102   0.540   3.598   5.844
 1924SOL     OW 6103   1.400   1.969   6.012
 1924SOL    HW1 6104   1.376   1.932   5.922
 1924SOL    HW2 6105   1.499   1.985   6.016
 1925SOL     OW 6106   0.249   3.647   6.827
 1925SOL    HW1 6107   0.306   3.582   6.877
 1925SOL    HW2 6108   0.233   3.614   6.734
 1926SOL     OW 6109   0.940   3.560   6.490
 1926SOL    HW1 6110   1.020   3.503   6.511
 1926SOL    HW2 6111   0.891   3.520   6.413
 1927SOL     OW 6112   0.382   2.562   6.066
 1927SOL    HW1 6113   0.427   2.472   6.063
 1927SOL    HW2 6114   0.288   2.551   6.099
 1928SOL     OW 6115   1.547   2.084   7.315
 1928SOL    HW1 6116   1.542   2.121   7.407
 1928SOL    HW2 6117   1.475   2.015   7.303
 1929SOL     OW 6118   0.614   1.984   5.703
 1929SOL    HW1 6119   0.712   1.962   5.710
 1929SOL    HW2 6120   0.583   1.967   5.610
 1930SOL     OW 6121   0.781   2.126   7.335
 1930SOL    HW1 6122   0.848   2.065   7.378
 1930SOL    HW2 6123   0.708   2.145   7.400
 1931SOL     OW 6124   0.888   3.376   6.781
 1931SOL    HW1 6125   0.865   3.351   6.687
 1931SOL    HW2 6126   0.949   3.307   6.820
 1932SOL     OW 6127   1.351   2.452   7.019
 1932SOL    HW1 6128   1.379   2.409   7.104
 1932SOL    HW2 6129   1.376   2.548   7.020
 1933SOL     OW 6130   0.803   3.264   6.510
 1933SOL    HW1 6131   0.893   3.278   6.468
 1933SOL    HW2 6132   0.732   3.266   6.439
 1934SOL     OW 6133   0.922   2.365   6.485
 1934SOL    HW1 6134   0.897   2.356   6.389
 1934SOL    HW2 6135   0.970   2.283   6.516
 1935SOL     OW 6136   0.539   1.926   6.098
 1935SOL    HW1 6137   0.458   1.927   6.156
 1935SOL    HW2 6138   0.542   2.009   6.043
 1936SOL     OW 6139   1.434   3.050   5.627
 1936SOL    HW1 6140   1.466   2.974   5.684
 1936SOL    HW2 6141   1.342   3.077   5.657
 1937SOL     OW 6142   0.297   1.897   5.757
 1937SOL    HW1 6143   0.346   1.981   5.736
 1937SOL    HW2 6144   0.359   1.832   5.802
 1938SOL     OW 6145   0.935   2.098   6.066
 1938SOL    HW1 6146   0.887   2.139   5.988
 1938SOL    HW2 6147   1.034   2.096   6.047
 1939SOL     OW 6148   1.076   2.545   7.050
 1939SOL    HW1 6149   0.996   2.484   7.053
 1939SOL    HW2 6150   1.157   2.492   7.026
 1940SOL     OW 6151   1.227   3.432   6.379
 1940SOL    HW1 6152   1.248   3.506   6.314
 1940SOL    HW2 6153   1.295   3.432   6.452
 1941SOL     OW 6154   0.459   3.014   6.327
 1941SOL    HW1 6155   0.388   2.987   6.392
 1941SOL    HW2 6156   0.433   2.986   6.234
 1942SOL     OW 6157   1.271   3.659   6.177
 1942SOL    HW1 6158   1.315   3.723   6.113
 1942SOL    HW2 6159   1.221   3.711   6.247
 1943SOL     OW 6160   1.032   2.411   5.602
 1943SOL    HW1 6161   0.991   2.493   5.563
 1943SOL    HW2 6162   1.096   2.437   5.675
 1944SOL     OW 6163   0.078   2.418   6.972
 1944SOL    HW1 6164   0.170   2.417   6.931
 1944SOL    HW2 6165   0.072   2.492   7.039
 1945SOL     OW 6166   0.561   2.084   6.733
 1945SOL    HW1 6167   0.599   2.000   6.770
 1945SOL    HW2 6168   0.473   2.103   6.777
 1946SOL     OW 6169   0.866   2.316   6.228
 1946SOL    HW1 6170   0.834   2.388   6.166
 1946SOL    HW2 6171   0.890   2.235   6.175
 1947SOL     OW 6172   1.017   1.901   6.339
 1947SOL    HW1 6173   0.945   1.906   6.270
 1947SOL    HW2 6174   0.993   1.832   6.408
 1948SOL     OW 6175   1.429   3.035   6.453
 1948SOL    HW1 6176   1.374   2.951   6.446
 1948SOL    HW2 6177   1.455   3.064   6.361
 1949SOL     OW 6178   1.466   2.452   6.578
 1949SOL    HW1 6179   1.436   2.357   6.585
 1949SOL    HW2 6180   1.539   2.468   6.644
 1950SOL     OW 6181   1.857   2.695   5.963
 1950SOL    HW1 6182   1.899   2.631   6.027
 1950SOL    HW2 6183   1.819   2.644   5.885
 1951SOL     OW 6184   0.488   3.247   5.760
 1951SOL    HW1 6185   0.401   3.232   5.807
 1951SOL    HW2 6186   0.471   3.273   5.665
 1952SOL     OW 6187   1.664   3.142   6.243
 1952SOL    HW1 6188   1.763   3.150   6.257
 1952SOL    HW2 6189   1.619   3.226   6.274
 1953SOL     OW 6190   1.390   2.437   5.664
 1953SOL    HW1 6191   1.336   2.416   5.745
 1953SOL    HW2 6192   1.481   2.396   5.673
 1954SOL     OW 6193   0.527   2.118   5.914
 1954SOL    HW1 6194   0.554   2.059   5.839
 1954SOL    HW2 6195   0.527   2.213   5.883
 1955SOL     OW 6196   1.754   3.085   7.174
 1955SOL    HW1 6197   1.845   3.046   7.161
 1955SOL    HW2 6198   1.762   3.181   7.198
 1956SOL     OW 6199   1.064   3.209   6.926
 1956SOL    HW1 6200   0.984   3.186   6.981
 1956SOL    HW2 6201   1.147   3.183   6.975
 1957SOL     OW 6202   1.592   3.491   7.211
 1957SOL    HW1 6203   1.619   3.525   7.121
 1957SOL    HW2 6204   1.671   3.453   7.257
 1958SOL     OW 6205   1.111   3.057   6.686
 1958SOL    HW1 6206   1.071   3.101   6.767
 1958SOL    HW2 6207   1.070   3.094   6.603
 1959SOL     OW 6208   1.638   2.961   6.665
 1959SOL    HW1 6209   1.643   3.042   6.724
 1959SOL    HW2 6210   1.552   2.963   6.614
 1960SOL     OW 6211   0.915   1.951   6.988
 1960SOL    HW1 6212   0.940   1.931   6.893
 1960SOL    HW2 6213   0.987   2.007   7.030
 1961SOL     OW 6214   0.980   2.978   7.305
 1961SOL    HW1 6215   0.881   2.984   7.315
 1961SOL    HW2 6216   1.003   2.898   7.249
 1962SOL     OW 6217   0.705   2.912   5.954
 1962SOL    HW1 6218   0.691   2.919   6.053
 1962SOL    HW2 6219   0.789   2.861   5.936
 1963SOL     OW 6220   0.410   2.675   6.837
 1963SOL    HW1 6221   0.496   2.687   6.887
 1963SOL    HW2 6222   0.368   2.588   6.864
 1964SOL     OW 6223   1.274   2.248   6.848
 1964SOL    HW1 6224   1.295   2.322   6.912
 1964SOL    HW2 6225   1.185   2.265   6.805
 1965SOL     OW 6226   0.064   3.426   6.917
 1965SOL    HW1 6227   0.018   3.508   6.883
 1965SOL    HW2 6228   0.162   3.445   6.926
 1966SOL     OW 6229   0.367   2.962   6.087
 1966SOL    HW1 6230   0.360   3.045   6.031
 1966SOL    HW2 6231   0.371   2.882   6.027
 1967SOL     OW 6232   0.566   2.399   6.451
 1967SOL    HW1 6233   0.578   2.465   6.377
 1967SOL    HW2 6234   0.612   2.433   6.534
 1968SOL     OW 6235   1.252   3.210   5.974
 1968SOL    HW1 6236   1.302   3.287   6.014
 1968SOL    HW2 6237   1.157   3.212   6.006
 1969SOL     OW 6238   1.272   3.307   6.728
 1969SOL    HW1 6239   1.319   3.320   6.815
 1969SOL    HW2 6240   1.206   3.233   6.737
 1970SOL     OW 6241   1.582   2.501   6.058
 1970SOL    HW1 6242   1.551   2.562   6.131
 1970SOL    HW2 6243   1.632   2.553   5.989
 1971SOL     OW 6244   0.354   3.372   6.915
 1971SOL    HW1 6245   0.333   3.328   6.828
 1971SOL    HW2 6246   0.451   3.398   6.918
 1972SOL     OW 6247   0.402   2.613   7.184
 1972SOL    HW1 6248   0.470   2.668   7.137
 1972SOL    HW2 6249   0.442   2.525   7.211
 1973SOL     OW 6250   1.587   2.641   7.256
 1973SOL    HW1 6251   1.495   2.679   7.251
 1973SOL    HW2 6252   1.647   2.688   7.191
 1974SOL     OW 6253   1.013   1.967   7.356
 1974SOL    HW1 6254   1.019   2.052   7.304
 1974SOL    HW2 6255   1.045   1.891   7.299
 1975SOL     OW 6256   0.504   1.912   7.326
 1975SOL    HW1 6257   0.462   1.855   7.256
 1975SOL    HW2 6258   0.438   1.981   7.358
 1976SOL     OW 6259   0.573   2.732   6.615
 1976SOL    HW1 6260   0.617   2.821   6.606
 1976SOL    HW2 6261   0.510   2.732   6.692
 1977SOL     OW 6262   1.360   2.724   6.631
 1977SOL    HW1 6263   1.285   2.724   6.565
 1977SOL    HW2 6264   1.397   2.632   6.640
 1978SOL     OW 6265   1.209   2.387   5.861
 1978SOL    HW1 6266   1.222   2.303   5.915
 1978SOL    HW2 6267   1.180   2.461   5.921
 1979SOL     OW 6268   0.307   2.075   6.817
 1979SOL    HW1 6269   0.284   2.112   6.907
 1979SOL    HW2 6270   0.277   1.980   6.811
 1980SOL     OW 6271   0.037   3.172   6.868
 1980SOL    HW1 6272   0.090   3.123   6.936
 1980SOL    HW2 6273   0.059   3.270   6.873
 1981SOL     OW 6274   0.732   2.496   6.650
 1981SOL    HW1 6275   0.791   2.470   6.574
 1981SOL    HW2 6276   0.704   2.592   6.639
 1982SOL     OW 6277   1.728   2.797   7.440
 1982SOL    HW1 6278   1.682   2.790   7.351
 1982SOL    HW2 6279   1.666   2.841   7.506
 1983SOL     OW 6280   0.307   1.925   6.204
 1983SOL    HW1 6281   0.296   2.019   6.237
 1983SOL    HW2 6282   0.302   1.862   6.281
 1984SOL     OW 6283   1.622   2.229   5.960
 1984SOL    HW1 6284   1.624   2.153   6.024
 1984SOL    HW2 6285   1.574   2.306   6.000
 1985SOL     OW 6286   1.023   2.628   6.552
 1985SOL    HW1 6287   1.038   2.649   6.648
 1985SOL    HW2 6288   0.993   2.533   6.543
 1986SOL     OW 6289   0.980   3.435   7.286
 1986SOL    HW1 6290   0.960   3.479   7.198
 1986SOL    HW2 6291   1.019   3.344   7.270
 1987SOL     OW 6292   1.859   3.380   7.191
 1987SOL    HW1 6293   1.873   3.407   7.096
 1987SOL    HW2 6294   1.942   3.402   7.244
 1988SOL     OW 6295   0.350   2.760   7.390
 1988SOL    HW1 6296   0.426   2.804   7.438
 1988SOL    HW2 6297   0.385   2.713   7.308
 1989SOL     OW 6298   1.540   2.136   5.711
 1989SOL    HW1 6299   1.479   2.061   5.734
 1989SOL    HW2 6300   1.562   2.188   5.794
 1990SOL     OW 6301   1.303   2.700   5.628
 1990SOL    HW1 6302   1.337   2.607   5.643
 1990SOL    HW2 6303   1.321   2.727   5.533
 1991SOL     OW 6304   1.068   3.195   6.435
 1991SOL    HW1 6305   1.075   3.111   6.380
 1991SOL    HW2 6306   1.130   3.264   6.399
 1992SOL     OW 6307   0.319   2.672   6.535
 1992SOL    HW1 6308   0.412   2.708   6.540
 1992SOL    HW2 6309   0.313   2.587   6.587
 1993SOL     OW 6310   0.339   2.371   6.592
 1993SOL    HW1 6311   0.287   2.288   6.575
 1993SOL    HW2 6312   0.416   2.376   6.528
 1994SOL     OW 6313   1.138   2.242   7.264
 1994SOL    HW1 6314   1.093   2.305   7.328
 1994SOL    HW2 6315   1.231   2.273   7.247
 1995SOL     OW 6316   1.160   2.069   7.063
 1995SOL    HW1 6317   1.160   2.133   7.140
 1995SOL    HW2 6318   1.188   2.117   6.980
 1996SOL     OW 6319   0.008   3.188   5.786
 1996SOL    HW1 6320  -0.085   3.209   5.755
 1996SOL    HW2 6321   0.018   3.089   5.799
 1997SOL     OW 6322   0.088   3.663   6.513
 1997SOL    HW1 6323   0.046   3.577   6.486
 1997SOL    HW2 6324   0.182   3.666   6.479
 1998SOL     OW 6325   0.504   3.430   6.496
 1998SOL    HW1 6326   0.570   3.504   6.505
 1998SOL    HW2 6327   0.548   3.351   6.454
 1999SOL     OW 6328   1.002   2.658   6.824
 1999SOL    HW1 6329   1.043   2.626   6.910
 1999SOL    HW2 6330   0.906   2.631   6.821
 2000SOL     OW 6331   0.040   2.406   6.700
 2000SOL    HW1 6332   0.125   2.373   6.659
 2000SOL    HW2 6333   0.053   2.421   6.798
 2001SOL     OW 6334   0.189   2.382   7.308
 2001SOL    HW1 6335   0.248   2.342   7.238
 2001SOL    HW2 6336   0.131   2.453   7.267
 2002SOL     OW 6337   1.369   2.812   7.246
 2002SOL    HW1 6338   1.408   2.901   7.266
 2002SOL    HW2 6339   1.379   2.792   7.149
 2003SOL     OW 6340   0.815   2.434   5.911
 2003SOL    HW1 6341   0.822   2.345   5.865
 2003SOL    HW2 6342   0.721   2.468   5.903
 2004SOL     OW 6343   1.657   2.466   6.792
 2004SOL    HW1 6344   1.619   2.397   6.854
 2004SOL    HW2 6345   1.739   2.430   6.748
 2005SOL     OW 6346   0.252   3.426   7.330
 2005SOL    HW1 6347   0.222   3.483   7.406
 2005SOL    HW2 6348   0.245   3.329   7.356
 2006SOL     OW 6349   0.671   2.326   6.855
 2006SOL    HW1 6350   0.637   2.237   6.825
 2006SOL    HW2 6351   0.697   2.380   6.775
 2007SOL     OW 6352   0.930   3.540   7.051
 2007SOL    HW1 6353   0.906   3.522   6.956
 2007SOL    HW2 6354   0.960   3.634   7.061
 2008SOL     OW 6355   0.473   2.362   5.777
 2008SOL    HW1 6356   0.534   2.442   5.781
 2008SOL    HW2 6357   0.378   2.393   5.784
 2009SOL     OW 6358   0.159   2.999   7.052
 2009SOL    HW1 6359   0.181   2.938   7.128
 2009SOL    HW2 6360   0.169   2.950   6.966
 2010SOL     OW 6361   1.347   2.921   6.820
 2010SOL    HW1 6362   1.371   2.858   6.746
 2010SOL    HW2 6363   1.257   2.961   6.802
 2011SOL     OW 6364   1.302   2.717   5.895
 2011SOL    HW1 6365   1.216   2.686   5.937
 2011SOL    HW2 6366   1.298   2.703   5.796
 2012SOL     OW 6367   1.759   3.609   6.740
 2012SOL    HW1 6368   1.820   3.639   6.667
 2012SOL    HW2 6369   1.721   3.520   6.718
 2013SOL     OW 6370   1.252   3.593   6.714
 2013SOL    HW1 6371   1.336   3.598   6.660
 2013SOL    HW2 6372   1.229   3.497   6.732
 2014SOL     OW 6373   0.083   3.120   6.608
 2014SOL    HW1 6374   0.078   3.119   6.708
 2014SOL    HW2 6375   0.000   3.079   6.570
 2015SOL     OW 6376   0.688   3.524   7.302
 2015SOL    HW1 6377   0.632   3.605   7.311
 2015SOL    HW2 6378   0.740   3.528   7.216
 2016SOL     OW 6379   1.726   1.997   6.109
 2016SOL    HW1 6380   1.799   1.980   6.042
 2016SOL    HW2 6381   1.695   1.910   6.147
 2017SOL     OW 6382   1.388   3.435   6.063
 2017SOL    HW1 6383   1.455   3.447   5.989
 2017SOL    HW2 6384   1.348   3.524   6.086
 2018SOL     OW 6385   0.130   3.656   7.437
 2018SOL    HW1 6386   0.089   3.582   7.490
 2018SOL    HW2 6387   0.194   3.707   7.495
 2019SOL     OW 6388   1.280   2.789   6.258
 2019SOL    HW1 6389   1.340   2.708   6.260
 2019SOL    HW2 6390   1.320   2.858   6.198
 2020SOL     OW 6391   0.830   3.135   7.008
 2020SOL    HW1 6392   0.825   3.168   7.103
 2020SOL    HW2 6393   0.744   3.154   6.962
 2021SOL     OW 6394   0.672   3.478   5.740
 2021SOL    HW1 6395   0.681   3.488   5.641
 2021SOL    HW2 6396   0.632   3.389   5.761
 2022SOL     OW 6397   1.650   3.582   6.980
 2022SOL    HW1 6398   1.703   3.592   6.896
 2022SOL    HW2 6399   1.623   3.672   7.014
 2023SOL     OW 6400   1.841   2.037   6.549
 2023SOL    HW1 6401   1.880   1.952   6.513
 2023SOL    HW2 6402   1.743   2.039   6.530
 2024SOL     OW 6403   0.263   2.188   6.306
 2024SOL    HW1 6404   0.184   2.239   6.272
 2024SOL    HW2 6405   0.254   2.173   6.404
 2025SOL     OW 6406   1.194   3.474   5.617
 2025SOL    HW1 6407   1.200   3.381   5.654
 2025SOL    HW2 6408   1.135   3.474   5.537
 2026SOL     OW 6409   0.822   2.864   6.958
 2026SOL    HW1 6410   0.862   2.863   6.866
 2026SOL    HW2 6411   0.832   2.956   6.998
 2027SOL     OW 6412   0.916   2.772   5.877
 2027SOL    HW1 6413   0.979   2.810   5.809
 2027SOL    HW2 6414   0.956   2.689   5.916
 2028SOL     OW 6415   1.504   3.469   5.630
 2028SOL    HW1 6416   1.412   3.506   5.637
 2028SOL    HW2 6417   1.542   3.489   5.540
 2029SOL     OW 6418   0.372   3.150   7.076
 2029SOL    HW1 6419   0.359   3.243   7.042
 2029SOL    HW2 6420   0.288   3.098   7.063
 2030SOL     OW 6421   1.614   3.154   6.875
 2030SOL    HW1 6422   1.674   3.157   6.955
 2030SOL    HW2 6423   1.539   3.218   6.888
 2031SOL     OW 6424   1.039   2.960   6.282
 2031SOL    HW1 6425   0.969   2.913   6.336
 2031SOL    HW2 6426   1.098   2.892   6.239
 2032SOL     OW 6427   1.014   2.098   6.557
 2032SOL    HW1 6428   1.006   2.062   6.464
 2032SOL    HW2 6429   1.012   2.022   6.622
 2033SOL     OW 6430   0.590   3.349   6.077
 2033SOL    HW1 6431   0.632   3.291   6.007
 2033SOL    HW2 6432   0.546   3.428   6.033
 2034SOL     OW 6433   1.709   2.247   6.967
 2034SOL    HW1 6434   1.782   2.316   6.971
 2034SOL    HW2 6435   1.737   2.172   6.908
 2035SOL     OW 6436   0.255   3.210   5.876
 2035SOL    HW1 6437   0.159   3.211   5.849
 2035SOL    HW2 6438   0.267   3.263   5.960
 2036SOL     OW 6439   0.105   2.875   7.312
 2036SOL    HW1 6440   0.028   2.842   7.366
 2036SOL    HW2 6441   0.190   2.845   7.354
 2037SOL     OW 6442   0.672   2.065   7.075
 2037SOL    HW1 6443   0.762   2.049   7.035
 2037SOL    HW2 6444   0.680   2.070   7.174
 2038SOL     OW 6445   0.075   2.207   5.619
 2038SOL    HW1 6446  -0.017   2.179   5.590
 2038SOL    HW2 6447   0.106   2.284   5.563
 2039SOL     OW 6448   1.440   2.718   6.984
 2039SOL    HW1 6449   1.383   2.770   6.921
 2039SOL    HW2 6450   1.536   2.730   6.960
 2040SOL     OW 6451   0.072   2.028   5.904
 2040SOL    HW1 6452   0.055   2.111   5.850
 2040SOL    HW2 6453   0.162   1.991   5.882
 2041SOL     OW 6454   1.183   3.197   5.705
 2041SOL    HW1 6455   1.084   3.186   5.707
 2041SOL    HW2 6456   1.217   3.212   5.798
 2042SOL     OW 6457   0.613   2.704   7.017
 2042SOL    HW1 6458   0.669   2.785   7.000
 2042SOL    HW2 6459   0.672   2.624   7.020
 2043SOL     OW 6460   1.493   3.629   6.545
 2043SOL    HW1 6461   1.526   3.693   6.476
 2043SOL    HW2 6462   1.559   3.623   6.620
 2044SOL     OW 6463   0.716   2.427   7.294
 2044SOL    HW1 6464   0.735   2.492   7.368
 2044SOL    HW2 6465   0.776   2.347   7.303
 2045SOL     OW 6466   1.450   3.082   7.219
 2045SOL    HW1 6467   1.441   3.072   7.318
 2045SOL    HW2 6468   1.546   3.075   7.193
 2046SOL     OW 6469   0.390   3.603   7.146
 2046SOL    HW1 6470   0.299   3.644   7.144
 2046SOL    HW2 6471   0.383   3.509   7.178
 2047SOL     OW 6472   1.674   2.745   6.840
 2047SOL    HW1 6473   1.647   2.656   6.803
 2047SOL    HW2 6474   1.675   2.813   6.767
 2048SOL     OW 6475   1.225   2.187   6.035
 2048SOL    HW1 6476   1.290   2.113   6.024
 2048SOL    HW2 6477   1.245   2.237   6.119
 2049SOL     OW 6478   0.594   2.607   6.238
 2049SOL    HW1 6479   0.644   2.692   6.219
 2049SOL    HW2 6480   0.506   2.609   6.190
 2050SOL     OW 6481   1.777   2.204   7.228
 2050SOL    HW1 6482   1.760   2.235   7.134
 2050SOL    HW2 6483   1.693   2.167   7.266
 2051SOL     OW 6484   1.730   2.796   7.103
 2051SOL    HW1 6485   1.768   2.887   7.118
 2051SOL    HW2 6486   1.722   2.779   7.004
 2052SOL     OW 6487   0.859   3.236   5.602
 2052SOL    HW1 6488   0.813   3.251   5.690
 2052SOL    HW2 6489   0.903   3.321   5.572
 2053SOL     OW 6490   0.661   3.652   6.539
 2053SOL    HW1 6491   0.615   3.740   6.526
 2053SOL    HW2 6492   0.760   3.664   6.532
 2054SOL     OW 6493   0.859   2.818   6.447
 2054SOL    HW1 6494   0.913   2.749   6.495
 2054SOL    HW2 6495   0.827   2.887   6.513
 2055SOL     OW 6496   1.083   2.846   5.673
 2055SOL    HW1 6497   1.060   2.899   5.591
 2055SOL    HW2 6498   1.164   2.790   5.654
 2056SOL     OW 6499   1.861   3.431   6.437
 2056SOL    HW1 6500   1.790   3.419   6.367
 2056SOL    HW2 6501   1.862   3.352   6.497
 2057SOL     OW 6502   0.221   3.176   7.430
 2057SOL    HW1 6503   0.156   3.103   7.409
 2057SOL    HW2 6504   0.225   3.190   7.528
 2058SOL     OW 6505   0.079   3.102   6.239
 2058SOL    HW1 6506   0.078   3.055   6.327
 2058SOL    HW2 6507   0.161   3.074   6.188
 2059SOL     OW 6508   0.672   3.253   7.210
 2059SOL    HW1 6509   0.594   3.203   7.248
 2059SOL    HW2 6510   0.669   3.348   7.241
 2060SOL     OW 6511   1.824   2.054   6.813
 2060SOL    HW1 6512   1.820   1.964   6.857
 2060SOL    HW2 6513   1.827   2.043   6.714
 2061SOL     OW 6514   0.428   2.286   6.106
 2061SOL    HW1 6515   0.458   2.214   6.044
 2061SOL    HW2 6516   0.389   2.246   6.189
 2062SOL     OW 6517   1.705   3.349   6.690
 2062SOL    HW1 6518   1.612   3.324   6.663
 2062SOL    HW2 6519   1.731   3.299   6.772
 2063SOL     OW 6520   0.317   2.409   6.866
 2063SOL    HW1 6521   0.355   2.350   6.938
 2063SOL    HW2 6522   0.357   2.383   6.778
 2064SOL     OW 6523   0.812   3.448   6.273
 2064SOL    HW1 6524   0.844   3.458   6.179
 2064SOL    HW2 6525   0.733   3.386   6.275
 2065SOL     OW 6526   1.424   2.076   6.698
 2065SOL    HW1 6527   1.476   2.011   6.753
 2065SOL    HW2 6528   1.375   2.139   6.759
 2066SOL     OW 6529   1.001   1.896   6.740
 2066SOL    HW1 6530   0.938   1.824   6.709
 2066SOL    HW2 6531   1.094   1.860   6.740
 2067SOL     OW 6532   0.770   3.192   5.887
 2067SOL    HW1 6533   0.724   3.105   5.904
 2067SOL    HW2 6534   0.861   3.189   5.928
 2068SOL     OW 6535   0.618   3.429   6.870
 2068SOL    HW1 6536   0.613   3.511   6.927
 2068SOL    HW2 6537   0.707   3.426   6.825
 2069SOL     OW 6538   1.352   1.914   5.754
 2069SOL    HW1 6539   1.387   1.873   5.670
 2069SOL    HW2 6540   1.262   1.876   5.774
 2070SOL     OW 6541   1.300   2.315   6.277
 2070SOL    HW1 6542   1.241   2.395   6.281
 2070SOL    HW2 6543   1.315   2.280   6.370
 2071SOL     OW 6544   1.593   2.083   6.468
 2071SOL    HW1 6545   1.509   2.082   6.522
 2071SOL    HW2 6546   1.595   2.166   6.412
 2072SOL     OW 6547   0.039   2.939   5.886
 2072SOL    HW1 6548   0.138   2.928   5.877
 2072SOL    HW2 6549  -0.001   2.853   5.918
 2073SOL     OW 6550   0.875   3.508   5.923
 2073SOL    HW1 6551   0.798   3.473   5.869
 2073SOL    HW2 6552   0.843   3.579   5.985
 2074SOL     OW 6553   0.230   2.490   7.561
 2074SOL    HW1 6554   0.137   2.488   7.598
 2074SOL    HW2 6555   0.231   2.451   7.469
 2075SOL     OW 6556   0.225   2.137   8.444
 2075SOL    HW1 6557   0.260   2.120   8.536
 2075SOL    HW2 6558   0.137   2.092   8.432
 2076SOL     OW 6559   0.019   2.230   8.095
 2076SOL    HW1 6560  -0.063   2.273   8.134
 2076SOL    HW2 6561  -0.009   2.157   8.032
 2077SOL     OW 6562   0.569   3.137   8.613
 2077SOL    HW1 6563   0.476   3.130   8.576
 2077SOL    HW2 6564   0.580   3.226   8.657
 2078SOL     OW 6565   1.555   3.373   8.151
 2078SOL    HW1 6566   1.498   3.357   8.232
 2078SOL    HW2 6567   1.496   3.383   8.071
 2079SOL     OW 6568   1.135   2.565   8.165
 2079SOL    HW1 6569   1.192   2.643   8.140
 2079SOL    HW2 6570   1.075   2.591   8.241
 2080SOL     OW 6571   1.755   2.469   7.679
 2080SOL    HW1 6572   1.743   2.456   7.580
 2080SOL    HW2 6573   1.725   2.388   7.728
 2081SOL     OW 6574   0.768   3.006   8.471
 2081SOL    HW1 6575   0.690   3.023   8.531
 2081SOL    HW2 6576   0.802   3.093   8.435
 2082SOL     OW 6577   0.850   2.660   9.271
 2082SOL    HW1 6578   0.846   2.736   9.336
 2082SOL    HW2 6579   0.872   2.696   9.180
 2083SOL     OW 6580   0.685   2.874   8.113
 2083SOL    HW1 6581   0.754   2.858   8.183
 2083SOL    HW2 6582   0.612   2.931   8.151
 2084SOL     OW 6583   0.686   3.023   9.251
 2084SOL    HW1 6584   0.746   3.102   9.265
 2084SOL    HW2 6585   0.600   3.054   9.210
 2085SOL     OW 6586   0.335   3.297   8.509
 2085SOL    HW1 6587   0.257   3.266   8.456
 2085SOL    HW2 6588   0.393   3.355   8.452
 2086SOL     OW 6589   1.460   3.367   8.787
 2086SOL    HW1 6590   1.484   3.461   8.813
 2086SOL    HW2 6591   1.444   3.313   8.869
 2087SOL     OW 6592   0.438   2.254   8.947
 2087SOL    HW1 6593   0.520   2.198   8.956
 2087SOL    HW2 6594   0.357   2.196   8.951
 2088SOL     OW 6595   1.603   2.309   8.185
 2088SOL    HW1 6596   1.529   2.355   8.135
 2088SOL    HW2 6597   1.654   2.377   8.238
 2089SOL     OW 6598   0.231   3.575   7.931
 2089SOL    HW1 6599   0.265   3.652   7.985
 2089SOL    HW2 6600   0.275   3.575   7.841
 2090SOL     OW 6601   1.127   3.203   9.138
 2090SOL    HW1 6602   1.174   3.203   9.226
 2090SOL    HW2 6603   1.079   3.116   9.127
 2091SOL     OW 6604   0.230   3.296   7.986
 2091SOL    HW1 6605   0.204   3.392   7.986
 2091SOL    HW2 6606   0.159   3.242   8.031
 2092SOL     OW 6607   0.240   2.953   8.334
 2092SOL    HW1 6608   0.254   2.869   8.386
 2092SOL    HW2 6609   0.185   3.017   8.389
 2093SOL     OW 6610   0.620   3.648   8.887
 2093SOL    HW1 6611   0.528   3.631   8.922
 2093SOL    HW2 6612   0.648   3.740   8.913
 2094SOL     OW 6613   0.606   2.826   7.571
 2094SOL    HW1 6614   0.613   2.910   7.517
 2094SOL    HW2 6615   0.652   2.839   7.659
 2095SOL     OW 6616   1.594   1.976   8.928
 2095SOL    HW1 6617   1.576   2.043   8.856
 2095SOL    HW2 6618   1.591   2.022   9.017
 2096SOL     OW 6619   0.122   2.505   8.011
 2096SOL    HW1 6620   0.077   2.417   8.028
 2096SOL    HW2 6621   0.121   2.559   8.095
 2097SOL     OW 6622   1.842   3.629   7.807
 2097SOL    HW1 6623   1.896   3.600   7.887
 2097SOL    HW2 6624   1.872   3.719   7.778
 2098SOL     OW 6625   0.027   3.458   7.565
 2098SOL    HW1 6626   0.008   3.362   7.586
 2098SOL    HW2 6627  -0.006   3.516   7.640
 2099SOL     OW 6628   1.689   2.784   8.060
 2099SOL    HW1 6629   1.784   2.755   8.068
 2099SOL    HW2 6630   1.681   2.849   7.985
 2100SOL     OW 6631   1.641   2.970   7.880
 2100SOL    HW1 6632   1.727   2.972   7.828
 2100SOL    HW2 6633   1.655   3.017   7.968
 2101SOL     OW 6634   0.113   2.599   9.045
 2101SOL    HW1 6635   0.201   2.586   9.090
 2101SOL    HW2 6636   0.100   2.696   9.023
 2102SOL     OW 6637   0.613   3.227   8.174
 2102SOL    HW1 6638   0.564   3.140   8.183
 2102SOL    HW2 6639   0.590   3.270   8.087
 2103SOL     OW 6640   1.293   3.090   8.871
 2103SOL    HW1 6641   1.330   3.017   8.813
 2103SOL    HW2 6642   1.345   3.095   8.956
 2104SOL     OW 6643   0.809   1.866   7.950
 2104SOL    HW1 6644   0.849   1.957   7.941
 2104SOL    HW2 6645   0.709   1.874   7.956
 2105SOL     OW 6646   0.197   2.838   8.712
 2105SOL    HW1 6647   0.286   2.793   8.698
 2105SOL    HW2 6648   0.124   2.773   8.693
 2106SOL     OW 6649   1.525   2.861   7.638
 2106SOL    HW1 6650   1.462   2.785   7.651
 2106SOL    HW2 6651   1.573   2.879   7.724
 2107SOL     OW 6652   1.187   3.654   9.064
 2107SOL    HW1 6653   1.211   3.714   8.988
 2107SOL    HW2 6654   1.194   3.559   9.034
 2108SOL     OW 6655   0.317   2.113   9.249
 2108SOL    HW1 6656   0.388   2.184   9.255
 2108SOL    HW2 6657   0.229   2.152   9.277
 2109SOL     OW 6658   1.466   3.279   8.401
 2109SOL    HW1 6659   1.407   3.285   8.481
 2109SOL    HW2 6660   1.451   3.191   8.355
 2110SOL     OW 6661   1.667   3.576   8.020
 2110SOL    HW1 6662   1.626   3.553   7.932
 2110SOL    HW2 6663   1.649   3.502   8.085
 2111SOL     OW 6664   0.598   2.591   7.718
 2111SOL    HW1 6665   0.622   2.660   7.650
 2111SOL    HW2 6666   0.520   2.624   7.772
 2112SOL     OW 6667   1.281   2.207   8.392
 2112SOL    HW1 6668   1.195   2.157   8.379
 2112SOL    HW2 6669   1.343   2.153   8.448
 2113SOL     OW 6670   1.576   3.524   7.755
 2113SOL    HW1 6671   1.665   3.570   7.758
 2113SOL    HW2 6672   1.555   3.500   7.660
 2114SOL     OW 6673   0.807   2.467   8.913
 2114SOL    HW1 6674   0.760   2.464   9.002
 2114SOL    HW2 6675   0.756   2.412   8.847
 2115SOL     OW 6676   1.394   2.331   9.122
 2115SOL    HW1 6677   1.374   2.374   9.210
 2115SOL    HW2 6678   1.472   2.269   9.131
 2116SOL     OW 6679   0.973   2.752   9.020
 2116SOL    HW1 6680   1.019   2.668   8.991
 2116SOL    HW2 6681   0.917   2.786   8.945
 2117SOL     OW 6682   0.991   2.272   8.690
 2117SOL    HW1 6683   0.914   2.306   8.744
 2117SOL    HW2 6684   0.957   2.221   8.611
 2118SOL     OW 6685   1.041   2.563   7.877
 2118SOL    HW1 6686   1.067   2.559   7.973
 2118SOL    HW2 6687   0.956   2.512   7.863
 2119SOL     OW 6688   0.076   2.673   8.237
 2119SOL    HW1 6689   0.175   2.661   8.246
 2119SOL    HW2 6690   0.052   2.768   8.258
 2120SOL     OW 6691   0.130   3.683   9.019
 2120SOL    HW1 6692   0.120   3.668   9.118
 2120SOL    HW2 6693   0.044   3.719   8.983
 2121SOL     OW 6694   0.865   2.210   7.643
 2121SOL    HW1 6695   0.924   2.273   7.594
 2121SOL    HW2 6696   0.884   2.116   7.614
 2122SOL     OW 6697   1.719   2.447   9.279
 2122SOL    HW1 6698   1.693   2.536   9.243
 2122SOL    HW2 6699   1.717   2.379   9.206
 2123SOL     OW 6700   1.362   3.006   7.993
 2123SOL    HW1 6701   1.445   2.977   7.945
 2123SOL    HW2 6702   1.313   3.073   7.937
 2124SOL     OW 6703   0.550   2.058   8.333
 2124SOL    HW1 6704   0.545   2.053   8.433
 2124SOL    HW2 6705   0.552   2.154   8.304
 2125SOL     OW 6706   1.008   3.318   7.925
 2125SOL    HW1 6707   0.962   3.390   7.873
 2125SOL    HW2 6708   1.004   3.338   8.023
 2126SOL     OW 6709   0.351   3.663   8.301
 2126SOL    HW1 6710   0.401   3.577   8.307
 2126SOL    HW2 6711   0.416   3.740   8.298
 2127SOL     OW 6712   1.795   2.928   8.321
 2127SOL    HW1 6713   1.733   2.913   8.245
 2127SOL    HW2 6714   1.743   2.939   8.406
 2128SOL     OW 6715   1.227   3.412   8.954
 2128SOL    HW1 6716   1.233   3.335   9.018
 2128SOL    HW2 6717   1.175   3.386   8.874
 2129SOL     OW 6718   0.321   2.805   7.690
 2129SOL    HW1 6719   0.403   2.844   7.648
 2129SOL    HW2 6720   0.294   2.723   7.641
 2130SOL     OW 6721   1.458   2.597   8.176
 2130SOL    HW1 6722   1.453   2.532   8.251
 2130SOL    HW2 6723   1.538   2.656   8.189
 2131SOL     OW 6724   0.461   3.128   9.175
 2131SOL    HW1 6725   0.411   3.129   9.089
 2131SOL    HW2 6726   0.398   3.110   9.251
 2132SOL     OW 6727   1.111   3.638   7.685
 2132SOL    HW1 6728   1.051   3.576   7.735
 2132SOL    HW2 6729   1.142   3.594   7.600
 2133SOL     OW 6730   0.202   2.147   8.946
 2133SOL    HW1 6731   0.122   2.207   8.933
 2133SOL    HW2 6732   0.192   2.098   9.032
 2134SOL     OW 6733   1.632   3.239   7.529
 2134SOL    HW1 6734   1.600   3.333   7.519
 2134SOL    HW2 6735   1.556   3.176   7.517
 2135SOL     OW 6736   0.464   3.605   7.771
 2135SOL    HW1 6737   0.497   3.644   7.857
 2135SOL    HW2 6738   0.540   3.598   7.706
 2136SOL     OW 6739   1.400   1.969   7.874
 2136SOL    HW1 6740   1.376   1.932   7.784
 2136SOL    HW2 6741   1.499   1.985   7.878
 2137SOL     OW 6742   0.249   3.647   8.689
 2137SOL    HW1 6743   0.306   3.582   8.739
 2137SOL    HW2 6744   0.233   3.614   8.596
 2138SOL     OW 6745   0.940   3.560   8.352
 2138SOL    HW1 6746   1.020   3.503   8.373
 2138SOL    HW2 6747   0.891   3.520   8.275
 2139SOL     OW 6748   0.382   2.562   7.928
 2139SOL    HW1 6749   0.427   2.472   7.925
 2139SOL    HW2 6750   0.288   2.551   7.961
 2140SOL     OW 6751   1.547   2.084   9.177
 2140SOL    HW1 6752   1.542   2.121   9.269
 2140SOL    HW2 6753   1.475   2.015   9.165
 2141SOL     OW 6754   0.614   1.984   7.565
 2141SOL    HW1 6755   0.712   1.962   7.572
 2141SOL    HW2 6756   0.583   1.967   7.472
 2142SOL     OW 6757   0.781   2.126   9.197
 2142SOL    HW1 6758   0.848   2.065   9.240
 2142SOL    HW2 6759   0.708   2.145   9.262
 2143SOL     OW 6760   0.888   3.376   8.643
 2143SOL    HW1 6761   0.865   3.351   8.549
 2143SOL    HW2 6762   0.949   3.307   8.682
 2144SOL     OW 6763   1.351   2.452   8.881
 2144SOL    HW1 6764   1.379   2.409   8.966
 2144SOL    HW2 6765   1.376   2.548   8.882
 2145SOL     OW 6766   0.803   3.264   8.372
 2145SOL    HW1 6767   0.893   3.278   8.330
 2145SOL    HW2 6768   0.732   3.266   8.301
 2146SOL     OW 6769   0.922   2.365   8.347
 2146SOL    HW1 6770   0.897   2.356   8.251
 2146SOL    HW2 6771   0.970   2.283   8.378
 2147SOL     OW 6772   0.539   1.926   7.960
 2147SOL    HW1 6773   0.458   1.927   8.018
 2147SOL    HW2 6774   0.542   2.009   7.905
 2148SOL     OW 6775   1.434   3.050   7.489
 2148SOL    HW1 6776   1.466   2.974   7.546
 2148SOL    HW2 6777   1.342   3.077   7.519
 2149SOL     OW 6778   0.297   1.897   7.619
 2149SOL    HW1 6779   0.346   1.981   7.598
 2149SOL    HW2 6780   0.359   1.832   7.664
 2150SOL     OW 6781   0.935   2.098   7.928
 2150SOL    HW1 6782   0.887   2.139   7.850
 2150SOL    HW2 6783   1.034   2.096   7.909
 2151SOL     OW 6784   1.076   2.545   8.912
 2151SOL    HW1 6785   0.996   2.484   8.915
 2151SOL    HW2 6786   1.157   2.492   8.888
 2152SOL     OW 6787   1.227   3.432   8.241
 2152SOL    HW1 6788   1.248   3.506   8.176
 2152SOL    HW2 6789   1.295   3.432   8.314
 2153SOL     OW 6790   0.459   3.014   8.189
 2153SOL    HW1 6791   0.388   2.987   8.254
 2153SOL    HW2 6792   0.433   2.986   8.096
 2154SOL     OW 6793   1.271   3.659   8.039
 2154SOL    HW1 6794   1.315   3.723   7.975
 2154SOL    HW2 6795   1.221   3.711   8.109
 2155SOL     OW 6796   1.032   2.411   7.464
 2155SOL    HW1 6797   0.991   2.493   7.425
 2155SOL    HW2 6798   1.096   2.437   7.537
 2156SOL     OW 6799   0.078   2.418   8.834
 2156SOL    HW1 6800   0.170   2.417   8.793
 2156SOL    HW2 6801   0.072   2.492   8.901
 2157SOL     OW 6802   0.561   2.084   8.595
 2157SOL    HW1 6803   0.599   2.000   8.632
 2157SOL    HW2 6804   0.473   2.103   8.639
 2158SOL     OW 6805   0.866   2.316   8.090
 2158SOL    HW1 6806   0.834   2.388   8.028
 2158SOL    HW2 6807   0.890   2.235   8.037
 2159SOL     OW 6808   1.017   1.901   8.201
 2159SOL    HW1 6809   0.945   1.906   8.132
 2159SOL    HW2 6810   0.993   1.832   8.270
 2160SOL     OW 6811   1.429   3.035   8.315
 2160SOL    HW1 6812   1.374   2.951   8.308
 2160SOL    HW2 6813   1.455   3.064   8.223
 2161SOL     OW 6814   1.466   2.452   8.440
 2161SOL    HW1 6815   1.436   2.357   8.447
 2161SOL    HW2 6816   1.539   2.468   8.506
 2162SOL     OW 6817   1.857   2.695   7.825
 2162SOL    HW1 6818   1.899   2.631   7.889
 2162SOL    HW2 6819   1.819   2.644   7.747
 2163SOL     OW 6820   0.488   3.247   7.622
 2163SOL    HW1 6821   0.401   3.232   7.669
 2163SOL    HW2 6822   0.471   3.273   7.527
 2164SOL     OW 6823   1.664   3.142   8.105
 2164SOL    HW1 6824   1.763   3.150   8.119
 2164SOL    HW2 6825   1.619   3.226   8.136
 2165SOL     OW 6826   1.390   2.437   7.526
 2165SOL    HW1 6827   1.336   2.416   7.607
 2165SOL    HW2 6828   1.481   2.396   7.535
 2166SOL     OW 6829   0.527   2.118   7.776
 2166SOL    HW1 6830   0.554   2.059   7.701
 2166SOL    HW2 6831   0.527   2.213   7.745
 2167SOL     OW 6832   1.754   3.085   9.036
 2167SOL    HW1 6833   1.845   3.046   9.023
 2167SOL    HW2 6834   1.762   3.181   9.060
 2168SOL     OW 6835   1.064   3.209   8.788
 2168SOL    HW1 6836   0.984   3.186   8.843
 2168SOL    HW2 6837   1.147   3.183   8.837
 2169SOL     OW 6838   1.592   3.491   9.073
 2169SOL    HW1 6839   1.619   3.525   8.983
 2169SOL    HW2 6840   1.671   3.453   9.119
 2170SOL     OW 6841   1.111   3.057   8.548
 2170SOL    HW1 6842   1.071   3.101   8.629
 2170SOL    HW2 6843   1.070   3.094   8.465
 2171SOL     OW 6844   1.638   2.961   8.527
 2171SOL    HW1 6845   1.643   3.042   8.586
 2171SOL    HW2 6846   1.552   2.963   8.476
 2172SOL     OW 6847   0.915   1.951   8.850
 2172SOL    HW1 6848   0.940   1.931   8.755
 2172SOL    HW2 6849   0.987   2.007   8.892
 2173SOL     OW 6850   0.980   2.978   9.167
 2173SOL    HW1 6851   0.881   2.984   9.177
 2173SOL    HW2 6852   1.003   2.898   9.111
 2174SOL     OW 6853   0.705   2.912   7.816
 2174SOL    HW1 6854   0.691   2.919   7.915
 2174SOL    HW2 6855   0.789   2.861   7.798
 2175SOL     OW 6856   0.410   2.675   8.699
 2175SOL    HW1 6857   0.496   2.687   8.749
 2175SOL    HW2 6858   0.368   2.588   8.726
 2176SOL     OW 6859   1.274   2.248   8.710
 2176SOL    HW1 6860   1.295   2.322   8.774
 2176SOL    HW2 6861   1.185   2.265   8.667
 2177SOL     OW 6862   0.064   3.426   8.779
 2177SOL    HW1 6863   0.018   3.508   8.745
 2177SOL    HW2 6864   0.162   3.445   8.788
 2178SOL     OW 6865   0.367   2.962   7.949
 2178SOL    HW1 6866   0.360   3.045   7.893
 2178SOL    HW2 6867   0.371   2.882   7.889
 2179SOL     OW 6868   0.566   2.399   8.313
 2179SOL    HW1 6869   0.578   2.465   8.239
 2179SOL    HW2 6870   0.612   2.433   8.396
 2180SOL     OW 6871   1.252   3.210   7.836
 2180SOL    HW1 6872   1.302   3.287   7.876
 2180SOL    HW2 6873   1.157   3.212   7.868
 2181SOL     OW 6874   1.272   3.307   8.590
 2181SOL    HW1 6875   1.319   3.320   8.677
 2181SOL    HW2 6876   1.206   3.233   8.599
 2182SOL     OW 6877   1.582   2.501   7.920
 2182SOL    HW1 6878   1.551   2.562   7.993
 2182SOL    HW2 6879   1.632   2.553   7.851
 2183SOL     OW 6880   0.354   3.372   8.777
 2183SOL    HW1 6881   0.333   3.328   8.690
 2183SOL    HW2 6882   0.451   3.398   8.780
 2184SOL     OW 6883   0.402   2.613   9.046
 2184SOL    HW1 6884   0.470   2.668   8.999
 2184SOL    HW2 6885   0.442   2.525   9.073
 2185SOL     OW 6886   1.587   2.641   9.118
 2185SOL    HW1 6887   1.495   2.679   9.113
 2185SOL    HW2 6888   1.647   2.688   9.053
 2186SOL     OW 6889   1.013   1.967   9.218
 2186SOL    HW1 6890   1.019   2.052   9.166
 2186SOL    HW2 6891   1.045   1.891   9.161
 2187SOL     OW 6892   0.504   1.912   9.188
 2187SOL    HW1 6893   0.462   1.855   9.118
 2187SOL    HW2 6894   0.438   1.981   9.220
 2188SOL     OW 6895   0.573   2.732   8.477
 2188SOL    HW1 6896   0.617   2.821   8.468
 2188SOL    HW2 6897   0.510   2.732   8.554
 2189SOL     OW 6898   1.360   2.724   8.493
 2189SOL    HW1 6899   1.285   2.724   8.427
 2189SOL    HW2 6900   1.397   2.632   8.502
 2190SOL     OW 6901   1.209   2.387   7.723
 2190SOL    HW1 6902   1.222   2.303   7.777
 2190SOL    HW2 6903   1.180   2.461   7.783
 2191SOL     OW 6904   0.307   2.075   8.679
 2191SOL    HW1 6905   0.284   2.112   8.769
 2191SOL    HW2 6906   0.277   1.980   8.673
 2192SOL     OW 6907   0.037   3.172   8.730
 2192SOL    HW1 6908   0.090   3.123   8.798
 2192SOL    HW2 6909   0.059   3.270   8.735
 2193SOL     OW 6910   0.732   2.496   8.512
 2193SOL    HW1 6911   0.791   2.470   8.436
 2193SOL    HW2 6912   0.704   2.592   8.501
 2194SOL     OW 6913   1.728   2.797   9.302
 2194SOL    HW1 6914   1.682   2.790   9.213
 2194SOL    HW2 6915   1.666   2.841   9.368
 2195SOL     OW 6916   0.307   1.925   8.066
 2195SOL    HW1 6917   0.296   2.019   8.099
 2195SOL    HW2 6918   0.302   1.862   8.143
 2196SOL     OW 6919   1.622   2.229   7.822
 2196SOL    HW1 6920   1.624   2.153   7.886
 2196SOL    HW2 6921   1.574   2.306   7.862
 2197SOL     OW 6922   1.023   2.628   8.414
 2197SOL    HW1 6923   1.038   2.649   8.510
 2197SOL    HW2 6924   0.993   2.533   8.405
 2198SOL     OW 6925   0.980   3.435   9.148
 2198SOL    HW1 6926   0.960   3.479   9.060
 2198SOL    HW2 6927   1.019   3.344   9.132
 2199SOL     OW 6928   1.859   3.380   9.053
 2199SOL    HW1 6929   1.873   3.407   8.958
 2199SOL    HW2 6930   1.942   3.402   9.106
 2200SOL     OW 6931   0.350   2.760   9.252
 2200SOL    HW1 6932   0.426   2.804   9.300
 2200SOL    HW2 6933   0.385   2.713   9.170
 2201SOL     OW 6934   1.540   2.136   7.573
 2201SOL    HW1 6935   1.479   2.061   7.596
 2201SOL    HW2 6936   1.562   2.188   7.656
 2202SOL     OW 6937   1.303   2.700   7.490
 2202SOL    HW1 6938   1.337   2.607   7.505
 2202SOL    HW2 6939   1.321   2.727   7.395
 2203SOL     OW 6940   1.068   3.195   8.297
 2203SOL    HW1 6941   1.075   3.111   8.242
 2203SOL    HW2 6942   1.130   3.264   8.261
 2204SOL     OW 6943   0.319   2.672   8.397
 2204SOL    HW1 6944   0.412   2.708   8.402
 2204SOL    HW2 6945   0.313   2.587   8.449
 2205SOL     OW 6946   0.339   2.371   8.454
 2205SOL    HW1 6947   0.287   2.288   8.437
 2205SOL    HW2 6948   0.416   2.376   8.390
 2206SOL     OW 6949   1.138   2.242   9.126
 2206SOL    HW1 6950   1.093   2.305   9.190
 2206SOL    HW2 6951   1.231   2.273   9.109
 2207SOL     OW 6952   1.160   2.069   8.925
 2207SOL    HW1 6953   1.160   2.133   9.002
 2207SOL    HW2 6954   1.188   2.117   8.842
 2208SOL     OW 6955   0.008   3.188   7.648
 2208SOL    HW1 6956  -0.085   3.209   7.617
 2208SOL    HW2 6957   0.018   3.089   7.661
 2209SOL     OW 6958   0.088   3.663   8.375
 2209SOL    HW1 6959   0.046   3.577   8.348
 2209SOL    HW2 6960   0.182   3.666   8.341
 2210SOL     OW 6961   0.504   3.430   8.358
 2210SOL    HW1 6962   0.570   3.504   8.367
 2210SOL    HW2 6963   0.548   3.351   8.316
 2211SOL     OW 6964   1.002   2.658   8.686
 2211SOL    HW1 6965   1.043   2.626   8.772
 2211SOL    HW2 6966   0.906   2.631   8.683
 2212SOL     OW 6967   0.040   2.406   8.562
 2212SOL    HW1 6968   0.125   2.373   8.521
 2212SOL    HW2 6969   0.053   2.421   8.660
 2213SOL     OW 6970   0.189   2.382   9.170
 2213SOL    HW1 6971   0.248   2.342   9.100
 2213SOL    HW2 6972   0.131   2.453   9.129
 2214SOL     OW 6973   1.369   2.812   9.108
 2214SOL    HW1 6974   1.408   2.901   9.128
 2214SOL    HW2 6975   1.379   2.792   9.011
 2215SOL     OW 6976   0.815   2.434   7.773
 2215SOL    HW1 6977   0.822   2.345   7.727
 2215SOL    HW2 6978   0.721   2.468   7.765
 2216SOL     OW 6979   1.657   2.466   8.654
 2216SOL    HW1 6980   1.619   2.397   8.716
 2216SOL    HW2 6981   1.739   2.430   8.610
 2217SOL     OW 6982   0.252   3.426   9.192
 2217SOL    HW1 6983   0.222   3.483   9.268
 2217SOL    HW2 6984   0.245   3.329   9.218
 2218SOL     OW 6985   0.671   2.326   8.717
 2218SOL    HW1 6986   0.637   2.237   8.687
 2218SOL    HW2 6987   0.697   2.380   8.637
 2219SOL     OW 6988   0.930   3.540   8.913
 2219SOL    HW1 6989   0.906   3.522   8.818
 2219SOL    HW2 6990   0.960   3.634   8.923
 2220SOL     OW 6991   0.473   2.362   7.639
 2220SOL    HW1 6992   0.534   2.442   7.643
 2220SOL    HW2 6993   0.378   2.393   7.646
 2221SOL     OW 6994   0.159   2.999   8.914
 2221SOL    HW1 6995   0.181   2.938   8.990
 2221SOL    HW2 6996   0.169   2.950   8.828
 2222SOL     OW 6997   1.347   2.921   8.682
 2222SOL    HW1 6998   1.371   2.858   8.608
 2222SOL    HW2 6999   1.257   2.961   8.664
 2223SOL     OW 7000   1.302   2.717   7.757
 2223SOL    HW1 7001   1.216   2.686   7.799
 2223SOL    HW2 7002   1.298   2.703   7.658
 2224SOL     OW 7003   1.759   3.609   8.602
 2224SOL    HW1 7004   1.820   3.639   8.529
 2224SOL    HW2 7005   1.721   3.520   8.580
 2225SOL     OW 7006   1.252   3.593   8.576
 2225SOL    HW1 7007   1.336   3.598   8.522
 2225SOL    HW2 7008   1.229   3.497   8.594
 2226SOL     OW 7009   0.083   3.120   8.470
 2226SOL    HW1 7010   0.078   3.119   8.570
 2226SOL    HW2 7011   0.000   3.079   8.432
 2227SOL     OW 7012   0.688   3.524   9.164
 2227SOL    HW1 7013   0.632   3.605   9.173
 2227SOL    HW2 7014   0.740   3.528   9.078
 2228SOL     OW 7015   1.726   1.997   7.971
 2228SOL    HW1 7016   1.799   1.980   7.904
 2228SOL    HW2 7017   1.695   1.910   8.009
 2229SOL     OW 7018   1.388   3.435   7.925
 2229SOL    HW1 7019   1.455   3.447   7.851
 2229SOL    HW2 7020   1.348   3.524   7.948
 2230SOL     OW 7021   0.130   3.656   9.299
 2230SOL    HW1 7022   0.089   3.582   9.352
 2230SOL    HW2 7023   0.194   3.707   9.357
 2231SOL     OW 7024   1.280   2.789   8.120
 2231SOL    HW1 7025   1.340   2.708   8.122
 2231SOL    HW2 7026   1.320   2.858   8.060
 2232SOL     OW 7027   0.830   3.135   8.870
 2232SOL    HW1 7028   0.825   3.168   8.965
 2232SOL    HW2 7029   0.744   3.154   8.824
 2233SOL     OW 7030   0.672   3.478   7.602
 2233SOL    HW1 7031   0.681   3.488   7.503
 2233SOL    HW2 7032   0.632   3.389   7.623
 2234SOL     OW 7033   1.650   3.582   8.842
 2234SOL    HW1 7034   1.703   3.592   8.758
 2234SOL    HW2 7035   1.623   3.672   8.876
 2235SOL     OW 7036   1.841   2.037   8.411
 2235SOL    HW1 7037   1.880   1.952   8.375
 2235SOL    HW2 7038   1.743   2.039   8.392
 2236SOL     OW 7039   0.263   2.188   8.168
 2236SOL    HW1 7040   0.184   2.239   8.134
 2236SOL    HW2 7041   0.254   2.173   8.266
 2237SOL     OW 7042   1.194   3.474   7.479
 2237SOL    HW1 7043   1.200   3.381   7.516
 2237SOL    HW2 7044   1.135   3.474   7.399
 2238SOL     OW 7045   0.822   2.864   8.820
 2238SOL    HW1 7046   0.862   2.863   8.728
 2238SOL    HW2 7047   0.832   2.956   8.860
 2239SOL     OW 7048   0.916   2.772   7.739
 2239SOL    HW1 7049   0.979   2.810   7.671
 2239SOL    HW2 7050   0.956   2.689   7.778
 2240SOL     OW 7051   1.504   3.469   7.492
 2240SOL    HW1 7052   1.412   3.506   7.499
 2240SOL    HW2 7053   1.542   3.489   7.402
 2241SOL     OW 7054   0.372   3.150   8.938
 2241SOL    HW1 7055   0.359   3.243   8.904
 2241SOL    HW2 7056   0.288   3.098   8.925
 2242SOL     OW 7057   1.614   3.154   8.737
 2242SOL    HW1 7058   1.674   3.157   8.817
 2242SOL    HW2 7059   1.539   3.218   8.750
 2243SOL     OW 7060   1.039   2.960   8.144
 2243SOL    HW1 7061   0.969   2.913   8.198
 2243SOL    HW2 7062   1.098   2.892   8.101
 2244SOL     OW 7063   1.014   2.098   8.419
 2244SOL    HW1 7064   1.006   2.062   8.326
 2244SOL    HW2 7065   1.012   2.022   8.484
 2245SOL     OW 7066   0.590   3.349   7.939
 2245SOL    HW1 7067   0.632   3.291   7.869
 2245SOL    HW2 7068   0.546   3.428   7.895
 2246SOL     OW 7069   1.709   2.247   8.829
 2246SOL    HW1 7070   1.782   2.316   8.833
 2246SOL    HW2 7071   1.737   2.172   8.770
 2247SOL     OW 7072   0.255   3.210   7.738
 2247SOL    HW1 7073   0.159   3.211   7.711
 2247SOL    HW2 7074   0.267   3.263   7.822
 2248SOL     OW 7075   0.105   2.875   9.174
 2248SOL    HW1 7076   0.028   2.842   9.228
 2248SOL    HW2 7077   0.190   2.845   9.216
 2249SOL     OW 7078   0.672   2.065   8.937
 2249SOL    HW1 7079   0.762   2.049   8.897
 2249SOL    HW2 7080   0.680   2.070   9.036
 2250SOL     OW 7081   0.075   2.207   7.481
 2250SOL    HW1 7082  -0.017   2.179   7.452
 2250SOL    HW2 7083   0.106   2.284   7.425
 2251SOL     OW 7084   1.440   2.718   8.846
 2251SOL    HW1 7085   1.383   2.770   8.783
 2251SOL    HW2 7086   1.536   2.730   8.822
 2252SOL     OW 7087   0.072   2.028   7.766
 2252SOL    HW1 7088   0.055   2.111   7.712
 2252SOL    HW2 7089   0.162   1.991   7.744
 2253SOL     OW 7090   1.183   3.197   7.567
 2253SOL    HW1 7091   1.084   3.186   7.569
 2253SOL    HW2 7092   1.217   3.212   7.660
 2254SOL     OW 7093   0.613   2.704   8.879
 2254SOL    HW1 7094   0.669   2.785   8.862
 2254SOL    HW2 7095   0.672   2.624   8.882
 2255SOL     OW 7096   1.493   3.629   8.407
 2255SOL    HW1 7097   1.526   3.693   8.338
 2255SOL    HW2 7098   1.559   3.623   8.482
 2256SOL     OW 7099   0.716   2.427   9.156
 2256SOL    HW1 7100   0.735   2.492   9.230
 2256SOL    HW2 7101   0.776   2.347   9.165
 2257SOL     OW 7102   1.450   3.082   9.081
 2257SOL    HW1 7103   1.441   3.072   9.180
 2257SOL    HW2 7104   1.546   3.075   9.055
 2258SOL     OW 7105   0.390   3.603   9.008
 2258SOL    HW1 7106   0.299   3.644   9.006
 2258SOL    HW2 7107   0.383   3.509   9.040
 2259SOL     OW 7108   1.674   2.745   8.702
 2259SOL    HW1 7109   1.647   2.656   8.665
 2259SOL    HW2 7110   1.675   2.813   8.629
 2260SOL     OW 7111   1.225   2.187   7.897
 2260SOL    HW1 7112   1.290   2.113   7.886
 2260SOL    HW2 7113   1.245   2.237   7.981
 2261SOL     OW 7114   0.594   2.607   8.100
 2261SOL    HW1 7115   0.644   2.692   8.081
 2261SOL    HW2 7116   0.506   2.609   8.052
 2262SOL     OW 7117   1.777   2.204   9.090
 2262SOL    HW1 7118   1.760   2.235   8.996
 2262SOL    HW2 7119   1.693   2.167   9.128
 2263SOL     OW 7120   1.730   2.796   8.965
 2263SOL    HW1 7121   1.768   2.887   8.980
 2263SOL    HW2 7122   1.722   2.779   8.866
 2264SOL     OW 7123   0.859   3.236   7.464
 2264SOL    HW1 7124   0.813   3.251   7.552
 2264SOL    HW2 7125   0.903   3.321   7.434
 2265SOL     OW 7126   0.661   3.652   8.401
 2265SOL    HW1 7127   0.615   3.740   8.388
 2265SOL    HW2 7128   0.760   3.664   8.394
 2266SOL     OW 7129   0.859   2.818   8.309
 2266SOL    HW1 7130   0.913   2.749   8.357
 2266SOL    HW2 7131   0.827   2.887   8.375
 2267SOL     OW 7132   1.083   2.846   7.535
 2267SOL    HW1 7133   1.060   2.899   7.453
 2267SOL    HW2 7134   1.164   2.790   7.516
 2268SOL     OW 7135   1.861   3.431   8.299
 2268SOL    HW1 7136   1.790   3.419   8.229
 2268SOL    HW2 7137   1.862   3.352   8.359
 2269SOL     OW 7138   0.221   3.176   9.292
 2269SOL    HW1 7139   0.156   3.103   9.271
 2269SOL    HW2 7140   0.225   3.190   9.390
 2270SOL     OW 7141   0.079   3.102   8.101
 2270SOL    HW1 7142   0.078   3.055   8.189
 2270SOL    HW2 7143   0.161   3.074   8.050
 2271SOL     OW 7144   0.672   3.253   9.072
 2271SOL    HW1 7145   0.594   3.203   9.110
 2271SOL    HW2 7146   0.669   3.348   9.103
 2272SOL     OW 7147   1.824   2.054   8.675
 2272SOL    HW1 7148   1.820   1.964   8.719
 2272SOL    HW2 7149   1.827   2.043   8.576
 2273SOL     OW 7150   0.428   2.286   7.968
 2273SOL    HW1 7151   0.458   2.214   7.906
 2273SOL    HW2 7152   0.389   2.246   8.051
 2274SOL     OW 7153   1.705   3.349   8.552
 2274SOL    HW1 7154   1.612   3.324   8.525
 2274SOL    HW2 7155   1.731   3.299   8.634
 2275SOL     OW 7156   0.317   2.409   8.728
 2275SOL    HW1 7157   0.355   2.350   8.800
 2275SOL    HW2 7158   0.357   2.383   8.640
 2276SOL     OW 7159   0.812   3.448   8.135
 2276SOL    HW1 7160   0.844   3.458   8.041
 2276SOL    HW2 7161   0.733   3.386   8.137
 2277SOL     OW 7162   1.424   2.076   8.560
 2277SOL    HW1 7163   1.476   2.011   8.615
 2277SOL    HW2 7164   1.375   2.139   8.621
 2278SOL     OW 7165   1.001   1.896   8.602
 2278SOL    HW1 7166   0.938   1.824   8.571
 2278SOL    HW2 7167   1.094   1.860   8.602
 2279SOL     OW 7168   0.770   3.192   7.749
 2279SOL    HW1 7169   0.724   3.105   7.766
 2279SOL    HW2 7170   0.861   3.189   7.790
 2280SOL     OW 7171   0.618   3.429   8.732
 2280SOL    HW1 7172   0.613   3.511   8.789
 2280SOL    HW2 7173   0.707   3.426   8.687
 2281SOL     OW 7174   1.352   1.914   7.616
 2281SOL    HW1 7175   1.387   1.873   7.532
 2281SOL    HW2 7176   1.262   1.876   7.636
 2282SOL     OW 7177   1.300   2.315   8.139
 2282SOL    HW1 7178   1.241   2.395   8.143
 2282SOL    HW2 7179   1.315   2.280   8.232
 2283SOL     OW 7180   1.593   2.083   8.330
 2283SOL    HW1 7181   1.509   2.082   8.384
 2283SOL    HW2 7182   1.595   2.166   8.274
 2284SOL     OW 7183   0.039   2.939   7.748
 2284SOL    HW1 7184   0.138   2.928   7.739
 2284SOL    HW2 7185  -0.001   2.853   7.780
 2285SOL     OW 7186   0.875   3.508   7.785
 2285SOL    HW1 7187   0.798   3.473   7.731
 2285SOL    HW2 7188   0.843   3.579   7.847
 2286SOL     OW 7189   0.230   2.490   9.423
 2286SOL    HW1 7190   0.137   2.488   9.460
 2286SOL    HW2 7191   0.231   2.451   9.331
 2287SOL     OW 7192   0.225   2.137  10.306
 2287SOL    HW1 7193   0.260   2.120  10.398
 2287SOL    HW2 7194   0.137   2.092  10.294
 2288SOL     OW 7195   0.019   2.230   9.957
 2288SOL    HW1 7196  -0.063   2.273   9.996
 2288SOL    HW2 7197  -0.009   2.157   9.894
 2289SOL     OW 7198   0.569   3.137  10.475
 2289SOL    HW1 7199   0.476   3.130  10.438
 2289SOL    HW2 7200   0.580   3.226  10.519
 2290SOL     OW 7201   1.555   3.373  10.013
 2290SOL    HW1 7202   1.498   3.357  10.094
 2290SOL    HW2 7203   1.496   3.383   9.933
 2291SOL     OW 7204   1.135   2.565  10.027
 2291SOL    HW1 7205   1.192   2.643  10.002
 2291SOL    HW2 7206   1.075   2.591  10.103
 2292SOL     OW 7207   1.755   2.469   9.541
 2292SOL    HW1 7208   1.743   2.456   9.442
 2292SOL    HW2 7209   1.725   2.388   9.590
 2293SOL     OW 7210   0.768   3.006  10.333
 2293SOL    HW1 7211   0.690   3.023  10.393
 2293SOL    HW2 7212   0.802   3.093  10.297
 2294SOL     OW 7213   0.685   2.874   9.975
 2294SOL    HW1 7214   0.754   2.858  10.045
 2294SOL    HW2 7215   0.612   2.931  10.013
 2295SOL     OW 7216   0.335   3.297  10.371
 2295SOL    HW1 7217   0.257   3.266  10.318
 2295SOL    HW2 7218   0.393   3.355  10.314
 2296SOL     OW 7219   0.438   2.254  10.809
 2296SOL    HW1 7220   0.520   2.198  10.818
 2296SOL    HW2 7221   0.357   2.196  10.813
 2297SOL     OW 7222   1.603   2.309  10.047
 2297SOL    HW1 7223   1.529   2.355   9.997
 2297SOL    HW2 7224   1.654   2.377  10.100
 2298SOL     OW 7225   0.231   3.575   9.793
 2298SOL    HW1 7226   0.265   3.652   9.847
 2298SOL    HW2 7227   0.275   3.575   9.703
 2299SOL     OW 7228   0.230   3.296   9.848
 2299SOL    HW1 7229   0.204   3.392   9.848
 2299SOL    HW2 7230   0.159   3.242   9.893
 2300SOL     OW 7231   0.240   2.953  10.196
 2300SOL    HW1 7232   0.254   2.869  10.248
 2300SOL    HW2 7233   0.185   3.017  10.251
 2301SOL     OW 7234   0.620   3.648  10.749
 2301SOL    HW1 7235   0.528   3.631  10.784
 2301SOL    HW2 7236   0.648   3.740  10.775
 2302SOL     OW 7237   0.606   2.826   9.433
 2302SOL    HW1 7238   0.613   2.910   9.379
 2302SOL    HW2 7239   0.652   2.839   9.521
 2303SOL     OW 7240   0.122   2.505   9.873
 2303SOL    HW1 7241   0.077   2.417   9.890
 2303SOL    HW2 7242   0.121   2.559   9.957
 2304SOL     OW 7243   1.842   3.629   9.669
 2304SOL    HW1 7244   1.896   3.600   9.749
 2304SOL    HW2 7245   1.872   3.719   9.640
 2305SOL     OW 7246   0.027   3.458   9.427
 2305SOL    HW1 7247   0.008   3.362   9.448
 2305SOL    HW2 7248  -0.006   3.516   9.502
 2306SOL     OW 7249   1.689   2.784   9.922
 2306SOL    HW1 7250   1.784   2.755   9.930
 2306SOL    HW2 7251   1.681   2.849   9.847
 2307SOL     OW 7252   1.641   2.970   9.742
 2307SOL    HW1 7253   1.727   2.972   9.690
 2307SOL    HW2 7254   1.655   3.017   9.830
 2308SOL     OW 7255   0.613   3.227  10.036
 2308SOL    HW1 7256   0.564   3.140  10.045
 2308SOL    HW2 7257   0.590   3.270   9.949
 2309SOL     OW 7258   0.809   1.866   9.812
 2309SOL    HW1 7259   0.849   1.957   9.803
 2309SOL    HW2 7260   0.709   1.874   9.818
 2310SOL     OW 7261   0.197   2.838  10.574
 2310SOL    HW1 7262   0.286   2.793  10.560
 2310SOL    HW2 7263   0.124   2.773  10.555
 2311SOL     OW 7264   1.525   2.861   9.500
 2311SOL    HW1 7265   1.462   2.785   9.513
 2311SOL    HW2 7266   1.573   2.879   9.586
 2312SOL     OW 7267   1.466   3.279  10.263
 2312SOL    HW1 7268   1.407   3.285  10.343
 2312SOL    HW2 7269   1.451   3.191  10.217
 2313SOL     OW 7270   1.667   3.576   9.882
 2313SOL    HW1 7271   1.626   3.553   9.794
 2313SOL    HW2 7272   1.649   3.502   9.947
 2314SOL     OW 7273   0.598   2.591   9.580
 2314SOL    HW1 7274   0.622   2.660   9.512
 2314SOL    HW2 7275   0.520   2.624   9.634
 2315SOL     OW 7276   1.281   2.207  10.254
 2315SOL    HW1 7277   1.195   2.157  10.241
 2315SOL    HW2 7278   1.343   2.153  10.310
 2316SOL     OW 7279   1.576   3.524   9.617
 2316SOL    HW1 7280   1.665   3.570   9.620
 2316SOL    HW2 7281   1.555   3.500   9.522
 2317SOL     OW 7282   0.807   2.467  10.775
 2317SOL    HW1 7283   0.760   2.464  10.864
 2317SOL    HW2 7284   0.756   2.412  10.709
 2318SOL     OW 7285   0.991   2.272  10.552
 2318SOL    HW1 7286   0.914   2.306  10.606
 2318SOL    HW2 7287   0.957   2.221  10.473
 2319SOL     OW 7288   1.041   2.563   9.739
 2319SOL    HW1 7289   1.067   2.559   9.835
 2319SOL    HW2 7290   0.956   2.512   9.725
 2320SOL     OW 7291   0.076   2.673  10.099
 2320SOL    HW1 7292   0.175   2.661  10.108
 2320SOL    HW2 7293   0.052   2.768  10.120
 2321SOL     OW 7294   0.130   3.683  10.881
 2321SOL    HW1 7295   0.120   3.668  10.980
 2321SOL    HW2 7296   0.044   3.719  10.845
 2322SOL     OW 7297   0.865   2.210   9.505
 2322SOL    HW1 7298   0.924   2.273   9.456
 2322SOL    HW2 7299   0.884   2.116   9.476
 2323SOL     OW 7300   1.362   3.006   9.855
 2323SOL    HW1 7301   1.445   2.977   9.807
 2323SOL    HW2 7302   1.313   3.073   9.799
 2324SOL     OW 7303   0.550   2.058  10.195
 2324SOL    HW1 7304   0.545   2.053  10.295
 2324SOL    HW2 7305   0.552   2.154  10.166
 2325SOL     OW 7306   1.008   3.318   9.787
 2325SOL    HW1 7307   0.962   3.390   9.735
 2325SOL    HW2 7308   1.004   3.338   9.885
 2326SOL     OW 7309   0.351   3.663  10.163
 2326SOL    HW1 7310   0.401   3.577  10.169
 2326SOL    HW2 7311   0.416   3.740  10.160
 2327SOL     OW 7312   1.795   2.928  10.183
 2327SOL    HW1 7313   1.733   2.913  10.107
 2327SOL    HW2 7314   1.743   2.939  10.268
 2328SOL     OW 7315   0.321   2.805   9.552
 2328SOL    HW1 7316   0.403   2.844   9.510
 2328SOL    HW2 7317   0.294   2.723   9.503
 2329SOL     OW 7318   1.458   2.597  10.038
 2329SOL    HW1 7319   1.453   2.532  10.113
 2329SOL    HW2 7320   1.538   2.656  10.051
 2330SOL     OW 7321   1.111   3.638   9.547
 2330SOL    HW1 7322   1.051   3.576   9.597
 2330SOL    HW2 7323   1.142   3.594   9.462
 2331SOL     OW 7324   1.632   3.239   9.391
 2331SOL    HW1 7325   1.600   3.333   9.381
 2331SOL    HW2 7326   1.556   3.176   9.379
 2332SOL     OW 7327   0.464   3.605   9.633
 2332SOL    HW1 7328   0.497   3.644   9.719
 2332SOL    HW2 7329   0.540   3.598   9.568
 2333SOL     OW 7330   1.400   1.969   9.736
 2333SOL    HW1 7331   1.376   1.932   9.646
 2333SOL    HW2 7332   1.499   1.985   9.740
 2334SOL     OW 7333   0.249   3.647  10.551
 2334SOL    HW1 7334   0.306   3.582  10.601
 2334SOL    HW2 7335   0.233   3.614  10.458
 2335SOL     OW 7336   0.940   3.560  10.214
 2335SOL    HW1 7337   1.020   3.503  10.235
 2335SOL    HW2 7338   0.891   3.520  10.137
 2336SOL     OW 7339   0.382   2.562   9.790
 2336SOL    HW1 7340   0.427   2.472   9.787
 2336SOL    HW2 7341   0.288   2.551   9.823
 2337SOL     OW 7342   0.614   1.984   9.427
 2337SOL    HW1 7343   0.712   1.962   9.434
 2337SOL    HW2 7344   0.583   1.967   9.334
 2338SOL     OW 7345   0.888   3.376  10.505
 2338SOL    HW1 7346   0.865   3.351  10.411
 2338SOL    HW2 7347   0.949   3.307  10.544
 2339SOL     OW 7348   0.803   3.264  10.234
 2339SOL    HW1 7349   0.893   3.278  10.192
 2339SOL    HW2 7350   0.732   3.266  10.163
 2340SOL     OW 7351   0.922   2.365  10.209
 2340SOL    HW1 7352   0.897   2.356  10.113
 2340SOL    HW2 7353   0.970   2.283  10.240
 2341SOL     OW 7354   0.539   1.926   9.822
 2341SOL    HW1 7355   0.458   1.927   9.880
 2341SOL    HW2 7356   0.542   2.009   9.767
 2342SOL     OW 7357   1.434   3.050   9.351
 2342SOL    HW1 7358   1.466   2.974   9.408
 2342SOL    HW2 7359   1.342   3.077   9.381
 2343SOL     OW 7360   0.297   1.897   9.481
 2343SOL    HW1 7361   0.346   1.981   9.460
 2343SOL    HW2 7362   0.359   1.832   9.526
 2344SOL     OW 7363   0.935   2.098   9.790
 2344SOL    HW1 7364   0.887   2.139   9.712
 2344SOL    HW2 7365   1.034   2.096   9.771
 2345SOL     OW 7366   1.227   3.432  10.103
 2345SOL    HW1 7367   1.248   3.506  10.038
 2345SOL    HW2 7368   1.295   3.432  10.176
 2346SOL     OW 7369   0.459   3.014  10.051
 2346SOL    HW1 7370   0.388   2.987  10.116
 2346SOL    HW2 7371   0.433   2.986   9.958
 2347SOL     OW 7372   1.271   3.659   9.901
 2347SOL    HW1 7373   1.315   3.723   9.837
 2347SOL    HW2 7374   1.221   3.711   9.971
 2348SOL     OW 7375   1.032   2.411   9.326
 2348SOL    HW1 7376   0.991   2.493   9.287
 2348SOL    HW2 7377   1.096   2.437   9.399
 2349SOL     OW 7378   0.561   2.084  10.457
 2349SOL    HW1 7379   0.599   2.000  10.494
 2349SOL    HW2 7380   0.473   2.103  10.501
 2350SOL     OW 7381   0.866   2.316   9.952
 2350SOL    HW1 7382   0.834   2.388   9.890
 2350SOL    HW2 7383   0.890   2.235   9.899
 2351SOL     OW 7384   1.017   1.901  10.063
 2351SOL    HW1 7385   0.945   1.906   9.994
 2351SOL    HW2 7386   0.993   1.832  10.132
 2352SOL     OW 7387   1.429   3.035  10.177
 2352SOL    HW1 7388   1.374   2.951  10.170
 2352SOL    HW2 7389   1.455   3.064  10.085
 2353SOL     OW 7390   1.466   2.452  10.302
 2353SOL    HW1 7391   1.436   2.357  10.309
 2353SOL    HW2 7392   1.539   2.468  10.368
 2354SOL     OW 7393   1.857   2.695   9.687
 2354SOL    HW1 7394   1.899   2.631   9.751
 2354SOL    HW2 7395   1.819   2.644   9.609
 2355SOL     OW 7396   0.488   3.247   9.484
 2355SOL    HW1 7397   0.401   3.232   9.531
 2355SOL    HW2 7398   0.471   3.273   9.389
 2356SOL     OW 7399   1.664   3.142   9.967
 2356SOL    HW1 7400   1.763   3.150   9.981
 2356SOL    HW2 7401   1.619   3.226   9.998
 2357SOL     OW 7402   1.390   2.437   9.388
 2357SOL    HW1 7403   1.336   2.416   9.469
 2357SOL    HW2 7404   1.481   2.396   9.397
 2358SOL     OW 7405   0.527   2.118   9.638
 2358SOL    HW1 7406   0.554   2.059   9.563
 2358SOL    HW2 7407   0.527   2.213   9.607
 2359SOL     OW 7408   1.064   3.209  10.650
 2359SOL    HW1 7409   0.984   3.186  10.705
 2359SOL    HW2 7410   1.147   3.183  10.699
 2360SOL     OW 7411   1.111   3.057  10.410
 2360SOL    HW1 7412   1.071   3.101  10.491
 2360SOL    HW2 7413   1.070   3.094  10.327
 2361SOL     OW 7414   1.638   2.961  10.389
 2361SOL    HW1 7415   1.643   3.042  10.448
 2361SOL    HW2 7416   1.552   2.963  10.338
 2362SOL     OW 7417   0.705   2.912   9.678
 2362SOL    HW1 7418   0.691   2.919   9.777
 2362SOL    HW2 7419   0.789   2.861   9.660
 2363SOL     OW 7420   0.410   2.675  10.561
 2363SOL    HW1 7421   0.496   2.687  10.611
 2363SOL    HW2 7422   0.368   2.588  10.588
 2364SOL     OW 7423   1.274   2.248  10.572
 2364SOL    HW1 7424   1.295   2.322  10.636
 2364SOL    HW2 7425   1.185   2.265  10.529
 2365SOL     OW 7426   0.064   3.426  10.641
 2365SOL    HW1 7427   0.018   3.508  10.607
 2365SOL    HW2 7428   0.162   3.445  10.650
 2366SOL     OW 7429   0.367   2.962   9.811
 2366SOL    HW1 7430   0.360   3.045   9.755
 2366SOL    HW2 7431   0.371   2.882   9.751
 2367SOL     OW 7432   0.566   2.399  10.175
 2367SOL    HW1 7433   0.578   2.465  10.101
 2367SOL    HW2 7434   0.612   2.433  10.258
 2368SOL     OW 7435   1.252   3.210   9.698
 2368SOL    HW1 7436   1.302   3.287   9.738
 2368SOL    HW2 7437   1.157   3.212   9.730
 2369SOL     OW 7438   1.272   3.307  10.452
 2369SOL    HW1 7439   1.319   3.320  10.539
 2369SOL    HW2 7440   1.206   3.233  10.461
 2370SOL     OW 7441   1.582   2.501   9.782
 2370SOL    HW1 7442   1.551   2.562   9.855
 2370SOL    HW2 7443   1.632   2.553   9.713
 2371SOL     OW 7444   0.354   3.372  10.639
 2371SOL    HW1 7445   0.333   3.328  10.552
 2371SOL    HW2 7446   0.451   3.398  10.642
 2372SOL     OW 7447   0.504   1.912  11.050
 2372SOL    HW1 7448   0.462   1.855  10.980
 2372SOL    HW2 7449   0.438   1.981  11.082
 2373SOL     OW 7450   0.573   2.732  10.339
 2373SOL    HW1 7451   0.617   2.821  10.330
 2373SOL    HW2 7452   0.510   2.732  10.416
 2374SOL     OW 7453   1.360   2.724  10.355
 2374SOL    HW1 7454   1.285   2.724  10.289
 2374SOL    HW2 7455   1.397   2.632  10.364
 2375SOL     OW 7456   1.209   2.387   9.585
 2375SOL    HW1 7457   1.222   2.303   9.639
 2375SOL    HW2 7458   1.180   2.461   9.645
 2376SOL     OW 7459   0.307   2.075  10.541
 2376SOL    HW1 7460   0.284   2.112  10.631
 2376SOL    HW2 7461   0.277   1.980  10.535
 2377SOL     OW 7462   0.037   3.172  10.592
 2377SOL    HW1 7463   0.090   3.123  10.660
 2377SOL    HW2 7464   0.059   3.270  10.597
 2378SOL     OW 7465   0.732   2.496  10.374
 2378SOL    HW1 7466   0.791   2.470  10.298
 2378SOL    HW2 7467   0.704   2.592  10.363
 2379SOL     OW 7468   0.307   1.925   9.928
 2379SOL    HW1 7469   0.296   2.019   9.961
 2379SOL    HW2 7470   0.302   1.862  10.005
 2380SOL     OW 7471   1.622   2.229   9.684
 2380SOL    HW1 7472   1.624   2.153   9.748
 2380SOL    HW2 7473   1.574   2.306   9.724
 2381SOL     OW 7474   1.023   2.628  10.276
 2381SOL    HW1 7475   1.038   2.649  10.372
 2381SOL    HW2 7476   0.993   2.533  10.267
 2382SOL     OW 7477   1.540   2.136   9.435
 2382SOL    HW1 7478   1.479   2.061   9.458
 2382SOL    HW2 7479   1.562   2.188   9.518
 2383SOL     OW 7480   1.303   2.700   9.352
 2383SOL    HW1 7481   1.337   2.607   9.367
 2383SOL    HW2 7482   1.321   2.727   9.257
 2384SOL     OW 7483   1.068   3.195  10.159
 2384SOL    HW1 7484   1.075   3.111  10.104
 2384SOL    HW2 7485   1.130   3.264  10.123
 2385SOL     OW 7486   0.319   2.672  10.259
 2385SOL    HW1 7487   0.412   2.708  10.264
 2385SOL    HW2 7488   0.313   2.587  10.311
 2386SOL     OW 7489   0.339   2.371  10.316
 2386SOL    HW1 7490   0.287   2.288  10.299
 2386SOL    HW2 7491   0.416   2.376  10.252
 2387SOL     OW 7492   1.160   2.069  10.787
 2387SOL    HW1 7493   1.160   2.133  10.864
 2387SOL    HW2 7494   1.188   2.117  10.704
 2388SOL     OW 7495   0.008   3.188   9.510
 2388SOL    HW1 7496  -0.085   3.209   9.479
 2388SOL    HW2 7497   0.018   3.089   9.523
 2389SOL     OW 7498   0.088   3.663  10.237
 2389SOL    HW1 7499   0.046   3.577  10.210
 2389SOL    HW2 7500   0.182   3.666  10.203
 2390SOL     OW 7501   0.504   3.430  10.220
 2390SOL    HW1 7502   0.570   3.504  10.229
 2390SOL    HW2 7503   0.548   3.351  10.178
 2391SOL     OW 7504   1.002   2.658  10.548
 2391SOL    HW1 7505   1.043   2.626  10.634
 2391SOL    HW2 7506   0.906   2.631  10.545
 2392SOL     OW 7507   0.040   2.406  10.424
 2392SOL    HW1 7508   0.125   2.373  10.383
 2392SOL    HW2 7509   0.053   2.421  10.522
 2393SOL     OW 7510   0.815   2.434   9.635
 2393SOL    HW1 7511   0.822   2.345   9.589
 2393SOL    HW2 7512   0.721   2.468   9.627
 2394SOL     OW 7513   1.657   2.466  10.516
 2394SOL    HW1 7514   1.619   2.397  10.578
 2394SOL    HW2 7515   1.739   2.430  10.472
 2395SOL     OW 7516   0.671   2.326  10.579
 2395SOL    HW1 7517   0.637   2.237  10.549
 2395SOL    HW2 7518   0.697   2.380  10.499
 2396SOL     OW 7519   0.930   3.540  10.775
 2396SOL    HW1 7520   0.906   3.522  10.680
 2396SOL    HW2 7521   0.960   3.634  10.785
 2397SOL     OW 7522   0.473   2.362   9.501
 2397SOL    HW1 7523   0.534   2.442   9.505
 2397SOL    HW2 7524   0.378   2.393   9.508
 2398SOL     OW 7525   0.159   2.999  10.776
 2398SOL    HW1 7526   0.181   2.938  10.852
 2398SOL    HW2 7527   0.169   2.950  10.690
 2399SOL     OW 7528   1.347   2.921  10.544
 2399SOL    HW1 7529   1.371   2.858  10.470
 2399SOL    HW2 7530   1.257   2.961  10.526
 2400SOL     OW 7531   1.302   2.717   9.619
 2400SOL    HW1 7532   1.216   2.686   9.661
 2400SOL    HW2 7533   1.298   2.703   9.520
 2401SOL     OW 7534   1.759   3.609  10.464
 2401SOL    HW1 7535   1.820   3.639  10.391
 2401SOL    HW2 7536   1.721   3.520  10.442
 2402SOL     OW 7537   1.252   3.593  10.438
 2402SOL    HW1 7538   1.336   3.598  10.384
 2402SOL    HW2 7539   1.229   3.497  10.456
 2403SOL     OW 7540   0.083   3.120  10.332
 2403SOL    HW1 7541   0.078   3.119  10.432
 2403SOL    HW2 7542   0.000   3.079  10.294
 2404SOL     OW 7543   1.726   1.997   9.833
 2404SOL    HW1 7544   1.799   1.980   9.766
 2404SOL    HW2 7545   1.695   1.910   9.871
 2405SOL     OW 7546   1.388   3.435   9.787
 2405SOL    HW1 7547   1.455   3.447   9.713
 2405SOL    HW2 7548   1.348   3.524   9.810
 2406SOL     OW 7549   1.280   2.789   9.982
 2406SOL    HW1 7550   1.340   2.708   9.984
 2406SOL    HW2 7551   1.320   2.858   9.922
 2407SOL     OW 7552   0.672   3.478   9.464
 2407SOL    HW1 7553   0.681   3.488   9.365
 2407SOL    HW2 7554   0.632   3.389   9.485
 2408SOL     OW 7555   1.841   2.037  10.273
 2408SOL    HW1 7556   1.880   1.952  10.237
 2408SOL    HW2 7557   1.743   2.039  10.254
 2409SOL     OW 7558   0.263   2.188  10.030
 2409SOL    HW1 7559   0.184   2.239   9.996
 2409SOL    HW2 7560   0.254   2.173  10.128
 2410SOL     OW 7561   1.194   3.474   9.341
 2410SOL    HW1 7562   1.200   3.381   9.378
 2410SOL    HW2 7563   1.135   3.474   9.261
 2411SOL     OW 7564   0.822   2.864  10.682
 2411SOL    HW1 7565   0.862   2.863  10.590
 2411SOL    HW2 7566   0.832   2.956  10.722
 2412SOL     OW 7567   0.916   2.772   9.601
 2412SOL    HW1 7568   0.979   2.810   9.533
 2412SOL    HW2 7569   0.956   2.689   9.640
 2413SOL     OW 7570   1.504   3.469   9.354
 2413SOL    HW1 7571   1.412   3.506   9.361
 2413SOL    HW2 7572   1.542   3.489   9.264
 2414SOL     OW 7573   0.372   3.150  10.800
 2414SOL    HW1 7574   0.359   3.243  10.766
 2414SOL    HW2 7575   0.288   3.098  10.787
 2415SOL     OW 7576   1.614   3.154  10.599
 2415SOL    HW1 7577   1.674   3.157  10.679
 2415SOL    HW2 7578   1.539   3.218  10.612
 2416SOL     OW 7579   1.039   2.960  10.006
 2416SOL    HW1 7580   0.969   2.913  10.060
 2416SOL    HW2 7581   1.098   2.892   9.963
 2417SOL     OW 7582   1.014   2.098  10.281
 2417SOL    HW1 7583   1.006   2.062  10.188
 2417SOL    HW2 7584   1.012   2.022  10.346
 2418SOL     OW 7585   0.590   3.349   9.801
 2418SOL    HW1 7586   0.632   3.291   9.731
 2418SOL    HW2 7587   0.546   3.428   9.757
 2419SOL     OW 7588   1.709   2.247  10.691
 2419SOL    HW1 7589   1.782   2.316  10.695
 2419SOL    HW2 7590   1.737   2.172  10.632
 2420SOL     OW 7591   0.255   3.210   9.600
 2420SOL    HW1 7592   0.159   3.211   9.573
 2420SOL    HW2 7593   0.267   3.263   9.684
 2421SOL     OW 7594   0.672   2.065  10.799
 2421SOL    HW1 7595   0.762   2.049  10.759
 2421SOL    HW2 7596   0.680   2.070  10.898
 2422SOL     OW 7597   0.075   2.207   9.343
 2422SOL    HW1 7598  -0.017   2.179   9.314
 2422SOL    HW2 7599   0.106   2.284   9.287
 2423SOL     OW 7600   0.072   2.028   9.628
 2423SOL    HW1 7601   0.055   2.111   9.574
 2423SOL    HW2 7602   0.162   1.991   9.606
 2424SOL     OW 7603   1.183   3.197   9.429
 2424SOL    HW1 7604   1.084   3.186   9.431
 2424SOL    HW2 7605   1.217   3.212   9.522
 2425SOL     OW 7606   0.613   2.704  10.741
 2425SOL    HW1 7607   0.669   2.785  10.724
 2425SOL    HW2 7608   0.672   2.624  10.744
 2426SOL     OW 7609   1.493   3.629  10.269
 2426SOL    HW1 7610   1.526   3.693  10.200
 2426SOL    HW2 7611   1.559   3.623  10.344
 2427SOL     OW 7612   0.390   3.603  10.870
 2427SOL    HW1 7613   0.299   3.644  10.868
 2427SOL    HW2 7614   0.383   3.509  10.902
 2428SOL     OW 7615   1.674   2.745  10.564
 2428SOL    HW1 7616   1.647   2.656  10.527
 2428SOL    HW2 7617   1.675   2.813  10.491
 2429SOL     OW 7618   1.225   2.187   9.759
 2429SOL    HW1 7619   1.290   2.113   9.748
 2429SOL    HW2 7620   1.245   2.237   9.843
 2430SOL     OW 7621   0.594   2.607   9.962
 2430SOL    HW1 7622   0.644   2.692   9.943
 2430SOL    HW2 7623   0.506   2.609   9.914
 2431SOL     OW 7624   1.730   2.796  10.827
 2431SOL    HW1 7625   1.768   2.887  10.842
 2431SOL    HW2 7626   1.722   2.779  10.728
 2432SOL     OW 7627   0.859   3.236   9.326
 2432SOL    HW1 7628   0.813   3.251   9.414
 2432SOL    HW2 7629   0.903   3.321   9.296
 2433SOL     OW 7630   0.661   3.652  10.263
 2433SOL    HW1 7631   0.615   3.740  10.250
 2433SOL    HW2 7632   0.760   3.664  10.256
 2434SOL     OW 7633   0.859   2.818  10.171
 2434SOL    HW1 7634   0.913   2.749  10.219
 2434SOL    HW2 7635   0.827   2.887  10.237
 2435SOL     OW 7636   1.083   2.846   9.397
 2435SOL    HW1 7637   1.060   2.899   9.315
 2435SOL    HW2 7638   1.164   2.790   9.378
 2436SOL     OW 7639   1.861   3.431  10.161
 2436SOL    HW1 7640   1.790   3.419  10.091
 2436SOL    HW2 7641   1.862   3.352  10.221
 2437SOL     OW 7642   0.079   3.102   9.963
 2437SOL    HW1 7643   0.078   3.055  10.051
 2437SOL    HW2 7644   0.161   3.074   9.912
 2438SOL     OW 7645   1.824   2.054  10.537
 2438SOL    HW1 7646   1.820   1.964  10.581
 2438SOL    HW2 7647   1.827   2.043  10.438
 2439SOL     OW 7648   0.428   2.286   9.830
 2439SOL    HW1 7649   0.458   2.214   9.768
 2439SOL    HW2 7650   0.389   2.246   9.913
 2440SOL     OW 7651   1.705   3.349  10.414
 2440SOL    HW1 7652   1.612   3.324  10.387
 2440SOL    HW2 7653   1.731   3.299  10.496
 2441SOL     OW 7654   0.317   2.409  10.590
 2441SOL    HW1 7655   0.355   2.350  10.662
 2441SOL    HW2 7656   0.357   2.383  10.502
 2442SOL     OW 7657   0.812   3.448   9.997
 2442SOL    HW1 7658   0.844   3.458   9.903
 2442SOL    HW2 7659   0.733   3.386   9.999
 2443SOL     OW 7660   1.424   2.076  10.422
 2443SOL    HW1 7661   1.476   2.011  10.477
 2443SOL    HW2 7662   1.375   2.139  10.483
 2444SOL     OW 7663   1.001   1.896  10.464
 2444SOL    HW1 7664   0.938   1.824  10.433
 2444SOL    HW2 7665   1.094   1.860  10.464
 2445SOL     OW 7666   0.770   3.192   9.611
 2445SOL    HW1 7667   0.724   3.105   9.628
 2445SOL    HW2 7668   0.861   3.189   9.652
 2446SOL     OW 7669   0.618   3.429  10.594
 2446SOL    HW1 7670   0.613   3.511  10.651
 2446SOL    HW2 7671   0.707   3.426  10.549
 2447SOL     OW 7672   1.352   1.914   9.478
 2447SOL    HW1 7673   1.387   1.873   9.394
 2447SOL    HW2 7674   1.262   1.876   9.498
 2448SOL     OW 7675   1.300   2.315  10.001
 2448SOL    HW1 7676   1.241   2.395  10.005
 2448SOL    HW2 7677   1.315   2.280  10.094
 2449SOL     OW 7678   1.593   2.083  10.192
 2449SOL    HW1 7679   1.509   2.082  10.246
 2449SOL    HW2 7680   1.595   2.166  10.136
 2450SOL     OW 7681   0.039   2.939   9.610
 2450SOL    HW1 7682   0.138   2.928   9.601
 2450SOL    HW2 7683  -0.001   2.853   9.642
 2451SOL     OW 7684   0.875   3.508   9.647
 2451SOL    HW1 7685   0.798   3.473   9.593
 2451SOL    HW2 7686   0.843   3.579   9.709
 2452SOL     OW 7687   0.230   4.352   0.113
 2452SOL    HW1 7688   0.137   4.350   0.150
 2452SOL    HW2 7689   0.231   4.313   0.021
 2453SOL     OW 7690   0.225   3.999   0.996
 2453SOL    HW1 7691   0.260   3.982   1.088
 2453SOL    HW2 7692   0.137   3.954   0.984
 2454SOL     OW 7693   0.019   4.092   0.647
 2454SOL    HW1 7694  -0.063   4.135   0.686
 2454SOL    HW2 7695  -0.009   4.019   0.584
 2455SOL     OW 7696   0.569   4.999   1.165
 2455SOL    HW1 7697   0.476   4.992   1.128
 2455SOL    HW2 7698   0.580   5.088   1.209
 2456SOL     OW 7699   1.555   5.235   0.703
 2456SOL    HW1 7700   1.498   5.219   0.784
 2456SOL    HW2 7701   1.496   5.245   0.623
 2457SOL     OW 7702   1.135   4.427   0.717
 2457SOL    HW1 7703   1.192   4.505   0.692
 2457SOL    HW2 7704   1.075   4.453   0.793
 2458SOL     OW 7705   1.755   4.331   0.231
 2458SOL    HW1 7706   1.743   4.318   0.132
 2458SOL    HW2 7707   1.725   4.250   0.280
 2459SOL     OW 7708   0.768   4.868   1.023
 2459SOL    HW1 7709   0.690   4.885   1.083
 2459SOL    HW2 7710   0.802   4.955   0.987
 2460SOL     OW 7711   0.850   4.522   1.823
 2460SOL    HW1 7712   0.846   4.598   1.888
 2460SOL    HW2 7713   0.872   4.558   1.732
 2461SOL     OW 7714   0.685   4.736   0.665
 2461SOL    HW1 7715   0.754   4.720   0.735
 2461SOL    HW2 7716   0.612   4.793   0.703
 2462SOL     OW 7717   0.686   4.885   1.803
 2462SOL    HW1 7718   0.746   4.964   1.817
 2462SOL    HW2 7719   0.600   4.916   1.762
 2463SOL     OW 7720   0.335   5.159   1.061
 2463SOL    HW1 7721   0.257   5.128   1.008
 2463SOL    HW2 7722   0.393   5.217   1.004
 2464SOL     OW 7723   1.460   5.229   1.339
 2464SOL    HW1 7724   1.484   5.323   1.365
 2464SOL    HW2 7725   1.444   5.175   1.421
 2465SOL     OW 7726   0.438   4.116   1.499
 2465SOL    HW1 7727   0.520   4.060   1.508
 2465SOL    HW2 7728   0.357   4.058   1.503
 2466SOL     OW 7729   1.603   4.171   0.737
 2466SOL    HW1 7730   1.529   4.217   0.687
 2466SOL    HW2 7731   1.654   4.239   0.790
 2467SOL     OW 7732   1.127   5.065   1.690
 2467SOL    HW1 7733   1.174   5.065   1.778
 2467SOL    HW2 7734   1.079   4.978   1.679
 2468SOL     OW 7735   0.230   5.158   0.538
 2468SOL    HW1 7736   0.204   5.254   0.538
 2468SOL    HW2 7737   0.159   5.104   0.583
 2469SOL     OW 7738   0.240   4.815   0.886
 2469SOL    HW1 7739   0.254   4.731   0.938
 2469SOL    HW2 7740   0.185   4.879   0.941
 2470SOL     OW 7741   0.606   4.688   0.123
 2470SOL    HW1 7742   0.613   4.772   0.069
 2470SOL    HW2 7743   0.652   4.701   0.211
 2471SOL     OW 7744   1.594   3.838   1.480
 2471SOL    HW1 7745   1.576   3.905   1.408
 2471SOL    HW2 7746   1.591   3.884   1.569
 2472SOL     OW 7747   0.122   4.367   0.563
 2472SOL    HW1 7748   0.077   4.279   0.580
 2472SOL    HW2 7749   0.121   4.421   0.647
 2473SOL     OW 7750   0.027   5.320   0.117
 2473SOL    HW1 7751   0.008   5.224   0.138
 2473SOL    HW2 7752  -0.006   5.378   0.192
 2474SOL     OW 7753   1.689   4.646   0.612
 2474SOL    HW1 7754   1.784   4.617   0.620
 2474SOL    HW2 7755   1.681   4.711   0.537
 2475SOL     OW 7756   1.641   4.832   0.432
 2475SOL    HW1 7757   1.727   4.834   0.380
 2475SOL    HW2 7758   1.655   4.879   0.520
 2476SOL     OW 7759   0.113   4.461   1.597
 2476SOL    HW1 7760   0.201   4.448   1.642
 2476SOL    HW2 7761   0.100   4.558   1.575
 2477SOL     OW 7762   0.613   5.089   0.726
 2477SOL    HW1 7763   0.564   5.002   0.735
 2477SOL    HW2 7764   0.590   5.132   0.639
 2478SOL     OW 7765   1.293   4.952   1.423
 2478SOL    HW1 7766   1.330   4.879   1.365
 2478SOL    HW2 7767   1.345   4.957   1.508
 2479SOL     OW 7768   0.809   3.728   0.502
 2479SOL    HW1 7769   0.849   3.819   0.493
 2479SOL    HW2 7770   0.709   3.736   0.508
 2480SOL     OW 7771   0.197   4.700   1.264
 2480SOL    HW1 7772   0.286   4.655   1.250
 2480SOL    HW2 7773   0.124   4.635   1.245
 2481SOL     OW 7774   1.525   4.723   0.190
 2481SOL    HW1 7775   1.462   4.647   0.203
 2481SOL    HW2 7776   1.573   4.741   0.276
 2482SOL     OW 7777   0.317   3.975   1.801
 2482SOL    HW1 7778   0.388   4.046   1.807
 2482SOL    HW2 7779   0.229   4.014   1.829
 2483SOL     OW 7780   1.466   5.141   0.953
 2483SOL    HW1 7781   1.407   5.147   1.033
 2483SOL    HW2 7782   1.451   5.053   0.907
 2484SOL     OW 7783   0.598   4.453   0.270
 2484SOL    HW1 7784   0.622   4.522   0.202
 2484SOL    HW2 7785   0.520   4.486   0.324
 2485SOL     OW 7786   1.281   4.069   0.944
 2485SOL    HW1 7787   1.195   4.019   0.931
 2485SOL    HW2 7788   1.343   4.015   1.000
 2486SOL     OW 7789   0.807   4.329   1.465
 2486SOL    HW1 7790   0.760   4.326   1.554
 2486SOL    HW2 7791   0.756   4.274   1.399
 2487SOL     OW 7792   1.394   4.193   1.674
 2487SOL    HW1 7793   1.374   4.236   1.762
 2487SOL    HW2 7794   1.472   4.131   1.683
 2488SOL     OW 7795   0.973   4.614   1.572
 2488SOL    HW1 7796   1.019   4.530   1.543
 2488SOL    HW2 7797   0.917   4.648   1.497
 2489SOL     OW 7798   0.991   4.134   1.242
 2489SOL    HW1 7799   0.914   4.168   1.296
 2489SOL    HW2 7800   0.957   4.083   1.163
 2490SOL     OW 7801   1.041   4.425   0.429
 2490SOL    HW1 7802   1.067   4.421   0.525
 2490SOL    HW2 7803   0.956   4.374   0.415
 2491SOL     OW 7804   0.076   4.535   0.789
 2491SOL    HW1 7805   0.175   4.523   0.798
 2491SOL    HW2 7806   0.052   4.630   0.810
 2492SOL     OW 7807   0.865   4.072   0.195
 2492SOL    HW1 7808   0.924   4.135   0.146
 2492SOL    HW2 7809   0.884   3.978   0.166
 2493SOL     OW 7810   1.719   4.309   1.831
 2493SOL    HW1 7811   1.693   4.398   1.795
 2493SOL    HW2 7812   1.717   4.241   1.758
 2494SOL     OW 7813   1.362   4.868   0.545
 2494SOL    HW1 7814   1.445   4.839   0.497
 2494SOL    HW2 7815   1.313   4.935   0.489
 2495SOL     OW 7816   0.550   3.920   0.885
 2495SOL    HW1 7817   0.545   3.915   0.985
 2495SOL    HW2 7818   0.552   4.016   0.856
 2496SOL     OW 7819   1.008   5.180   0.477
 2496SOL    HW1 7820   0.962   5.252   0.425
 2496SOL    HW2 7821   1.004   5.200   0.575
 2497SOL     OW 7822   1.795   4.790   0.873
 2497SOL    HW1 7823   1.733   4.775   0.797
 2497SOL    HW2 7824   1.743   4.801   0.958
 2498SOL     OW 7825   1.227   5.274   1.506
 2498SOL    HW1 7826   1.233   5.197   1.570
 2498SOL    HW2 7827   1.175   5.248   1.426
 2499SOL     OW 7828   0.321   4.667   0.242
 2499SOL    HW1 7829   0.403   4.706   0.200
 2499SOL    HW2 7830   0.294   4.585   0.193
 2500SOL     OW 7831   1.458   4.459   0.728
 2500SOL    HW1 7832   1.453   4.394   0.803
 2500SOL    HW2 7833   1.538   4.518   0.741
 2501SOL     OW 7834   0.461   4.990   1.727
 2501SOL    HW1 7835   0.411   4.991   1.641
 2501SOL    HW2 7836   0.398   4.972   1.803
 2502SOL     OW 7837   1.111   5.500   0.237
 2502SOL    HW1 7838   1.051   5.438   0.287
 2502SOL    HW2 7839   1.142   5.456   0.152
 2503SOL     OW 7840   0.202   4.009   1.498
 2503SOL    HW1 7841   0.122   4.069   1.485
 2503SOL    HW2 7842   0.192   3.960   1.584
 2504SOL     OW 7843   1.632   5.101   0.081
 2504SOL    HW1 7844   1.600   5.195   0.071
 2504SOL    HW2 7845   1.556   5.038   0.069
 2505SOL     OW 7846   1.400   3.831   0.426
 2505SOL    HW1 7847   1.376   3.794   0.336
 2505SOL    HW2 7848   1.499   3.847   0.430
 2506SOL     OW 7849   0.382   4.424   0.480
 2506SOL    HW1 7850   0.427   4.334   0.477
 2506SOL    HW2 7851   0.288   4.413   0.513
 2507SOL     OW 7852   1.547   3.946   1.729
 2507SOL    HW1 7853   1.542   3.983   1.821
 2507SOL    HW2 7854   1.475   3.877   1.717
 2508SOL     OW 7855   0.781   3.988   1.749
 2508SOL    HW1 7856   0.848   3.927   1.792
 2508SOL    HW2 7857   0.708   4.007   1.814
 2509SOL     OW 7858   1.351   4.314   1.433
 2509SOL    HW1 7859   1.379   4.271   1.518
 2509SOL    HW2 7860   1.376   4.410   1.434
 2510SOL     OW 7861   0.803   5.126   0.924
 2510SOL    HW1 7862   0.893   5.140   0.882
 2510SOL    HW2 7863   0.732   5.128   0.853
 2511SOL     OW 7864   0.922   4.227   0.899
 2511SOL    HW1 7865   0.897   4.218   0.803
 2511SOL    HW2 7866   0.970   4.145   0.930
 2512SOL     OW 7867   0.539   3.788   0.512
 2512SOL    HW1 7868   0.458   3.789   0.570
 2512SOL    HW2 7869   0.542   3.871   0.457
 2513SOL     OW 7870   1.434   4.912   0.041
 2513SOL    HW1 7871   1.466   4.836   0.098
 2513SOL    HW2 7872   1.342   4.939   0.071
 2514SOL     OW 7873   0.935   3.960   0.480
 2514SOL    HW1 7874   0.887   4.001   0.402
 2514SOL    HW2 7875   1.034   3.958   0.461
 2515SOL     OW 7876   1.076   4.407   1.464
 2515SOL    HW1 7877   0.996   4.346   1.467
 2515SOL    HW2 7878   1.157   4.354   1.440
 2516SOL     OW 7879   1.227   5.294   0.793
 2516SOL    HW1 7880   1.248   5.368   0.728
 2516SOL    HW2 7881   1.295   5.294   0.866
 2517SOL     OW 7882   0.459   4.876   0.741
 2517SOL    HW1 7883   0.388   4.849   0.806
 2517SOL    HW2 7884   0.433   4.848   0.648
 2518SOL     OW 7885   1.032   4.273   0.016
 2518SOL    HW1 7886   0.991   4.355  -0.023
 2518SOL    HW2 7887   1.096   4.299   0.089
 2519SOL     OW 7888   0.078   4.280   1.386
 2519SOL    HW1 7889   0.170   4.279   1.345
 2519SOL    HW2 7890   0.072   4.354   1.453
 2520SOL     OW 7891   0.561   3.946   1.147
 2520SOL    HW1 7892   0.599   3.862   1.184
 2520SOL    HW2 7893   0.473   3.965   1.191
 2521SOL     OW 7894   0.866   4.178   0.642
 2521SOL    HW1 7895   0.834   4.250   0.580
 2521SOL    HW2 7896   0.890   4.097   0.589
 2522SOL     OW 7897   1.017   3.763   0.753
 2522SOL    HW1 7898   0.945   3.768   0.684
 2522SOL    HW2 7899   0.993   3.694   0.822
 2523SOL     OW 7900   1.429   4.897   0.867
 2523SOL    HW1 7901   1.374   4.813   0.860
 2523SOL    HW2 7902   1.455   4.926   0.775
 2524SOL     OW 7903   1.466   4.314   0.992
 2524SOL    HW1 7904   1.436   4.219   0.999
 2524SOL    HW2 7905   1.539   4.330   1.058
 2525SOL     OW 7906   1.857   4.557   0.377
 2525SOL    HW1 7907   1.899   4.493   0.441
 2525SOL    HW2 7908   1.819   4.506   0.299
 2526SOL     OW 7909   0.488   5.109   0.174
 2526SOL    HW1 7910   0.401   5.094   0.221
 2526SOL    HW2 7911   0.471   5.135   0.079
 2527SOL     OW 7912   1.664   5.004   0.657
 2527SOL    HW1 7913   1.763   5.012   0.671
 2527SOL    HW2 7914   1.619   5.088   0.688
 2528SOL     OW 7915   1.390   4.299   0.078
 2528SOL    HW1 7916   1.336   4.278   0.159
 2528SOL    HW2 7917   1.481   4.258   0.087
 2529SOL     OW 7918   0.527   3.980   0.328
 2529SOL    HW1 7919   0.554   3.921   0.253
 2529SOL    HW2 7920   0.527   4.075   0.297
 2530SOL     OW 7921   1.754   4.947   1.588
 2530SOL    HW1 7922   1.845   4.908   1.575
 2530SOL    HW2 7923   1.762   5.043   1.612
 2531SOL     OW 7924   1.064   5.071   1.340
 2531SOL    HW1 7925   0.984   5.048   1.395
 2531SOL    HW2 7926   1.147   5.045   1.389
 2532SOL     OW 7927   1.111   4.919   1.100
 2532SOL    HW1 7928   1.071   4.963   1.181
 2532SOL    HW2 7929   1.070   4.956   1.017
 2533SOL     OW 7930   1.638   4.823   1.079
 2533SOL    HW1 7931   1.643   4.904   1.138
 2533SOL    HW2 7932   1.552   4.825   1.028
 2534SOL     OW 7933   0.915   3.813   1.402
 2534SOL    HW1 7934   0.940   3.793   1.307
 2534SOL    HW2 7935   0.987   3.869   1.444
 2535SOL     OW 7936   0.980   4.840   1.719
 2535SOL    HW1 7937   0.881   4.846   1.729
 2535SOL    HW2 7938   1.003   4.760   1.663
 2536SOL     OW 7939   0.705   4.774   0.368
 2536SOL    HW1 7940   0.691   4.781   0.467
 2536SOL    HW2 7941   0.789   4.723   0.350
 2537SOL     OW 7942   0.410   4.537   1.251
 2537SOL    HW1 7943   0.496   4.549   1.301
 2537SOL    HW2 7944   0.368   4.450   1.278
 2538SOL     OW 7945   1.274   4.110   1.262
 2538SOL    HW1 7946   1.295   4.184   1.326
 2538SOL    HW2 7947   1.185   4.127   1.219
 2539SOL     OW 7948   0.064   5.288   1.331
 2539SOL    HW1 7949   0.018   5.370   1.297
 2539SOL    HW2 7950   0.162   5.307   1.340
 2540SOL     OW 7951   0.367   4.824   0.501
 2540SOL    HW1 7952   0.360   4.907   0.445
 2540SOL    HW2 7953   0.371   4.744   0.441
 2541SOL     OW 7954   0.566   4.261   0.865
 2541SOL    HW1 7955   0.578   4.327   0.791
 2541SOL    HW2 7956   0.612   4.295   0.948
 2542SOL     OW 7957   1.252   5.072   0.388
 2542SOL    HW1 7958   1.302   5.149   0.428
 2542SOL    HW2 7959   1.157   5.074   0.420
 2543SOL     OW 7960   1.272   5.169   1.142
 2543SOL    HW1 7961   1.319   5.182   1.229
 2543SOL    HW2 7962   1.206   5.095   1.151
 2544SOL     OW 7963   1.582   4.363   0.472
 2544SOL    HW1 7964   1.551   4.424   0.545
 2544SOL    HW2 7965   1.632   4.415   0.403
 2545SOL     OW 7966   0.354   5.234   1.329
 2545SOL    HW1 7967   0.333   5.190   1.242
 2545SOL    HW2 7968   0.451   5.260   1.332
 2546SOL     OW 7969   0.402   4.475   1.598
 2546SOL    HW1 7970   0.470   4.530   1.551
 2546SOL    HW2 7971   0.442   4.387   1.625
 2547SOL     OW 7972   1.587   4.503   1.670
 2547SOL    HW1 7973   1.495   4.541   1.665
 2547SOL    HW2 7974   1.647   4.550   1.605
 2548SOL     OW 7975   1.013   3.829   1.770
 2548SOL    HW1 7976   1.019   3.914   1.718
 2548SOL    HW2 7977   1.045   3.753   1.713
 2549SOL     OW 7978   0.504   3.774   1.740
 2549SOL    HW1 7979   0.462   3.717   1.670
 2549SOL    HW2 7980   0.438   3.843   1.772
 2550SOL     OW 7981   0.573   4.594   1.029
 2550SOL    HW1 7982   0.617   4.683   1.020
 2550SOL    HW2 7983   0.510   4.594   1.106
 2551SOL     OW 7984   1.360   4.586   1.045
 2551SOL    HW1 7985   1.285   4.586   0.979
 2551SOL    HW2 7986   1.397   4.494   1.054
 2552SOL     OW 7987   1.209   4.249   0.275
 2552SOL    HW1 7988   1.222   4.165   0.329
 2552SOL    HW2 7989   1.180   4.323   0.335
 2553SOL     OW 7990   0.307   3.937   1.231
 2553SOL    HW1 7991   0.284   3.974   1.321
 2553SOL    HW2 7992   0.277   3.842   1.225
 2554SOL     OW 7993   0.037   5.034   1.282
 2554SOL    HW1 7994   0.090   4.985   1.350
 2554SOL    HW2 7995   0.059   5.132   1.287
 2555SOL     OW 7996   0.732   4.358   1.064
 2555SOL    HW1 7997   0.791   4.332   0.988
 2555SOL    HW2 7998   0.704   4.454   1.053
 2556SOL     OW 7999   1.728   4.659   1.854
 2556SOL    HW1 8000   1.682   4.652   1.765
 2556SOL    HW2 8001   1.666   4.703   1.920
 2557SOL     OW 8002   0.307   3.787   0.618
 2557SOL    HW1 8003   0.296   3.881   0.651
 2557SOL    HW2 8004   0.302   3.724   0.695
 2558SOL     OW 8005   1.622   4.091   0.374
 2558SOL    HW1 8006   1.624   4.015   0.438
 2558SOL    HW2 8007   1.574   4.168   0.414
 2559SOL     OW 8008   1.023   4.490   0.966
 2559SOL    HW1 8009   1.038   4.511   1.062
 2559SOL    HW2 8010   0.993   4.395   0.957
 2560SOL     OW 8011   1.859   5.242   1.605
 2560SOL    HW1 8012   1.873   5.269   1.510
 2560SOL    HW2 8013   1.942   5.264   1.658
 2561SOL     OW 8014   0.350   4.622   1.804
 2561SOL    HW1 8015   0.426   4.666   1.852
 2561SOL    HW2 8016   0.385   4.575   1.722
 2562SOL     OW 8017   1.540   3.998   0.125
 2562SOL    HW1 8018   1.479   3.923   0.148
 2562SOL    HW2 8019   1.562   4.050   0.208
 2563SOL     OW 8020   1.303   4.562   0.042
 2563SOL    HW1 8021   1.337   4.469   0.057
 2563SOL    HW2 8022   1.321   4.589  -0.053
 2564SOL     OW 8023   1.068   5.057   0.849
 2564SOL    HW1 8024   1.075   4.973   0.794
 2564SOL    HW2 8025   1.130   5.126   0.813
 2565SOL     OW 8026   0.319   4.534   0.949
 2565SOL    HW1 8027   0.412   4.570   0.954
 2565SOL    HW2 8028   0.313   4.449   1.001
 2566SOL     OW 8029   0.339   4.233   1.006
 2566SOL    HW1 8030   0.287   4.150   0.989
 2566SOL    HW2 8031   0.416   4.238   0.942
 2567SOL     OW 8032   1.138   4.104   1.678
 2567SOL    HW1 8033   1.093   4.167   1.742
 2567SOL    HW2 8034   1.231   4.135   1.661
 2568SOL     OW 8035   1.160   3.931   1.477
 2568SOL    HW1 8036   1.160   3.995   1.554
 2568SOL    HW2 8037   1.188   3.979   1.394
 2569SOL     OW 8038   0.008   5.050   0.200
 2569SOL    HW1 8039  -0.085   5.071   0.169
 2569SOL    HW2 8040   0.018   4.951   0.213
 2570SOL     OW 8041   1.002   4.520   1.238
 2570SOL    HW1 8042   1.043   4.488   1.324
 2570SOL    HW2 8043   0.906   4.493   1.235
 2571SOL     OW 8044   0.040   4.268   1.114
 2571SOL    HW1 8045   0.125   4.235   1.073
 2571SOL    HW2 8046   0.053   4.283   1.212
 2572SOL     OW 8047   0.189   4.244   1.722
 2572SOL    HW1 8048   0.248   4.204   1.652
 2572SOL    HW2 8049   0.131   4.315   1.681
 2573SOL     OW 8050   1.369   4.674   1.660
 2573SOL    HW1 8051   1.408   4.763   1.680
 2573SOL    HW2 8052   1.379   4.654   1.563
 2574SOL     OW 8053   0.815   4.296   0.325
 2574SOL    HW1 8054   0.822   4.207   0.279
 2574SOL    HW2 8055   0.721   4.330   0.317
 2575SOL     OW 8056   1.657   4.328   1.206
 2575SOL    HW1 8057   1.619   4.259   1.268
 2575SOL    HW2 8058   1.739   4.292   1.162
 2576SOL     OW 8059   0.252   5.288   1.744
 2576SOL    HW1 8060   0.222   5.345   1.820
 2576SOL    HW2 8061   0.245   5.191   1.770
 2577SOL     OW 8062   0.671   4.188   1.269
 2577SOL    HW1 8063   0.637   4.099   1.239
 2577SOL    HW2 8064   0.697   4.242   1.189
 2578SOL     OW 8065   0.473   4.224   0.191
 2578SOL    HW1 8066   0.534   4.304   0.195
 2578SOL    HW2 8067   0.378   4.255   0.198
 2579SOL     OW 8068   0.159   4.861   1.466
 2579SOL    HW1 8069   0.181   4.800   1.542
 2579SOL    HW2 8070   0.169   4.812   1.380
 2580SOL     OW 8071   1.347   4.783   1.234
 2580SOL    HW1 8072   1.371   4.720   1.160
 2580SOL    HW2 8073   1.257   4.823   1.216
 2581SOL     OW 8074   1.302   4.579   0.309
 2581SOL    HW1 8075   1.216   4.548   0.351
 2581SOL    HW2 8076   1.298   4.565   0.210
 2582SOL     OW 8077   0.083   4.982   1.022
 2582SOL    HW1 8078   0.078   4.981   1.122
 2582SOL    HW2 8079   0.000   4.941   0.984
 2583SOL     OW 8080   0.688   5.386   1.716
 2583SOL    HW1 8081   0.632   5.467   1.725
 2583SOL    HW2 8082   0.740   5.390   1.630
 2584SOL     OW 8083   0.903   3.810   0.133
 2584SOL    HW1 8084   0.954   3.811   0.047
 2584SOL    HW2 8085   0.959   3.768   0.204
 2585SOL     OW 8086   1.726   3.859   0.523
 2585SOL    HW1 8087   1.799   3.842   0.456
 2585SOL    HW2 8088   1.695   3.772   0.561
 2586SOL     OW 8089   1.280   4.651   0.672
 2586SOL    HW1 8090   1.340   4.570   0.674
 2586SOL    HW2 8091   1.320   4.720   0.612
 2587SOL     OW 8092   0.830   4.997   1.422
 2587SOL    HW1 8093   0.825   5.030   1.517
 2587SOL    HW2 8094   0.744   5.016   1.376
 2588SOL     OW 8095   1.841   3.899   0.963
 2588SOL    HW1 8096   1.880   3.814   0.927
 2588SOL    HW2 8097   1.743   3.901   0.944
 2589SOL     OW 8098   0.263   4.050   0.720
 2589SOL    HW1 8099   0.184   4.101   0.686
 2589SOL    HW2 8100   0.254   4.035   0.818
 2590SOL     OW 8101   1.194   5.336   0.031
 2590SOL    HW1 8102   1.200   5.243   0.068
 2590SOL    HW2 8103   1.135   5.336  -0.049
 2591SOL     OW 8104   0.822   4.726   1.372
 2591SOL    HW1 8105   0.862   4.725   1.280
 2591SOL    HW2 8106   0.832   4.818   1.412
 2592SOL     OW 8107   0.916   4.634   0.291
 2592SOL    HW1 8108   0.979   4.672   0.223
 2592SOL    HW2 8109   0.956   4.551   0.330
 2593SOL     OW 8110   0.372   5.012   1.490
 2593SOL    HW1 8111   0.359   5.105   1.456
 2593SOL    HW2 8112   0.288   4.960   1.477
 2594SOL     OW 8113   1.614   5.016   1.289
 2594SOL    HW1 8114   1.674   5.019   1.369
 2594SOL    HW2 8115   1.539   5.080   1.302
 2595SOL     OW 8116   1.039   4.822   0.696
 2595SOL    HW1 8117   0.969   4.775   0.750
 2595SOL    HW2 8118   1.098   4.754   0.653
 2596SOL     OW 8119   1.014   3.960   0.971
 2596SOL    HW1 8120   1.006   3.924   0.878
 2596SOL    HW2 8121   1.012   3.884   1.036
 2597SOL     OW 8122   1.709   4.109   1.381
 2597SOL    HW1 8123   1.782   4.178   1.385
 2597SOL    HW2 8124   1.737   4.034   1.322
 2598SOL     OW 8125   0.255   5.072   0.290
 2598SOL    HW1 8126   0.159   5.073   0.263
 2598SOL    HW2 8127   0.267   5.125   0.374
 2599SOL     OW 8128   0.105   4.737   1.726
 2599SOL    HW1 8129   0.028   4.704   1.780
 2599SOL    HW2 8130   0.190   4.707   1.768
 2600SOL     OW 8131   0.672   3.927   1.489
 2600SOL    HW1 8132   0.762   3.911   1.449
 2600SOL    HW2 8133   0.680   3.932   1.588
 2601SOL     OW 8134   0.075   4.069   0.033
 2601SOL    HW1 8135  -0.017   4.041   0.004
 2601SOL    HW2 8136   0.106   4.146  -0.023
 2602SOL     OW 8137   1.440   4.580   1.398
 2602SOL    HW1 8138   1.383   4.632   1.335
 2602SOL    HW2 8139   1.536   4.592   1.374
 2603SOL     OW 8140   0.072   3.890   0.318
 2603SOL    HW1 8141   0.055   3.973   0.264
 2603SOL    HW2 8142   0.162   3.853   0.296
 2604SOL     OW 8143   1.183   5.059   0.119
 2604SOL    HW1 8144   1.084   5.048   0.121
 2604SOL    HW2 8145   1.217   5.074   0.212
 2605SOL     OW 8146   0.613   4.566   1.431
 2605SOL    HW1 8147   0.669   4.647   1.414
 2605SOL    HW2 8148   0.672   4.486   1.434
 2606SOL     OW 8149   0.716   4.289   1.708
 2606SOL    HW1 8150   0.735   4.354   1.782
 2606SOL    HW2 8151   0.776   4.209   1.717
 2607SOL     OW 8152   1.450   4.944   1.633
 2607SOL    HW1 8153   1.441   4.934   1.732
 2607SOL    HW2 8154   1.546   4.937   1.607
 2608SOL     OW 8155   1.674   4.607   1.254
 2608SOL    HW1 8156   1.647   4.518   1.217
 2608SOL    HW2 8157   1.675   4.675   1.181
 2609SOL     OW 8158   1.225   4.049   0.449
 2609SOL    HW1 8159   1.290   3.975   0.438
 2609SOL    HW2 8160   1.245   4.099   0.533
 2610SOL     OW 8161   0.594   4.469   0.652
 2610SOL    HW1 8162   0.644   4.554   0.633
 2610SOL    HW2 8163   0.506   4.471   0.604
 2611SOL     OW 8164   1.777   4.066   1.642
 2611SOL    HW1 8165   1.760   4.097   1.548
 2611SOL    HW2 8166   1.693   4.029   1.680
 2612SOL     OW 8167   1.730   4.658   1.517
 2612SOL    HW1 8168   1.768   4.749   1.532
 2612SOL    HW2 8169   1.722   4.641   1.418
 2613SOL     OW 8170   0.859   5.098   0.016
 2613SOL    HW1 8171   0.813   5.113   0.104
 2613SOL    HW2 8172   0.903   5.183  -0.014
 2614SOL     OW 8173   0.859   4.680   0.861
 2614SOL    HW1 8174   0.913   4.611   0.909
 2614SOL    HW2 8175   0.827   4.749   0.927
 2615SOL     OW 8176   1.083   4.708   0.087
 2615SOL    HW1 8177   1.060   4.761   0.005
 2615SOL    HW2 8178   1.164   4.652   0.068
 2616SOL     OW 8179   0.221   5.038   1.844
 2616SOL    HW1 8180   0.156   4.965   1.823
 2616SOL    HW2 8181   0.225   5.052   1.942
 2617SOL     OW 8182   0.079   4.964   0.653
 2617SOL    HW1 8183   0.078   4.917   0.741
 2617SOL    HW2 8184   0.161   4.936   0.602
 2618SOL     OW 8185   0.672   5.115   1.624
 2618SOL    HW1 8186   0.594   5.065   1.662
 2618SOL    HW2 8187   0.669   5.210   1.655
 2619SOL     OW 8188   1.824   3.916   1.227
 2619SOL    HW1 8189   1.820   3.826   1.271
 2619SOL    HW2 8190   1.827   3.905   1.128
 2620SOL     OW 8191   0.428   4.148   0.520
 2620SOL    HW1 8192   0.458   4.076   0.458
 2620SOL    HW2 8193   0.389   4.108   0.603
 2621SOL     OW 8194   1.705   5.211   1.104
 2621SOL    HW1 8195   1.612   5.186   1.077
 2621SOL    HW2 8196   1.731   5.161   1.186
 2622SOL     OW 8197   0.317   4.271   1.280
 2622SOL    HW1 8198   0.355   4.212   1.352
 2622SOL    HW2 8199   0.357   4.245   1.192
 2623SOL     OW 8200   1.424   3.938   1.112
 2623SOL    HW1 8201   1.476   3.873   1.167
 2623SOL    HW2 8202   1.375   4.001   1.173
 2624SOL     OW 8203   1.001   3.758   1.154
 2624SOL    HW1 8204   0.938   3.686   1.123
 2624SOL    HW2 8205   1.094   3.722   1.154
 2625SOL     OW 8206   0.770   5.054   0.301
 2625SOL    HW1 8207   0.724   4.967   0.318
 2625SOL    HW2 8208   0.861   5.051   0.342
 2626SOL     OW 8209   0.618   5.291   1.284
 2626SOL    HW1 8210   0.613   5.373   1.341
 2626SOL    HW2 8211   0.707   5.288   1.239
 2627SOL     OW 8212   1.352   3.776   0.168
 2627SOL    HW1 8213   1.387   3.735   0.084
 2627SOL    HW2 8214   1.262   3.738   0.188
 2628SOL     OW 8215   1.300   4.177   0.691
 2628SOL    HW1 8216   1.241   4.257   0.695
 2628SOL    HW2 8217   1.315   4.142   0.784
 2629SOL     OW 8218   1.593   3.945   0.882
 2629SOL    HW1 8219   1.509   3.944   0.936
 2629SOL    HW2 8220   1.595   4.028   0.826
 2630SOL     OW 8221   0.039   4.801   0.300
 2630SOL    HW1 8222   0.138   4.790   0.291
 2630SOL    HW2 8223  -0.001   4.715   0.332
 2631SOL     OW 8224   0.230   4.352   1.975
 2631SOL    HW1 8225   0.137   4.350   2.012
 2631SOL    HW2 8226   0.231   4.313   1.883
 2632SOL     OW 8227   0.225   3.999   2.858
 2632SOL    HW1 8228   0.260   3.982   2.950
 2632SOL    HW2 8229   0.137   3.954   2.846
 2633SOL     OW 8230   0.019   4.092   2.509
 2633SOL    HW1 8231  -0.063   4.135   2.548
 2633SOL    HW2 8232  -0.009   4.019   2.446
 2634SOL     OW 8233   0.569   4.999   3.027
 2634SOL    HW1 8234   0.476   4.992   2.990
 2634SOL    HW2 8235   0.580   5.088   3.071
 2635SOL     OW 8236   1.555   5.235   2.565
 2635SOL    HW1 8237   1.498   5.219   2.646
 2635SOL    HW2 8238   1.496   5.245   2.485
 2636SOL     OW 8239   1.135   4.427   2.579
 2636SOL    HW1 8240   1.192   4.505   2.554
 2636SOL    HW2 8241   1.075   4.453   2.655
 2637SOL     OW 8242   1.755   4.331   2.093
 2637SOL    HW1 8243   1.743   4.318   1.994
 2637SOL    HW2 8244   1.725   4.250   2.142
 2638SOL     OW 8245   0.768   4.868   2.885
 2638SOL    HW1 8246   0.690   4.885   2.945
 2638SOL    HW2 8247   0.802   4.955   2.849
 2639SOL     OW 8248   0.850   4.522   3.685
 2639SOL    HW1 8249   0.846   4.598   3.750
 2639SOL    HW2 8250   0.872   4.558   3.594
 2640SOL     OW 8251   0.685   4.736   2.527
 2640SOL    HW1 8252   0.754   4.720   2.597
 2640SOL    HW2 8253   0.612   4.793   2.565
 2641SOL     OW 8254   0.686   4.885   3.665
 2641SOL    HW1 8255   0.746   4.964   3.679
 2641SOL    HW2 8256   0.600   4.916   3.624
 2642SOL     OW 8257   0.335   5.159   2.923
 2642SOL    HW1 8258   0.257   5.128   2.870
 2642SOL    HW2 8259   0.393   5.217   2.866
 2643SOL     OW 8260   1.460   5.229   3.201
 2643SOL    HW1 8261   1.484   5.323   3.227
 2643SOL    HW2 8262   1.444   5.175   3.283
 2644SOL     OW 8263   0.438   4.116   3.361
 2644SOL    HW1 8264   0.520   4.060   3.370
 2644SOL    HW2 8265   0.357   4.058   3.365
 2645SOL     OW 8266   1.603   4.171   2.599
 2645SOL    HW1 8267   1.529   4.217   2.549
 2645SOL    HW2 8268   1.654   4.239   2.652
 2646SOL     OW 8269   1.127   5.065   3.552
 2646SOL    HW1 8270   1.174   5.065   3.640
 2646SOL    HW2 8271   1.079   4.978   3.541
 2647SOL     OW 8272   0.230   5.158   2.400
 2647SOL    HW1 8273   0.204   5.254   2.400
 2647SOL    HW2 8274   0.159   5.104   2.445
 2648SOL     OW 8275   0.240   4.815   2.748
 2648SOL    HW1 8276   0.254   4.731   2.800
 2648SOL    HW2 8277   0.185   4.879   2.803
 2649SOL     OW 8278   0.606   4.688   1.985
 2649SOL    HW1 8279   0.613   4.772   1.931
 2649SOL    HW2 8280   0.652   4.701   2.073
 2650SOL     OW 8281   1.594   3.838   3.342
 2650SOL    HW1 8282   1.576   3.905   3.270
 2650SOL    HW2 8283   1.591   3.884   3.431
 2651SOL     OW 8284   0.122   4.367   2.425
 2651SOL    HW1 8285   0.077   4.279   2.442
 2651SOL    HW2 8286   0.121   4.421   2.509
 2652SOL     OW 8287   0.027   5.320   1.979
 2652SOL    HW1 8288   0.008   5.224   2.000
 2652SOL    HW2 8289  -0.006   5.378   2.054
 2653SOL     OW 8290   1.689   4.646   2.474
 2653SOL    HW1 8291   1.784   4.617   2.482
 2653SOL    HW2 8292   1.681   4.711   2.399
 2654SOL     OW 8293   1.641   4.832   2.294
 2654SOL    HW1 8294   1.727   4.834   2.242
 2654SOL    HW2 8295   1.655   4.879   2.382
 2655SOL     OW 8296   0.113   4.461   3.459
 2655SOL    HW1 8297   0.201   4.448   3.504
 2655SOL    HW2 8298   0.100   4.558   3.437
 2656SOL     OW 8299   0.613   5.089   2.588
 2656SOL    HW1 8300   0.564   5.002   2.597
 2656SOL    HW2 8301   0.590   5.132   2.501
 2657SOL     OW 8302   1.293   4.952   3.285
 2657SOL    HW1 8303   1.330   4.879   3.227
 2657SOL    HW2 8304   1.345   4.957   3.370
 2658SOL     OW 8305   0.809   3.728   2.364
 2658SOL    HW1 8306   0.849   3.819   2.355
 2658SOL    HW2 8307   0.709   3.736   2.370
 2659SOL     OW 8308   0.197   4.700   3.126
 2659SOL    HW1 8309   0.286   4.655   3.112
 2659SOL    HW2 8310   0.124   4.635   3.107
 2660SOL     OW 8311   1.525   4.723   2.052
 2660SOL    HW1 8312   1.462   4.647   2.065
 2660SOL    HW2 8313   1.573   4.741   2.138
 2661SOL     OW 8314   0.317   3.975   3.663
 2661SOL    HW1 8315   0.388   4.046   3.669
 2661SOL    HW2 8316   0.229   4.014   3.691
 2662SOL     OW 8317   1.466   5.141   2.815
 2662SOL    HW1 8318   1.407   5.147   2.895
 2662SOL    HW2 8319   1.451   5.053   2.769
 2663SOL     OW 8320   0.598   4.453   2.132
 2663SOL    HW1 8321   0.622   4.522   2.064
 2663SOL    HW2 8322   0.520   4.486   2.186
 2664SOL     OW 8323   1.281   4.069   2.806
 2664SOL    HW1 8324   1.195   4.019   2.793
 2664SOL    HW2 8325   1.343   4.015   2.862
 2665SOL     OW 8326   0.807   4.329   3.327
 2665SOL    HW1 8327   0.760   4.326   3.416
 2665SOL    HW2 8328   0.756   4.274   3.261
 2666SOL     OW 8329   1.394   4.193   3.536
 2666SOL    HW1 8330   1.374   4.236   3.624
 2666SOL    HW2 8331   1.472   4.131   3.545
 2667SOL     OW 8332   0.973   4.614   3.434
 2667SOL    HW1 8333   1.019   4.530   3.405
 2667SOL    HW2 8334   0.917   4.648   3.359
 2668SOL     OW 8335   0.991   4.134   3.104
 2668SOL    HW1 8336   0.914   4.168   3.158
 2668SOL    HW2 8337   0.957   4.083   3.025
 2669SOL     OW 8338   1.041   4.425   2.291
 2669SOL    HW1 8339   1.067   4.421   2.387
 2669SOL    HW2 8340   0.956   4.374   2.277
 2670SOL     OW 8341   0.076   4.535   2.651
 2670SOL    HW1 8342   0.175   4.523   2.660
 2670SOL    HW2 8343   0.052   4.630   2.672
 2671SOL     OW 8344   0.865   4.072   2.057
 2671SOL    HW1 8345   0.924   4.135   2.008
 2671SOL    HW2 8346   0.884   3.978   2.028
 2672SOL     OW 8347   1.719   4.309   3.693
 2672SOL    HW1 8348   1.693   4.398   3.657
 2672SOL    HW2 8349   1.717   4.241   3.620
 2673SOL     OW 8350   1.362   4.868   2.407
 2673SOL    HW1 8351   1.445   4.839   2.359
 2673SOL    HW2 8352   1.313   4.935   2.351
 2674SOL     OW 8353   0.550   3.920   2.747
 2674SOL    HW1 8354   0.545   3.915   2.847
 2674SOL    HW2 8355   0.552   4.016   2.718
 2675SOL     OW 8356   1.008   5.180   2.339
 2675SOL    HW1 8357   0.962   5.252   2.287
 2675SOL    HW2 8358   1.004   5.200   2.437
 2676SOL     OW 8359   1.795   4.790   2.735
 2676SOL    HW1 8360   1.733   4.775   2.659
 2676SOL    HW2 8361   1.743   4.801   2.820
 2677SOL     OW 8362   1.227   5.274   3.368
 2677SOL    HW1 8363   1.233   5.197   3.432
 2677SOL    HW2 8364   1.175   5.248   3.288
 2678SOL     OW 8365   0.321   4.667   2.104
 2678SOL    HW1 8366   0.403   4.706   2.062
 2678SOL    HW2 8367   0.294   4.585   2.055
 2679SOL     OW 8368   1.458   4.459   2.590
 2679SOL    HW1 8369   1.453   4.394   2.665
 2679SOL    HW2 8370   1.538   4.518   2.603
 2680SOL     OW 8371   0.461   4.990   3.589
 2680SOL    HW1 8372   0.411   4.991   3.503
 2680SOL    HW2 8373   0.398   4.972   3.665
 2681SOL     OW 8374   1.111   5.500   2.099
 2681SOL    HW1 8375   1.051   5.438   2.149
 2681SOL    HW2 8376   1.142   5.456   2.014
 2682SOL     OW 8377   0.202   4.009   3.360
 2682SOL    HW1 8378   0.122   4.069   3.347
 2682SOL    HW2 8379   0.192   3.960   3.446
 2683SOL     OW 8380   1.632   5.101   1.943
 2683SOL    HW1 8381   1.600   5.195   1.933
 2683SOL    HW2 8382   1.556   5.038   1.931
 2684SOL     OW 8383   1.400   3.831   2.288
 2684SOL    HW1 8384   1.376   3.794   2.198
 2684SOL    HW2 8385   1.499   3.847   2.292
 2685SOL     OW 8386   0.382   4.424   2.342
 2685SOL    HW1 8387   0.427   4.334   2.339
 2685SOL    HW2 8388   0.288   4.413   2.375
 2686SOL     OW 8389   1.547   3.946   3.591
 2686SOL    HW1 8390   1.542   3.983   3.683
 2686SOL    HW2 8391   1.475   3.877   3.579
 2687SOL     OW 8392   0.614   3.846   1.979
 2687SOL    HW1 8393   0.712   3.824   1.986
 2687SOL    HW2 8394   0.583   3.829   1.886
 2688SOL     OW 8395   0.781   3.988   3.611
 2688SOL    HW1 8396   0.848   3.927   3.654
 2688SOL    HW2 8397   0.708   4.007   3.676
 2689SOL     OW 8398   1.351   4.314   3.295
 2689SOL    HW1 8399   1.379   4.271   3.380
 2689SOL    HW2 8400   1.376   4.410   3.296
 2690SOL     OW 8401   0.803   5.126   2.786
 2690SOL    HW1 8402   0.893   5.140   2.744
 2690SOL    HW2 8403   0.732   5.128   2.715
 2691SOL     OW 8404   0.922   4.227   2.761
 2691SOL    HW1 8405   0.897   4.218   2.665
 2691SOL    HW2 8406   0.970   4.145   2.792
 2692SOL     OW 8407   0.539   3.788   2.374
 2692SOL    HW1 8408   0.458   3.789   2.432
 2692SOL    HW2 8409   0.542   3.871   2.319
 2693SOL     OW 8410   1.434   4.912   1.903
 2693SOL    HW1 8411   1.466   4.836   1.960
 2693SOL    HW2 8412   1.342   4.939   1.933
 2694SOL     OW 8413   0.297   3.759   2.033
 2694SOL    HW1 8414   0.346   3.843   2.012
 2694SOL    HW2 8415   0.359   3.694   2.078
 2695SOL     OW 8416   0.935   3.960   2.342
 2695SOL    HW1 8417   0.887   4.001   2.264
 2695SOL    HW2 8418   1.034   3.958   2.323
 2696SOL     OW 8419   1.076   4.407   3.326
 2696SOL    HW1 8420   0.996   4.346   3.329
 2696SOL    HW2 8421   1.157   4.354   3.302
 2697SOL     OW 8422   1.227   5.294   2.655
 2697SOL    HW1 8423   1.248   5.368   2.590
 2697SOL    HW2 8424   1.295   5.294   2.728
 2698SOL     OW 8425   0.459   4.876   2.603
 2698SOL    HW1 8426   0.388   4.849   2.668
 2698SOL    HW2 8427   0.433   4.848   2.510
 2699SOL     OW 8428   1.032   4.273   1.878
 2699SOL    HW1 8429   0.991   4.355   1.839
 2699SOL    HW2 8430   1.096   4.299   1.951
 2700SOL     OW 8431   0.078   4.280   3.248
 2700SOL    HW1 8432   0.170   4.279   3.207
 2700SOL    HW2 8433   0.072   4.354   3.315
 2701SOL     OW 8434   0.561   3.946   3.009
 2701SOL    HW1 8435   0.599   3.862   3.046
 2701SOL    HW2 8436   0.473   3.965   3.053
 2702SOL     OW 8437   0.866   4.178   2.504
 2702SOL    HW1 8438   0.834   4.250   2.442
 2702SOL    HW2 8439   0.890   4.097   2.451
 2703SOL     OW 8440   1.017   3.763   2.615
 2703SOL    HW1 8441   0.945   3.768   2.546
 2703SOL    HW2 8442   0.993   3.694   2.684
 2704SOL     OW 8443   1.429   4.897   2.729
 2704SOL    HW1 8444   1.374   4.813   2.722
 2704SOL    HW2 8445   1.455   4.926   2.637
 2705SOL     OW 8446   1.466   4.314   2.854
 2705SOL    HW1 8447   1.436   4.219   2.861
 2705SOL    HW2 8448   1.539   4.330   2.920
 2706SOL     OW 8449   1.857   4.557   2.239
 2706SOL    HW1 8450   1.899   4.493   2.303
 2706SOL    HW2 8451   1.819   4.506   2.161
 2707SOL     OW 8452   0.488   5.109   2.036
 2707SOL    HW1 8453   0.401   5.094   2.083
 2707SOL    HW2 8454   0.471   5.135   1.941
 2708SOL     OW 8455   1.664   5.004   2.519
 2708SOL    HW1 8456   1.763   5.012   2.533
 2708SOL    HW2 8457   1.619   5.088   2.550
 2709SOL     OW 8458   1.390   4.299   1.940
 2709SOL    HW1 8459   1.336   4.278   2.021
 2709SOL    HW2 8460   1.481   4.258   1.949
 2710SOL     OW 8461   0.527   3.980   2.190
 2710SOL    HW1 8462   0.554   3.921   2.115
 2710SOL    HW2 8463   0.527   4.075   2.159
 2711SOL     OW 8464   1.754   4.947   3.450
 2711SOL    HW1 8465   1.845   4.908   3.437
 2711SOL    HW2 8466   1.762   5.043   3.474
 2712SOL     OW 8467   1.064   5.071   3.202
 2712SOL    HW1 8468   0.984   5.048   3.257
 2712SOL    HW2 8469   1.147   5.045   3.251
 2713SOL     OW 8470   1.111   4.919   2.962
 2713SOL    HW1 8471   1.071   4.963   3.043
 2713SOL    HW2 8472   1.070   4.956   2.879
 2714SOL     OW 8473   1.638   4.823   2.941
 2714SOL    HW1 8474   1.643   4.904   3.000
 2714SOL    HW2 8475   1.552   4.825   2.890
 2715SOL     OW 8476   0.915   3.813   3.264
 2715SOL    HW1 8477   0.940   3.793   3.169
 2715SOL    HW2 8478   0.987   3.869   3.306
 2716SOL     OW 8479   0.980   4.840   3.581
 2716SOL    HW1 8480   0.881   4.846   3.591
 2716SOL    HW2 8481   1.003   4.760   3.525
 2717SOL     OW 8482   0.705   4.774   2.230
 2717SOL    HW1 8483   0.691   4.781   2.329
 2717SOL    HW2 8484   0.789   4.723   2.212
 2718SOL     OW 8485   0.410   4.537   3.113
 2718SOL    HW1 8486   0.496   4.549   3.163
 2718SOL    HW2 8487   0.368   4.450   3.140
 2719SOL     OW 8488   1.274   4.110   3.124
 2719SOL    HW1 8489   1.295   4.184   3.188
 2719SOL    HW2 8490   1.185   4.127   3.081
 2720SOL     OW 8491   0.064   5.288   3.193
 2720SOL    HW1 8492   0.018   5.370   3.159
 2720SOL    HW2 8493   0.162   5.307   3.202
 2721SOL     OW 8494   0.367   4.824   2.363
 2721SOL    HW1 8495   0.360   4.907   2.307
 2721SOL    HW2 8496   0.371   4.744   2.303
 2722SOL     OW 8497   0.566   4.261   2.727
 2722SOL    HW1 8498   0.578   4.327   2.653
 2722SOL    HW2 8499   0.612   4.295   2.810
 2723SOL     OW 8500   1.252   5.072   2.250
 2723SOL    HW1 8501   1.302   5.149   2.290
 2723SOL    HW2 8502   1.157   5.074   2.282
 2724SOL     OW 8503   1.272   5.169   3.004
 2724SOL    HW1 8504   1.319   5.182   3.091
 2724SOL    HW2 8505   1.206   5.095   3.013
 2725SOL     OW 8506   1.582   4.363   2.334
 2725SOL    HW1 8507   1.551   4.424   2.407
 2725SOL    HW2 8508   1.632   4.415   2.265
 2726SOL     OW 8509   0.354   5.234   3.191
 2726SOL    HW1 8510   0.333   5.190   3.104
 2726SOL    HW2 8511   0.451   5.260   3.194
 2727SOL     OW 8512   0.402   4.475   3.460
 2727SOL    HW1 8513   0.470   4.530   3.413
 2727SOL    HW2 8514   0.442   4.387   3.487
 2728SOL     OW 8515   1.587   4.503   3.532
 2728SOL    HW1 8516   1.495   4.541   3.527
 2728SOL    HW2 8517   1.647   4.550   3.467
 2729SOL     OW 8518   1.013   3.829   3.632
 2729SOL    HW1 8519   1.019   3.914   3.580
 2729SOL    HW2 8520   1.045   3.753   3.575
 2730SOL     OW 8521   0.504   3.774   3.602
 2730SOL    HW1 8522   0.462   3.717   3.532
 2730SOL    HW2 8523   0.438   3.843   3.634
 2731SOL     OW 8524   0.573   4.594   2.891
 2731SOL    HW1 8525   0.617   4.683   2.882
 2731SOL    HW2 8526   0.510   4.594   2.968
 2732SOL     OW 8527   1.360   4.586   2.907
 2732SOL    HW1 8528   1.285   4.586   2.841
 2732SOL    HW2 8529   1.397   4.494   2.916
 2733SOL     OW 8530   1.209   4.249   2.137
 2733SOL    HW1 8531   1.222   4.165   2.191
 2733SOL    HW2 8532   1.180   4.323   2.197
 2734SOL     OW 8533   0.307   3.937   3.093
 2734SOL    HW1 8534   0.284   3.974   3.183
 2734SOL    HW2 8535   0.277   3.842   3.087
 2735SOL     OW 8536   0.037   5.034   3.144
 2735SOL    HW1 8537   0.090   4.985   3.212
 2735SOL    HW2 8538   0.059   5.132   3.149
 2736SOL     OW 8539   0.732   4.358   2.926
 2736SOL    HW1 8540   0.791   4.332   2.850
 2736SOL    HW2 8541   0.704   4.454   2.915
 2737SOL     OW 8542   1.728   4.659   3.716
 2737SOL    HW1 8543   1.682   4.652   3.627
 2737SOL    HW2 8544   1.666   4.703   3.782
 2738SOL     OW 8545   0.307   3.787   2.480
 2738SOL    HW1 8546   0.296   3.881   2.513
 2738SOL    HW2 8547   0.302   3.724   2.557
 2739SOL     OW 8548   1.622   4.091   2.236
 2739SOL    HW1 8549   1.624   4.015   2.300
 2739SOL    HW2 8550   1.574   4.168   2.276
 2740SOL     OW 8551   1.023   4.490   2.828
 2740SOL    HW1 8552   1.038   4.511   2.924
 2740SOL    HW2 8553   0.993   4.395   2.819
 2741SOL     OW 8554   1.859   5.242   3.467
 2741SOL    HW1 8555   1.873   5.269   3.372
 2741SOL    HW2 8556   1.942   5.264   3.520
 2742SOL     OW 8557   0.350   4.622   3.666
 2742SOL    HW1 8558   0.426   4.666   3.714
 2742SOL    HW2 8559   0.385   4.575   3.584
 2743SOL     OW 8560   1.540   3.998   1.987
 2743SOL    HW1 8561   1.479   3.923   2.010
 2743SOL    HW2 8562   1.562   4.050   2.070
 2744SOL     OW 8563   1.303   4.562   1.904
 2744SOL    HW1 8564   1.337   4.469   1.919
 2744SOL    HW2 8565   1.321   4.589   1.809
 2745SOL     OW 8566   1.068   5.057   2.711
 2745SOL    HW1 8567   1.075   4.973   2.656
 2745SOL    HW2 8568   1.130   5.126   2.675
 2746SOL     OW 8569   0.319   4.534   2.811
 2746SOL    HW1 8570   0.412   4.570   2.816
 2746SOL    HW2 8571   0.313   4.449   2.863
 2747SOL     OW 8572   0.339   4.233   2.868
 2747SOL    HW1 8573   0.287   4.150   2.851
 2747SOL    HW2 8574   0.416   4.238   2.804
 2748SOL     OW 8575   1.138   4.104   3.540
 2748SOL    HW1 8576   1.093   4.167   3.604
 2748SOL    HW2 8577   1.231   4.135   3.523
 2749SOL     OW 8578   1.160   3.931   3.339
 2749SOL    HW1 8579   1.160   3.995   3.416
 2749SOL    HW2 8580   1.188   3.979   3.256
 2750SOL     OW 8581   0.008   5.050   2.062
 2750SOL    HW1 8582  -0.085   5.071   2.031
 2750SOL    HW2 8583   0.018   4.951   2.075
 2751SOL     OW 8584   1.002   4.520   3.100
 2751SOL    HW1 8585   1.043   4.488   3.186
 2751SOL    HW2 8586   0.906   4.493   3.097
 2752SOL     OW 8587   0.040   4.268   2.976
 2752SOL    HW1 8588   0.125   4.235   2.935
 2752SOL    HW2 8589   0.053   4.283   3.074
 2753SOL     OW 8590   0.189   4.244   3.584
 2753SOL    HW1 8591   0.248   4.204   3.514
 2753SOL    HW2 8592   0.131   4.315   3.543
 2754SOL     OW 8593   1.369   4.674   3.522
 2754SOL    HW1 8594   1.408   4.763   3.542
 2754SOL    HW2 8595   1.379   4.654   3.425
 2755SOL     OW 8596   0.815   4.296   2.187
 2755SOL    HW1 8597   0.822   4.207   2.141
 2755SOL    HW2 8598   0.721   4.330   2.179
 2756SOL     OW 8599   1.657   4.328   3.068
 2756SOL    HW1 8600   1.619   4.259   3.130
 2756SOL    HW2 8601   1.739   4.292   3.024
 2757SOL     OW 8602   0.252   5.288   3.606
 2757SOL    HW1 8603   0.222   5.345   3.682
 2757SOL    HW2 8604   0.245   5.191   3.632
 2758SOL     OW 8605   0.671   4.188   3.131
 2758SOL    HW1 8606   0.637   4.099   3.101
 2758SOL    HW2 8607   0.697   4.242   3.051
 2759SOL     OW 8608   0.473   4.224   2.053
 2759SOL    HW1 8609   0.534   4.304   2.057
 2759SOL    HW2 8610   0.378   4.255   2.060
 2760SOL     OW 8611   0.159   4.861   3.328
 2760SOL    HW1 8612   0.181   4.800   3.404
 2760SOL    HW2 8613   0.169   4.812   3.242
 2761SOL     OW 8614   1.347   4.783   3.096
 2761SOL    HW1 8615   1.371   4.720   3.022
 2761SOL    HW2 8616   1.257   4.823   3.078
 2762SOL     OW 8617   1.302   4.579   2.171
 2762SOL    HW1 8618   1.216   4.548   2.213
 2762SOL    HW2 8619   1.298   4.565   2.072
 2763SOL     OW 8620   0.083   4.982   2.884
 2763SOL    HW1 8621   0.078   4.981   2.984
 2763SOL    HW2 8622   0.000   4.941   2.846
 2764SOL     OW 8623   0.688   5.386   3.578
 2764SOL    HW1 8624   0.632   5.467   3.587
 2764SOL    HW2 8625   0.740   5.390   3.492
 2765SOL     OW 8626   1.726   3.859   2.385
 2765SOL    HW1 8627   1.799   3.842   2.318
 2765SOL    HW2 8628   1.695   3.772   2.423
 2766SOL     OW 8629   1.280   4.651   2.534
 2766SOL    HW1 8630   1.340   4.570   2.536
 2766SOL    HW2 8631   1.320   4.720   2.474
 2767SOL     OW 8632   0.830   4.997   3.284
 2767SOL    HW1 8633   0.825   5.030   3.379
 2767SOL    HW2 8634   0.744   5.016   3.238
 2768SOL     OW 8635   1.841   3.899   2.825
 2768SOL    HW1 8636   1.880   3.814   2.789
 2768SOL    HW2 8637   1.743   3.901   2.806
 2769SOL     OW 8638   0.263   4.050   2.582
 2769SOL    HW1 8639   0.184   4.101   2.548
 2769SOL    HW2 8640   0.254   4.035   2.680
 2770SOL     OW 8641   0.822   4.726   3.234
 2770SOL    HW1 8642   0.862   4.725   3.142
 2770SOL    HW2 8643   0.832   4.818   3.274
 2771SOL     OW 8644   0.916   4.634   2.153
 2771SOL    HW1 8645   0.979   4.672   2.085
 2771SOL    HW2 8646   0.956   4.551   2.192
 2772SOL     OW 8647   0.372   5.012   3.352
 2772SOL    HW1 8648   0.359   5.105   3.318
 2772SOL    HW2 8649   0.288   4.960   3.339
 2773SOL     OW 8650   1.614   5.016   3.151
 2773SOL    HW1 8651   1.674   5.019   3.231
 2773SOL    HW2 8652   1.539   5.080   3.164
 2774SOL     OW 8653   1.039   4.822   2.558
 2774SOL    HW1 8654   0.969   4.775   2.612
 2774SOL    HW2 8655   1.098   4.754   2.515
 2775SOL     OW 8656   1.014   3.960   2.833
 2775SOL    HW1 8657   1.006   3.924   2.740
 2775SOL    HW2 8658   1.012   3.884   2.898
 2776SOL     OW 8659   1.709   4.109   3.243
 2776SOL    HW1 8660   1.782   4.178   3.247
 2776SOL    HW2 8661   1.737   4.034   3.184
 2777SOL     OW 8662   0.255   5.072   2.152
 2777SOL    HW1 8663   0.159   5.073   2.125
 2777SOL    HW2 8664   0.267   5.125   2.236
 2778SOL     OW 8665   0.105   4.737   3.588
 2778SOL    HW1 8666   0.028   4.704   3.642
 2778SOL    HW2 8667   0.190   4.707   3.630
 2779SOL     OW 8668   0.672   3.927   3.351
 2779SOL    HW1 8669   0.762   3.911   3.311
 2779SOL    HW2 8670   0.680   3.932   3.450
 2780SOL     OW 8671   0.075   4.069   1.895
 2780SOL    HW1 8672  -0.017   4.041   1.866
 2780SOL    HW2 8673   0.106   4.146   1.839
 2781SOL     OW 8674   1.440   4.580   3.260
 2781SOL    HW1 8675   1.383   4.632   3.197
 2781SOL    HW2 8676   1.536   4.592   3.236
 2782SOL     OW 8677   0.072   3.890   2.180
 2782SOL    HW1 8678   0.055   3.973   2.126
 2782SOL    HW2 8679   0.162   3.853   2.158
 2783SOL     OW 8680   1.183   5.059   1.981
 2783SOL    HW1 8681   1.084   5.048   1.983
 2783SOL    HW2 8682   1.217   5.074   2.074
 2784SOL     OW 8683   0.613   4.566   3.293
 2784SOL    HW1 8684   0.669   4.647   3.276
 2784SOL    HW2 8685   0.672   4.486   3.296
 2785SOL     OW 8686   0.716   4.289   3.570
 2785SOL    HW1 8687   0.735   4.354   3.644
 2785SOL    HW2 8688   0.776   4.209   3.579
 2786SOL     OW 8689   1.450   4.944   3.495
 2786SOL    HW1 8690   1.441   4.934   3.594
 2786SOL    HW2 8691   1.546   4.937   3.469
 2787SOL     OW 8692   1.674   4.607   3.116
 2787SOL    HW1 8693   1.647   4.518   3.079
 2787SOL    HW2 8694   1.675   4.675   3.043
 2788SOL     OW 8695   1.225   4.049   2.311
 2788SOL    HW1 8696   1.290   3.975   2.300
 2788SOL    HW2 8697   1.245   4.099   2.395
 2789SOL     OW 8698   0.594   4.469   2.514
 2789SOL    HW1 8699   0.644   4.554   2.495
 2789SOL    HW2 8700   0.506   4.471   2.466
 2790SOL     OW 8701   1.777   4.066   3.504
 2790SOL    HW1 8702   1.760   4.097   3.410
 2790SOL    HW2 8703   1.693   4.029   3.542
 2791SOL     OW 8704   1.730   4.658   3.379
 2791SOL    HW1 8705   1.768   4.749   3.394
 2791SOL    HW2 8706   1.722   4.641   3.280
 2792SOL     OW 8707   0.859   5.098   1.878
 2792SOL    HW1 8708   0.813   5.113   1.966
 2792SOL    HW2 8709   0.903   5.183   1.848
 2793SOL     OW 8710   0.859   4.680   2.723
 2793SOL    HW1 8711   0.913   4.611   2.771
 2793SOL    HW2 8712   0.827   4.749   2.789
 2794SOL     OW 8713   1.083   4.708   1.949
 2794SOL    HW1 8714   1.060   4.761   1.867
 2794SOL    HW2 8715   1.164   4.652   1.930
 2795SOL     OW 8716   0.221   5.038   3.706
 2795SOL    HW1 8717   0.156   4.965   3.685
 2795SOL    HW2 8718   0.225   5.052   3.804
 2796SOL     OW 8719   0.079   4.964   2.515
 2796SOL    HW1 8720   0.078   4.917   2.603
 2796SOL    HW2 8721   0.161   4.936   2.464
 2797SOL     OW 8722   0.672   5.115   3.486
 2797SOL    HW1 8723   0.594   5.065   3.524
 2797SOL    HW2 8724   0.669   5.210   3.517
 2798SOL     OW 8725   1.824   3.916   3.089
 2798SOL    HW1 8726   1.820   3.826   3.133
 2798SOL    HW2 8727   1.827   3.905   2.990
 2799SOL     OW 8728   0.428   4.148   2.382
 2799SOL    HW1 8729   0.458   4.076   2.320
 2799SOL    HW2 8730   0.389   4.108   2.465
 2800SOL     OW 8731   1.705   5.211   2.966
 2800SOL    HW1 8732   1.612   5.186   2.939
 2800SOL    HW2 8733   1.731   5.161   3.048
 2801SOL     OW 8734   0.317   4.271   3.142
 2801SOL    HW1 8735   0.355   4.212   3.214
 2801SOL    HW2 8736   0.357   4.245   3.054
 2802SOL     OW 8737   1.424   3.938   2.974
 2802SOL    HW1 8738   1.476   3.873   3.029
 2802SOL    HW2 8739   1.375   4.001   3.035
 2803SOL     OW 8740   1.001   3.758   3.016
 2803SOL    HW1 8741   0.938   3.686   2.985
 2803SOL    HW2 8742   1.094   3.722   3.016
 2804SOL     OW 8743   0.770   5.054   2.163
 2804SOL    HW1 8744   0.724   4.967   2.180
 2804SOL    HW2 8745   0.861   5.051   2.204
 2805SOL     OW 8746   0.618   5.291   3.146
 2805SOL    HW1 8747   0.613   5.373   3.203
 2805SOL    HW2 8748   0.707   5.288   3.101
 2806SOL     OW 8749   1.352   3.776   2.030
 2806SOL    HW1 8750   1.387   3.735   1.946
 2806SOL    HW2 8751   1.262   3.738   2.050
 2807SOL     OW 8752   1.300   4.177   2.553
 2807SOL    HW1 8753   1.241   4.257   2.557
 2807SOL    HW2 8754   1.315   4.142   2.646
 2808SOL     OW 8755   1.593   3.945   2.744
 2808SOL    HW1 8756   1.509   3.944   2.798
 2808SOL    HW2 8757   1.595   4.028   2.688
 2809SOL     OW 8758   0.039   4.801   2.162
 2809SOL    HW1 8759   0.138   4.790   2.153
 2809SOL    HW2 8760  -0.001   4.715   2.194
 2810SOL     OW 8761   0.230   4.352   3.837
 2810SOL    HW1 8762   0.137   4.350   3.874
 2810SOL    HW2 8763   0.231   4.313   3.745
 2811SOL     OW 8764   0.225   3.999   4.720
 2811SOL    HW1 8765   0.260   3.982   4.812
 2811SOL    HW2 8766   0.137   3.954   4.708
 2812SOL     OW 8767   0.019   4.092   4.371
 2812SOL    HW1 8768  -0.063   4.135   4.410
 2812SOL    HW2 8769  -0.009   4.019   4.308
 2813SOL     OW 8770   0.569   4.999   4.889
 2813SOL    HW1 8771   0.476   4.992   4.852
 2813SOL    HW2 8772   0.580   5.088   4.933
 2814SOL     OW 8773   1.555   5.235   4.427
 2814SOL    HW1 8774   1.498   5.219   4.508
 2814SOL    HW2 8775   1.496   5.245   4.347
 2815SOL     OW 8776   1.135   4.427   4.441
 2815SOL    HW1 8777   1.192   4.505   4.416
 2815SOL    HW2 8778   1.075   4.453   4.517
 2816SOL     OW 8779   1.755   4.331   3.955
 2816SOL    HW1 8780   1.743   4.318   3.856
 2816SOL    HW2 8781   1.725   4.250   4.004
 2817SOL     OW 8782   0.768   4.868   4.747
 2817SOL    HW1 8783   0.690   4.885   4.807
 2817SOL    HW2 8784   0.802   4.955   4.711
 2818SOL     OW 8785   0.850   4.522   5.547
 2818SOL    HW1 8786   0.846   4.598   5.612
 2818SOL    HW2 8787   0.872   4.558   5.456
 2819SOL     OW 8788   0.685   4.736   4.389
 2819SOL    HW1 8789   0.754   4.720   4.459
 2819SOL    HW2 8790   0.612   4.793   4.427
 2820SOL     OW 8791   0.686   4.885   5.527
 2820SOL    HW1 8792   0.746   4.964   5.541
 2820SOL    HW2 8793   0.600   4.916   5.486
 2821SOL     OW 8794   0.335   5.159   4.785
 2821SOL    HW1 8795   0.257   5.128   4.732
 2821SOL    HW2 8796   0.393   5.217   4.728
 2822SOL     OW 8797   1.460   5.229   5.063
 2822SOL    HW1 8798   1.484   5.323   5.089
 2822SOL    HW2 8799   1.444   5.175   5.145
 2823SOL     OW 8800   0.438   4.116   5.223
 2823SOL    HW1 8801   0.520   4.060   5.232
 2823SOL    HW2 8802   0.357   4.058   5.227
 2824SOL     OW 8803   1.603   4.171   4.461
 2824SOL    HW1 8804   1.529   4.217   4.411
 2824SOL    HW2 8805   1.654   4.239   4.514
 2825SOL     OW 8806   1.127   5.065   5.414
 2825SOL    HW1 8807   1.174   5.065   5.502
 2825SOL    HW2 8808   1.079   4.978   5.403
 2826SOL     OW 8809   0.230   5.158   4.262
 2826SOL    HW1 8810   0.204   5.254   4.262
 2826SOL    HW2 8811   0.159   5.104   4.307
 2827SOL     OW 8812   0.240   4.815   4.610
 2827SOL    HW1 8813   0.254   4.731   4.662
 2827SOL    HW2 8814   0.185   4.879   4.665
 2828SOL     OW 8815   0.606   4.688   3.847
 2828SOL    HW1 8816   0.613   4.772   3.793
 2828SOL    HW2 8817   0.652   4.701   3.935
 2829SOL     OW 8818   1.594   3.838   5.204
 2829SOL    HW1 8819   1.576   3.905   5.132
 2829SOL    HW2 8820   1.591   3.884   5.293
 2830SOL     OW 8821   0.122   4.367   4.287
 2830SOL    HW1 8822   0.077   4.279   4.304
 2830SOL    HW2 8823   0.121   4.421   4.371
 2831SOL     OW 8824   0.027   5.320   3.841
 2831SOL    HW1 8825   0.008   5.224   3.862
 2831SOL    HW2 8826  -0.006   5.378   3.916
 2832SOL     OW 8827   1.689   4.646   4.336
 2832SOL    HW1 8828   1.784   4.617   4.344
 2832SOL    HW2 8829   1.681   4.711   4.261
 2833SOL     OW 8830   1.641   4.832   4.156
 2833SOL    HW1 8831   1.727   4.834   4.104
 2833SOL    HW2 8832   1.655   4.879   4.244
 2834SOL     OW 8833   0.113   4.461   5.321
 2834SOL    HW1 8834   0.201   4.448   5.366
 2834SOL    HW2 8835   0.100   4.558   5.299
 2835SOL     OW 8836   0.613   5.089   4.450
 2835SOL    HW1 8837   0.564   5.002   4.459
 2835SOL    HW2 8838   0.590   5.132   4.363
 2836SOL     OW 8839   1.293   4.952   5.147
 2836SOL    HW1 8840   1.330   4.879   5.089
 2836SOL    HW2 8841   1.345   4.957   5.232
 2837SOL     OW 8842   0.809   3.728   4.226
 2837SOL    HW1 8843   0.849   3.819   4.217
 2837SOL    HW2 8844   0.709   3.736   4.232
 2838SOL     OW 8845   0.197   4.700   4.988
 2838SOL    HW1 8846   0.286   4.655   4.974
 2838SOL    HW2 8847   0.124   4.635   4.969
 2839SOL     OW 8848   1.525   4.723   3.914
 2839SOL    HW1 8849   1.462   4.647   3.927
 2839SOL    HW2 8850   1.573   4.741   4.000
 2840SOL     OW 8851   0.317   3.975   5.525
 2840SOL    HW1 8852   0.388   4.046   5.531
 2840SOL    HW2 8853   0.229   4.014   5.553
 2841SOL     OW 8854   1.466   5.141   4.677
 2841SOL    HW1 8855   1.407   5.147   4.757
 2841SOL    HW2 8856   1.451   5.053   4.631
 2842SOL     OW 8857   0.598   4.453   3.994
 2842SOL    HW1 8858   0.622   4.522   3.926
 2842SOL    HW2 8859   0.520   4.486   4.048
 2843SOL     OW 8860   1.281   4.069   4.668
 2843SOL    HW1 8861   1.195   4.019   4.655
 2843SOL    HW2 8862   1.343   4.015   4.724
 2844SOL     OW 8863   0.807   4.329   5.189
 2844SOL    HW1 8864   0.760   4.326   5.278
 2844SOL    HW2 8865   0.756   4.274   5.123
 2845SOL     OW 8866   1.394   4.193   5.398
 2845SOL    HW1 8867   1.374   4.236   5.486
 2845SOL    HW2 8868   1.472   4.131   5.407
 2846SOL     OW 8869   0.973   4.614   5.296
 2846SOL    HW1 8870   1.019   4.530   5.267
 2846SOL    HW2 8871   0.917   4.648   5.221
 2847SOL     OW 8872   0.991   4.134   4.966
 2847SOL    HW1 8873   0.914   4.168   5.020
 2847SOL    HW2 8874   0.957   4.083   4.887
 2848SOL     OW 8875   1.041   4.425   4.153
 2848SOL    HW1 8876   1.067   4.421   4.249
 2848SOL    HW2 8877   0.956   4.374   4.139
 2849SOL     OW 8878   0.076   4.535   4.513
 2849SOL    HW1 8879   0.175   4.523   4.522
 2849SOL    HW2 8880   0.052   4.630   4.534
 2850SOL     OW 8881   0.865   4.072   3.919
 2850SOL    HW1 8882   0.924   4.135   3.870
 2850SOL    HW2 8883   0.884   3.978   3.890
 2851SOL     OW 8884   1.719   4.309   5.555
 2851SOL    HW1 8885   1.693   4.398   5.519
 2851SOL    HW2 8886   1.717   4.241   5.482
 2852SOL     OW 8887   1.362   4.868   4.269
 2852SOL    HW1 8888   1.445   4.839   4.221
 2852SOL    HW2 8889   1.313   4.935   4.213
 2853SOL     OW 8890   0.550   3.920   4.609
 2853SOL    HW1 8891   0.545   3.915   4.709
 2853SOL    HW2 8892   0.552   4.016   4.580
 2854SOL     OW 8893   1.008   5.180   4.201
 2854SOL    HW1 8894   0.962   5.252   4.149
 2854SOL    HW2 8895   1.004   5.200   4.299
 2855SOL     OW 8896   1.795   4.790   4.597
 2855SOL    HW1 8897   1.733   4.775   4.521
 2855SOL    HW2 8898   1.743   4.801   4.682
 2856SOL     OW 8899   1.227   5.274   5.230
 2856SOL    HW1 8900   1.233   5.197   5.294
 2856SOL    HW2 8901   1.175   5.248   5.150
 2857SOL     OW 8902   0.321   4.667   3.966
 2857SOL    HW1 8903   0.403   4.706   3.924
 2857SOL    HW2 8904   0.294   4.585   3.917
 2858SOL     OW 8905   1.458   4.459   4.452
 2858SOL    HW1 8906   1.453   4.394   4.527
 2858SOL    HW2 8907   1.538   4.518   4.465
 2859SOL     OW 8908   0.461   4.990   5.451
 2859SOL    HW1 8909   0.411   4.991   5.365
 2859SOL    HW2 8910   0.398   4.972   5.527
 2860SOL     OW 8911   1.111   5.500   3.961
 2860SOL    HW1 8912   1.051   5.438   4.011
 2860SOL    HW2 8913   1.142   5.456   3.876
 2861SOL     OW 8914   0.202   4.009   5.222
 2861SOL    HW1 8915   0.122   4.069   5.209
 2861SOL    HW2 8916   0.192   3.960   5.308
 2862SOL     OW 8917   1.632   5.101   3.805
 2862SOL    HW1 8918   1.600   5.195   3.795
 2862SOL    HW2 8919   1.556   5.038   3.793
 2863SOL     OW 8920   1.400   3.831   4.150
 2863SOL    HW1 8921   1.376   3.794   4.060
 2863SOL    HW2 8922   1.499   3.847   4.154
 2864SOL     OW 8923   0.382   4.424   4.204
 2864SOL    HW1 8924   0.427   4.334   4.201
 2864SOL    HW2 8925   0.288   4.413   4.237
 2865SOL     OW 8926   1.547   3.946   5.453
 2865SOL    HW1 8927   1.542   3.983   5.545
 2865SOL    HW2 8928   1.475   3.877   5.441
 2866SOL     OW 8929   0.614   3.846   3.841
 2866SOL    HW1 8930   0.712   3.824   3.848
 2866SOL    HW2 8931   0.583   3.829   3.748
 2867SOL     OW 8932   0.781   3.988   5.473
 2867SOL    HW1 8933   0.848   3.927   5.516
 2867SOL    HW2 8934   0.708   4.007   5.538
 2868SOL     OW 8935   1.351   4.314   5.157
 2868SOL    HW1 8936   1.379   4.271   5.242
 2868SOL    HW2 8937   1.376   4.410   5.158
 2869SOL     OW 8938   0.803   5.126   4.648
 2869SOL    HW1 8939   0.893   5.140   4.606
 2869SOL    HW2 8940   0.732   5.128   4.577
 2870SOL     OW 8941   0.922   4.227   4.623
 2870SOL    HW1 8942   0.897   4.218   4.527
 2870SOL    HW2 8943   0.970   4.145   4.654
 2871SOL     OW 8944   0.539   3.788   4.236
 2871SOL    HW1 8945   0.458   3.789   4.294
 2871SOL    HW2 8946   0.542   3.871   4.181
 2872SOL     OW 8947   1.434   4.912   3.765
 2872SOL    HW1 8948   1.466   4.836   3.822
 2872SOL    HW2 8949   1.342   4.939   3.795
 2873SOL     OW 8950   0.297   3.759   3.895
 2873SOL    HW1 8951   0.346   3.843   3.874
 2873SOL    HW2 8952   0.359   3.694   3.940
 2874SOL     OW 8953   0.935   3.960   4.204
 2874SOL    HW1 8954   0.887   4.001   4.126
 2874SOL    HW2 8955   1.034   3.958   4.185
 2875SOL     OW 8956   1.076   4.407   5.188
 2875SOL    HW1 8957   0.996   4.346   5.191
 2875SOL    HW2 8958   1.157   4.354   5.164
 2876SOL     OW 8959   1.227   5.294   4.517
 2876SOL    HW1 8960   1.248   5.368   4.452
 2876SOL    HW2 8961   1.295   5.294   4.590
 2877SOL     OW 8962   0.459   4.876   4.465
 2877SOL    HW1 8963   0.388   4.849   4.530
 2877SOL    HW2 8964   0.433   4.848   4.372
 2878SOL     OW 8965   1.032   4.273   3.740
 2878SOL    HW1 8966   0.991   4.355   3.701
 2878SOL    HW2 8967   1.096   4.299   3.813
 2879SOL     OW 8968   0.078   4.280   5.110
 2879SOL    HW1 8969   0.170   4.279   5.069
 2879SOL    HW2 8970   0.072   4.354   5.177
 2880SOL     OW 8971   0.561   3.946   4.871
 2880SOL    HW1 8972   0.599   3.862   4.908
 2880SOL    HW2 8973   0.473   3.965   4.915
 2881SOL     OW 8974   0.866   4.178   4.366
 2881SOL    HW1 8975   0.834   4.250   4.304
 2881SOL    HW2 8976   0.890   4.097   4.313
 2882SOL     OW 8977   1.017   3.763   4.477
 2882SOL    HW1 8978   0.945   3.768   4.408
 2882SOL    HW2 8979   0.993   3.694   4.546
 2883SOL     OW 8980   1.429   4.897   4.591
 2883SOL    HW1 8981   1.374   4.813   4.584
 2883SOL    HW2 8982   1.455   4.926   4.499
 2884SOL     OW 8983   1.466   4.314   4.716
 2884SOL    HW1 8984   1.436   4.219   4.723
 2884SOL    HW2 8985   1.539   4.330   4.782
 2885SOL     OW 8986   1.857   4.557   4.101
 2885SOL    HW1 8987   1.899   4.493   4.165
 2885SOL    HW2 8988   1.819   4.506   4.023
 2886SOL     OW 8989   0.488   5.109   3.898
 2886SOL    HW1 8990   0.401   5.094   3.945
 2886SOL    HW2 8991   0.471   5.135   3.803
 2887SOL     OW 8992   1.664   5.004   4.381
 2887SOL    HW1 8993   1.763   5.012   4.395
 2887SOL    HW2 8994   1.619   5.088   4.412
 2888SOL     OW 8995   1.390   4.299   3.802
 2888SOL    HW1 8996   1.336   4.278   3.883
 2888SOL    HW2 8997   1.481   4.258   3.811
 2889SOL     OW 8998   0.527   3.980   4.052
 2889SOL    HW1 8999   0.554   3.921   3.977
 2889SOL    HW2 9000   0.527   4.075   4.021
 2890SOL     OW 9001   1.754   4.947   5.312
 2890SOL    HW1 9002   1.845   4.908   5.299
 2890SOL    HW2 9003   1.762   5.043   5.336
 2891SOL     OW 9004   1.064   5.071   5.064
 2891SOL    HW1 9005   0.984   5.048   5.119
 2891SOL    HW2 9006   1.147   5.045   5.113
 2892SOL     OW 9007   1.111   4.919   4.824
 2892SOL    HW1 9008   1.071   4.963   4.905
 2892SOL    HW2 9009   1.070   4.956   4.741
 2893SOL     OW 9010   1.638   4.823   4.803
 2893SOL    HW1 9011   1.643   4.904   4.862
 2893SOL    HW2 9012   1.552   4.825   4.752
 2894SOL     OW 9013   0.915   3.813   5.126
 2894SOL    HW1 9014   0.940   3.793   5.031
 2894SOL    HW2 9015   0.987   3.869   5.168
 2895SOL     OW 9016   0.980   4.840   5.443
 2895SOL    HW1 9017   0.881   4.846   5.453
 2895SOL    HW2 9018   1.003   4.760   5.387
 2896SOL     OW 9019   0.705   4.774   4.092
 2896SOL    HW1 9020   0.691   4.781   4.191
 2896SOL    HW2 9021   0.789   4.723   4.074
 2897SOL     OW 9022   0.410   4.537   4.975
 2897SOL    HW1 9023   0.496   4.549   5.025
 2897SOL    HW2 9024   0.368   4.450   5.002
 2898SOL     OW 9025   1.274   4.110   4.986
 2898SOL    HW1 9026   1.295   4.184   5.050
 2898SOL    HW2 9027   1.185   4.127   4.943
 2899SOL     OW 9028   0.064   5.288   5.055
 2899SOL    HW1 9029   0.018   5.370   5.021
 2899SOL    HW2 9030   0.162   5.307   5.064
 2900SOL     OW 9031   0.367   4.824   4.225
 2900SOL    HW1 9032   0.360   4.907   4.169
 2900SOL    HW2 9033   0.371   4.744   4.165
 2901SOL     OW 9034   0.566   4.261   4.589
 2901SOL    HW1 9035   0.578   4.327   4.515
 2901SOL    HW2 9036   0.612   4.295   4.672
 2902SOL     OW 9037   1.252   5.072   4.112
 2902SOL    HW1 9038   1.302   5.149   4.152
 2902SOL    HW2 9039   1.157   5.074   4.144
 2903SOL     OW 9040   1.272   5.169   4.866
 2903SOL    HW1 9041   1.319   5.182   4.953
 2903SOL    HW2 9042   1.206   5.095   4.875
 2904SOL     OW 9043   1.582   4.363   4.196
 2904SOL    HW1 9044   1.551   4.424   4.269
 2904SOL    HW2 9045   1.632   4.415   4.127
 2905SOL     OW 9046   0.354   5.234   5.053
 2905SOL    HW1 9047   0.333   5.190   4.966
 2905SOL    HW2 9048   0.451   5.260   5.056
 2906SOL     OW 9049   0.402   4.475   5.322
 2906SOL    HW1 9050   0.470   4.530   5.275
 2906SOL    HW2 9051   0.442   4.387   5.349
 2907SOL     OW 9052   1.587   4.503   5.394
 2907SOL    HW1 9053   1.495   4.541   5.389
 2907SOL    HW2 9054   1.647   4.550   5.329
 2908SOL     OW 9055   1.013   3.829   5.494
 2908SOL    HW1 9056   1.019   3.914   5.442
 2908SOL    HW2 9057   1.045   3.753   5.437
 2909SOL     OW 9058   0.504   3.774   5.464
 2909SOL    HW1 9059   0.462   3.717   5.394
 2909SOL    HW2 9060   0.438   3.843   5.496
 2910SOL     OW 9061   0.573   4.594   4.753
 2910SOL    HW1 9062   0.617   4.683   4.744
 2910SOL    HW2 9063   0.510   4.594   4.830
 2911SOL     OW 9064   1.360   4.586   4.769
 2911SOL    HW1 9065   1.285   4.586   4.703
 2911SOL    HW2 9066   1.397   4.494   4.778
 2912SOL     OW 9067   1.209   4.249   3.999
 2912SOL    HW1 9068   1.222   4.165   4.053
 2912SOL    HW2 9069   1.180   4.323   4.059
 2913SOL     OW 9070   0.307   3.937   4.955
 2913SOL    HW1 9071   0.284   3.974   5.045
 2913SOL    HW2 9072   0.277   3.842   4.949
 2914SOL     OW 9073   0.037   5.034   5.006
 2914SOL    HW1 9074   0.090   4.985   5.074
 2914SOL    HW2 9075   0.059   5.132   5.011
 2915SOL     OW 9076   0.732   4.358   4.788
 2915SOL    HW1 9077   0.791   4.332   4.712
 2915SOL    HW2 9078   0.704   4.454   4.777
 2916SOL     OW 9079   1.728   4.659   5.578
 2916SOL    HW1 9080   1.682   4.652   5.489
 2916SOL    HW2 9081   1.666   4.703   5.644
 2917SOL     OW 9082   0.307   3.787   4.342
 2917SOL    HW1 9083   0.296   3.881   4.375
 2917SOL    HW2 9084   0.302   3.724   4.419
 2918SOL     OW 9085   1.622   4.091   4.098
 2918SOL    HW1 9086   1.624   4.015   4.162
 2918SOL    HW2 9087   1.574   4.168   4.138
 2919SOL     OW 9088   1.023   4.490   4.690
 2919SOL    HW1 9089   1.038   4.511   4.786
 2919SOL    HW2 9090   0.993   4.395   4.681
 2920SOL     OW 9091   1.859   5.242   5.329
 2920SOL    HW1 9092   1.873   5.269   5.234
 2920SOL    HW2 9093   1.942   5.264   5.382
 2921SOL     OW 9094   0.350   4.622   5.528
 2921SOL    HW1 9095   0.426   4.666   5.576
 2921SOL    HW2 9096   0.385   4.575   5.446
 2922SOL     OW 9097   1.540   3.998   3.849
 2922SOL    HW1 9098   1.479   3.923   3.872
 2922SOL    HW2 9099   1.562   4.050   3.932
 2923SOL     OW 9100   1.303   4.562   3.766
 2923SOL    HW1 9101   1.337   4.469   3.781
 2923SOL    HW2 9102   1.321   4.589   3.671
 2924SOL     OW 9103   1.068   5.057   4.573
 2924SOL    HW1 9104   1.075   4.973   4.518
 2924SOL    HW2 9105   1.130   5.126   4.537
 2925SOL     OW 9106   0.319   4.534   4.673
 2925SOL    HW1 9107   0.412   4.570   4.678
 2925SOL    HW2 9108   0.313   4.449   4.725
 2926SOL     OW 9109   0.339   4.233   4.730
 2926SOL    HW1 9110   0.287   4.150   4.713
 2926SOL    HW2 9111   0.416   4.238   4.666
 2927SOL     OW 9112   1.138   4.104   5.402
 2927SOL    HW1 9113   1.093   4.167   5.466
 2927SOL    HW2 9114   1.231   4.135   5.385
 2928SOL     OW 9115   1.160   3.931   5.201
 2928SOL    HW1 9116   1.160   3.995   5.278
 2928SOL    HW2 9117   1.188   3.979   5.118
 2929SOL     OW 9118   0.008   5.050   3.924
 2929SOL    HW1 9119  -0.085   5.071   3.893
 2929SOL    HW2 9120   0.018   4.951   3.937
 2930SOL     OW 9121   1.002   4.520   4.962
 2930SOL    HW1 9122   1.043   4.488   5.048
 2930SOL    HW2 9123   0.906   4.493   4.959
 2931SOL     OW 9124   0.040   4.268   4.838
 2931SOL    HW1 9125   0.125   4.235   4.797
 2931SOL    HW2 9126   0.053   4.283   4.936
 2932SOL     OW 9127   0.189   4.244   5.446
 2932SOL    HW1 9128   0.248   4.204   5.376
 2932SOL    HW2 9129   0.131   4.315   5.405
 2933SOL     OW 9130   1.369   4.674   5.384
 2933SOL    HW1 9131   1.408   4.763   5.404
 2933SOL    HW2 9132   1.379   4.654   5.287
 2934SOL     OW 9133   0.815   4.296   4.049
 2934SOL    HW1 9134   0.822   4.207   4.003
 2934SOL    HW2 9135   0.721   4.330   4.041
 2935SOL     OW 9136   1.657   4.328   4.930
 2935SOL    HW1 9137   1.619   4.259   4.992
 2935SOL    HW2 9138   1.739   4.292   4.886
 2936SOL     OW 9139   0.252   5.288   5.468
 2936SOL    HW1 9140   0.222   5.345   5.544
 2936SOL    HW2 9141   0.245   5.191   5.494
 2937SOL     OW 9142   0.671   4.188   4.993
 2937SOL    HW1 9143   0.637   4.099   4.963
 2937SOL    HW2 9144   0.697   4.242   4.913
 2938SOL     OW 9145   0.473   4.224   3.915
 2938SOL    HW1 9146   0.534   4.304   3.919
 2938SOL    HW2 9147   0.378   4.255   3.922
 2939SOL     OW 9148   0.159   4.861   5.190
 2939SOL    HW1 9149   0.181   4.800   5.266
 2939SOL    HW2 9150   0.169   4.812   5.104
 2940SOL     OW 9151   1.347   4.783   4.958
 2940SOL    HW1 9152   1.371   4.720   4.884
 2940SOL    HW2 9153   1.257   4.823   4.940
 2941SOL     OW 9154   1.302   4.579   4.033
 2941SOL    HW1 9155   1.216   4.548   4.075
 2941SOL    HW2 9156   1.298   4.565   3.934
 2942SOL     OW 9157   0.083   4.982   4.746
 2942SOL    HW1 9158   0.078   4.981   4.846
 2942SOL    HW2 9159   0.000   4.941   4.708
 2943SOL     OW 9160   0.688   5.386   5.440
 2943SOL    HW1 9161   0.632   5.467   5.449
 2943SOL    HW2 9162   0.740   5.390   5.354
 2944SOL     OW 9163   1.726   3.859   4.247
 2944SOL    HW1 9164   1.799   3.842   4.180
 2944SOL    HW2 9165   1.695   3.772   4.285
 2945SOL     OW 9166   1.280   4.651   4.396
 2945SOL    HW1 9167   1.340   4.570   4.398
 2945SOL    HW2 9168   1.320   4.720   4.336
 2946SOL     OW 9169   0.830   4.997   5.146
 2946SOL    HW1 9170   0.825   5.030   5.241
 2946SOL    HW2 9171   0.744   5.016   5.100
 2947SOL     OW 9172   1.841   3.899   4.687
 2947SOL    HW1 9173   1.880   3.814   4.651
 2947SOL    HW2 9174   1.743   3.901   4.668
 2948SOL     OW 9175   0.263   4.050   4.444
 2948SOL    HW1 9176   0.184   4.101   4.410
 2948SOL    HW2 9177   0.254   4.035   4.542
 2949SOL     OW 9178   0.822   4.726   5.096
 2949SOL    HW1 9179   0.862   4.725   5.004
 2949SOL    HW2 9180   0.832   4.818   5.136
 2950SOL     OW 9181   0.916   4.634   4.015
 2950SOL    HW1 9182   0.979   4.672   3.947
 2950SOL    HW2 9183   0.956   4.551   4.054
 2951SOL     OW 9184   0.372   5.012   5.214
 2951SOL    HW1 9185   0.359   5.105   5.180
 2951SOL    HW2 9186   0.288   4.960   5.201
 2952SOL     OW 9187   1.614   5.016   5.013
 2952SOL    HW1 9188   1.674   5.019   5.093
 2952SOL    HW2 9189   1.539   5.080   5.026
 2953SOL     OW 9190   1.039   4.822   4.420
 2953SOL    HW1 9191   0.969   4.775   4.474
 2953SOL    HW2 9192   1.098   4.754   4.377
 2954SOL     OW 9193   1.014   3.960   4.695
 2954SOL    HW1 9194   1.006   3.924   4.602
 2954SOL    HW2 9195   1.012   3.884   4.760
 2955SOL     OW 9196   1.709   4.109   5.105
 2955SOL    HW1 9197   1.782   4.178   5.109
 2955SOL    HW2 9198   1.737   4.034   5.046
 2956SOL     OW 9199   0.255   5.072   4.014
 2956SOL    HW1 9200   0.159   5.073   3.987
 2956SOL    HW2 9201   0.267   5.125   4.098
 2957SOL     OW 9202   0.105   4.737   5.450
 2957SOL    HW1 9203   0.028   4.704   5.504
 2957SOL    HW2 9204   0.190   4.707   5.492
 2958SOL     OW 9205   0.672   3.927   5.213
 2958SOL    HW1 9206   0.762   3.911   5.173
 2958SOL    HW2 9207   0.680   3.932   5.312
 2959SOL     OW 9208   0.075   4.069   3.757
 2959SOL    HW1 9209  -0.017   4.041   3.728
 2959SOL    HW2 9210   0.106   4.146   3.701
 2960SOL     OW 9211   1.440   4.580   5.122
 2960SOL    HW1 9212   1.383   4.632   5.059
 2960SOL    HW2 9213   1.536   4.592   5.098
 2961SOL     OW 9214   0.072   3.890   4.042
 2961SOL    HW1 9215   0.055   3.973   3.988
 2961SOL    HW2 9216   0.162   3.853   4.020
 2962SOL     OW 9217   1.183   5.059   3.843
 2962SOL    HW1 9218   1.084   5.048   3.845
 2962SOL    HW2 9219   1.217   5.074   3.936
 2963SOL     OW 9220   0.613   4.566   5.155
 2963SOL    HW1 9221   0.669   4.647   5.138
 2963SOL    HW2 9222   0.672   4.486   5.158
 2964SOL     OW 9223   0.716   4.289   5.432
 2964SOL    HW1 9224   0.735   4.354   5.506
 2964SOL    HW2 9225   0.776   4.209   5.441
 2965SOL     OW 9226   1.450   4.944   5.357
 2965SOL    HW1 9227   1.441   4.934   5.456
 2965SOL    HW2 9228   1.546   4.937   5.331
 2966SOL     OW 9229   1.674   4.607   4.978
 2966SOL    HW1 9230   1.647   4.518   4.941
 2966SOL    HW2 9231   1.675   4.675   4.905
 2967SOL     OW 9232   1.225   4.049   4.173
 2967SOL    HW1 9233   1.290   3.975   4.162
 2967SOL    HW2 9234   1.245   4.099   4.257
 2968SOL     OW 9235   0.594   4.469   4.376
 2968SOL    HW1 9236   0.644   4.554   4.357
 2968SOL    HW2 9237   0.506   4.471   4.328
 2969SOL     OW 9238   1.777   4.066   5.366
 2969SOL    HW1 9239   1.760   4.097   5.272
 2969SOL    HW2 9240   1.693   4.029   5.404
 2970SOL     OW 9241   1.730   4.658   5.241
 2970SOL    HW1 9242   1.768   4.749   5.256
 2970SOL    HW2 9243   1.722   4.641   5.142
 2971SOL     OW 9244   0.859   5.098   3.740
 2971SOL    HW1 9245   0.813   5.113   3.828
 2971SOL    HW2 9246   0.903   5.183   3.710
 2972SOL     OW 9247   0.859   4.680   4.585
 2972SOL    HW1 9248   0.913   4.611   4.633
 2972SOL    HW2 9249   0.827   4.749   4.651
 2973SOL     OW 9250   1.083   4.708   3.811
 2973SOL    HW1 9251   1.060   4.761   3.729
 2973SOL    HW2 9252   1.164   4.652   3.792
 2974SOL     OW 9253   0.221   5.038   5.568
 2974SOL    HW1 9254   0.156   4.965   5.547
 2974SOL    HW2 9255   0.225   5.052   5.666
 2975SOL     OW 9256   0.079   4.964   4.377
 2975SOL    HW1 9257   0.078   4.917   4.465
 2975SOL    HW2 9258   0.161   4.936   4.326
 2976SOL     OW 9259   0.672   5.115   5.348
 2976SOL    HW1 9260   0.594   5.065   5.386
 2976SOL    HW2 9261   0.669   5.210   5.379
 2977SOL     OW 9262   1.824   3.916   4.951
 2977SOL    HW1 9263   1.820   3.826   4.995
 2977SOL    HW2 9264   1.827   3.905   4.852
 2978SOL     OW 9265   0.428   4.148   4.244
 2978SOL    HW1 9266   0.458   4.076   4.182
 2978SOL    HW2 9267   0.389   4.108   4.327
 2979SOL     OW 9268   1.705   5.211   4.828
 2979SOL    HW1 9269   1.612   5.186   4.801
 2979SOL    HW2 9270   1.731   5.161   4.910
 2980SOL     OW 9271   0.317   4.271   5.004
 2980SOL    HW1 9272   0.355   4.212   5.076
 2980SOL    HW2 9273   0.357   4.245   4.916
 2981SOL     OW 9274   1.424   3.938   4.836
 2981SOL    HW1 9275   1.476   3.873   4.891
 2981SOL    HW2 9276   1.375   4.001   4.897
 2982SOL     OW 9277   1.001   3.758   4.878
 2982SOL    HW1 9278   0.938   3.686   4.847
 2982SOL    HW2 9279   1.094   3.722   4.878
 2983SOL     OW 9280   0.770   5.054   4.025
 2983SOL    HW1 9281   0.724   4.967   4.042
 2983SOL    HW2 9282   0.861   5.051   4.066
 2984SOL     OW 9283   0.618   5.291   5.008
 2984SOL    HW1 9284   0.613   5.373   5.065
 2984SOL    HW2 9285   0.707   5.288   4.963
 2985SOL     OW 9286   1.352   3.776   3.892
 2985SOL    HW1 9287   1.387   3.735   3.808
 2985SOL    HW2 9288   1.262   3.738   3.912
 2986SOL     OW 9289   1.300   4.177   4.415
 2986SOL    HW1 9290   1.241   4.257   4.419
 2986SOL    HW2 9291   1.315   4.142   4.508
 2987SOL     OW 9292   1.593   3.945   4.606
 2987SOL    HW1 9293   1.509   3.944   4.660
 2987SOL    HW2 9294   1.595   4.028   4.550
 2988SOL     OW 9295   0.039   4.801   4.024
 2988SOL    HW1 9296   0.138   4.790   4.015
 2988SOL    HW2 9297  -0.001   4.715   4.056
 2989SOL     OW 9298   0.230   4.352   5.699
 2989SOL    HW1 9299   0.137   4.350   5.736
 2989SOL    HW2 9300   0.231   4.313   5.607
 2990SOL     OW 9301   0.225   3.999   6.582
 2990SOL    HW1 9302   0.260   3.982   6.674
 2990SOL    HW2 9303   0.137   3.954   6.570
 2991SOL     OW 9304   0.019   4.092   6.233
 2991SOL    HW1 9305  -0.063   4.135   6.272
 2991SOL    HW2 9306  -0.009   4.019   6.170
 2992SOL     OW 9307   0.569   4.999   6.751
 2992SOL    HW1 9308   0.476   4.992   6.714
 2992SOL    HW2 9309   0.580   5.088   6.795
 2993SOL     OW 9310   1.555   5.235   6.289
 2993SOL    HW1 9311   1.498   5.219   6.370
 2993SOL    HW2 9312   1.496   5.245   6.209
 2994SOL     OW 9313   1.135   4.427   6.303
 2994SOL    HW1 9314   1.192   4.505   6.278
 2994SOL    HW2 9315   1.075   4.453   6.379
 2995SOL     OW 9316   1.755   4.331   5.817
 2995SOL    HW1 9317   1.743   4.318   5.718
 2995SOL    HW2 9318   1.725   4.250   5.866
 2996SOL     OW 9319   0.768   4.868   6.609
 2996SOL    HW1 9320   0.690   4.885   6.669
 2996SOL    HW2 9321   0.802   4.955   6.573
 2997SOL     OW 9322   0.850   4.522   7.409
 2997SOL    HW1 9323   0.846   4.598   7.474
 2997SOL    HW2 9324   0.872   4.558   7.318
 2998SOL     OW 9325   0.685   4.736   6.251
 2998SOL    HW1 9326   0.754   4.720   6.321
 2998SOL    HW2 9327   0.612   4.793   6.289
 2999SOL     OW 9328   0.686   4.885   7.389
 2999SOL    HW1 9329   0.746   4.964   7.403
 2999SOL    HW2 9330   0.600   4.916   7.348
 3000SOL     OW 9331   0.335   5.159   6.647
 3000SOL    HW1 9332   0.257   5.128   6.594
 3000SOL    HW2 9333   0.393   5.217   6.590
 3001SOL     OW 9334   1.460   5.229   6.925
 3001SOL    HW1 9335   1.484   5.323   6.951
 3001SOL    HW2 9336   1.444   5.175   7.007
 3002SOL     OW 9337   0.438   4.116   7.085
 3002SOL    HW1 9338   0.520   4.060   7.094
 3002SOL    HW2 9339   0.357   4.058   7.089
 3003SOL     OW 9340   1.603   4.171   6.323
 3003SOL    HW1 9341   1.529   4.217   6.273
 3003SOL    HW2 9342   1.654   4.239   6.376
 3004SOL     OW 9343   1.127   5.065   7.276
 3004SOL    HW1 9344   1.174   5.065   7.364
 3004SOL    HW2 9345   1.079   4.978   7.265
 3005SOL     OW 9346   0.230   5.158   6.124
 3005SOL    HW1 9347   0.204   5.254   6.124
 3005SOL    HW2 9348   0.159   5.104   6.169
 3006SOL     OW 9349   0.240   4.815   6.472
 3006SOL    HW1 9350   0.254   4.731   6.524
 3006SOL    HW2 9351   0.185   4.879   6.527
 3007SOL     OW 9352   0.606   4.688   5.709
 3007SOL    HW1 9353   0.613   4.772   5.655
 3007SOL    HW2 9354   0.652   4.701   5.797
 3008SOL     OW 9355   1.594   3.838   7.066
 3008SOL    HW1 9356   1.576   3.905   6.994
 3008SOL    HW2 9357   1.591   3.884   7.155
 3009SOL     OW 9358   0.122   4.367   6.149
 3009SOL    HW1 9359   0.077   4.279   6.166
 3009SOL    HW2 9360   0.121   4.421   6.233
 3010SOL     OW 9361   0.027   5.320   5.703
 3010SOL    HW1 9362   0.008   5.224   5.724
 3010SOL    HW2 9363  -0.006   5.378   5.778
 3011SOL     OW 9364   1.689   4.646   6.198
 3011SOL    HW1 9365   1.784   4.617   6.206
 3011SOL    HW2 9366   1.681   4.711   6.123
 3012SOL     OW 9367   1.641   4.832   6.018
 3012SOL    HW1 9368   1.727   4.834   5.966
 3012SOL    HW2 9369   1.655   4.879   6.106
 3013SOL     OW 9370   0.113   4.461   7.183
 3013SOL    HW1 9371   0.201   4.448   7.228
 3013SOL    HW2 9372   0.100   4.558   7.161
 3014SOL     OW 9373   0.613   5.089   6.312
 3014SOL    HW1 9374   0.564   5.002   6.321
 3014SOL    HW2 9375   0.590   5.132   6.225
 3015SOL     OW 9376   1.293   4.952   7.009
 3015SOL    HW1 9377   1.330   4.879   6.951
 3015SOL    HW2 9378   1.345   4.957   7.094
 3016SOL     OW 9379   0.809   3.728   6.088
 3016SOL    HW1 9380   0.849   3.819   6.079
 3016SOL    HW2 9381   0.709   3.736   6.094
 3017SOL     OW 9382   0.197   4.700   6.850
 3017SOL    HW1 9383   0.286   4.655   6.836
 3017SOL    HW2 9384   0.124   4.635   6.831
 3018SOL     OW 9385   1.525   4.723   5.776
 3018SOL    HW1 9386   1.462   4.647   5.789
 3018SOL    HW2 9387   1.573   4.741   5.862
 3019SOL     OW 9388   0.317   3.975   7.387
 3019SOL    HW1 9389   0.388   4.046   7.393
 3019SOL    HW2 9390   0.229   4.014   7.415
 3020SOL     OW 9391   1.466   5.141   6.539
 3020SOL    HW1 9392   1.407   5.147   6.619
 3020SOL    HW2 9393   1.451   5.053   6.493
 3021SOL     OW 9394   0.598   4.453   5.856
 3021SOL    HW1 9395   0.622   4.522   5.788
 3021SOL    HW2 9396   0.520   4.486   5.910
 3022SOL     OW 9397   1.281   4.069   6.530
 3022SOL    HW1 9398   1.195   4.019   6.517
 3022SOL    HW2 9399   1.343   4.015   6.586
 3023SOL     OW 9400   0.807   4.329   7.051
 3023SOL    HW1 9401   0.760   4.326   7.140
 3023SOL    HW2 9402   0.756   4.274   6.985
 3024SOL     OW 9403   1.394   4.193   7.260
 3024SOL    HW1 9404   1.374   4.236   7.348
 3024SOL    HW2 9405   1.472   4.131   7.269
 3025SOL     OW 9406   0.973   4.614   7.158
 3025SOL    HW1 9407   1.019   4.530   7.129
 3025SOL    HW2 9408   0.917   4.648   7.083
 3026SOL     OW 9409   0.991   4.134   6.828
 3026SOL    HW1 9410   0.914   4.168   6.882
 3026SOL    HW2 9411   0.957   4.083   6.749
 3027SOL     OW 9412   1.041   4.425   6.015
 3027SOL    HW1 9413   1.067   4.421   6.111
 3027SOL    HW2 9414   0.956   4.374   6.001
 3028SOL     OW 9415   0.076   4.535   6.375
 3028SOL    HW1 9416   0.175   4.523   6.384
 3028SOL    HW2 9417   0.052   4.630   6.396
 3029SOL     OW 9418   0.865   4.072   5.781
 3029SOL    HW1 9419   0.924   4.135   5.732
 3029SOL    HW2 9420   0.884   3.978   5.752
 3030SOL     OW 9421   1.719   4.309   7.417
 3030SOL    HW1 9422   1.693   4.398   7.381
 3030SOL    HW2 9423   1.717   4.241   7.344
 3031SOL     OW 9424   1.362   4.868   6.131
 3031SOL    HW1 9425   1.445   4.839   6.083
 3031SOL    HW2 9426   1.313   4.935   6.075
 3032SOL     OW 9427   0.550   3.920   6.471
 3032SOL    HW1 9428   0.545   3.915   6.571
 3032SOL    HW2 9429   0.552   4.016   6.442
 3033SOL     OW 9430   1.008   5.180   6.063
 3033SOL    HW1 9431   0.962   5.252   6.011
 3033SOL    HW2 9432   1.004   5.200   6.161
 3034SOL     OW 9433   1.795   4.790   6.459
 3034SOL    HW1 9434   1.733   4.775   6.383
 3034SOL    HW2 9435   1.743   4.801   6.544
 3035SOL     OW 9436   1.227   5.274   7.092
 3035SOL    HW1 9437   1.233   5.197   7.156
 3035SOL    HW2 9438   1.175   5.248   7.012
 3036SOL     OW 9439   0.321   4.667   5.828
 3036SOL    HW1 9440   0.403   4.706   5.786
 3036SOL    HW2 9441   0.294   4.585   5.779
 3037SOL     OW 9442   1.458   4.459   6.314
 3037SOL    HW1 9443   1.453   4.394   6.389
 3037SOL    HW2 9444   1.538   4.518   6.327
 3038SOL     OW 9445   0.461   4.990   7.313
 3038SOL    HW1 9446   0.411   4.991   7.227
 3038SOL    HW2 9447   0.398   4.972   7.389
 3039SOL     OW 9448   1.111   5.500   5.823
 3039SOL    HW1 9449   1.051   5.438   5.873
 3039SOL    HW2 9450   1.142   5.456   5.738
 3040SOL     OW 9451   0.202   4.009   7.084
 3040SOL    HW1 9452   0.122   4.069   7.071
 3040SOL    HW2 9453   0.192   3.960   7.170
 3041SOL     OW 9454   1.632   5.101   5.667
 3041SOL    HW1 9455   1.600   5.195   5.657
 3041SOL    HW2 9456   1.556   5.038   5.655
 3042SOL     OW 9457   1.400   3.831   6.012
 3042SOL    HW1 9458   1.376   3.794   5.922
 3042SOL    HW2 9459   1.499   3.847   6.016
 3043SOL     OW 9460   0.382   4.424   6.066
 3043SOL    HW1 9461   0.427   4.334   6.063
 3043SOL    HW2 9462   0.288   4.413   6.099
 3044SOL     OW 9463   1.547   3.946   7.315
 3044SOL    HW1 9464   1.542   3.983   7.407
 3044SOL    HW2 9465   1.475   3.877   7.303
 3045SOL     OW 9466   0.614   3.846   5.703
 3045SOL    HW1 9467   0.712   3.824   5.710
 3045SOL    HW2 9468   0.583   3.829   5.610
 3046SOL     OW 9469   0.781   3.988   7.335
 3046SOL    HW1 9470   0.848   3.927   7.378
 3046SOL    HW2 9471   0.708   4.007   7.400
 3047SOL     OW 9472   1.351   4.314   7.019
 3047SOL    HW1 9473   1.379   4.271   7.104
 3047SOL    HW2 9474   1.376   4.410   7.020
 3048SOL     OW 9475   0.803   5.126   6.510
 3048SOL    HW1 9476   0.893   5.140   6.468
 3048SOL    HW2 9477   0.732   5.128   6.439
 3049SOL     OW 9478   0.922   4.227   6.485
 3049SOL    HW1 9479   0.897   4.218   6.389
 3049SOL    HW2 9480   0.970   4.145   6.516
 3050SOL     OW 9481   0.539   3.788   6.098
 3050SOL    HW1 9482   0.458   3.789   6.156
 3050SOL    HW2 9483   0.542   3.871   6.043
 3051SOL     OW 9484   1.434   4.912   5.627
 3051SOL    HW1 9485   1.466   4.836   5.684
 3051SOL    HW2 9486   1.342   4.939   5.657
 3052SOL     OW 9487   0.297   3.759   5.757
 3052SOL    HW1 9488   0.346   3.843   5.736
 3052SOL    HW2 9489   0.359   3.694   5.802
 3053SOL     OW 9490   0.935   3.960   6.066
 3053SOL    HW1 9491   0.887   4.001   5.988
 3053SOL    HW2 9492   1.034   3.958   6.047
 3054SOL     OW 9493   1.076   4.407   7.050
 3054SOL    HW1 9494   0.996   4.346   7.053
 3054SOL    HW2 9495   1.157   4.354   7.026
 3055SOL     OW 9496   1.227   5.294   6.379
 3055SOL    HW1 9497   1.248   5.368   6.314
 3055SOL    HW2 9498   1.295   5.294   6.452
 3056SOL     OW 9499   0.459   4.876   6.327
 3056SOL    HW1 9500   0.388   4.849   6.392
 3056SOL    HW2 9501   0.433   4.848   6.234
 3057SOL     OW 9502   1.032   4.273   5.602
 3057SOL    HW1 9503   0.991   4.355   5.563
 3057SOL    HW2 9504   1.096   4.299   5.675
 3058SOL     OW 9505   0.078   4.280   6.972
 3058SOL    HW1 9506   0.170   4.279   6.931
 3058SOL    HW2 9507   0.072   4.354   7.039
 3059SOL     OW 9508   0.561   3.946   6.733
 3059SOL    HW1 9509   0.599   3.862   6.770
 3059SOL    HW2 9510   0.473   3.965   6.777
 3060SOL     OW 9511   0.866   4.178   6.228
 3060SOL    HW1 9512   0.834   4.250   6.166
 3060SOL    HW2 9513   0.890   4.097   6.175
 3061SOL     OW 9514   1.017   3.763   6.339
 3061SOL    HW1 9515   0.945   3.768   6.270
 3061SOL    HW2 9516   0.993   3.694   6.408
 3062SOL     OW 9517   1.429   4.897   6.453
 3062SOL    HW1 9518   1.374   4.813   6.446
 3062SOL    HW2 9519   1.455   4.926   6.361
 3063SOL     OW 9520   1.466   4.314   6.578
 3063SOL    HW1 9521   1.436   4.219   6.585
 3063SOL    HW2 9522   1.539   4.330   6.644
 3064SOL     OW 9523   1.857   4.557   5.963
 3064SOL    HW1 9524   1.899   4.493   6.027
 3064SOL    HW2 9525   1.819   4.506   5.885
 3065SOL     OW 9526   0.488   5.109   5.760
 3065SOL    HW1 9527   0.401   5.094   5.807
 3065SOL    HW2 9528   0.471   5.135   5.665
 3066SOL     OW 9529   1.664   5.004   6.243
 3066SOL    HW1 9530   1.763   5.012   6.257
 3066SOL    HW2 9531   1.619   5.088   6.274
 3067SOL     OW 9532   1.390   4.299   5.664
 3067SOL    HW1 9533   1.336   4.278   5.745
 3067SOL    HW2 9534   1.481   4.258   5.673
 3068SOL     OW 9535   0.527   3.980   5.914
 3068SOL    HW1 9536   0.554   3.921   5.839
 3068SOL    HW2 9537   0.527   4.075   5.883
 3069SOL     OW 9538   1.754   4.947   7.174
 3069SOL    HW1 9539   1.845   4.908   7.161
 3069SOL    HW2 9540   1.762   5.043   7.198
 3070SOL     OW 9541   1.064   5.071   6.926
 3070SOL    HW1 9542   0.984   5.048   6.981
 3070SOL    HW2 9543   1.147   5.045   6.975
 3071SOL     OW 9544   1.111   4.919   6.686
 3071SOL    HW1 9545   1.071   4.963   6.767
 3071SOL    HW2 9546   1.070   4.956   6.603
 3072SOL     OW 9547   1.638   4.823   6.665
 3072SOL    HW1 9548   1.643   4.904   6.724
 3072SOL    HW2 9549   1.552   4.825   6.614
 3073SOL     OW 9550   0.915   3.813   6.988
 3073SOL    HW1 9551   0.940   3.793   6.893
 3073SOL    HW2 9552   0.987   3.869   7.030
 3074SOL     OW 9553   0.980   4.840   7.305
 3074SOL    HW1 9554   0.881   4.846   7.315
 3074SOL    HW2 9555   1.003   4.760   7.249
 3075SOL     OW 9556   0.705   4.774   5.954
 3075SOL    HW1 9557   0.691   4.781   6.053
 3075SOL    HW2 9558   0.789   4.723   5.936
 3076SOL     OW 9559   0.410   4.537   6.837
 3076SOL    HW1 9560   0.496   4.549   6.887
 3076SOL    HW2 9561   0.368   4.450   6.864
 3077SOL     OW 9562   1.274   4.110   6.848
 3077SOL    HW1 9563   1.295   4.184   6.912
 3077SOL    HW2 9564   1.185   4.127   6.805
 3078SOL     OW 9565   0.064   5.288   6.917
 3078SOL    HW1 9566   0.018   5.370   6.883
 3078SOL    HW2 9567   0.162   5.307   6.926
 3079SOL     OW 9568   0.367   4.824   6.087
 3079SOL    HW1 9569   0.360   4.907   6.031
 3079SOL    HW2 9570   0.371   4.744   6.027
 3080SOL     OW 9571   0.566   4.261   6.451
 3080SOL    HW1 9572   0.578   4.327   6.377
 3080SOL    HW2 9573   0.612   4.295   6.534
 3081SOL     OW 9574   1.252   5.072   5.974
 3081SOL    HW1 9575   1.302   5.149   6.014
 3081SOL    HW2 9576   1.157   5.074   6.006
 3082SOL     OW 9577   1.272   5.169   6.728
 3082SOL    HW1 9578   1.319   5.182   6.815
 3082SOL    HW2 9579   1.206   5.095   6.737
 3083SOL     OW 9580   1.582   4.363   6.058
 3083SOL    HW1 9581   1.551   4.424   6.131
 3083SOL    HW2 9582   1.632   4.415   5.989
 3084SOL     OW 9583   0.354   5.234   6.915
 3084SOL    HW1 9584   0.333   5.190   6.828
 3084SOL    HW2 9585   0.451   5.260   6.918
 3085SOL     OW 9586   0.402   4.475   7.184
 3085SOL    HW1 9587   0.470   4.530   7.137
 3085SOL    HW2 9588   0.442   4.387   7.211
 3086SOL     OW 9589   1.587   4.503   7.256
 3086SOL    HW1 9590   1.495   4.541   7.251
 3086SOL    HW2 9591   1.647   4.550   7.191
 3087SOL     OW 9592   1.013   3.829   7.356
 3087SOL    HW1 9593   1.019   3.914   7.304
 3087SOL    HW2 9594   1.045   3.753   7.299
 3088SOL     OW 9595   0.504   3.774   7.326
 3088SOL    HW1 9596   0.462   3.717   7.256
 3088SOL    HW2 9597   0.438   3.843   7.358
 3089SOL     OW 9598   0.573   4.594   6.615
 3089SOL    HW1 9599   0.617   4.683   6.606
 3089SOL    HW2 9600   0.510   4.594   6.692
 3090SOL     OW 9601   1.360   4.586   6.631
 3090SOL    HW1 9602   1.285   4.586   6.565
 3090SOL    HW2 9603   1.397   4.494   6.640
 3091SOL     OW 9604   1.209   4.249   5.861
 3091SOL    HW1 9605   1.222   4.165   5.915
 3091SOL    HW2 9606   1.180   4.323   5.921
 3092SOL     OW 9607   0.307   3.937   6.817
 3092SOL    HW1 9608   0.284   3.974   6.907
 3092SOL    HW2 9609   0.277   3.842   6.811
 3093SOL     OW 9610   0.037   5.034   6.868
 3093SOL    HW1 9611   0.090   4.985   6.936
 3093SOL    HW2 9612   0.059   5.132   6.873
 3094SOL     OW 9613   0.732   4.358   6.650
 3094SOL    HW1 9614   0.791   4.332   6.574
 3094SOL    HW2 9615   0.704   4.454   6.639
 3095SOL     OW 9616   1.728   4.659   7.440
 3095SOL    HW1 9617   1.682   4.652   7.351
 3095SOL    HW2 9618   1.666   4.703   7.506
 3096SOL     OW 9619   0.307   3.787   6.204
 3096SOL    HW1 9620   0.296   3.881   6.237
 3096SOL    HW2 9621   0.302   3.724   6.281
 3097SOL     OW 9622   1.622   4.091   5.960
 3097SOL    HW1 9623   1.624   4.015   6.024
 3097SOL    HW2 9624   1.574   4.168   6.000
 3098SOL     OW 9625   1.023   4.490   6.552
 3098SOL    HW1 9626   1.038   4.511   6.648
 3098SOL    HW2 9627   0.993   4.395   6.543
 3099SOL     OW 9628   1.859   5.242   7.191
 3099SOL    HW1 9629   1.873   5.269   7.096
 3099SOL    HW2 9630   1.942   5.264   7.244
 3100SOL     OW 9631   0.350   4.622   7.390
 3100SOL    HW1 9632   0.426   4.666   7.438
 3100SOL    HW2 9633   0.385   4.575   7.308
 3101SOL     OW 9634   1.540   3.998   5.711
 3101SOL    HW1 9635   1.479   3.923   5.734
 3101SOL    HW2 9636   1.562   4.050   5.794
 3102SOL     OW 9637   1.303   4.562   5.628
 3102SOL    HW1 9638   1.337   4.469   5.643
 3102SOL    HW2 9639   1.321   4.589   5.533
 3103SOL     OW 9640   1.068   5.057   6.435
 3103SOL    HW1 9641   1.075   4.973   6.380
 3103SOL    HW2 9642   1.130   5.126   6.399
 3104SOL     OW 9643   0.319   4.534   6.535
 3104SOL    HW1 9644   0.412   4.570   6.540
 3104SOL    HW2 9645   0.313   4.449   6.587
 3105SOL     OW 9646   0.339   4.233   6.592
 3105SOL    HW1 9647   0.287   4.150   6.575
 3105SOL    HW2 9648   0.416   4.238   6.528
 3106SOL     OW 9649   1.138   4.104   7.264
 3106SOL    HW1 9650   1.093   4.167   7.328
 3106SOL    HW2 9651   1.231   4.135   7.247
 3107SOL     OW 9652   1.160   3.931   7.063
 3107SOL    HW1 9653   1.160   3.995   7.140
 3107SOL    HW2 9654   1.188   3.979   6.980
 3108SOL     OW 9655   0.008   5.050   5.786
 3108SOL    HW1 9656  -0.085   5.071   5.755
 3108SOL    HW2 9657   0.018   4.951   5.799
 3109SOL     OW 9658   1.002   4.520   6.824
 3109SOL    HW1 9659   1.043   4.488   6.910
 3109SOL    HW2 9660   0.906   4.493   6.821
 3110SOL     OW 9661   0.040   4.268   6.700
 3110SOL    HW1 9662   0.125   4.235   6.659
 3110SOL    HW2 9663   0.053   4.283   6.798
 3111SOL     OW 9664   0.189   4.244   7.308
 3111SOL    HW1 9665   0.248   4.204   7.238
 3111SOL    HW2 9666   0.131   4.315   7.267
 3112SOL     OW 9667   1.369   4.674   7.246
 3112SOL    HW1 9668   1.408   4.763   7.266
 3112SOL    HW2 9669   1.379   4.654   7.149
 3113SOL     OW 9670   0.815   4.296   5.911
 3113SOL    HW1 9671   0.822   4.207   5.865
 3113SOL    HW2 9672   0.721   4.330   5.903
 3114SOL     OW 9673   1.657   4.328   6.792
 3114SOL    HW1 9674   1.619   4.259   6.854
 3114SOL    HW2 9675   1.739   4.292   6.748
 3115SOL     OW 9676   0.252   5.288   7.330
 3115SOL    HW1 9677   0.222   5.345   7.406
 3115SOL    HW2 9678   0.245   5.191   7.356
 3116SOL     OW 9679   0.671   4.188   6.855
 3116SOL    HW1 9680   0.637   4.099   6.825
 3116SOL    HW2 9681   0.697   4.242   6.775
 3117SOL     OW 9682   0.473   4.224   5.777
 3117SOL    HW1 9683   0.534   4.304   5.781
 3117SOL    HW2 9684   0.378   4.255   5.784
 3118SOL     OW 9685   0.159   4.861   7.052
 3118SOL    HW1 9686   0.181   4.800   7.128
 3118SOL    HW2 9687   0.169   4.812   6.966
 3119SOL     OW 9688   1.347   4.783   6.820
 3119SOL    HW1 9689   1.371   4.720   6.746
 3119SOL    HW2 9690   1.257   4.823   6.802
 3120SOL     OW 9691   1.302   4.579   5.895
 3120SOL    HW1 9692   1.216   4.548   5.937
 3120SOL    HW2 9693   1.298   4.565   5.796
 3121SOL     OW 9694   0.083   4.982   6.608
 3121SOL    HW1 9695   0.078   4.981   6.708
 3121SOL    HW2 9696   0.000   4.941   6.570
 3122SOL     OW 9697   0.688   5.386   7.302
 3122SOL    HW1 9698   0.632   5.467   7.311
 3122SOL    HW2 9699   0.740   5.390   7.216
 3123SOL     OW 9700   1.726   3.859   6.109
 3123SOL    HW1 9701   1.799   3.842   6.042
 3123SOL    HW2 9702   1.695   3.772   6.147
 3124SOL     OW 9703   1.280   4.651   6.258
 3124SOL    HW1 9704   1.340   4.570   6.260
 3124SOL    HW2 9705   1.320   4.720   6.198
 3125SOL     OW 9706   0.830   4.997   7.008
 3125SOL    HW1 9707   0.825   5.030   7.103
 3125SOL    HW2 9708   0.744   5.016   6.962
 3126SOL     OW 9709   1.841   3.899   6.549
 3126SOL    HW1 9710   1.880   3.814   6.513
 3126SOL    HW2 9711   1.743   3.901   6.530
 3127SOL     OW 9712   0.263   4.050   6.306
 3127SOL    HW1 9713   0.184   4.101   6.272
 3127SOL    HW2 9714   0.254   4.035   6.404
 3128SOL     OW 9715   0.822   4.726   6.958
 3128SOL    HW1 9716   0.862   4.725   6.866
 3128SOL    HW2 9717   0.832   4.818   6.998
 3129SOL     OW 9718   0.916   4.634   5.877
 3129SOL    HW1 9719   0.979   4.672   5.809
 3129SOL    HW2 9720   0.956   4.551   5.916
 3130SOL     OW 9721   0.372   5.012   7.076
 3130SOL    HW1 9722   0.359   5.105   7.042
 3130SOL    HW2 9723   0.288   4.960   7.063
 3131SOL     OW 9724   1.614   5.016   6.875
 3131SOL    HW1 9725   1.674   5.019   6.955
 3131SOL    HW2 9726   1.539   5.080   6.888
 3132SOL     OW 9727   1.039   4.822   6.282
 3132SOL    HW1 9728   0.969   4.775   6.336
 3132SOL    HW2 9729   1.098   4.754   6.239
 3133SOL     OW 9730   1.014   3.960   6.557
 3133SOL    HW1 9731   1.006   3.924   6.464
 3133SOL    HW2 9732   1.012   3.884   6.622
 3134SOL     OW 9733   1.709   4.109   6.967
 3134SOL    HW1 9734   1.782   4.178   6.971
 3134SOL    HW2 9735   1.737   4.034   6.908
 3135SOL     OW 9736   0.255   5.072   5.876
 3135SOL    HW1 9737   0.159   5.073   5.849
 3135SOL    HW2 9738   0.267   5.125   5.960
 3136SOL     OW 9739   0.105   4.737   7.312
 3136SOL    HW1 9740   0.028   4.704   7.366
 3136SOL    HW2 9741   0.190   4.707   7.354
 3137SOL     OW 9742   0.672   3.927   7.075
 3137SOL    HW1 9743   0.762   3.911   7.035
 3137SOL    HW2 9744   0.680   3.932   7.174
 3138SOL     OW 9745   0.075   4.069   5.619
 3138SOL    HW1 9746  -0.017   4.041   5.590
 3138SOL    HW2 9747   0.106   4.146   5.563
 3139SOL     OW 9748   1.440   4.580   6.984
 3139SOL    HW1 9749   1.383   4.632   6.921
 3139SOL    HW2 9750   1.536   4.592   6.960
 3140SOL     OW 9751   0.072   3.890   5.904
 3140SOL    HW1 9752   0.055   3.973   5.850
 3140SOL    HW2 9753   0.162   3.853   5.882
 3141SOL     OW 9754   1.183   5.059   5.705
 3141SOL    HW1 9755   1.084   5.048   5.707
 3141SOL    HW2 9756   1.217   5.074   5.798
 3142SOL     OW 9757   0.613   4.566   7.017
 3142SOL    HW1 9758   0.669   4.647   7.000
 3142SOL    HW2 9759   0.672   4.486   7.020
 3143SOL     OW 9760   0.716   4.289   7.294
 3143SOL    HW1 9761   0.735   4.354   7.368
 3143SOL    HW2 9762   0.776   4.209   7.303
 3144SOL     OW 9763   1.450   4.944   7.219
 3144SOL    HW1 9764   1.441   4.934   7.318
 3144SOL    HW2 9765   1.546   4.937   7.193
 3145SOL     OW 9766   1.674   4.607   6.840
 3145SOL    HW1 9767   1.647   4.518   6.803
 3145SOL    HW2 9768   1.675   4.675   6.767
 3146SOL     OW 9769   1.225   4.049   6.035
 3146SOL    HW1 9770   1.290   3.975   6.024
 3146SOL    HW2 9771   1.245   4.099   6.119
 3147SOL     OW 9772   0.594   4.469   6.238
 3147SOL    HW1 9773   0.644   4.554   6.219
 3147SOL    HW2 9774   0.506   4.471   6.190
 3148SOL     OW 9775   1.777   4.066   7.228
 3148SOL    HW1 9776   1.760   4.097   7.134
 3148SOL    HW2 9777   1.693   4.029   7.266
 3149SOL     OW 9778   1.730   4.658   7.103
 3149SOL    HW1 9779   1.768   4.749   7.118
 3149SOL    HW2 9780   1.722   4.641   7.004
 3150SOL     OW 9781   0.859   5.098   5.602
 3150SOL    HW1 9782   0.813   5.113   5.690
 3150SOL    HW2 9783   0.903   5.183   5.572
 3151SOL     OW 9784   0.859   4.680   6.447
 3151SOL    HW1 9785   0.913   4.611   6.495
 3151SOL    HW2 9786   0.827   4.749   6.513
 3152SOL     OW 9787   1.083   4.708   5.673
 3152SOL    HW1 9788   1.060   4.761   5.591
 3152SOL    HW2 9789   1.164   4.652   5.654
 3153SOL     OW 9790   0.221   5.038   7.430
 3153SOL    HW1 9791   0.156   4.965   7.409
 3153SOL    HW2 9792   0.225   5.052   7.528
 3154SOL     OW 9793   0.079   4.964   6.239
 3154SOL    HW1 9794   0.078   4.917   6.327
 3154SOL    HW2 9795   0.161   4.936   6.188
 3155SOL     OW 9796   0.672   5.115   7.210
 3155SOL    HW1 9797   0.594   5.065   7.248
 3155SOL    HW2 9798   0.669   5.210   7.241
 3156SOL     OW 9799   1.824   3.916   6.813
 3156SOL    HW1 9800   1.820   3.826   6.857
 3156SOL    HW2 9801   1.827   3.905   6.714
 3157SOL     OW 9802   0.428   4.148   6.106
 3157SOL    HW1 9803   0.458   4.076   6.044
 3157SOL    HW2 9804   0.389   4.108   6.189
 3158SOL     OW 9805   1.705   5.211   6.690
 3158SOL    HW1 9806   1.612   5.186   6.663
 3158SOL    HW2 9807   1.731   5.161   6.772
 3159SOL     OW 9808   0.317   4.271   6.866
 3159SOL    HW1 9809   0.355   4.212   6.938
 3159SOL    HW2 9810   0.357   4.245   6.778
 3160SOL     OW 9811   1.424   3.938   6.698
 3160SOL    HW1 9812   1.476   3.873   6.753
 3160SOL    HW2 9813   1.375   4.001   6.759
 3161SOL     OW 9814   1.001   3.758   6.740
 3161SOL    HW1 9815   0.938   3.686   6.709
 3161SOL    HW2 9816   1.094   3.722   6.740
 3162SOL     OW 9817   0.770   5.054   5.887
 3162SOL    HW1 9818   0.724   4.967   5.904
 3162SOL    HW2 9819   0.861   5.051   5.928
 3163SOL     OW 9820   0.618   5.291   6.870
 3163SOL    HW1 9821   0.613   5.373   6.927
 3163SOL    HW2 9822   0.707   5.288   6.825
 3164SOL     OW 9823   1.352   3.776   5.754
 3164SOL    HW1 9824   1.387   3.735   5.670
 3164SOL    HW2 9825   1.262   3.738   5.774
 3165SOL     OW 9826   1.300   4.177   6.277
 3165SOL    HW1 9827   1.241   4.257   6.281
 3165SOL    HW2 9828   1.315   4.142   6.370
 3166SOL     OW 9829   1.593   3.945   6.468
 3166SOL    HW1 9830   1.509   3.944   6.522
 3166SOL    HW2 9831   1.595   4.028   6.412
 3167SOL     OW 9832   0.039   4.801   5.886
 3167SOL    HW1 9833   0.138   4.790   5.877
 3167SOL    HW2 9834  -0.001   4.715   5.918
 3168SOL     OW 9835   0.230   4.352   7.561
 3168SOL    HW1 9836   0.137   4.350   7.598
 3168SOL    HW2 9837   0.231   4.313   7.469
 3169SOL     OW 9838   0.225   3.999   8.444
 3169SOL    HW1 9839   0.260   3.982   8.536
 3169SOL    HW2 9840   0.137   3.954   8.432
 3170SOL     OW 9841   0.019   4.092   8.095
 3170SOL    HW1 9842  -0.063   4.135   8.134
 3170SOL    HW2 9843  -0.009   4.019   8.032
 3171SOL     OW 9844   0.569   4.999   8.613
 3171SOL    HW1 9845   0.476   4.992   8.576
 3171SOL    HW2 9846   0.580   5.088   8.657
 3172SOL     OW 9847   1.555   5.235   8.151
 3172SOL    HW1 9848   1.498   5.219   8.232
 3172SOL    HW2 9849   1.496   5.245   8.071
 3173SOL     OW 9850   1.135   4.427   8.165
 3173SOL    HW1 9851   1.192   4.505   8.140
 3173SOL    HW2 9852   1.075   4.453   8.241
 3174SOL     OW 9853   1.755   4.331   7.679
 3174SOL    HW1 9854   1.743   4.318   7.580
 3174SOL    HW2 9855   1.725   4.250   7.728
 3175SOL     OW 9856   0.768   4.868   8.471
 3175SOL    HW1 9857   0.690   4.885   8.531
 3175SOL    HW2 9858   0.802   4.955   8.435
 3176SOL     OW 9859   0.850   4.522   9.271
 3176SOL    HW1 9860   0.846   4.598   9.336
 3176SOL    HW2 9861   0.872   4.558   9.180
 3177SOL     OW 9862   0.685   4.736   8.113
 3177SOL    HW1 9863   0.754   4.720   8.183
 3177SOL    HW2 9864   0.612   4.793   8.151
 3178SOL     OW 9865   0.686   4.885   9.251
 3178SOL    HW1 9866   0.746   4.964   9.265
 3178SOL    HW2 9867   0.600   4.916   9.210
 3179SOL     OW 9868   0.335   5.159   8.509
 3179SOL    HW1 9869   0.257   5.128   8.456
 3179SOL    HW2 9870   0.393   5.217   8.452
 3180SOL     OW 9871   1.460   5.229   8.787
 3180SOL    HW1 9872   1.484   5.323   8.813
 3180SOL    HW2 9873   1.444   5.175   8.869
 3181SOL     OW 9874   0.438   4.116   8.947
 3181SOL    HW1 9875   0.520   4.060   8.956
 3181SOL    HW2 9876   0.357   4.058   8.951
 3182SOL     OW 9877   1.603   4.171   8.185
 3182SOL    HW1 9878   1.529   4.217   8.135
 3182SOL    HW2 9879   1.654   4.239   8.238
 3183SOL     OW 9880   1.127   5.065   9.138
 3183SOL    HW1 9881   1.174   5.065   9.226
 3183SOL    HW2 9882   1.079   4.978   9.127
 3184SOL     OW 9883   0.230   5.158   7.986
 3184SOL    HW1 9884   0.204   5.254   7.986
 3184SOL    HW2 9885   0.159   5.104   8.031
 3185SOL     OW 9886   0.240   4.815   8.334
 3185SOL    HW1 9887   0.254   4.731   8.386
 3185SOL    HW2 9888   0.185   4.879   8.389
 3186SOL     OW 9889   0.606   4.688   7.571
 3186SOL    HW1 9890   0.613   4.772   7.517
 3186SOL    HW2 9891   0.652   4.701   7.659
 3187SOL     OW 9892   1.594   3.838   8.928
 3187SOL    HW1 9893   1.576   3.905   8.856
 3187SOL    HW2 9894   1.591   3.884   9.017
 3188SOL     OW 9895   0.122   4.367   8.011
 3188SOL    HW1 9896   0.077   4.279   8.028
 3188SOL    HW2 9897   0.121   4.421   8.095
 3189SOL     OW 9898   0.027   5.320   7.565
 3189SOL    HW1 9899   0.008   5.224   7.586
 3189SOL    HW2 9900  -0.006   5.378   7.640
 3190SOL     OW 9901   1.689   4.646   8.060
 3190SOL    HW1 9902   1.784   4.617   8.068
 3190SOL    HW2 9903   1.681   4.711   7.985
 3191SOL     OW 9904   1.641   4.832   7.880
 3191SOL    HW1 9905   1.727   4.834   7.828
 3191SOL    HW2 9906   1.655   4.879   7.968
 3192SOL     OW 9907   0.113   4.461   9.045
 3192SOL    HW1 9908   0.201   4.448   9.090
 3192SOL    HW2 9909   0.100   4.558   9.023
 3193SOL     OW 9910   0.613   5.089   8.174
 3193SOL    HW1 9911   0.564   5.002   8.183
 3193SOL    HW2 9912   0.590   5.132   8.087
 3194SOL     OW 9913   1.293   4.952   8.871
 3194SOL    HW1 9914   1.330   4.879   8.813
 3194SOL    HW2 9915   1.345   4.957   8.956
 3195SOL     OW 9916   0.809   3.728   7.950
 3195SOL    HW1 9917   0.849   3.819   7.941
 3195SOL    HW2 9918   0.709   3.736   7.956
 3196SOL     OW 9919   0.197   4.700   8.712
 3196SOL    HW1 9920   0.286   4.655   8.698
 3196SOL    HW2 9921   0.124   4.635   8.693
 3197SOL     OW 9922   1.525   4.723   7.638
 3197SOL    HW1 9923   1.462   4.647   7.651
 3197SOL    HW2 9924   1.573   4.741   7.724
 3198SOL     OW 9925   0.317   3.975   9.249
 3198SOL    HW1 9926   0.388   4.046   9.255
 3198SOL    HW2 9927   0.229   4.014   9.277
 3199SOL     OW 9928   1.466   5.141   8.401
 3199SOL    HW1 9929   1.407   5.147   8.481
 3199SOL    HW2 9930   1.451   5.053   8.355
 3200SOL     OW 9931   0.598   4.453   7.718
 3200SOL    HW1 9932   0.622   4.522   7.650
 3200SOL    HW2 9933   0.520   4.486   7.772
 3201SOL     OW 9934   1.281   4.069   8.392
 3201SOL    HW1 9935   1.195   4.019   8.379
 3201SOL    HW2 9936   1.343   4.015   8.448
 3202SOL     OW 9937   0.807   4.329   8.913
 3202SOL    HW1 9938   0.760   4.326   9.002
 3202SOL    HW2 9939   0.756   4.274   8.847
 3203SOL     OW 9940   1.394   4.193   9.122
 3203SOL    HW1 9941   1.374   4.236   9.210
 3203SOL    HW2 9942   1.472   4.131   9.131
 3204SOL     OW 9943   0.973   4.614   9.020
 3204SOL    HW1 9944   1.019   4.530   8.991
 3204SOL    HW2 9945   0.917   4.648   8.945
 3205SOL     OW 9946   0.991   4.134   8.690
 3205SOL    HW1 9947   0.914   4.168   8.744
 3205SOL    HW2 9948   0.957   4.083   8.611
 3206SOL     OW 9949   1.041   4.425   7.877
 3206SOL    HW1 9950   1.067   4.421   7.973
 3206SOL    HW2 9951   0.956   4.374   7.863
 3207SOL     OW 9952   0.076   4.535   8.237
 3207SOL    HW1 9953   0.175   4.523   8.246
 3207SOL    HW2 9954   0.052   4.630   8.258
 3208SOL     OW 9955   0.865   4.072   7.643
 3208SOL    HW1 9956   0.924   4.135   7.594
 3208SOL    HW2 9957   0.884   3.978   7.614
 3209SOL     OW 9958   1.719   4.309   9.279
 3209SOL    HW1 9959   1.693   4.398   9.243
 3209SOL    HW2 9960   1.717   4.241   9.206
 3210SOL     OW 9961   1.362   4.868   7.993
 3210SOL    HW1 9962   1.445   4.839   7.945
 3210SOL    HW2 9963   1.313   4.935   7.937
 3211SOL     OW 9964   0.550   3.920   8.333
 3211SOL    HW1 9965   0.545   3.915   8.433
 3211SOL    HW2 9966   0.552   4.016   8.304
 3212SOL     OW 9967   1.008   5.180   7.925
 3212SOL    HW1 9968   0.962   5.252   7.873
 3212SOL    HW2 9969   1.004   5.200   8.023
 3213SOL     OW 9970   1.795   4.790   8.321
 3213SOL    HW1 9971   1.733   4.775   8.245
 3213SOL    HW2 9972   1.743   4.801   8.406
 3214SOL     OW 9973   1.227   5.274   8.954
 3214SOL    HW1 9974   1.233   5.197   9.018
 3214SOL    HW2 9975   1.175   5.248   8.874
 3215SOL     OW 9976   0.321   4.667   7.690
 3215SOL    HW1 9977   0.403   4.706   7.648
 3215SOL    HW2 9978   0.294   4.585   7.641
 3216SOL     OW 9979   1.458   4.459   8.176
 3216SOL    HW1 9980   1.453   4.394   8.251
 3216SOL    HW2 9981   1.538   4.518   8.189
 3217SOL     OW 9982   0.461   4.990   9.175
 3217SOL    HW1 9983   0.411   4.991   9.089
 3217SOL    HW2 9984   0.398   4.972   9.251
 3218SOL     OW 9985   1.111   5.500   7.685
 3218SOL    HW1 9986   1.051   5.438   7.735
 3218SOL    HW2 9987   1.142   5.456   7.600
 3219SOL     OW 9988   0.202   4.009   8.946
 3219SOL    HW1 9989   0.122   4.069   8.933
 3219SOL    HW2 9990   0.192   3.960   9.032
 3220SOL     OW 9991   1.632   5.101   7.529
 3220SOL    HW1 9992   1.600   5.195   7.519
 3220SOL    HW2 9993   1.556   5.038   7.517
 3221SOL     OW 9994   1.400   3.831   7.874
 3221SOL    HW1 9995   1.376   3.794   7.784
 3221SOL    HW2 9996   1.499   3.847   7.878
 3222SOL     OW 9997   0.382   4.424   7.928
 3222SOL    HW1 9998   0.427   4.334   7.925
 3222SOL    HW2 9999   0.288   4.413   7.961
 3223SOL     OW10000   1.547   3.946   9.177
 3223SOL    HW110001   1.542   3.983   9.269
 3223SOL    HW210002   1.475   3.877   9.165
 3224SOL     OW10003   0.614   3.846   7.565
 3224SOL    HW110004   0.712   3.824   7.572
 3224SOL    HW210005   0.583   3.829   7.472
 3225SOL     OW10006   0.781   3.988   9.197
 3225SOL    HW110007   0.848   3.927   9.240
 3225SOL    HW210008   0.708   4.007   9.262
 3226SOL     OW10009   1.351   4.314   8.881
 3226SOL    HW110010   1.379   4.271   8.966
 3226SOL    HW210011   1.376   4.410   8.882
 3227SOL     OW10012   0.803   5.126   8.372
 3227SOL    HW110013   0.893   5.140   8.330
 3227SOL    HW210014   0.732   5.128   8.301
 3228SOL     OW10015   0.922   4.227   8.347
 3228SOL    HW110016   0.897   4.218   8.251
 3228SOL    HW210017   0.970   4.145   8.378
 3229SOL     OW10018   0.539   3.788   7.960
 3229SOL    HW110019   0.458   3.789   8.018
 3229SOL    HW210020   0.542   3.871   7.905
 3230SOL     OW10021   1.434   4.912   7.489
 3230SOL    HW110022   1.466   4.836   7.546
 3230SOL    HW210023   1.342   4.939   7.519
 3231SOL     OW10024   0.297   3.759   7.619
 3231SOL    HW110025   0.346   3.843   7.598
 3231SOL    HW210026   0.359   3.694   7.664
 3232SOL     OW10027   0.935   3.960   7.928
 3232SOL    HW110028   0.887   4.001   7.850
 3232SOL    HW210029   1.034   3.958   7.909
 3233SOL     OW10030   1.076   4.407   8.912
 3233SOL    HW110031   0.996   4.346   8.915
 3233SOL    HW210032   1.157   4.354   8.888
 3234SOL     OW10033   1.227   5.294   8.241
 3234SOL    HW110034   1.248   5.368   8.176
 3234SOL    HW210035   1.295   5.294   8.314
 3235SOL     OW10036   0.459   4.876   8.189
 3235SOL    HW110037   0.388   4.849   8.254
 3235SOL    HW210038   0.433   4.848   8.096
 3236SOL     OW10039   1.032   4.273   7.464
 3236SOL    HW110040   0.991   4.355   7.425
 3236SOL    HW210041   1.096   4.299   7.537
 3237SOL     OW10042   0.078   4.280   8.834
 3237SOL    HW110043   0.170   4.279   8.793
 3237SOL    HW210044   0.072   4.354   8.901
 3238SOL     OW10045   0.561   3.946   8.595
 3238SOL    HW110046   0.599   3.862   8.632
 3238SOL    HW210047   0.473   3.965   8.639
 3239SOL     OW10048   0.866   4.178   8.090
 3239SOL    HW110049   0.834   4.250   8.028
 3239SOL    HW210050   0.890   4.097   8.037
 3240SOL     OW10051   1.017   3.763   8.201
 3240SOL    HW110052   0.945   3.768   8.132
 3240SOL    HW210053   0.993   3.694   8.270
 3241SOL     OW10054   1.429   4.897   8.315
 3241SOL    HW110055   1.374   4.813   8.308
 3241SOL    HW210056   1.455   4.926   8.223
 3242SOL     OW10057   1.466   4.314   8.440
 3242SOL    HW110058   1.436   4.219   8.447
 3242SOL    HW210059   1.539   4.330   8.506
 3243SOL     OW10060   1.857   4.557   7.825
 3243SOL    HW110061   1.899   4.493   7.889
 3243SOL    HW210062   1.819   4.506   7.747
 3244SOL     OW10063   0.488   5.109   7.622
 3244SOL    HW110064   0.401   5.094   7.669
 3244SOL    HW210065   0.471   5.135   7.527
 3245SOL     OW10066   1.664   5.004   8.105
 3245SOL    HW110067   1.763   5.012   8.119
 3245SOL    HW210068   1.619   5.088   8.136
 3246SOL     OW10069   1.390   4.299   7.526
 3246SOL    HW110070   1.336   4.278   7.607
 3246SOL    HW210071   1.481   4.258   7.535
 3247SOL     OW10072   0.527   3.980   7.776
 3247SOL    HW110073   0.554   3.921   7.701
 3247SOL    HW210074   0.527   4.075   7.745
 3248SOL     OW10075   1.754   4.947   9.036
 3248SOL    HW110076   1.845   4.908   9.023
 3248SOL    HW210077   1.762   5.043   9.060
 3249SOL     OW10078   1.064   5.071   8.788
 3249SOL    HW110079   0.984   5.048   8.843
 3249SOL    HW210080   1.147   5.045   8.837
 3250SOL     OW10081   1.111   4.919   8.548
 3250SOL    HW110082   1.071   4.963   8.629
 3250SOL    HW210083   1.070   4.956   8.465
 3251SOL     OW10084   1.638   4.823   8.527
 3251SOL    HW110085   1.643   4.904   8.586
 3251SOL    HW210086   1.552   4.825   8.476
 3252SOL     OW10087   0.915   3.813   8.850
 3252SOL    HW110088   0.940   3.793   8.755
 3252SOL    HW210089   0.987   3.869   8.892
 3253SOL     OW10090   0.980   4.840   9.167
 3253SOL    HW110091   0.881   4.846   9.177
 3253SOL    HW210092   1.003   4.760   9.111
 3254SOL     OW10093   0.705   4.774   7.816
 3254SOL    HW110094   0.691   4.781   7.915
 3254SOL    HW210095   0.789   4.723   7.798
 3255SOL     OW10096   0.410   4.537   8.699
 3255SOL    HW110097   0.496   4.549   8.749
 3255SOL    HW210098   0.368   4.450   8.726
 3256SOL     OW10099   1.274   4.110   8.710
 3256SOL    HW110100   1.295   4.184   8.774
 3256SOL    HW210101   1.185   4.127   8.667
 3257SOL     OW10102   0.064   5.288   8.779
 3257SOL    HW110103   0.018   5.370   8.745
 3257SOL    HW210104   0.162   5.307   8.788
 3258SOL     OW10105   0.367   4.824   7.949
 3258SOL    HW110106   0.360   4.907   7.893
 3258SOL    HW210107   0.371   4.744   7.889
 3259SOL     OW10108   0.566   4.261   8.313
 3259SOL    HW110109   0.578   4.327   8.239
 3259SOL    HW210110   0.612   4.295   8.396
 3260SOL     OW10111   1.252   5.072   7.836
 3260SOL    HW110112   1.302   5.149   7.876
 3260SOL    HW210113   1.157   5.074   7.868
 3261SOL     OW10114   1.272   5.169   8.590
 3261SOL    HW110115   1.319   5.182   8.677
 3261SOL    HW210116   1.206   5.095   8.599
 3262SOL     OW10117   1.582   4.363   7.920
 3262SOL    HW110118   1.551   4.424   7.993
 3262SOL    HW210119   1.632   4.415   7.851
 3263SOL     OW10120   0.354   5.234   8.777
 3263SOL    HW110121   0.333   5.190   8.690
 3263SOL    HW210122   0.451   5.260   8.780
 3264SOL     OW10123   0.402   4.475   9.046
 3264SOL    HW110124   0.470   4.530   8.999
 3264SOL    HW210125   0.442   4.387   9.073
 3265SOL     OW10126   1.587   4.503   9.118
 3265SOL    HW110127   1.495   4.541   9.113
 3265SOL    HW210128   1.647   4.550   9.053
 3266SOL     OW10129   1.013   3.829   9.218
 3266SOL    HW110130   1.019   3.914   9.166
 3266SOL    HW210131   1.045   3.753   9.161
 3267SOL     OW10132   0.504   3.774   9.188
 3267SOL    HW110133   0.462   3.717   9.118
 3267SOL    HW210134   0.438   3.843   9.220
 3268SOL     OW10135   0.573   4.594   8.477
 3268SOL    HW110136   0.617   4.683   8.468
 3268SOL    HW210137   0.510   4.594   8.554
 3269SOL     OW10138   1.360   4.586   8.493
 3269SOL    HW110139   1.285   4.586   8.427
 3269SOL    HW210140   1.397   4.494   8.502
 3270SOL     OW10141   1.209   4.249   7.723
 3270SOL    HW110142   1.222   4.165   7.777
 3270SOL    HW210143   1.180   4.323   7.783
 3271SOL     OW10144   0.307   3.937   8.679
 3271SOL    HW110145   0.284   3.974   8.769
 3271SOL    HW210146   0.277   3.842   8.673
 3272SOL     OW10147   0.037   5.034   8.730
 3272SOL    HW110148   0.090   4.985   8.798
 3272SOL    HW210149   0.059   5.132   8.735
 3273SOL     OW10150   0.732   4.358   8.512
 3273SOL    HW110151   0.791   4.332   8.436
 3273SOL    HW210152   0.704   4.454   8.501
 3274SOL     OW10153   1.728   4.659   9.302
 3274SOL    HW110154   1.682   4.652   9.213
 3274SOL    HW210155   1.666   4.703   9.368
 3275SOL     OW10156   0.307   3.787   8.066
 3275SOL    HW110157   0.296   3.881   8.099
 3275SOL    HW210158   0.302   3.724   8.143
 3276SOL     OW10159   1.622   4.091   7.822
 3276SOL    HW110160   1.624   4.015   7.886
 3276SOL    HW210161   1.574   4.168   7.862
 3277SOL     OW10162   1.023   4.490   8.414
 3277SOL    HW110163   1.038   4.511   8.510
 3277SOL    HW210164   0.993   4.395   8.405
 3278SOL     OW10165   1.859   5.242   9.053
 3278SOL    HW110166   1.873   5.269   8.958
 3278SOL    HW210167   1.942   5.264   9.106
 3279SOL     OW10168   0.350   4.622   9.252
 3279SOL    HW110169   0.426   4.666   9.300
 3279SOL    HW210170   0.385   4.575   9.170
 3280SOL     OW10171   1.540   3.998   7.573
 3280SOL    HW110172   1.479   3.923   7.596
 3280SOL    HW210173   1.562   4.050   7.656
 3281SOL     OW10174   1.303   4.562   7.490
 3281SOL    HW110175   1.337   4.469   7.505
 3281SOL    HW210176   1.321   4.589   7.395
 3282SOL     OW10177   1.068   5.057   8.297
 3282SOL    HW110178   1.075   4.973   8.242
 3282SOL    HW210179   1.130   5.126   8.261
 3283SOL     OW10180   0.319   4.534   8.397
 3283SOL    HW110181   0.412   4.570   8.402
 3283SOL    HW210182   0.313   4.449   8.449
 3284SOL     OW10183   0.339   4.233   8.454
 3284SOL    HW110184   0.287   4.150   8.437
 3284SOL    HW210185   0.416   4.238   8.390
 3285SOL     OW10186   1.138   4.104   9.126
 3285SOL    HW110187   1.093   4.167   9.190
 3285SOL    HW210188   1.231   4.135   9.109
 3286SOL     OW10189   1.160   3.931   8.925
 3286SOL    HW110190   1.160   3.995   9.002
 3286SOL    HW210191   1.188   3.979   8.842
 3287SOL     OW10192   0.008   5.050   7.648
 3287SOL    HW110193  -0.085   5.071   7.617
 3287SOL    HW210194   0.018   4.951   7.661
 3288SOL     OW10195   1.002   4.520   8.686
 3288SOL    HW110196   1.043   4.488   8.772
 3288SOL    HW210197   0.906   4.493   8.683
 3289SOL     OW10198   0.040   4.268   8.562
 3289SOL    HW110199   0.125   4.235   8.521
 3289SOL    HW210200   0.053   4.283   8.660
 3290SOL     OW10201   0.189   4.244   9.170
 3290SOL    HW110202   0.248   4.204   9.100
 3290SOL    HW210203   0.131   4.315   9.129
 3291SOL     OW10204   1.369   4.674   9.108
 3291SOL    HW110205   1.408   4.763   9.128
 3291SOL    HW210206   1.379   4.654   9.011
 3292SOL     OW10207   0.815   4.296   7.773
 3292SOL    HW110208   0.822   4.207   7.727
 3292SOL    HW210209   0.721   4.330   7.765
 3293SOL     OW10210   1.657   4.328   8.654
 3293SOL    HW110211   1.619   4.259   8.716
 3293SOL    HW210212   1.739   4.292   8.610
 3294SOL     OW10213   0.252   5.288   9.192
 3294SOL    HW110214   0.222   5.345   9.268
 3294SOL    HW210215   0.245   5.191   9.218
 3295SOL     OW10216   0.671   4.188   8.717
 3295SOL    HW110217   0.637   4.099   8.687
 3295SOL    HW210218   0.697   4.242   8.637
 3296SOL     OW10219   0.473   4.224   7.639
 3296SOL    HW110220   0.534   4.304   7.643
 3296SOL    HW210221   0.378   4.255   7.646
 3297SOL     OW10222   0.159   4.861   8.914
 3297SOL    HW110223   0.181   4.800   8.990
 3297SOL    HW210224   0.169   4.812   8.828
 3298SOL     OW10225   1.347   4.783   8.682
 3298SOL    HW110226   1.371   4.720   8.608
 3298SOL    HW210227   1.257   4.823   8.664
 3299SOL     OW10228   1.302   4.579   7.757
 3299SOL    HW110229   1.216   4.548   7.799
 3299SOL    HW210230   1.298   4.565   7.658
 3300SOL     OW10231   0.083   4.982   8.470
 3300SOL    HW110232   0.078   4.981   8.570
 3300SOL    HW210233   0.000   4.941   8.432
 3301SOL     OW10234   0.688   5.386   9.164
 3301SOL    HW110235   0.632   5.467   9.173
 3301SOL    HW210236   0.740   5.390   9.078
 3302SOL     OW10237   1.726   3.859   7.971
 3302SOL    HW110238   1.799   3.842   7.904
 3302SOL    HW210239   1.695   3.772   8.009
 3303SOL     OW10240   1.280   4.651   8.120
 3303SOL    HW110241   1.340   4.570   8.122
 3303SOL    HW210242   1.320   4.720   8.060
 3304SOL     OW10243   0.830   4.997   8.870
 3304SOL    HW110244   0.825   5.030   8.965
 3304SOL    HW210245   0.744   5.016   8.824
 3305SOL     OW10246   1.841   3.899   8.411
 3305SOL    HW110247   1.880   3.814   8.375
 3305SOL    HW210248   1.743   3.901   8.392
 3306SOL     OW10249   0.263   4.050   8.168
 3306SOL    HW110250   0.184   4.101   8.134
 3306SOL    HW210251   0.254   4.035   8.266
 3307SOL     OW10252   0.822   4.726   8.820
 3307SOL    HW110253   0.862   4.725   8.728
 3307SOL    HW210254   0.832   4.818   8.860
 3308SOL     OW10255   0.916   4.634   7.739
 3308SOL    HW110256   0.979   4.672   7.671
 3308SOL    HW210257   0.956   4.551   7.778
 3309SOL     OW10258   0.372   5.012   8.938
 3309SOL    HW110259   0.359   5.105   8.904
 3309SOL    HW210260   0.288   4.960   8.925
 3310SOL     OW10261   1.614   5.016   8.737
 3310SOL    HW110262   1.674   5.019   8.817
 3310SOL    HW210263   1.539   5.080   8.750
 3311SOL     OW10264   1.039   4.822   8.144
 3311SOL    HW110265   0.969   4.775   8.198
 3311SOL    HW210266   1.098   4.754   8.101
 3312SOL     OW10267   1.014   3.960   8.419
 3312SOL    HW110268   1.006   3.924   8.326
 3312SOL    HW210269   1.012   3.884   8.484
 3313SOL     OW10270   1.709   4.109   8.829
 3313SOL    HW110271   1.782   4.178   8.833
 3313SOL    HW210272   1.737   4.034   8.770
 3314SOL     OW10273   0.255   5.072   7.738
 3314SOL    HW110274   0.159   5.073   7.711
 3314SOL    HW210275   0.267   5.125   7.822
 3315SOL     OW10276   0.105   4.737   9.174
 3315SOL    HW110277   0.028   4.704   9.228
 3315SOL    HW210278   0.190   4.707   9.216
 3316SOL     OW10279   0.672   3.927   8.937
 3316SOL    HW110280   0.762   3.911   8.897
 3316SOL    HW210281   0.680   3.932   9.036
 3317SOL     OW10282   0.075   4.069   7.481
 3317SOL    HW110283  -0.017   4.041   7.452
 3317SOL    HW210284   0.106   4.146   7.425
 3318SOL     OW10285   1.440   4.580   8.846
 3318SOL    HW110286   1.383   4.632   8.783
 3318SOL    HW210287   1.536   4.592   8.822
 3319SOL     OW10288   0.072   3.890   7.766
 3319SOL    HW110289   0.055   3.973   7.712
 3319SOL    HW210290   0.162   3.853   7.744
 3320SOL     OW10291   1.183   5.059   7.567
 3320SOL    HW110292   1.084   5.048   7.569
 3320SOL    HW210293   1.217   5.074   7.660
 3321SOL     OW10294   0.613   4.566   8.879
 3321SOL    HW110295   0.669   4.647   8.862
 3321SOL    HW210296   0.672   4.486   8.882
 3322SOL     OW10297   0.716   4.289   9.156
 3322SOL    HW110298   0.735   4.354   9.230
 3322SOL    HW210299   0.776   4.209   9.165
 3323SOL     OW10300   1.450   4.944   9.081
 3323SOL    HW110301   1.441   4.934   9.180
 3323SOL    HW210302   1.546   4.937   9.055
 3324SOL     OW10303   1.674   4.607   8.702
 3324SOL    HW110304   1.647   4.518   8.665
 3324SOL    HW210305   1.675   4.675   8.629
 3325SOL     OW10306   1.225   4.049   7.897
 3325SOL    HW110307   1.290   3.975   7.886
 3325SOL    HW210308   1.245   4.099   7.981
 3326SOL     OW10309   0.594   4.469   8.100
 3326SOL    HW110310   0.644   4.554   8.081
 3326SOL    HW210311   0.506   4.471   8.052
 3327SOL     OW10312   1.777   4.066   9.090
 3327SOL    HW110313   1.760   4.097   8.996
 3327SOL    HW210314   1.693   4.029   9.128
 3328SOL     OW10315   1.730   4.658   8.965
 3328SOL    HW110316   1.768   4.749   8.980
 3328SOL    HW210317   1.722   4.641   8.866
 3329SOL     OW10318   0.859   5.098   7.464
 3329SOL    HW110319   0.813   5.113   7.552
 3329SOL    HW210320   0.903   5.183   7.434
 3330SOL     OW10321   0.859   4.680   8.309
 3330SOL    HW110322   0.913   4.611   8.357
 3330SOL    HW210323   0.827   4.749   8.375
 3331SOL     OW10324   1.083   4.708   7.535
 3331SOL    HW110325   1.060   4.761   7.453
 3331SOL    HW210326   1.164   4.652   7.516
 3332SOL     OW10327   0.221   5.038   9.292
 3332SOL    HW110328   0.156   4.965   9.271
 3332SOL    HW210329   0.225   5.052   9.390
 3333SOL     OW10330   0.079   4.964   8.101
 3333SOL    HW110331   0.078   4.917   8.189
 3333SOL    HW210332   0.161   4.936   8.050
 3334SOL     OW10333   0.672   5.115   9.072
 3334SOL    HW110334   0.594   5.065   9.110
 3334SOL    HW210335   0.669   5.210   9.103
 3335SOL     OW10336   1.824   3.916   8.675
 3335SOL    HW110337   1.820   3.826   8.719
 3335SOL    HW210338   1.827   3.905   8.576
 3336SOL     OW10339   0.428   4.148   7.968
 3336SOL    HW110340   0.458   4.076   7.906
 3336SOL    HW210341   0.389   4.108   8.051
 3337SOL     OW10342   1.705   5.211   8.552
 3337SOL    HW110343   1.612   5.186   8.525
 3337SOL    HW210344   1.731   5.161   8.634
 3338SOL     OW10345   0.317   4.271   8.728
 3338SOL    HW110346   0.355   4.212   8.800
 3338SOL    HW210347   0.357   4.245   8.640
 3339SOL     OW10348   1.424   3.938   8.560
 3339SOL    HW110349   1.476   3.873   8.615
 3339SOL    HW210350   1.375   4.001   8.621
 3340SOL     OW10351   1.001   3.758   8.602
 3340SOL    HW110352   0.938   3.686   8.571
 3340SOL    HW210353   1.094   3.722   8.602
 3341SOL     OW10354   0.770   5.054   7.749
 3341SOL    HW110355   0.724   4.967   7.766
 3341SOL    HW210356   0.861   5.051   7.790
 3342SOL     OW10357   0.618   5.291   8.732
 3342SOL    HW110358   0.613   5.373   8.789
 3342SOL    HW210359   0.707   5.288   8.687
 3343SOL     OW10360   1.352   3.776   7.616
 3343SOL    HW110361   1.387   3.735   7.532
 3343SOL    HW210362   1.262   3.738   7.636
 3344SOL     OW10363   1.300   4.177   8.139
 3344SOL    HW110364   1.241   4.257   8.143
 3344SOL    HW210365   1.315   4.142   8.232
 3345SOL     OW10366   1.593   3.945   8.330
 3345SOL    HW110367   1.509   3.944   8.384
 3345SOL    HW210368   1.595   4.028   8.274
 3346SOL     OW10369   0.039   4.801   7.748
 3346SOL    HW110370   0.138   4.790   7.739
 3346SOL    HW210371  -0.001   4.715   7.780
 3347SOL     OW10372   0.230   4.352   9.423
 3347SOL    HW110373   0.137   4.350   9.460
 3347SOL    HW210374   0.231   4.313   9.331
 3348SOL     OW10375   0.225   3.999  10.306
 3348SOL    HW110376   0.260   3.982  10.398
 3348SOL    HW210377   0.137   3.954  10.294
 3349SOL     OW10378   0.019   4.092   9.957
 3349SOL    HW110379  -0.063   4.135   9.996
 3349SOL    HW210380  -0.009   4.019   9.894
 3350SOL     OW10381   0.569   4.999  10.475
 3350SOL    HW110382   0.476   4.992  10.438
 3350SOL    HW210383   0.580   5.088  10.519
 3351SOL     OW10384   1.555   5.235  10.013
 3351SOL    HW110385   1.498   5.219  10.094
 3351SOL    HW210386   1.496   5.245   9.933
 3352SOL     OW10387   1.135   4.427  10.027
 3352SOL    HW110388   1.192   4.505  10.002
 3352SOL    HW210389   1.075   4.453  10.103
 3353SOL     OW10390   1.755   4.331   9.541
 3353SOL    HW110391   1.743   4.318   9.442
 3353SOL    HW210392   1.725   4.250   9.590
 3354SOL     OW10393   0.768   4.868  10.333
 3354SOL    HW110394   0.690   4.885  10.393
 3354SOL    HW210395   0.802   4.955  10.297
 3355SOL     OW10396   0.685   4.736   9.975
 3355SOL    HW110397   0.754   4.720  10.045
 3355SOL    HW210398   0.612   4.793  10.013
 3356SOL     OW10399   0.335   5.159  10.371
 3356SOL    HW110400   0.257   5.128  10.318
 3356SOL    HW210401   0.393   5.217  10.314
 3357SOL     OW10402   1.460   5.229  10.649
 3357SOL    HW110403   1.484   5.323  10.675
 3357SOL    HW210404   1.444   5.175  10.731
 3358SOL     OW10405   0.438   4.116  10.809
 3358SOL    HW110406   0.520   4.060  10.818
 3358SOL    HW210407   0.357   4.058  10.813
 3359SOL     OW10408   1.603   4.171  10.047
 3359SOL    HW110409   1.529   4.217   9.997
 3359SOL    HW210410   1.654   4.239  10.100
 3360SOL     OW10411   0.230   5.158   9.848
 3360SOL    HW110412   0.204   5.254   9.848
 3360SOL    HW210413   0.159   5.104   9.893
 3361SOL     OW10414   0.240   4.815  10.196
 3361SOL    HW110415   0.254   4.731  10.248
 3361SOL    HW210416   0.185   4.879  10.251
 3362SOL     OW10417   0.606   4.688   9.433
 3362SOL    HW110418   0.613   4.772   9.379
 3362SOL    HW210419   0.652   4.701   9.521
 3363SOL     OW10420   0.122   4.367   9.873
 3363SOL    HW110421   0.077   4.279   9.890
 3363SOL    HW210422   0.121   4.421   9.957
 3364SOL     OW10423   0.027   5.320   9.427
 3364SOL    HW110424   0.008   5.224   9.448
 3364SOL    HW210425  -0.006   5.378   9.502
 3365SOL     OW10426   1.689   4.646   9.922
 3365SOL    HW110427   1.784   4.617   9.930
 3365SOL    HW210428   1.681   4.711   9.847
 3366SOL     OW10429   1.641   4.832   9.742
 3366SOL    HW110430   1.727   4.834   9.690
 3366SOL    HW210431   1.655   4.879   9.830
 3367SOL     OW10432   0.613   5.089  10.036
 3367SOL    HW110433   0.564   5.002  10.045
 3367SOL    HW210434   0.590   5.132   9.949
 3368SOL     OW10435   0.809   3.728   9.812
 3368SOL    HW110436   0.849   3.819   9.803
 3368SOL    HW210437   0.709   3.736   9.818
 3369SOL     OW10438   0.197   4.700  10.574
 3369SOL    HW110439   0.286   4.655  10.560
 3369SOL    HW210440   0.124   4.635  10.555
 3370SOL     OW10441   1.525   4.723   9.500
 3370SOL    HW110442   1.462   4.647   9.513
 3370SOL    HW210443   1.573   4.741   9.586
 3371SOL     OW10444   1.466   5.141  10.263
 3371SOL    HW110445   1.407   5.147  10.343
 3371SOL    HW210446   1.451   5.053  10.217
 3372SOL     OW10447   0.598   4.453   9.580
 3372SOL    HW110448   0.622   4.522   9.512
 3372SOL    HW210449   0.520   4.486   9.634
 3373SOL     OW10450   1.281   4.069  10.254
 3373SOL    HW110451   1.195   4.019  10.241
 3373SOL    HW210452   1.343   4.015  10.310
 3374SOL     OW10453   0.807   4.329  10.775
 3374SOL    HW110454   0.760   4.326  10.864
 3374SOL    HW210455   0.756   4.274  10.709
 3375SOL     OW10456   0.991   4.134  10.552
 3375SOL    HW110457   0.914   4.168  10.606
 3375SOL    HW210458   0.957   4.083  10.473
 3376SOL     OW10459   1.041   4.425   9.739
 3376SOL    HW110460   1.067   4.421   9.835
 3376SOL    HW210461   0.956   4.374   9.725
 3377SOL     OW10462   0.076   4.535  10.099
 3377SOL    HW110463   0.175   4.523  10.108
 3377SOL    HW210464   0.052   4.630  10.120
 3378SOL     OW10465   0.865   4.072   9.505
 3378SOL    HW110466   0.924   4.135   9.456
 3378SOL    HW210467   0.884   3.978   9.476
 3379SOL     OW10468   1.362   4.868   9.855
 3379SOL    HW110469   1.445   4.839   9.807
 3379SOL    HW210470   1.313   4.935   9.799
 3380SOL     OW10471   0.550   3.920  10.195
 3380SOL    HW110472   0.545   3.915  10.295
 3380SOL    HW210473   0.552   4.016  10.166
 3381SOL     OW10474   1.008   5.180   9.787
 3381SOL    HW110475   0.962   5.252   9.735
 3381SOL    HW210476   1.004   5.200   9.885
 3382SOL     OW10477   1.795   4.790  10.183
 3382SOL    HW110478   1.733   4.775  10.107
 3382SOL    HW210479   1.743   4.801  10.268
 3383SOL     OW10480   0.321   4.667   9.552
 3383SOL    HW110481   0.403   4.706   9.510
 3383SOL    HW210482   0.294   4.585   9.503
 3384SOL     OW10483   1.458   4.459  10.038
 3384SOL    HW110484   1.453   4.394  10.113
 3384SOL    HW210485   1.538   4.518  10.051
 3385SOL     OW10486   1.111   5.500   9.547
 3385SOL    HW110487   1.051   5.438   9.597
 3385SOL    HW210488   1.142   5.456   9.462
 3386SOL     OW10489   1.632   5.101   9.391
 3386SOL    HW110490   1.600   5.195   9.381
 3386SOL    HW210491   1.556   5.038   9.379
 3387SOL     OW10492   1.400   3.831   9.736
 3387SOL    HW110493   1.376   3.794   9.646
 3387SOL    HW210494   1.499   3.847   9.740
 3388SOL     OW10495   0.382   4.424   9.790
 3388SOL    HW110496   0.427   4.334   9.787
 3388SOL    HW210497   0.288   4.413   9.823
 3389SOL     OW10498   0.614   3.846   9.427
 3389SOL    HW110499   0.712   3.824   9.434
 3389SOL    HW210500   0.583   3.829   9.334
 3390SOL     OW10501   0.803   5.126  10.234
 3390SOL    HW110502   0.893   5.140  10.192
 3390SOL    HW210503   0.732   5.128  10.163
 3391SOL     OW10504   0.922   4.227  10.209
 3391SOL    HW110505   0.897   4.218  10.113
 3391SOL    HW210506   0.970   4.145  10.240
 3392SOL     OW10507   0.539   3.788   9.822
 3392SOL    HW110508   0.458   3.789   9.880
 3392SOL    HW210509   0.542   3.871   9.767
 3393SOL     OW10510   1.434   4.912   9.351
 3393SOL    HW110511   1.466   4.836   9.408
 3393SOL    HW210512   1.342   4.939   9.381
 3394SOL     OW10513   0.297   3.759   9.481
 3394SOL    HW110514   0.346   3.843   9.460
 3394SOL    HW210515   0.359   3.694   9.526
 3395SOL     OW10516   0.935   3.960   9.790
 3395SOL    HW110517   0.887   4.001   9.712
 3395SOL    HW210518   1.034   3.958   9.771
 3396SOL     OW10519   1.227   5.294  10.103
 3396SOL    HW110520   1.248   5.368  10.038
 3396SOL    HW210521   1.295   5.294  10.176
 3397SOL     OW10522   0.459   4.876  10.051
 3397SOL    HW110523   0.388   4.849  10.116
 3397SOL    HW210524   0.433   4.848   9.958
 3398SOL     OW10525   1.032   4.273   9.326
 3398SOL    HW110526   0.991   4.355   9.287
 3398SOL    HW210527   1.096   4.299   9.399
 3399SOL     OW10528   0.561   3.946  10.457
 3399SOL    HW110529   0.599   3.862  10.494
 3399SOL    HW210530   0.473   3.965  10.501
 3400SOL     OW10531   0.866   4.178   9.952
 3400SOL    HW110532   0.834   4.250   9.890
 3400SOL    HW210533   0.890   4.097   9.899
 3401SOL     OW10534   1.017   3.763  10.063
 3401SOL    HW110535   0.945   3.768   9.994
 3401SOL    HW210536   0.993   3.694  10.132
 3402SOL     OW10537   1.429   4.897  10.177
 3402SOL    HW110538   1.374   4.813  10.170
 3402SOL    HW210539   1.455   4.926  10.085
 3403SOL     OW10540   1.466   4.314  10.302
 3403SOL    HW110541   1.436   4.219  10.309
 3403SOL    HW210542   1.539   4.330  10.368
 3404SOL     OW10543   1.857   4.557   9.687
 3404SOL    HW110544   1.899   4.493   9.751
 3404SOL    HW210545   1.819   4.506   9.609
 3405SOL     OW10546   0.488   5.109   9.484
 3405SOL    HW110547   0.401   5.094   9.531
 3405SOL    HW210548   0.471   5.135   9.389
 3406SOL     OW10549   1.664   5.004   9.967
 3406SOL    HW110550   1.763   5.012   9.981
 3406SOL    HW210551   1.619   5.088   9.998
 3407SOL     OW10552   1.390   4.299   9.388
 3407SOL    HW110553   1.336   4.278   9.469
 3407SOL    HW210554   1.481   4.258   9.397
 3408SOL     OW10555   0.527   3.980   9.638
 3408SOL    HW110556   0.554   3.921   9.563
 3408SOL    HW210557   0.527   4.075   9.607
 3409SOL     OW10558   1.064   5.071  10.650
 3409SOL    HW110559   0.984   5.048  10.705
 3409SOL    HW210560   1.147   5.045  10.699
 3410SOL     OW10561   1.592   5.353  10.935
 3410SOL    HW110562   1.619   5.387  10.845
 3410SOL    HW210563   1.671   5.315  10.981
 3411SOL     OW10564   1.111   4.919  10.410
 3411SOL    HW110565   1.071   4.963  10.491
 3411SOL    HW210566   1.070   4.956  10.327
 3412SOL     OW10567   1.638   4.823  10.389
 3412SOL    HW110568   1.643   4.904  10.448
 3412SOL    HW210569   1.552   4.825  10.338
 3413SOL     OW10570   0.705   4.774   9.678
 3413SOL    HW110571   0.691   4.781   9.777
 3413SOL    HW210572   0.789   4.723   9.660
 3414SOL     OW10573   0.410   4.537  10.561
 3414SOL    HW110574   0.496   4.549  10.611
 3414SOL    HW210575   0.368   4.450  10.588
 3415SOL     OW10576   1.274   4.110  10.572
 3415SOL    HW110577   1.295   4.184  10.636
 3415SOL    HW210578   1.185   4.127  10.529
 3416SOL     OW10579   0.064   5.288  10.641
 3416SOL    HW110580   0.018   5.370  10.607
 3416SOL    HW210581   0.162   5.307  10.650
 3417SOL     OW10582   0.367   4.824   9.811
 3417SOL    HW110583   0.360   4.907   9.755
 3417SOL    HW210584   0.371   4.744   9.751
 3418SOL     OW10585   0.566   4.261  10.175
 3418SOL    HW110586   0.578   4.327  10.101
 3418SOL    HW210587   0.612   4.295  10.258
 3419SOL     OW10588   1.252   5.072   9.698
 3419SOL    HW110589   1.302   5.149   9.738
 3419SOL    HW210590   1.157   5.074   9.730
 3420SOL     OW10591   1.272   5.169  10.452
 3420SOL    HW110592   1.319   5.182  10.539
 3420SOL    HW210593   1.206   5.095  10.461
 3421SOL     OW10594   1.582   4.363   9.782
 3421SOL    HW110595   1.551   4.424   9.855
 3421SOL    HW210596   1.632   4.415   9.713
 3422SOL     OW10597   0.354   5.234  10.639
 3422SOL    HW110598   0.333   5.190  10.552
 3422SOL    HW210599   0.451   5.260  10.642
 3423SOL     OW10600   0.504   3.774  11.050
 3423SOL    HW110601   0.462   3.717  10.980
 3423SOL    HW210602   0.438   3.843  11.082
 3424SOL     OW10603   0.573   4.594  10.339
 3424SOL    HW110604   0.617   4.683  10.330
 3424SOL    HW210605   0.510   4.594  10.416
 3425SOL     OW10606   1.360   4.586  10.355
 3425SOL    HW110607   1.285   4.586  10.289
 3425SOL    HW210608   1.397   4.494  10.364
 3426SOL     OW10609   1.209   4.249   9.585
 3426SOL    HW110610   1.222   4.165   9.639
 3426SOL    HW210611   1.180   4.323   9.645
 3427SOL     OW10612   0.307   3.937  10.541
 3427SOL    HW110613   0.284   3.974  10.631
 3427SOL    HW210614   0.277   3.842  10.535
 3428SOL     OW10615   0.037   5.034  10.592
 3428SOL    HW110616   0.090   4.985  10.660
 3428SOL    HW210617   0.059   5.132  10.597
 3429SOL     OW10618   0.732   4.358  10.374
 3429SOL    HW110619   0.791   4.332  10.298
 3429SOL    HW210620   0.704   4.454  10.363
 3430SOL     OW10621   0.307   3.787   9.928
 3430SOL    HW110622   0.296   3.881   9.961
 3430SOL    HW210623   0.302   3.724  10.005
 3431SOL     OW10624   1.622   4.091   9.684
 3431SOL    HW110625   1.624   4.015   9.748
 3431SOL    HW210626   1.574   4.168   9.724
 3432SOL     OW10627   1.023   4.490  10.276
 3432SOL    HW110628   1.038   4.511  10.372
 3432SOL    HW210629   0.993   4.395  10.267
 3433SOL     OW10630   1.540   3.998   9.435
 3433SOL    HW110631   1.479   3.923   9.458
 3433SOL    HW210632   1.562   4.050   9.518
 3434SOL     OW10633   1.303   4.562   9.352
 3434SOL    HW110634   1.337   4.469   9.367
 3434SOL    HW210635   1.321   4.589   9.257
 3435SOL     OW10636   1.068   5.057  10.159
 3435SOL    HW110637   1.075   4.973  10.104
 3435SOL    HW210638   1.130   5.126  10.123
 3436SOL     OW10639   0.319   4.534  10.259
 3436SOL    HW110640   0.412   4.570  10.264
 3436SOL    HW210641   0.313   4.449  10.311
 3437SOL     OW10642   0.339   4.233  10.316
 3437SOL    HW110643   0.287   4.150  10.299
 3437SOL    HW210644   0.416   4.238  10.252
 3438SOL     OW10645   1.160   3.931  10.787
 3438SOL    HW110646   1.160   3.995  10.864
 3438SOL    HW210647   1.188   3.979  10.704
 3439SOL     OW10648   0.008   5.050   9.510
 3439SOL    HW110649  -0.085   5.071   9.479
 3439SOL    HW210650   0.018   4.951   9.523
 3440SOL     OW10651   1.002   4.520  10.548
 3440SOL    HW110652   1.043   4.488  10.634
 3440SOL    HW210653   0.906   4.493  10.545
 3441SOL     OW10654   0.040   4.268  10.424
 3441SOL    HW110655   0.125   4.235  10.383
 3441SOL    HW210656   0.053   4.283  10.522
 3442SOL     OW10657   0.815   4.296   9.635
 3442SOL    HW110658   0.822   4.207   9.589
 3442SOL    HW210659   0.721   4.330   9.627
 3443SOL     OW10660   1.657   4.328  10.516
 3443SOL    HW110661   1.619   4.259  10.578
 3443SOL    HW210662   1.739   4.292  10.472
 3444SOL     OW10663   0.671   4.188  10.579
 3444SOL    HW110664   0.637   4.099  10.549
 3444SOL    HW210665   0.697   4.242  10.499
 3445SOL     OW10666   0.473   4.224   9.501
 3445SOL    HW110667   0.534   4.304   9.505
 3445SOL    HW210668   0.378   4.255   9.508
 3446SOL     OW10669   0.159   4.861  10.776
 3446SOL    HW110670   0.181   4.800  10.852
 3446SOL    HW210671   0.169   4.812  10.690
 3447SOL     OW10672   1.347   4.783  10.544
 3447SOL    HW110673   1.371   4.720  10.470
 3447SOL    HW210674   1.257   4.823  10.526
 3448SOL     OW10675   1.302   4.579   9.619
 3448SOL    HW110676   1.216   4.548   9.661
 3448SOL    HW210677   1.298   4.565   9.520
 3449SOL     OW10678   0.083   4.982  10.332
 3449SOL    HW110679   0.078   4.981  10.432
 3449SOL    HW210680   0.000   4.941  10.294
 3450SOL     OW10681   1.726   3.859   9.833
 3450SOL    HW110682   1.799   3.842   9.766
 3450SOL    HW210683   1.695   3.772   9.871
 3451SOL     OW10684   1.280   4.651   9.982
 3451SOL    HW110685   1.340   4.570   9.984
 3451SOL    HW210686   1.320   4.720   9.922
 3452SOL     OW10687   1.841   3.899  10.273
 3452SOL    HW110688   1.880   3.814  10.237
 3452SOL    HW210689   1.743   3.901  10.254
 3453SOL     OW10690   0.263   4.050  10.030
 3453SOL    HW110691   0.184   4.101   9.996
 3453SOL    HW210692   0.254   4.035  10.128
 3454SOL     OW10693   0.822   4.726  10.682
 3454SOL    HW110694   0.862   4.725  10.590
 3454SOL    HW210695   0.832   4.818  10.722
 3455SOL     OW10696   0.916   4.634   9.601
 3455SOL    HW110697   0.979   4.672   9.533
 3455SOL    HW210698   0.956   4.551   9.640
 3456SOL     OW10699   0.372   5.012  10.800
 3456SOL    HW110700   0.359   5.105  10.766
 3456SOL    HW210701   0.288   4.960  10.787
 3457SOL     OW10702   1.614   5.016  10.599
 3457SOL    HW110703   1.674   5.019  10.679
 3457SOL    HW210704   1.539   5.080  10.612
 3458SOL     OW10705   1.039   4.822  10.006
 3458SOL    HW110706   0.969   4.775  10.060
 3458SOL    HW210707   1.098   4.754   9.963
 3459SOL     OW10708   1.014   3.960  10.281
 3459SOL    HW110709   1.006   3.924  10.188
 3459SOL    HW210710   1.012   3.884  10.346
 3460SOL     OW10711   1.709   4.109  10.691
 3460SOL    HW110712   1.782   4.178  10.695
 3460SOL    HW210713   1.737   4.034  10.632
 3461SOL     OW10714   0.255   5.072   9.600
 3461SOL    HW110715   0.159   5.073   9.573
 3461SOL    HW210716   0.267   5.125   9.684
 3462SOL     OW10717   0.672   3.927  10.799
 3462SOL    HW110718   0.762   3.911  10.759
 3462SOL    HW210719   0.680   3.932  10.898
 3463SOL     OW10720   0.075   4.069   9.343
 3463SOL    HW110721  -0.017   4.041   9.314
 3463SOL    HW210722   0.106   4.146   9.287
 3464SOL     OW10723   0.072   3.890   9.628
 3464SOL    HW110724   0.055   3.973   9.574
 3464SOL    HW210725   0.162   3.853   9.606
 3465SOL     OW10726   1.183   5.059   9.429
 3465SOL    HW110727   1.084   5.048   9.431
 3465SOL    HW210728   1.217   5.074   9.522
 3466SOL     OW10729   0.613   4.566  10.741
 3466SOL    HW110730   0.669   4.647  10.724
 3466SOL    HW210731   0.672   4.486  10.744
 3467SOL     OW10732   1.674   4.607  10.564
 3467SOL    HW110733   1.647   4.518  10.527
 3467SOL    HW210734   1.675   4.675  10.491
 3468SOL     OW10735   1.225   4.049   9.759
 3468SOL    HW110736   1.290   3.975   9.748
 3468SOL    HW210737   1.245   4.099   9.843
 3469SOL     OW10738   0.594   4.469   9.962
 3469SOL    HW110739   0.644   4.554   9.943
 3469SOL    HW210740   0.506   4.471   9.914
 3470SOL     OW10741   1.730   4.658  10.827
 3470SOL    HW110742   1.768   4.749  10.842
 3470SOL    HW210743   1.722   4.641  10.728
 3471SOL     OW10744   0.859   5.098   9.326
 3471SOL    HW110745   0.813   5.113   9.414
 3471SOL    HW210746   0.903   5.183   9.296
 3472SOL     OW10747   0.859   4.680  10.171
 3472SOL    HW110748   0.913   4.611  10.219
 3472SOL    HW210749   0.827   4.749  10.237
 3473SOL     OW10750   1.083   4.708   9.397
 3473SOL    HW110751   1.060   4.761   9.315
 3473SOL    HW210752   1.164   4.652   9.378
 3474SOL     OW10753   0.079   4.964   9.963
 3474SOL    HW110754   0.078   4.917  10.051
 3474SOL    HW210755   0.161   4.936   9.912
 3475SOL     OW10756   1.824   3.916  10.537
 3475SOL    HW110757   1.820   3.826  10.581
 3475SOL    HW210758   1.827   3.905  10.438
 3476SOL     OW10759   0.428   4.148   9.830
 3476SOL    HW110760   0.458   4.076   9.768
 3476SOL    HW210761   0.389   4.108   9.913
 3477SOL     OW10762   1.705   5.211  10.414
 3477SOL    HW110763   1.612   5.186  10.387
 3477SOL    HW210764   1.731   5.161  10.496
 3478SOL     OW10765   0.317   4.271  10.590
 3478SOL    HW110766   0.355   4.212  10.662
 3478SOL    HW210767   0.357   4.245  10.502
 3479SOL     OW10768   1.424   3.938  10.422
 3479SOL    HW110769   1.476   3.873  10.477
 3479SOL    HW210770   1.375   4.001  10.483
 3480SOL     OW10771   1.001   3.758  10.464
 3480SOL    HW110772   0.938   3.686  10.433
 3480SOL    HW210773   1.094   3.722  10.464
 3481SOL     OW10774   0.770   5.054   9.611
 3481SOL    HW110775   0.724   4.967   9.628
 3481SOL    HW210776   0.861   5.051   9.652
 3482SOL     OW10777   0.618   5.291  10.594
 3482SOL    HW110778   0.613   5.373  10.651
 3482SOL    HW210779   0.707   5.288  10.549
 3483SOL     OW10780   1.352   3.776   9.478
 3483SOL    HW110781   1.387   3.735   9.394
 3483SOL    HW210782   1.262   3.738   9.498
 3484SOL     OW10783   1.300   4.177  10.001
 3484SOL    HW110784   1.241   4.257  10.005
 3484SOL    HW210785   1.315   4.142  10.094
 3485SOL     OW10786   1.593   3.945  10.192
 3485SOL    HW110787   1.509   3.944  10.246
 3485SOL    HW210788   1.595   4.028  10.136
 3486SOL     OW10789   0.039   4.801   9.610
 3486SOL    HW110790   0.138   4.790   9.601
 3486SOL    HW210791  -0.001   4.715   9.642
 3487SOL     OW10792   2.092   0.628   0.113
 3487SOL    HW110793   1.999   0.626   0.150
 3487SOL    HW210794   2.093   0.589   0.021
 3488SOL     OW10795   2.087   0.275   0.996
 3488SOL    HW110796   2.122   0.258   1.088
 3488SOL    HW210797   1.999   0.230   0.984
 3489SOL     OW10798   1.881   0.368   0.647
 3489SOL    HW110799   1.799   0.411   0.686
 3489SOL    HW210800   1.853   0.295   0.584
 3490SOL     OW10801   2.431   1.275   1.165
 3490SOL    HW110802   2.338   1.268   1.128
 3490SOL    HW210803   2.442   1.364   1.209
 3491SOL     OW10804   3.417   1.511   0.703
 3491SOL    HW110805   3.360   1.495   0.784
 3491SOL    HW210806   3.358   1.521   0.623
 3492SOL     OW10807   2.997   0.703   0.717
 3492SOL    HW110808   3.054   0.781   0.692
 3492SOL    HW210809   2.937   0.729   0.793
 3493SOL     OW10810   3.617   0.607   0.231
 3493SOL    HW110811   3.605   0.594   0.132
 3493SOL    HW210812   3.587   0.526   0.280
 3494SOL     OW10813   2.630   1.144   1.023
 3494SOL    HW110814   2.552   1.161   1.083
 3494SOL    HW210815   2.664   1.231   0.987
 3495SOL     OW10816   2.712   0.798   1.823
 3495SOL    HW110817   2.708   0.874   1.888
 3495SOL    HW210818   2.734   0.834   1.732
 3496SOL     OW10819   2.547   1.012   0.665
 3496SOL    HW110820   2.616   0.996   0.735
 3496SOL    HW210821   2.474   1.069   0.703
 3497SOL     OW10822   2.548   1.161   1.803
 3497SOL    HW110823   2.608   1.240   1.817
 3497SOL    HW210824   2.462   1.192   1.762
 3498SOL     OW10825   2.197   1.435   1.061
 3498SOL    HW110826   2.119   1.404   1.008
 3498SOL    HW210827   2.255   1.493   1.004
 3499SOL     OW10828   3.322   1.505   1.339
 3499SOL    HW110829   3.346   1.599   1.365
 3499SOL    HW210830   3.306   1.451   1.421
 3500SOL     OW10831   2.300   0.392   1.499
 3500SOL    HW110832   2.382   0.336   1.508
 3500SOL    HW210833   2.219   0.334   1.503
 3501SOL     OW10834   3.465   0.447   0.737
 3501SOL    HW110835   3.391   0.493   0.687
 3501SOL    HW210836   3.516   0.515   0.790
 3502SOL     OW10837   2.093   1.713   0.483
 3502SOL    HW110838   2.127   1.790   0.537
 3502SOL    HW210839   2.137   1.713   0.393
 3503SOL     OW10840   2.989   1.341   1.690
 3503SOL    HW110841   3.036   1.341   1.778
 3503SOL    HW210842   2.941   1.254   1.679
 3504SOL     OW10843   2.092   1.434   0.538
 3504SOL    HW110844   2.066   1.530   0.538
 3504SOL    HW210845   2.021   1.380   0.583
 3505SOL     OW10846   2.102   1.091   0.886
 3505SOL    HW110847   2.116   1.007   0.938
 3505SOL    HW210848   2.047   1.155   0.941
 3506SOL     OW10849   2.482   1.786   1.439
 3506SOL    HW110850   2.390   1.769   1.474
 3506SOL    HW210851   2.510   1.878   1.465
 3507SOL     OW10852   2.468   0.964   0.123
 3507SOL    HW110853   2.475   1.048   0.069
 3507SOL    HW210854   2.514   0.977   0.211
 3508SOL     OW10855   3.456   0.114   1.480
 3508SOL    HW110856   3.438   0.181   1.408
 3508SOL    HW210857   3.453   0.160   1.569
 3509SOL     OW10858   1.984   0.643   0.563
 3509SOL    HW110859   1.939   0.555   0.580
 3509SOL    HW210860   1.983   0.697   0.647
 3510SOL     OW10861   3.704   1.767   0.359
 3510SOL    HW110862   3.758   1.738   0.439
 3510SOL    HW210863   3.734   1.857   0.330
 3511SOL     OW10864   1.889   1.596   0.117
 3511SOL    HW110865   1.870   1.500   0.138
 3511SOL    HW210866   1.856   1.654   0.192
 3512SOL     OW10867   3.551   0.922   0.612
 3512SOL    HW110868   3.646   0.893   0.620
 3512SOL    HW210869   3.543   0.987   0.537
 3513SOL     OW10870   3.503   1.108   0.432
 3513SOL    HW110871   3.589   1.110   0.380
 3513SOL    HW210872   3.517   1.155   0.520
 3514SOL     OW10873   1.975   0.737   1.597
 3514SOL    HW110874   2.063   0.724   1.642
 3514SOL    HW210875   1.962   0.834   1.575
 3515SOL     OW10876   2.475   1.365   0.726
 3515SOL    HW110877   2.426   1.278   0.735
 3515SOL    HW210878   2.452   1.408   0.639
 3516SOL     OW10879   3.155   1.228   1.423
 3516SOL    HW110880   3.192   1.155   1.365
 3516SOL    HW210881   3.207   1.233   1.508
 3517SOL     OW10882   2.671   0.004   0.502
 3517SOL    HW110883   2.711   0.095   0.493
 3517SOL    HW210884   2.571   0.012   0.508
 3518SOL     OW10885   2.059   0.976   1.264
 3518SOL    HW110886   2.148   0.931   1.250
 3518SOL    HW210887   1.986   0.911   1.245
 3519SOL     OW10888   3.387   0.999   0.190
 3519SOL    HW110889   3.324   0.923   0.203
 3519SOL    HW210890   3.435   1.017   0.276
 3520SOL     OW10891   3.049   1.792   1.616
 3520SOL    HW110892   3.073   1.852   1.540
 3520SOL    HW210893   3.056   1.697   1.586
 3521SOL     OW10894   2.179   0.251   1.801
 3521SOL    HW110895   2.250   0.322   1.807
 3521SOL    HW210896   2.091   0.290   1.829
 3522SOL     OW10897   3.328   1.417   0.953
 3522SOL    HW110898   3.269   1.423   1.033
 3522SOL    HW210899   3.313   1.329   0.907
 3523SOL     OW10900   3.529   1.714   0.572
 3523SOL    HW110901   3.488   1.691   0.484
 3523SOL    HW210902   3.511   1.640   0.637
 3524SOL     OW10903   2.460   0.729   0.270
 3524SOL    HW110904   2.484   0.798   0.202
 3524SOL    HW210905   2.382   0.762   0.324
 3525SOL     OW10906   3.143   0.345   0.944
 3525SOL    HW110907   3.057   0.295   0.931
 3525SOL    HW210908   3.205   0.291   1.000
 3526SOL     OW10909   3.438   1.662   0.307
 3526SOL    HW110910   3.527   1.708   0.310
 3526SOL    HW210911   3.417   1.638   0.212
 3527SOL     OW10912   2.669   0.605   1.465
 3527SOL    HW110913   2.622   0.602   1.554
 3527SOL    HW210914   2.618   0.550   1.399
 3528SOL     OW10915   3.256   0.469   1.674
 3528SOL    HW110916   3.236   0.512   1.762
 3528SOL    HW210917   3.334   0.407   1.683
 3529SOL     OW10918   2.835   0.890   1.572
 3529SOL    HW110919   2.881   0.806   1.543
 3529SOL    HW210920   2.779   0.924   1.497
 3530SOL     OW10921   2.853   0.410   1.242
 3530SOL    HW110922   2.776   0.444   1.296
 3530SOL    HW210923   2.819   0.359   1.163
 3531SOL     OW10924   2.903   0.701   0.429
 3531SOL    HW110925   2.929   0.697   0.525
 3531SOL    HW210926   2.818   0.650   0.415
 3532SOL     OW10927   1.938   0.811   0.789
 3532SOL    HW110928   2.037   0.799   0.798
 3532SOL    HW210929   1.914   0.906   0.810
 3533SOL     OW10930   1.992   1.821   1.571
 3533SOL    HW110931   1.982   1.806   1.670
 3533SOL    HW210932   1.906   1.857   1.535
 3534SOL     OW10933   2.727   0.348   0.195
 3534SOL    HW110934   2.786   0.411   0.146
 3534SOL    HW210935   2.746   0.254   0.166
 3535SOL     OW10936   3.581   0.585   1.831
 3535SOL    HW110937   3.555   0.674   1.795
 3535SOL    HW210938   3.579   0.517   1.758
 3536SOL     OW10939   3.224   1.144   0.545
 3536SOL    HW110940   3.307   1.115   0.497
 3536SOL    HW210941   3.175   1.211   0.489
 3537SOL     OW10942   2.412   0.196   0.885
 3537SOL    HW110943   2.407   0.191   0.985
 3537SOL    HW210944   2.414   0.292   0.856
 3538SOL     OW10945   2.870   1.456   0.477
 3538SOL    HW110946   2.824   1.528   0.425
 3538SOL    HW210947   2.866   1.476   0.575
 3539SOL     OW10948   2.213   1.801   0.853
 3539SOL    HW110949   2.263   1.715   0.859
 3539SOL    HW210950   2.278   1.878   0.850
 3540SOL     OW10951   3.657   1.066   0.873
 3540SOL    HW110952   3.595   1.051   0.797
 3540SOL    HW210953   3.605   1.077   0.958
 3541SOL     OW10954   3.089   1.550   1.506
 3541SOL    HW110955   3.095   1.473   1.570
 3541SOL    HW210956   3.037   1.524   1.426
 3542SOL     OW10957   2.183   0.943   0.242
 3542SOL    HW110958   2.265   0.982   0.200
 3542SOL    HW210959   2.156   0.861   0.193
 3543SOL     OW10960   3.320   0.735   0.728
 3543SOL    HW110961   3.315   0.670   0.803
 3543SOL    HW210962   3.400   0.794   0.741
 3544SOL     OW10963   2.323   1.266   1.727
 3544SOL    HW110964   2.273   1.267   1.641
 3544SOL    HW210965   2.260   1.248   1.803
 3545SOL     OW10966   2.973   1.776   0.237
 3545SOL    HW110967   2.913   1.714   0.287
 3545SOL    HW210968   3.004   1.732   0.152
 3546SOL     OW10969   2.064   0.285   1.498
 3546SOL    HW110970   1.984   0.345   1.485
 3546SOL    HW210971   2.054   0.236   1.584
 3547SOL     OW10972   3.494   1.377   0.081
 3547SOL    HW110973   3.462   1.471   0.071
 3547SOL    HW210974   3.418   1.314   0.069
 3548SOL     OW10975   2.326   1.743   0.323
 3548SOL    HW110976   2.359   1.782   0.409
 3548SOL    HW210977   2.402   1.736   0.258
 3549SOL     OW10978   3.262   0.107   0.426
 3549SOL    HW110979   3.238   0.070   0.336
 3549SOL    HW210980   3.361   0.123   0.430
 3550SOL     OW10981   2.111   1.785   1.241
 3550SOL    HW110982   2.168   1.720   1.291
 3550SOL    HW210983   2.095   1.752   1.148
 3551SOL     OW10984   2.802   1.698   0.904
 3551SOL    HW110985   2.882   1.641   0.925
 3551SOL    HW210986   2.753   1.658   0.827
 3552SOL     OW10987   2.244   0.700   0.480
 3552SOL    HW110988   2.289   0.610   0.477
 3552SOL    HW210989   2.150   0.689   0.513
 3553SOL     OW10990   3.409   0.222   1.729
 3553SOL    HW110991   3.404   0.259   1.821
 3553SOL    HW210992   3.337   0.153   1.717
 3554SOL     OW10993   2.476   0.122   0.117
 3554SOL    HW110994   2.574   0.100   0.124
 3554SOL    HW210995   2.445   0.105   0.024
 3555SOL     OW10996   2.643   0.264   1.749
 3555SOL    HW110997   2.710   0.203   1.792
 3555SOL    HW210998   2.570   0.283   1.814
 3556SOL     OW10999   2.750   1.514   1.195
 3556SOL    HW111000   2.727   1.489   1.101
 3556SOL    HW211001   2.811   1.445   1.234
 3557SOL     OW11002   3.213   0.590   1.433
 3557SOL    HW111003   3.241   0.547   1.518
 3557SOL    HW211004   3.238   0.686   1.434
 3558SOL     OW11005   2.665   1.402   0.924
 3558SOL    HW111006   2.755   1.416   0.882
 3558SOL    HW211007   2.594   1.404   0.853
 3559SOL     OW11008   2.784   0.503   0.899
 3559SOL    HW111009   2.759   0.494   0.803
 3559SOL    HW211010   2.832   0.421   0.930
 3560SOL     OW11011   2.401   0.064   0.512
 3560SOL    HW111012   2.320   0.065   0.570
 3560SOL    HW211013   2.404   0.147   0.457
 3561SOL     OW11014   3.296   1.188   0.041
 3561SOL    HW111015   3.328   1.112   0.098
 3561SOL    HW211016   3.204   1.215   0.071
 3562SOL     OW11017   2.159   0.035   0.171
 3562SOL    HW111018   2.208   0.119   0.150
 3562SOL    HW211019   2.221  -0.030   0.216
 3563SOL     OW11020   2.797   0.236   0.480
 3563SOL    HW111021   2.749   0.277   0.402
 3563SOL    HW211022   2.896   0.234   0.461
 3564SOL     OW11023   2.938   0.683   1.464
 3564SOL    HW111024   2.858   0.622   1.467
 3564SOL    HW211025   3.019   0.630   1.440
 3565SOL     OW11026   3.089   1.570   0.793
 3565SOL    HW111027   3.110   1.644   0.728
 3565SOL    HW211028   3.157   1.570   0.866
 3566SOL     OW11029   2.321   1.152   0.741
 3566SOL    HW111030   2.250   1.125   0.806
 3566SOL    HW211031   2.295   1.124   0.648
 3567SOL     OW11032   3.133   1.797   0.591
 3567SOL    HW111033   3.177   1.861   0.527
 3567SOL    HW211034   3.083   1.849   0.661
 3568SOL     OW11035   2.894   0.549   0.016
 3568SOL    HW111036   2.853   0.631  -0.023
 3568SOL    HW211037   2.958   0.575   0.089
 3569SOL     OW11038   1.940   0.556   1.386
 3569SOL    HW111039   2.032   0.555   1.345
 3569SOL    HW211040   1.934   0.630   1.453
 3570SOL     OW11041   2.423   0.222   1.147
 3570SOL    HW111042   2.461   0.138   1.184
 3570SOL    HW211043   2.335   0.241   1.191
 3571SOL     OW11044   2.728   0.454   0.642
 3571SOL    HW111045   2.696   0.526   0.580
 3571SOL    HW211046   2.752   0.373   0.589
 3572SOL     OW11047   2.879   0.039   0.753
 3572SOL    HW111048   2.807   0.044   0.684
 3572SOL    HW211049   2.855  -0.030   0.822
 3573SOL     OW11050   3.291   1.173   0.867
 3573SOL    HW111051   3.236   1.089   0.860
 3573SOL    HW211052   3.317   1.202   0.775
 3574SOL     OW11053   3.328   0.590   0.992
 3574SOL    HW111054   3.298   0.495   0.999
 3574SOL    HW211055   3.401   0.606   1.058
 3575SOL     OW11056   3.719   0.833   0.377
 3575SOL    HW111057   3.761   0.769   0.441
 3575SOL    HW211058   3.681   0.782   0.299
 3576SOL     OW11059   2.350   1.385   0.174
 3576SOL    HW111060   2.263   1.370   0.221
 3576SOL    HW211061   2.333   1.411   0.079
 3577SOL     OW11062   3.526   1.280   0.657
 3577SOL    HW111063   3.625   1.288   0.671
 3577SOL    HW211064   3.481   1.364   0.688
 3578SOL     OW11065   3.252   0.575   0.078
 3578SOL    HW111066   3.198   0.554   0.159
 3578SOL    HW211067   3.343   0.534   0.087
 3579SOL     OW11068   2.389   0.256   0.328
 3579SOL    HW111069   2.416   0.197   0.253
 3579SOL    HW211070   2.389   0.351   0.297
 3580SOL     OW11071   3.616   1.223   1.588
 3580SOL    HW111072   3.707   1.184   1.575
 3580SOL    HW211073   3.624   1.319   1.612
 3581SOL     OW11074   2.926   1.347   1.340
 3581SOL    HW111075   2.846   1.324   1.395
 3581SOL    HW211076   3.009   1.321   1.389
 3582SOL     OW11077   3.454   1.629   1.625
 3582SOL    HW111078   3.481   1.663   1.535
 3582SOL    HW211079   3.533   1.591   1.671
 3583SOL     OW11080   2.973   1.195   1.100
 3583SOL    HW111081   2.933   1.239   1.181
 3583SOL    HW211082   2.932   1.232   1.017
 3584SOL     OW11083   3.500   1.099   1.079
 3584SOL    HW111084   3.505   1.180   1.138
 3584SOL    HW211085   3.414   1.101   1.028
 3585SOL     OW11086   2.777   0.089   1.402
 3585SOL    HW111087   2.802   0.069   1.307
 3585SOL    HW211088   2.849   0.145   1.444
 3586SOL     OW11089   2.842   1.116   1.719
 3586SOL    HW111090   2.743   1.122   1.729
 3586SOL    HW211091   2.865   1.036   1.663
 3587SOL     OW11092   2.567   1.050   0.368
 3587SOL    HW111093   2.553   1.057   0.467
 3587SOL    HW211094   2.651   0.999   0.350
 3588SOL     OW11095   2.272   0.813   1.251
 3588SOL    HW111096   2.358   0.825   1.301
 3588SOL    HW211097   2.230   0.726   1.278
 3589SOL     OW11098   3.136   0.386   1.262
 3589SOL    HW111099   3.157   0.460   1.326
 3589SOL    HW211100   3.047   0.403   1.219
 3590SOL     OW11101   1.926   1.564   1.331
 3590SOL    HW111102   1.880   1.646   1.297
 3590SOL    HW211103   2.024   1.583   1.340
 3591SOL     OW11104   2.229   1.100   0.501
 3591SOL    HW111105   2.222   1.183   0.445
 3591SOL    HW211106   2.233   1.020   0.441
 3592SOL     OW11107   2.428   0.537   0.865
 3592SOL    HW111108   2.440   0.603   0.791
 3592SOL    HW211109   2.474   0.571   0.948
 3593SOL     OW11110   3.114   1.348   0.388
 3593SOL    HW111111   3.164   1.425   0.428
 3593SOL    HW211112   3.019   1.350   0.420
 3594SOL     OW11113   3.134   1.445   1.142
 3594SOL    HW111114   3.181   1.458   1.229
 3594SOL    HW211115   3.068   1.371   1.151
 3595SOL     OW11116   3.444   0.639   0.472
 3595SOL    HW111117   3.413   0.700   0.545
 3595SOL    HW211118   3.494   0.691   0.403
 3596SOL     OW11119   2.216   1.510   1.329
 3596SOL    HW111120   2.195   1.466   1.242
 3596SOL    HW211121   2.313   1.536   1.332
 3597SOL     OW11122   2.264   0.751   1.598
 3597SOL    HW111123   2.332   0.806   1.551
 3597SOL    HW211124   2.304   0.663   1.625
 3598SOL     OW11125   3.449   0.779   1.670
 3598SOL    HW111126   3.357   0.817   1.665
 3598SOL    HW211127   3.509   0.826   1.605
 3599SOL     OW11128   2.875   0.105   1.770
 3599SOL    HW111129   2.881   0.190   1.718
 3599SOL    HW211130   2.907   0.029   1.713
 3600SOL     OW11131   2.366   0.050   1.740
 3600SOL    HW111132   2.324  -0.007   1.670
 3600SOL    HW211133   2.300   0.119   1.772
 3601SOL     OW11134   2.435   0.870   1.029
 3601SOL    HW111135   2.479   0.959   1.020
 3601SOL    HW211136   2.372   0.870   1.106
 3602SOL     OW11137   3.222   0.862   1.045
 3602SOL    HW111138   3.147   0.862   0.979
 3602SOL    HW211139   3.259   0.770   1.054
 3603SOL     OW11140   3.071   0.525   0.275
 3603SOL    HW111141   3.084   0.441   0.329
 3603SOL    HW211142   3.042   0.599   0.335
 3604SOL     OW11143   2.169   0.213   1.231
 3604SOL    HW111144   2.146   0.250   1.321
 3604SOL    HW211145   2.139   0.118   1.225
 3605SOL     OW11146   1.899   1.310   1.282
 3605SOL    HW111147   1.952   1.261   1.350
 3605SOL    HW211148   1.921   1.408   1.287
 3606SOL     OW11149   2.594   0.634   1.064
 3606SOL    HW111150   2.653   0.608   0.988
 3606SOL    HW211151   2.566   0.730   1.053
 3607SOL     OW11152   3.590   0.935   1.854
 3607SOL    HW111153   3.544   0.928   1.765
 3607SOL    HW211154   3.528   0.979   1.920
 3608SOL     OW11155   2.169   0.063   0.618
 3608SOL    HW111156   2.158   0.157   0.651
 3608SOL    HW211157   2.164   0.000   0.695
 3609SOL     OW11158   3.484   0.367   0.374
 3609SOL    HW111159   3.486   0.291   0.438
 3609SOL    HW211160   3.436   0.444   0.414
 3610SOL     OW11161   2.885   0.766   0.966
 3610SOL    HW111162   2.900   0.787   1.062
 3610SOL    HW211163   2.855   0.671   0.957
 3611SOL     OW11164   2.842   1.573   1.700
 3611SOL    HW111165   2.822   1.617   1.612
 3611SOL    HW211166   2.881   1.482   1.684
 3612SOL     OW11167   3.721   1.518   1.605
 3612SOL    HW111168   3.735   1.545   1.510
 3612SOL    HW211169   3.804   1.540   1.658
 3613SOL     OW11170   2.212   0.898   1.804
 3613SOL    HW111171   2.288   0.942   1.852
 3613SOL    HW211172   2.247   0.851   1.722
 3614SOL     OW11173   3.402   0.274   0.125
 3614SOL    HW111174   3.341   0.199   0.148
 3614SOL    HW211175   3.424   0.326   0.208
 3615SOL     OW11176   3.165   0.838   0.042
 3615SOL    HW111177   3.199   0.745   0.057
 3615SOL    HW211178   3.183   0.865  -0.053
 3616SOL     OW11179   2.930   1.333   0.849
 3616SOL    HW111180   2.937   1.249   0.794
 3616SOL    HW211181   2.992   1.402   0.813
 3617SOL     OW11182   2.181   0.810   0.949
 3617SOL    HW111183   2.274   0.846   0.954
 3617SOL    HW211184   2.175   0.725   1.001
 3618SOL     OW11185   2.201   0.509   1.006
 3618SOL    HW111186   2.149   0.426   0.989
 3618SOL    HW211187   2.278   0.514   0.942
 3619SOL     OW11188   3.000   0.380   1.678
 3619SOL    HW111189   2.955   0.443   1.742
 3619SOL    HW211190   3.093   0.411   1.661
 3620SOL     OW11191   3.022   0.207   1.477
 3620SOL    HW111192   3.022   0.271   1.554
 3620SOL    HW211193   3.050   0.255   1.394
 3621SOL     OW11194   1.870   1.326   0.200
 3621SOL    HW111195   1.777   1.347   0.169
 3621SOL    HW211196   1.880   1.227   0.213
 3622SOL     OW11197   1.950   1.801   0.927
 3622SOL    HW111198   1.908   1.715   0.900
 3622SOL    HW211199   2.044   1.804   0.893
 3623SOL     OW11200   2.366   1.568   0.910
 3623SOL    HW111201   2.432   1.642   0.919
 3623SOL    HW211202   2.410   1.489   0.868
 3624SOL     OW11203   2.864   0.796   1.238
 3624SOL    HW111204   2.905   0.764   1.324
 3624SOL    HW211205   2.768   0.769   1.235
 3625SOL     OW11206   1.902   0.544   1.114
 3625SOL    HW111207   1.987   0.511   1.073
 3625SOL    HW211208   1.915   0.559   1.212
 3626SOL     OW11209   2.051   0.520   1.722
 3626SOL    HW111210   2.110   0.480   1.652
 3626SOL    HW211211   1.993   0.591   1.681
 3627SOL     OW11212   3.231   0.950   1.660
 3627SOL    HW111213   3.270   1.039   1.680
 3627SOL    HW211214   3.241   0.930   1.563
 3628SOL     OW11215   2.677   0.572   0.325
 3628SOL    HW111216   2.684   0.483   0.279
 3628SOL    HW211217   2.583   0.606   0.317
 3629SOL     OW11218   3.519   0.604   1.206
 3629SOL    HW111219   3.481   0.535   1.268
 3629SOL    HW211220   3.601   0.568   1.162
 3630SOL     OW11221   2.114   1.564   1.744
 3630SOL    HW111222   2.084   1.621   1.820
 3630SOL    HW211223   2.107   1.467   1.770
 3631SOL     OW11224   2.533   0.464   1.269
 3631SOL    HW111225   2.499   0.375   1.239
 3631SOL    HW211226   2.559   0.518   1.189
 3632SOL     OW11227   2.792   1.678   1.465
 3632SOL    HW111228   2.768   1.660   1.370
 3632SOL    HW211229   2.822   1.772   1.475
 3633SOL     OW11230   2.335   0.500   0.191
 3633SOL    HW111231   2.396   0.580   0.195
 3633SOL    HW211232   2.240   0.531   0.198
 3634SOL     OW11233   2.021   1.137   1.466
 3634SOL    HW111234   2.043   1.076   1.542
 3634SOL    HW211235   2.031   1.088   1.380
 3635SOL     OW11236   3.209   1.059   1.234
 3635SOL    HW111237   3.233   0.996   1.160
 3635SOL    HW211238   3.119   1.099   1.216
 3636SOL     OW11239   3.164   0.855   0.309
 3636SOL    HW111240   3.078   0.824   0.351
 3636SOL    HW211241   3.160   0.841   0.210
 3637SOL     OW11242   3.621   1.747   1.154
 3637SOL    HW111243   3.682   1.777   1.081
 3637SOL    HW211244   3.583   1.658   1.132
 3638SOL     OW11245   3.114   1.731   1.128
 3638SOL    HW111246   3.198   1.736   1.074
 3638SOL    HW211247   3.091   1.635   1.146
 3639SOL     OW11248   1.945   1.258   1.022
 3639SOL    HW111249   1.940   1.257   1.122
 3639SOL    HW211250   1.862   1.217   0.984
 3640SOL     OW11251   2.550   1.662   1.716
 3640SOL    HW111252   2.494   1.743   1.725
 3640SOL    HW211253   2.602   1.666   1.630
 3641SOL     OW11254   2.765   0.086   0.133
 3641SOL    HW111255   2.816   0.087   0.047
 3641SOL    HW211256   2.821   0.044   0.204
 3642SOL     OW11257   3.588   0.135   0.523
 3642SOL    HW111258   3.661   0.118   0.456
 3642SOL    HW211259   3.557   0.048   0.561
 3643SOL     OW11260   3.250   1.573   0.477
 3643SOL    HW111261   3.317   1.585   0.403
 3643SOL    HW211262   3.210   1.662   0.500
 3644SOL     OW11263   1.992   1.794   1.851
 3644SOL    HW111264   1.951   1.720   1.904
 3644SOL    HW211265   2.056   1.845   1.909
 3645SOL     OW11266   3.142   0.927   0.672
 3645SOL    HW111267   3.202   0.846   0.674
 3645SOL    HW211268   3.182   0.996   0.612
 3646SOL     OW11269   2.692   1.273   1.422
 3646SOL    HW111270   2.687   1.306   1.517
 3646SOL    HW211271   2.606   1.292   1.376
 3647SOL     OW11272   2.534   1.616   0.154
 3647SOL    HW111273   2.543   1.626   0.055
 3647SOL    HW211274   2.494   1.527   0.175
 3648SOL     OW11275   3.512   1.720   1.394
 3648SOL    HW111276   3.565   1.730   1.310
 3648SOL    HW211277   3.485   1.810   1.428
 3649SOL     OW11278   3.703   0.175   0.963
 3649SOL    HW111279   3.742   0.090   0.927
 3649SOL    HW211280   3.605   0.177   0.944
 3650SOL     OW11281   2.125   0.326   0.720
 3650SOL    HW111282   2.046   0.377   0.686
 3650SOL    HW211283   2.116   0.311   0.818
 3651SOL     OW11284   3.056   1.612   0.031
 3651SOL    HW111285   3.062   1.519   0.068
 3651SOL    HW211286   2.997   1.612  -0.049
 3652SOL     OW11287   2.684   1.002   1.372
 3652SOL    HW111288   2.724   1.001   1.280
 3652SOL    HW211289   2.694   1.094   1.412
 3653SOL     OW11290   2.778   0.910   0.291
 3653SOL    HW111291   2.841   0.948   0.223
 3653SOL    HW211292   2.818   0.827   0.330
 3654SOL     OW11293   3.366   1.607   0.044
 3654SOL    HW111294   3.274   1.644   0.051
 3654SOL    HW211295   3.404   1.627  -0.046
 3655SOL     OW11296   2.234   1.288   1.490
 3655SOL    HW111297   2.221   1.381   1.456
 3655SOL    HW211298   2.150   1.236   1.477
 3656SOL     OW11299   3.476   1.292   1.289
 3656SOL    HW111300   3.536   1.295   1.369
 3656SOL    HW211301   3.401   1.356   1.302
 3657SOL     OW11302   2.901   1.098   0.696
 3657SOL    HW111303   2.831   1.051   0.750
 3657SOL    HW211304   2.960   1.030   0.653
 3658SOL     OW11305   2.876   0.236   0.971
 3658SOL    HW111306   2.868   0.200   0.878
 3658SOL    HW211307   2.874   0.160   1.036
 3659SOL     OW11308   2.452   1.487   0.491
 3659SOL    HW111309   2.494   1.429   0.421
 3659SOL    HW211310   2.408   1.566   0.447
 3660SOL     OW11311   3.571   0.385   1.381
 3660SOL    HW111312   3.644   0.454   1.385
 3660SOL    HW211313   3.599   0.310   1.322
 3661SOL     OW11314   2.117   1.348   0.290
 3661SOL    HW111315   2.021   1.349   0.263
 3661SOL    HW211316   2.129   1.401   0.374
 3662SOL     OW11317   1.967   1.013   1.726
 3662SOL    HW111318   1.890   0.980   1.780
 3662SOL    HW211319   2.052   0.983   1.768
 3663SOL     OW11320   2.534   0.203   1.489
 3663SOL    HW111321   2.624   0.187   1.449
 3663SOL    HW211322   2.542   0.208   1.588
 3664SOL     OW11323   1.937   0.345   0.033
 3664SOL    HW111324   1.845   0.317   0.004
 3664SOL    HW211325   1.968   0.422  -0.023
 3665SOL     OW11326   3.302   0.856   1.398
 3665SOL    HW111327   3.245   0.908   1.335
 3665SOL    HW211328   3.398   0.868   1.374
 3666SOL     OW11329   1.934   0.166   0.318
 3666SOL    HW111330   1.917   0.249   0.264
 3666SOL    HW211331   2.024   0.129   0.296
 3667SOL     OW11332   3.045   1.335   0.119
 3667SOL    HW111333   2.946   1.324   0.121
 3667SOL    HW211334   3.079   1.350   0.212
 3668SOL     OW11335   2.475   0.842   1.431
 3668SOL    HW111336   2.531   0.923   1.414
 3668SOL    HW211337   2.534   0.762   1.434
 3669SOL     OW11338   3.355   1.767   0.959
 3669SOL    HW111339   3.388   1.831   0.890
 3669SOL    HW211340   3.421   1.761   1.034
 3670SOL     OW11341   2.578   0.565   1.708
 3670SOL    HW111342   2.597   0.630   1.782
 3670SOL    HW211343   2.638   0.485   1.717
 3671SOL     OW11344   3.312   1.220   1.633
 3671SOL    HW111345   3.303   1.210   1.732
 3671SOL    HW211346   3.408   1.213   1.607
 3672SOL     OW11347   2.252   1.741   1.560
 3672SOL    HW111348   2.161   1.782   1.558
 3672SOL    HW211349   2.245   1.647   1.592
 3673SOL     OW11350   3.536   0.883   1.254
 3673SOL    HW111351   3.509   0.794   1.217
 3673SOL    HW211352   3.537   0.951   1.181
 3674SOL     OW11353   3.087   0.325   0.449
 3674SOL    HW111354   3.152   0.251   0.438
 3674SOL    HW211355   3.107   0.375   0.533
 3675SOL     OW11356   2.456   0.745   0.652
 3675SOL    HW111357   2.506   0.830   0.633
 3675SOL    HW211358   2.368   0.747   0.604
 3676SOL     OW11359   3.639   0.342   1.642
 3676SOL    HW111360   3.622   0.373   1.548
 3676SOL    HW211361   3.555   0.305   1.680
 3677SOL     OW11362   3.592   0.934   1.517
 3677SOL    HW111363   3.630   1.025   1.532
 3677SOL    HW211364   3.584   0.917   1.418
 3678SOL     OW11365   2.721   1.374   0.016
 3678SOL    HW111366   2.675   1.389   0.104
 3678SOL    HW211367   2.765   1.459  -0.014
 3679SOL     OW11368   2.523   1.790   0.953
 3679SOL    HW111369   2.477   1.878   0.940
 3679SOL    HW211370   2.622   1.802   0.946
 3680SOL     OW11371   2.721   0.956   0.861
 3680SOL    HW111372   2.775   0.887   0.909
 3680SOL    HW211373   2.689   1.025   0.927
 3681SOL     OW11374   2.945   0.984   0.087
 3681SOL    HW111375   2.922   1.037   0.005
 3681SOL    HW211376   3.026   0.928   0.068
 3682SOL     OW11377   3.723   1.569   0.851
 3682SOL    HW111378   3.652   1.557   0.781
 3682SOL    HW211379   3.724   1.490   0.911
 3683SOL     OW11380   2.083   1.314   1.844
 3683SOL    HW111381   2.018   1.241   1.823
 3683SOL    HW211382   2.087   1.328   1.942
 3684SOL     OW11383   1.941   1.240   0.653
 3684SOL    HW111384   1.940   1.193   0.741
 3684SOL    HW211385   2.023   1.212   0.602
 3685SOL     OW11386   2.534   1.391   1.624
 3685SOL    HW111387   2.456   1.341   1.662
 3685SOL    HW211388   2.531   1.486   1.655
 3686SOL     OW11389   3.686   0.192   1.227
 3686SOL    HW111390   3.682   0.102   1.271
 3686SOL    HW211391   3.689   0.181   1.128
 3687SOL     OW11392   2.290   0.424   0.520
 3687SOL    HW111393   2.320   0.352   0.458
 3687SOL    HW211394   2.251   0.384   0.603
 3688SOL     OW11395   3.567   1.487   1.104
 3688SOL    HW111396   3.474   1.462   1.077
 3688SOL    HW211397   3.593   1.437   1.186
 3689SOL     OW11398   2.179   0.547   1.280
 3689SOL    HW111399   2.217   0.488   1.352
 3689SOL    HW211400   2.219   0.521   1.192
 3690SOL     OW11401   2.674   1.586   0.687
 3690SOL    HW111402   2.706   1.596   0.593
 3690SOL    HW211403   2.595   1.524   0.689
 3691SOL     OW11404   3.286   0.214   1.112
 3691SOL    HW111405   3.338   0.149   1.167
 3691SOL    HW211406   3.237   0.277   1.173
 3692SOL     OW11407   2.863   0.034   1.154
 3692SOL    HW111408   2.800  -0.038   1.123
 3692SOL    HW211409   2.956  -0.002   1.154
 3693SOL     OW11410   2.632   1.330   0.301
 3693SOL    HW111411   2.586   1.243   0.318
 3693SOL    HW211412   2.723   1.327   0.342
 3694SOL     OW11413   2.480   1.567   1.284
 3694SOL    HW111414   2.475   1.649   1.341
 3694SOL    HW211415   2.569   1.564   1.239
 3695SOL     OW11416   3.214   0.052   0.168
 3695SOL    HW111417   3.249   0.011   0.084
 3695SOL    HW211418   3.124   0.014   0.188
 3696SOL     OW11419   3.162   0.453   0.691
 3696SOL    HW111420   3.103   0.533   0.695
 3696SOL    HW211421   3.177   0.418   0.784
 3697SOL     OW11422   3.455   0.221   0.882
 3697SOL    HW111423   3.371   0.220   0.936
 3697SOL    HW211424   3.457   0.304   0.826
 3698SOL     OW11425   1.901   1.077   0.300
 3698SOL    HW111426   2.000   1.066   0.291
 3698SOL    HW211427   1.861   0.991   0.332
 3699SOL     OW11428   2.737   1.646   0.337
 3699SOL    HW111429   2.660   1.611   0.283
 3699SOL    HW211430   2.705   1.717   0.399
 3700SOL     OW11431   2.092   0.628   1.975
 3700SOL    HW111432   1.999   0.626   2.012
 3700SOL    HW211433   2.093   0.589   1.883
 3701SOL     OW11434   2.087   0.275   2.858
 3701SOL    HW111435   2.122   0.258   2.950
 3701SOL    HW211436   1.999   0.230   2.846
 3702SOL     OW11437   1.881   0.368   2.509
 3702SOL    HW111438   1.799   0.411   2.548
 3702SOL    HW211439   1.853   0.295   2.446
 3703SOL     OW11440   2.431   1.275   3.027
 3703SOL    HW111441   2.338   1.268   2.990
 3703SOL    HW211442   2.442   1.364   3.071
 3704SOL     OW11443   3.417   1.511   2.565
 3704SOL    HW111444   3.360   1.495   2.646
 3704SOL    HW211445   3.358   1.521   2.485
 3705SOL     OW11446   2.997   0.703   2.579
 3705SOL    HW111447   3.054   0.781   2.554
 3705SOL    HW211448   2.937   0.729   2.655
 3706SOL     OW11449   3.617   0.607   2.093
 3706SOL    HW111450   3.605   0.594   1.994
 3706SOL    HW211451   3.587   0.526   2.142
 3707SOL     OW11452   2.630   1.144   2.885
 3707SOL    HW111453   2.552   1.161   2.945
 3707SOL    HW211454   2.664   1.231   2.849
 3708SOL     OW11455   2.712   0.798   3.685
 3708SOL    HW111456   2.708   0.874   3.750
 3708SOL    HW211457   2.734   0.834   3.594
 3709SOL     OW11458   2.547   1.012   2.527
 3709SOL    HW111459   2.616   0.996   2.597
 3709SOL    HW211460   2.474   1.069   2.565
 3710SOL     OW11461   2.548   1.161   3.665
 3710SOL    HW111462   2.608   1.240   3.679
 3710SOL    HW211463   2.462   1.192   3.624
 3711SOL     OW11464   2.197   1.435   2.923
 3711SOL    HW111465   2.119   1.404   2.870
 3711SOL    HW211466   2.255   1.493   2.866
 3712SOL     OW11467   3.322   1.505   3.201
 3712SOL    HW111468   3.346   1.599   3.227
 3712SOL    HW211469   3.306   1.451   3.283
 3713SOL     OW11470   2.300   0.392   3.361
 3713SOL    HW111471   2.382   0.336   3.370
 3713SOL    HW211472   2.219   0.334   3.365
 3714SOL     OW11473   3.465   0.447   2.599
 3714SOL    HW111474   3.391   0.493   2.549
 3714SOL    HW211475   3.516   0.515   2.652
 3715SOL     OW11476   2.093   1.713   2.345
 3715SOL    HW111477   2.127   1.790   2.399
 3715SOL    HW211478   2.137   1.713   2.255
 3716SOL     OW11479   2.989   1.341   3.552
 3716SOL    HW111480   3.036   1.341   3.640
 3716SOL    HW211481   2.941   1.254   3.541
 3717SOL     OW11482   2.092   1.434   2.400
 3717SOL    HW111483   2.066   1.530   2.400
 3717SOL    HW211484   2.021   1.380   2.445
 3718SOL     OW11485   2.102   1.091   2.748
 3718SOL    HW111486   2.116   1.007   2.800
 3718SOL    HW211487   2.047   1.155   2.803
 3719SOL     OW11488   2.482   1.786   3.301
 3719SOL    HW111489   2.390   1.769   3.336
 3719SOL    HW211490   2.510   1.878   3.327
 3720SOL     OW11491   2.468   0.964   1.985
 3720SOL    HW111492   2.475   1.048   1.931
 3720SOL    HW211493   2.514   0.977   2.073
 3721SOL     OW11494   3.456   0.114   3.342
 3721SOL    HW111495   3.438   0.181   3.270
 3721SOL    HW211496   3.453   0.160   3.431
 3722SOL     OW11497   1.984   0.643   2.425
 3722SOL    HW111498   1.939   0.555   2.442
 3722SOL    HW211499   1.983   0.697   2.509
 3723SOL     OW11500   3.704   1.767   2.221
 3723SOL    HW111501   3.758   1.738   2.301
 3723SOL    HW211502   3.734   1.857   2.192
 3724SOL     OW11503   1.889   1.596   1.979
 3724SOL    HW111504   1.870   1.500   2.000
 3724SOL    HW211505   1.856   1.654   2.054
 3725SOL     OW11506   3.551   0.922   2.474
 3725SOL    HW111507   3.646   0.893   2.482
 3725SOL    HW211508   3.543   0.987   2.399
 3726SOL     OW11509   3.503   1.108   2.294
 3726SOL    HW111510   3.589   1.110   2.242
 3726SOL    HW211511   3.517   1.155   2.382
 3727SOL     OW11512   1.975   0.737   3.459
 3727SOL    HW111513   2.063   0.724   3.504
 3727SOL    HW211514   1.962   0.834   3.437
 3728SOL     OW11515   2.475   1.365   2.588
 3728SOL    HW111516   2.426   1.278   2.597
 3728SOL    HW211517   2.452   1.408   2.501
 3729SOL     OW11518   3.155   1.228   3.285
 3729SOL    HW111519   3.192   1.155   3.227
 3729SOL    HW211520   3.207   1.233   3.370
 3730SOL     OW11521   2.671   0.004   2.364
 3730SOL    HW111522   2.711   0.095   2.355
 3730SOL    HW211523   2.571   0.012   2.370
 3731SOL     OW11524   2.059   0.976   3.126
 3731SOL    HW111525   2.148   0.931   3.112
 3731SOL    HW211526   1.986   0.911   3.107
 3732SOL     OW11527   3.387   0.999   2.052
 3732SOL    HW111528   3.324   0.923   2.065
 3732SOL    HW211529   3.435   1.017   2.138
 3733SOL     OW11530   3.049   1.792   3.478
 3733SOL    HW111531   3.073   1.852   3.402
 3733SOL    HW211532   3.056   1.697   3.448
 3734SOL     OW11533   2.179   0.251   3.663
 3734SOL    HW111534   2.250   0.322   3.669
 3734SOL    HW211535   2.091   0.290   3.691
 3735SOL     OW11536   3.328   1.417   2.815
 3735SOL    HW111537   3.269   1.423   2.895
 3735SOL    HW211538   3.313   1.329   2.769
 3736SOL     OW11539   3.529   1.714   2.434
 3736SOL    HW111540   3.488   1.691   2.346
 3736SOL    HW211541   3.511   1.640   2.499
 3737SOL     OW11542   2.460   0.729   2.132
 3737SOL    HW111543   2.484   0.798   2.064
 3737SOL    HW211544   2.382   0.762   2.186
 3738SOL     OW11545   3.143   0.345   2.806
 3738SOL    HW111546   3.057   0.295   2.793
 3738SOL    HW211547   3.205   0.291   2.862
 3739SOL     OW11548   3.438   1.662   2.169
 3739SOL    HW111549   3.527   1.708   2.172
 3739SOL    HW211550   3.417   1.638   2.074
 3740SOL     OW11551   2.669   0.605   3.327
 3740SOL    HW111552   2.622   0.602   3.416
 3740SOL    HW211553   2.618   0.550   3.261
 3741SOL     OW11554   3.256   0.469   3.536
 3741SOL    HW111555   3.236   0.512   3.624
 3741SOL    HW211556   3.334   0.407   3.545
 3742SOL     OW11557   2.835   0.890   3.434
 3742SOL    HW111558   2.881   0.806   3.405
 3742SOL    HW211559   2.779   0.924   3.359
 3743SOL     OW11560   2.853   0.410   3.104
 3743SOL    HW111561   2.776   0.444   3.158
 3743SOL    HW211562   2.819   0.359   3.025
 3744SOL     OW11563   2.903   0.701   2.291
 3744SOL    HW111564   2.929   0.697   2.387
 3744SOL    HW211565   2.818   0.650   2.277
 3745SOL     OW11566   1.938   0.811   2.651
 3745SOL    HW111567   2.037   0.799   2.660
 3745SOL    HW211568   1.914   0.906   2.672
 3746SOL     OW11569   1.992   1.821   3.433
 3746SOL    HW111570   1.982   1.806   3.532
 3746SOL    HW211571   1.906   1.857   3.397
 3747SOL     OW11572   2.727   0.348   2.057
 3747SOL    HW111573   2.786   0.411   2.008
 3747SOL    HW211574   2.746   0.254   2.028
 3748SOL     OW11575   3.581   0.585   3.693
 3748SOL    HW111576   3.555   0.674   3.657
 3748SOL    HW211577   3.579   0.517   3.620
 3749SOL     OW11578   3.224   1.144   2.407
 3749SOL    HW111579   3.307   1.115   2.359
 3749SOL    HW211580   3.175   1.211   2.351
 3750SOL     OW11581   2.412   0.196   2.747
 3750SOL    HW111582   2.407   0.191   2.847
 3750SOL    HW211583   2.414   0.292   2.718
 3751SOL     OW11584   2.870   1.456   2.339
 3751SOL    HW111585   2.824   1.528   2.287
 3751SOL    HW211586   2.866   1.476   2.437
 3752SOL     OW11587   2.213   1.801   2.715
 3752SOL    HW111588   2.263   1.715   2.721
 3752SOL    HW211589   2.278   1.878   2.712
 3753SOL     OW11590   3.657   1.066   2.735
 3753SOL    HW111591   3.595   1.051   2.659
 3753SOL    HW211592   3.605   1.077   2.820
 3754SOL     OW11593   3.089   1.550   3.368
 3754SOL    HW111594   3.095   1.473   3.432
 3754SOL    HW211595   3.037   1.524   3.288
 3755SOL     OW11596   2.183   0.943   2.104
 3755SOL    HW111597   2.265   0.982   2.062
 3755SOL    HW211598   2.156   0.861   2.055
 3756SOL     OW11599   3.320   0.735   2.590
 3756SOL    HW111600   3.315   0.670   2.665
 3756SOL    HW211601   3.400   0.794   2.603
 3757SOL     OW11602   2.323   1.266   3.589
 3757SOL    HW111603   2.273   1.267   3.503
 3757SOL    HW211604   2.260   1.248   3.665
 3758SOL     OW11605   2.973   1.776   2.099
 3758SOL    HW111606   2.913   1.714   2.149
 3758SOL    HW211607   3.004   1.732   2.014
 3759SOL     OW11608   2.064   0.285   3.360
 3759SOL    HW111609   1.984   0.345   3.347
 3759SOL    HW211610   2.054   0.236   3.446
 3760SOL     OW11611   3.494   1.377   1.943
 3760SOL    HW111612   3.462   1.471   1.933
 3760SOL    HW211613   3.418   1.314   1.931
 3761SOL     OW11614   2.326   1.743   2.185
 3761SOL    HW111615   2.359   1.782   2.271
 3761SOL    HW211616   2.402   1.736   2.120
 3762SOL     OW11617   3.262   0.107   2.288
 3762SOL    HW111618   3.238   0.070   2.198
 3762SOL    HW211619   3.361   0.123   2.292
 3763SOL     OW11620   2.111   1.785   3.103
 3763SOL    HW111621   2.168   1.720   3.153
 3763SOL    HW211622   2.095   1.752   3.010
 3764SOL     OW11623   2.802   1.698   2.766
 3764SOL    HW111624   2.882   1.641   2.787
 3764SOL    HW211625   2.753   1.658   2.689
 3765SOL     OW11626   2.244   0.700   2.342
 3765SOL    HW111627   2.289   0.610   2.339
 3765SOL    HW211628   2.150   0.689   2.375
 3766SOL     OW11629   3.409   0.222   3.591
 3766SOL    HW111630   3.404   0.259   3.683
 3766SOL    HW211631   3.337   0.153   3.579
 3767SOL     OW11632   2.476   0.122   1.979
 3767SOL    HW111633   2.574   0.100   1.986
 3767SOL    HW211634   2.445   0.105   1.886
 3768SOL     OW11635   2.643   0.264   3.611
 3768SOL    HW111636   2.710   0.203   3.654
 3768SOL    HW211637   2.570   0.283   3.676
 3769SOL     OW11638   2.750   1.514   3.057
 3769SOL    HW111639   2.727   1.489   2.963
 3769SOL    HW211640   2.811   1.445   3.096
 3770SOL     OW11641   3.213   0.590   3.295
 3770SOL    HW111642   3.241   0.547   3.380
 3770SOL    HW211643   3.238   0.686   3.296
 3771SOL     OW11644   2.665   1.402   2.786
 3771SOL    HW111645   2.755   1.416   2.744
 3771SOL    HW211646   2.594   1.404   2.715
 3772SOL     OW11647   2.784   0.503   2.761
 3772SOL    HW111648   2.759   0.494   2.665
 3772SOL    HW211649   2.832   0.421   2.792
 3773SOL     OW11650   2.401   0.064   2.374
 3773SOL    HW111651   2.320   0.065   2.432
 3773SOL    HW211652   2.404   0.147   2.319
 3774SOL     OW11653   3.296   1.188   1.903
 3774SOL    HW111654   3.328   1.112   1.960
 3774SOL    HW211655   3.204   1.215   1.933
 3775SOL     OW11656   2.159   0.035   2.033
 3775SOL    HW111657   2.208   0.119   2.012
 3775SOL    HW211658   2.221  -0.030   2.078
 3776SOL     OW11659   2.797   0.236   2.342
 3776SOL    HW111660   2.749   0.277   2.264
 3776SOL    HW211661   2.896   0.234   2.323
 3777SOL     OW11662   2.938   0.683   3.326
 3777SOL    HW111663   2.858   0.622   3.329
 3777SOL    HW211664   3.019   0.630   3.302
 3778SOL     OW11665   3.089   1.570   2.655
 3778SOL    HW111666   3.110   1.644   2.590
 3778SOL    HW211667   3.157   1.570   2.728
 3779SOL     OW11668   2.321   1.152   2.603
 3779SOL    HW111669   2.250   1.125   2.668
 3779SOL    HW211670   2.295   1.124   2.510
 3780SOL     OW11671   3.133   1.797   2.453
 3780SOL    HW111672   3.177   1.861   2.389
 3780SOL    HW211673   3.083   1.849   2.523
 3781SOL     OW11674   2.894   0.549   1.878
 3781SOL    HW111675   2.853   0.631   1.839
 3781SOL    HW211676   2.958   0.575   1.951
 3782SOL     OW11677   1.940   0.556   3.248
 3782SOL    HW111678   2.032   0.555   3.207
 3782SOL    HW211679   1.934   0.630   3.315
 3783SOL     OW11680   2.423   0.222   3.009
 3783SOL    HW111681   2.461   0.138   3.046
 3783SOL    HW211682   2.335   0.241   3.053
 3784SOL     OW11683   2.728   0.454   2.504
 3784SOL    HW111684   2.696   0.526   2.442
 3784SOL    HW211685   2.752   0.373   2.451
 3785SOL     OW11686   2.879   0.039   2.615
 3785SOL    HW111687   2.807   0.044   2.546
 3785SOL    HW211688   2.855  -0.030   2.684
 3786SOL     OW11689   3.291   1.173   2.729
 3786SOL    HW111690   3.236   1.089   2.722
 3786SOL    HW211691   3.317   1.202   2.637
 3787SOL     OW11692   3.328   0.590   2.854
 3787SOL    HW111693   3.298   0.495   2.861
 3787SOL    HW211694   3.401   0.606   2.920
 3788SOL     OW11695   3.719   0.833   2.239
 3788SOL    HW111696   3.761   0.769   2.303
 3788SOL    HW211697   3.681   0.782   2.161
 3789SOL     OW11698   2.350   1.385   2.036
 3789SOL    HW111699   2.263   1.370   2.083
 3789SOL    HW211700   2.333   1.411   1.941
 3790SOL     OW11701   3.526   1.280   2.519
 3790SOL    HW111702   3.625   1.288   2.533
 3790SOL    HW211703   3.481   1.364   2.550
 3791SOL     OW11704   3.252   0.575   1.940
 3791SOL    HW111705   3.198   0.554   2.021
 3791SOL    HW211706   3.343   0.534   1.949
 3792SOL     OW11707   2.389   0.256   2.190
 3792SOL    HW111708   2.416   0.197   2.115
 3792SOL    HW211709   2.389   0.351   2.159
 3793SOL     OW11710   3.616   1.223   3.450
 3793SOL    HW111711   3.707   1.184   3.437
 3793SOL    HW211712   3.624   1.319   3.474
 3794SOL     OW11713   2.926   1.347   3.202
 3794SOL    HW111714   2.846   1.324   3.257
 3794SOL    HW211715   3.009   1.321   3.251
 3795SOL     OW11716   3.454   1.629   3.487
 3795SOL    HW111717   3.481   1.663   3.397
 3795SOL    HW211718   3.533   1.591   3.533
 3796SOL     OW11719   2.973   1.195   2.962
 3796SOL    HW111720   2.933   1.239   3.043
 3796SOL    HW211721   2.932   1.232   2.879
 3797SOL     OW11722   3.500   1.099   2.941
 3797SOL    HW111723   3.505   1.180   3.000
 3797SOL    HW211724   3.414   1.101   2.890
 3798SOL     OW11725   2.777   0.089   3.264
 3798SOL    HW111726   2.802   0.069   3.169
 3798SOL    HW211727   2.849   0.145   3.306
 3799SOL     OW11728   2.842   1.116   3.581
 3799SOL    HW111729   2.743   1.122   3.591
 3799SOL    HW211730   2.865   1.036   3.525
 3800SOL     OW11731   2.567   1.050   2.230
 3800SOL    HW111732   2.553   1.057   2.329
 3800SOL    HW211733   2.651   0.999   2.212
 3801SOL     OW11734   2.272   0.813   3.113
 3801SOL    HW111735   2.358   0.825   3.163
 3801SOL    HW211736   2.230   0.726   3.140
 3802SOL     OW11737   3.136   0.386   3.124
 3802SOL    HW111738   3.157   0.460   3.188
 3802SOL    HW211739   3.047   0.403   3.081
 3803SOL     OW11740   1.926   1.564   3.193
 3803SOL    HW111741   1.880   1.646   3.159
 3803SOL    HW211742   2.024   1.583   3.202
 3804SOL     OW11743   2.229   1.100   2.363
 3804SOL    HW111744   2.222   1.183   2.307
 3804SOL    HW211745   2.233   1.020   2.303
 3805SOL     OW11746   2.428   0.537   2.727
 3805SOL    HW111747   2.440   0.603   2.653
 3805SOL    HW211748   2.474   0.571   2.810
 3806SOL     OW11749   3.114   1.348   2.250
 3806SOL    HW111750   3.164   1.425   2.290
 3806SOL    HW211751   3.019   1.350   2.282
 3807SOL     OW11752   3.134   1.445   3.004
 3807SOL    HW111753   3.181   1.458   3.091
 3807SOL    HW211754   3.068   1.371   3.013
 3808SOL     OW11755   3.444   0.639   2.334
 3808SOL    HW111756   3.413   0.700   2.407
 3808SOL    HW211757   3.494   0.691   2.265
 3809SOL     OW11758   2.216   1.510   3.191
 3809SOL    HW111759   2.195   1.466   3.104
 3809SOL    HW211760   2.313   1.536   3.194
 3810SOL     OW11761   2.264   0.751   3.460
 3810SOL    HW111762   2.332   0.806   3.413
 3810SOL    HW211763   2.304   0.663   3.487
 3811SOL     OW11764   3.449   0.779   3.532
 3811SOL    HW111765   3.357   0.817   3.527
 3811SOL    HW211766   3.509   0.826   3.467
 3812SOL     OW11767   2.875   0.105   3.632
 3812SOL    HW111768   2.881   0.190   3.580
 3812SOL    HW211769   2.907   0.029   3.575
 3813SOL     OW11770   2.366   0.050   3.602
 3813SOL    HW111771   2.324  -0.007   3.532
 3813SOL    HW211772   2.300   0.119   3.634
 3814SOL     OW11773   2.435   0.870   2.891
 3814SOL    HW111774   2.479   0.959   2.882
 3814SOL    HW211775   2.372   0.870   2.968
 3815SOL     OW11776   3.222   0.862   2.907
 3815SOL    HW111777   3.147   0.862   2.841
 3815SOL    HW211778   3.259   0.770   2.916
 3816SOL     OW11779   3.071   0.525   2.137
 3816SOL    HW111780   3.084   0.441   2.191
 3816SOL    HW211781   3.042   0.599   2.197
 3817SOL     OW11782   2.169   0.213   3.093
 3817SOL    HW111783   2.146   0.250   3.183
 3817SOL    HW211784   2.139   0.118   3.087
 3818SOL     OW11785   1.899   1.310   3.144
 3818SOL    HW111786   1.952   1.261   3.212
 3818SOL    HW211787   1.921   1.408   3.149
 3819SOL     OW11788   2.594   0.634   2.926
 3819SOL    HW111789   2.653   0.608   2.850
 3819SOL    HW211790   2.566   0.730   2.915
 3820SOL     OW11791   3.590   0.935   3.716
 3820SOL    HW111792   3.544   0.928   3.627
 3820SOL    HW211793   3.528   0.979   3.782
 3821SOL     OW11794   2.169   0.063   2.480
 3821SOL    HW111795   2.158   0.157   2.513
 3821SOL    HW211796   2.164   0.000   2.557
 3822SOL     OW11797   3.484   0.367   2.236
 3822SOL    HW111798   3.486   0.291   2.300
 3822SOL    HW211799   3.436   0.444   2.276
 3823SOL     OW11800   2.885   0.766   2.828
 3823SOL    HW111801   2.900   0.787   2.924
 3823SOL    HW211802   2.855   0.671   2.819
 3824SOL     OW11803   2.842   1.573   3.562
 3824SOL    HW111804   2.822   1.617   3.474
 3824SOL    HW211805   2.881   1.482   3.546
 3825SOL     OW11806   3.721   1.518   3.467
 3825SOL    HW111807   3.735   1.545   3.372
 3825SOL    HW211808   3.804   1.540   3.520
 3826SOL     OW11809   2.212   0.898   3.666
 3826SOL    HW111810   2.288   0.942   3.714
 3826SOL    HW211811   2.247   0.851   3.584
 3827SOL     OW11812   3.402   0.274   1.987
 3827SOL    HW111813   3.341   0.199   2.010
 3827SOL    HW211814   3.424   0.326   2.070
 3828SOL     OW11815   3.165   0.838   1.904
 3828SOL    HW111816   3.199   0.745   1.919
 3828SOL    HW211817   3.183   0.865   1.809
 3829SOL     OW11818   2.930   1.333   2.711
 3829SOL    HW111819   2.937   1.249   2.656
 3829SOL    HW211820   2.992   1.402   2.675
 3830SOL     OW11821   2.181   0.810   2.811
 3830SOL    HW111822   2.274   0.846   2.816
 3830SOL    HW211823   2.175   0.725   2.863
 3831SOL     OW11824   2.201   0.509   2.868
 3831SOL    HW111825   2.149   0.426   2.851
 3831SOL    HW211826   2.278   0.514   2.804
 3832SOL     OW11827   3.000   0.380   3.540
 3832SOL    HW111828   2.955   0.443   3.604
 3832SOL    HW211829   3.093   0.411   3.523
 3833SOL     OW11830   3.022   0.207   3.339
 3833SOL    HW111831   3.022   0.271   3.416
 3833SOL    HW211832   3.050   0.255   3.256
 3834SOL     OW11833   1.870   1.326   2.062
 3834SOL    HW111834   1.777   1.347   2.031
 3834SOL    HW211835   1.880   1.227   2.075
 3835SOL     OW11836   1.950   1.801   2.789
 3835SOL    HW111837   1.908   1.715   2.762
 3835SOL    HW211838   2.044   1.804   2.755
 3836SOL     OW11839   2.366   1.568   2.772
 3836SOL    HW111840   2.432   1.642   2.781
 3836SOL    HW211841   2.410   1.489   2.730
 3837SOL     OW11842   2.864   0.796   3.100
 3837SOL    HW111843   2.905   0.764   3.186
 3837SOL    HW211844   2.768   0.769   3.097
 3838SOL     OW11845   1.902   0.544   2.976
 3838SOL    HW111846   1.987   0.511   2.935
 3838SOL    HW211847   1.915   0.559   3.074
 3839SOL     OW11848   2.051   0.520   3.584
 3839SOL    HW111849   2.110   0.480   3.514
 3839SOL    HW211850   1.993   0.591   3.543
 3840SOL     OW11851   3.231   0.950   3.522
 3840SOL    HW111852   3.270   1.039   3.542
 3840SOL    HW211853   3.241   0.930   3.425
 3841SOL     OW11854   2.677   0.572   2.187
 3841SOL    HW111855   2.684   0.483   2.141
 3841SOL    HW211856   2.583   0.606   2.179
 3842SOL     OW11857   3.519   0.604   3.068
 3842SOL    HW111858   3.481   0.535   3.130
 3842SOL    HW211859   3.601   0.568   3.024
 3843SOL     OW11860   2.114   1.564   3.606
 3843SOL    HW111861   2.084   1.621   3.682
 3843SOL    HW211862   2.107   1.467   3.632
 3844SOL     OW11863   2.533   0.464   3.131
 3844SOL    HW111864   2.499   0.375   3.101
 3844SOL    HW211865   2.559   0.518   3.051
 3845SOL     OW11866   2.792   1.678   3.327
 3845SOL    HW111867   2.768   1.660   3.232
 3845SOL    HW211868   2.822   1.772   3.337
 3846SOL     OW11869   2.335   0.500   2.053
 3846SOL    HW111870   2.396   0.580   2.057
 3846SOL    HW211871   2.240   0.531   2.060
 3847SOL     OW11872   2.021   1.137   3.328
 3847SOL    HW111873   2.043   1.076   3.404
 3847SOL    HW211874   2.031   1.088   3.242
 3848SOL     OW11875   3.209   1.059   3.096
 3848SOL    HW111876   3.233   0.996   3.022
 3848SOL    HW211877   3.119   1.099   3.078
 3849SOL     OW11878   3.164   0.855   2.171
 3849SOL    HW111879   3.078   0.824   2.213
 3849SOL    HW211880   3.160   0.841   2.072
 3850SOL     OW11881   3.621   1.747   3.016
 3850SOL    HW111882   3.682   1.777   2.943
 3850SOL    HW211883   3.583   1.658   2.994
 3851SOL     OW11884   3.114   1.731   2.990
 3851SOL    HW111885   3.198   1.736   2.936
 3851SOL    HW211886   3.091   1.635   3.008
 3852SOL     OW11887   1.945   1.258   2.884
 3852SOL    HW111888   1.940   1.257   2.984
 3852SOL    HW211889   1.862   1.217   2.846
 3853SOL     OW11890   2.550   1.662   3.578
 3853SOL    HW111891   2.494   1.743   3.587
 3853SOL    HW211892   2.602   1.666   3.492
 3854SOL     OW11893   3.588   0.135   2.385
 3854SOL    HW111894   3.661   0.118   2.318
 3854SOL    HW211895   3.557   0.048   2.423
 3855SOL     OW11896   3.250   1.573   2.339
 3855SOL    HW111897   3.317   1.585   2.265
 3855SOL    HW211898   3.210   1.662   2.362
 3856SOL     OW11899   1.992   1.794   3.713
 3856SOL    HW111900   1.951   1.720   3.766
 3856SOL    HW211901   2.056   1.845   3.771
 3857SOL     OW11902   3.142   0.927   2.534
 3857SOL    HW111903   3.202   0.846   2.536
 3857SOL    HW211904   3.182   0.996   2.474
 3858SOL     OW11905   2.692   1.273   3.284
 3858SOL    HW111906   2.687   1.306   3.379
 3858SOL    HW211907   2.606   1.292   3.238
 3859SOL     OW11908   2.534   1.616   2.016
 3859SOL    HW111909   2.543   1.626   1.917
 3859SOL    HW211910   2.494   1.527   2.037
 3860SOL     OW11911   3.512   1.720   3.256
 3860SOL    HW111912   3.565   1.730   3.172
 3860SOL    HW211913   3.485   1.810   3.290
 3861SOL     OW11914   3.703   0.175   2.825
 3861SOL    HW111915   3.742   0.090   2.789
 3861SOL    HW211916   3.605   0.177   2.806
 3862SOL     OW11917   2.125   0.326   2.582
 3862SOL    HW111918   2.046   0.377   2.548
 3862SOL    HW211919   2.116   0.311   2.680
 3863SOL     OW11920   3.056   1.612   1.893
 3863SOL    HW111921   3.062   1.519   1.930
 3863SOL    HW211922   2.997   1.612   1.813
 3864SOL     OW11923   2.684   1.002   3.234
 3864SOL    HW111924   2.724   1.001   3.142
 3864SOL    HW211925   2.694   1.094   3.274
 3865SOL     OW11926   2.778   0.910   2.153
 3865SOL    HW111927   2.841   0.948   2.085
 3865SOL    HW211928   2.818   0.827   2.192
 3866SOL     OW11929   3.366   1.607   1.906
 3866SOL    HW111930   3.274   1.644   1.913
 3866SOL    HW211931   3.404   1.627   1.816
 3867SOL     OW11932   2.234   1.288   3.352
 3867SOL    HW111933   2.221   1.381   3.318
 3867SOL    HW211934   2.150   1.236   3.339
 3868SOL     OW11935   3.476   1.292   3.151
 3868SOL    HW111936   3.536   1.295   3.231
 3868SOL    HW211937   3.401   1.356   3.164
 3869SOL     OW11938   2.901   1.098   2.558
 3869SOL    HW111939   2.831   1.051   2.612
 3869SOL    HW211940   2.960   1.030   2.515
 3870SOL     OW11941   2.876   0.236   2.833
 3870SOL    HW111942   2.868   0.200   2.740
 3870SOL    HW211943   2.874   0.160   2.898
 3871SOL     OW11944   2.452   1.487   2.353
 3871SOL    HW111945   2.494   1.429   2.283
 3871SOL    HW211946   2.408   1.566   2.309
 3872SOL     OW11947   3.571   0.385   3.243
 3872SOL    HW111948   3.644   0.454   3.247
 3872SOL    HW211949   3.599   0.310   3.184
 3873SOL     OW11950   2.117   1.348   2.152
 3873SOL    HW111951   2.021   1.349   2.125
 3873SOL    HW211952   2.129   1.401   2.236
 3874SOL     OW11953   1.967   1.013   3.588
 3874SOL    HW111954   1.890   0.980   3.642
 3874SOL    HW211955   2.052   0.983   3.630
 3875SOL     OW11956   2.534   0.203   3.351
 3875SOL    HW111957   2.624   0.187   3.311
 3875SOL    HW211958   2.542   0.208   3.450
 3876SOL     OW11959   1.937   0.345   1.895
 3876SOL    HW111960   1.845   0.317   1.866
 3876SOL    HW211961   1.968   0.422   1.839
 3877SOL     OW11962   3.302   0.856   3.260
 3877SOL    HW111963   3.245   0.908   3.197
 3877SOL    HW211964   3.398   0.868   3.236
 3878SOL     OW11965   1.934   0.166   2.180
 3878SOL    HW111966   1.917   0.249   2.126
 3878SOL    HW211967   2.024   0.129   2.158
 3879SOL     OW11968   3.045   1.335   1.981
 3879SOL    HW111969   2.946   1.324   1.983
 3879SOL    HW211970   3.079   1.350   2.074
 3880SOL     OW11971   2.475   0.842   3.293
 3880SOL    HW111972   2.531   0.923   3.276
 3880SOL    HW211973   2.534   0.762   3.296
 3881SOL     OW11974   3.355   1.767   2.821
 3881SOL    HW111975   3.388   1.831   2.752
 3881SOL    HW211976   3.421   1.761   2.896
 3882SOL     OW11977   2.578   0.565   3.570
 3882SOL    HW111978   2.597   0.630   3.644
 3882SOL    HW211979   2.638   0.485   3.579
 3883SOL     OW11980   3.312   1.220   3.495
 3883SOL    HW111981   3.303   1.210   3.594
 3883SOL    HW211982   3.408   1.213   3.469
 3884SOL     OW11983   2.252   1.741   3.422
 3884SOL    HW111984   2.161   1.782   3.420
 3884SOL    HW211985   2.245   1.647   3.454
 3885SOL     OW11986   3.536   0.883   3.116
 3885SOL    HW111987   3.509   0.794   3.079
 3885SOL    HW211988   3.537   0.951   3.043
 3886SOL     OW11989   3.087   0.325   2.311
 3886SOL    HW111990   3.152   0.251   2.300
 3886SOL    HW211991   3.107   0.375   2.395
 3887SOL     OW11992   2.456   0.745   2.514
 3887SOL    HW111993   2.506   0.830   2.495
 3887SOL    HW211994   2.368   0.747   2.466
 3888SOL     OW11995   3.639   0.342   3.504
 3888SOL    HW111996   3.622   0.373   3.410
 3888SOL    HW211997   3.555   0.305   3.542
 3889SOL     OW11998   3.592   0.934   3.379
 3889SOL    HW111999   3.630   1.025   3.394
 3889SOL    HW212000   3.584   0.917   3.280
 3890SOL     OW12001   2.721   1.374   1.878
 3890SOL    HW112002   2.675   1.389   1.966
 3890SOL    HW212003   2.765   1.459   1.848
 3891SOL     OW12004   2.523   1.790   2.815
 3891SOL    HW112005   2.477   1.878   2.802
 3891SOL    HW212006   2.622   1.802   2.808
 3892SOL     OW12007   2.721   0.956   2.723
 3892SOL    HW112008   2.775   0.887   2.771
 3892SOL    HW212009   2.689   1.025   2.789
 3893SOL     OW12010   2.945   0.984   1.949
 3893SOL    HW112011   2.922   1.037   1.867
 3893SOL    HW212012   3.026   0.928   1.930
 3894SOL     OW12013   3.723   1.569   2.713
 3894SOL    HW112014   3.652   1.557   2.643
 3894SOL    HW212015   3.724   1.490   2.773
 3895SOL     OW12016   2.083   1.314   3.706
 3895SOL    HW112017   2.018   1.241   3.685
 3895SOL    HW212018   2.087   1.328   3.804
 3896SOL     OW12019   1.941   1.240   2.515
 3896SOL    HW112020   1.940   1.193   2.603
 3896SOL    HW212021   2.023   1.212   2.464
 3897SOL     OW12022   2.534   1.391   3.486
 3897SOL    HW112023   2.456   1.341   3.524
 3897SOL    HW212024   2.531   1.486   3.517
 3898SOL     OW12025   3.686   0.192   3.089
 3898SOL    HW112026   3.682   0.102   3.133
 3898SOL    HW212027   3.689   0.181   2.990
 3899SOL     OW12028   2.290   0.424   2.382
 3899SOL    HW112029   2.320   0.352   2.320
 3899SOL    HW212030   2.251   0.384   2.465
 3900SOL     OW12031   3.567   1.487   2.966
 3900SOL    HW112032   3.474   1.462   2.939
 3900SOL    HW212033   3.593   1.437   3.048
 3901SOL     OW12034   2.179   0.547   3.142
 3901SOL    HW112035   2.217   0.488   3.214
 3901SOL    HW212036   2.219   0.521   3.054
 3902SOL     OW12037   2.674   1.586   2.549
 3902SOL    HW112038   2.706   1.596   2.455
 3902SOL    HW212039   2.595   1.524   2.551
 3903SOL     OW12040   3.286   0.214   2.974
 3903SOL    HW112041   3.338   0.149   3.029
 3903SOL    HW212042   3.237   0.277   3.035
 3904SOL     OW12043   2.863   0.034   3.016
 3904SOL    HW112044   2.800  -0.038   2.985
 3904SOL    HW212045   2.956  -0.002   3.016
 3905SOL     OW12046   2.632   1.330   2.163
 3905SOL    HW112047   2.586   1.243   2.180
 3905SOL    HW212048   2.723   1.327   2.204
 3906SOL     OW12049   2.480   1.567   3.146
 3906SOL    HW112050   2.475   1.649   3.203
 3906SOL    HW212051   2.569   1.564   3.101
 3907SOL     OW12052   3.214   0.052   2.030
 3907SOL    HW112053   3.249   0.011   1.946
 3907SOL    HW212054   3.124   0.014   2.050
 3908SOL     OW12055   3.162   0.453   2.553
 3908SOL    HW112056   3.103   0.533   2.557
 3908SOL    HW212057   3.177   0.418   2.646
 3909SOL     OW12058   3.455   0.221   2.744
 3909SOL    HW112059   3.371   0.220   2.798
 3909SOL    HW212060   3.457   0.304   2.688
 3910SOL     OW12061   1.901   1.077   2.162
 3910SOL    HW112062   2.000   1.066   2.153
 3910SOL    HW212063   1.861   0.991   2.194
 3911SOL     OW12064   2.737   1.646   2.199
 3911SOL    HW112065   2.660   1.611   2.145
 3911SOL    HW212066   2.705   1.717   2.261
 3912SOL     OW12067   2.092   0.628   3.837
 3912SOL    HW112068   1.999   0.626   3.874
 3912SOL    HW212069   2.093   0.589   3.745
 3913SOL     OW12070   2.087   0.275   4.720
 3913SOL    HW112071   2.122   0.258   4.812
 3913SOL    HW212072   1.999   0.230   4.708
 3914SOL     OW12073   1.881   0.368   4.371
 3914SOL    HW112074   1.799   0.411   4.410
 3914SOL    HW212075   1.853   0.295   4.308
 3915SOL     OW12076   2.431   1.275   4.889
 3915SOL    HW112077   2.338   1.268   4.852
 3915SOL    HW212078   2.442   1.364   4.933
 3916SOL     OW12079   3.417   1.511   4.427
 3916SOL    HW112080   3.360   1.495   4.508
 3916SOL    HW212081   3.358   1.521   4.347
 3917SOL     OW12082   2.997   0.703   4.441
 3917SOL    HW112083   3.054   0.781   4.416
 3917SOL    HW212084   2.937   0.729   4.517
 3918SOL     OW12085   3.617   0.607   3.955
 3918SOL    HW112086   3.605   0.594   3.856
 3918SOL    HW212087   3.587   0.526   4.004
 3919SOL     OW12088   2.630   1.144   4.747
 3919SOL    HW112089   2.552   1.161   4.807
 3919SOL    HW212090   2.664   1.231   4.711
 3920SOL     OW12091   2.712   0.798   5.547
 3920SOL    HW112092   2.708   0.874   5.612
 3920SOL    HW212093   2.734   0.834   5.456
 3921SOL     OW12094   2.547   1.012   4.389
 3921SOL    HW112095   2.616   0.996   4.459
 3921SOL    HW212096   2.474   1.069   4.427
 3922SOL     OW12097   2.548   1.161   5.527
 3922SOL    HW112098   2.608   1.240   5.541
 3922SOL    HW212099   2.462   1.192   5.486
 3923SOL     OW12100   2.197   1.435   4.785
 3923SOL    HW112101   2.119   1.404   4.732
 3923SOL    HW212102   2.255   1.493   4.728
 3924SOL     OW12103   3.322   1.505   5.063
 3924SOL    HW112104   3.346   1.599   5.089
 3924SOL    HW212105   3.306   1.451   5.145
 3925SOL     OW12106   2.300   0.392   5.223
 3925SOL    HW112107   2.382   0.336   5.232
 3925SOL    HW212108   2.219   0.334   5.227
 3926SOL     OW12109   3.465   0.447   4.461
 3926SOL    HW112110   3.391   0.493   4.411
 3926SOL    HW212111   3.516   0.515   4.514
 3927SOL     OW12112   2.093   1.713   4.207
 3927SOL    HW112113   2.127   1.790   4.261
 3927SOL    HW212114   2.137   1.713   4.117
 3928SOL     OW12115   2.989   1.341   5.414
 3928SOL    HW112116   3.036   1.341   5.502
 3928SOL    HW212117   2.941   1.254   5.403
 3929SOL     OW12118   2.092   1.434   4.262
 3929SOL    HW112119   2.066   1.530   4.262
 3929SOL    HW212120   2.021   1.380   4.307
 3930SOL     OW12121   2.102   1.091   4.610
 3930SOL    HW112122   2.116   1.007   4.662
 3930SOL    HW212123   2.047   1.155   4.665
 3931SOL     OW12124   2.482   1.786   5.163
 3931SOL    HW112125   2.390   1.769   5.198
 3931SOL    HW212126   2.510   1.878   5.189
 3932SOL     OW12127   2.468   0.964   3.847
 3932SOL    HW112128   2.475   1.048   3.793
 3932SOL    HW212129   2.514   0.977   3.935
 3933SOL     OW12130   3.456   0.114   5.204
 3933SOL    HW112131   3.438   0.181   5.132
 3933SOL    HW212132   3.453   0.160   5.293
 3934SOL     OW12133   1.984   0.643   4.287
 3934SOL    HW112134   1.939   0.555   4.304
 3934SOL    HW212135   1.983   0.697   4.371
 3935SOL     OW12136   3.704   1.767   4.083
 3935SOL    HW112137   3.758   1.738   4.163
 3935SOL    HW212138   3.734   1.857   4.054
 3936SOL     OW12139   1.889   1.596   3.841
 3936SOL    HW112140   1.870   1.500   3.862
 3936SOL    HW212141   1.856   1.654   3.916
 3937SOL     OW12142   3.551   0.922   4.336
 3937SOL    HW112143   3.646   0.893   4.344
 3937SOL    HW212144   3.543   0.987   4.261
 3938SOL     OW12145   3.503   1.108   4.156
 3938SOL    HW112146   3.589   1.110   4.104
 3938SOL    HW212147   3.517   1.155   4.244
 3939SOL     OW12148   1.975   0.737   5.321
 3939SOL    HW112149   2.063   0.724   5.366
 3939SOL    HW212150   1.962   0.834   5.299
 3940SOL     OW12151   2.475   1.365   4.450
 3940SOL    HW112152   2.426   1.278   4.459
 3940SOL    HW212153   2.452   1.408   4.363
 3941SOL     OW12154   3.155   1.228   5.147
 3941SOL    HW112155   3.192   1.155   5.089
 3941SOL    HW212156   3.207   1.233   5.232
 3942SOL     OW12157   2.671   0.004   4.226
 3942SOL    HW112158   2.711   0.095   4.217
 3942SOL    HW212159   2.571   0.012   4.232
 3943SOL     OW12160   2.059   0.976   4.988
 3943SOL    HW112161   2.148   0.931   4.974
 3943SOL    HW212162   1.986   0.911   4.969
 3944SOL     OW12163   3.387   0.999   3.914
 3944SOL    HW112164   3.324   0.923   3.927
 3944SOL    HW212165   3.435   1.017   4.000
 3945SOL     OW12166   3.049   1.792   5.340
 3945SOL    HW112167   3.073   1.852   5.264
 3945SOL    HW212168   3.056   1.697   5.310
 3946SOL     OW12169   2.179   0.251   5.525
 3946SOL    HW112170   2.250   0.322   5.531
 3946SOL    HW212171   2.091   0.290   5.553
 3947SOL     OW12172   3.328   1.417   4.677
 3947SOL    HW112173   3.269   1.423   4.757
 3947SOL    HW212174   3.313   1.329   4.631
 3948SOL     OW12175   3.529   1.714   4.296
 3948SOL    HW112176   3.488   1.691   4.208
 3948SOL    HW212177   3.511   1.640   4.361
 3949SOL     OW12178   2.460   0.729   3.994
 3949SOL    HW112179   2.484   0.798   3.926
 3949SOL    HW212180   2.382   0.762   4.048
 3950SOL     OW12181   3.143   0.345   4.668
 3950SOL    HW112182   3.057   0.295   4.655
 3950SOL    HW212183   3.205   0.291   4.724
 3951SOL     OW12184   3.438   1.662   4.031
 3951SOL    HW112185   3.527   1.708   4.034
 3951SOL    HW212186   3.417   1.638   3.936
 3952SOL     OW12187   2.669   0.605   5.189
 3952SOL    HW112188   2.622   0.602   5.278
 3952SOL    HW212189   2.618   0.550   5.123
 3953SOL     OW12190   3.256   0.469   5.398
 3953SOL    HW112191   3.236   0.512   5.486
 3953SOL    HW212192   3.334   0.407   5.407
 3954SOL     OW12193   2.835   0.890   5.296
 3954SOL    HW112194   2.881   0.806   5.267
 3954SOL    HW212195   2.779   0.924   5.221
 3955SOL     OW12196   2.853   0.410   4.966
 3955SOL    HW112197   2.776   0.444   5.020
 3955SOL    HW212198   2.819   0.359   4.887
 3956SOL     OW12199   2.903   0.701   4.153
 3956SOL    HW112200   2.929   0.697   4.249
 3956SOL    HW212201   2.818   0.650   4.139
 3957SOL     OW12202   1.938   0.811   4.513
 3957SOL    HW112203   2.037   0.799   4.522
 3957SOL    HW212204   1.914   0.906   4.534
 3958SOL     OW12205   1.992   1.821   5.295
 3958SOL    HW112206   1.982   1.806   5.394
 3958SOL    HW212207   1.906   1.857   5.259
 3959SOL     OW12208   2.727   0.348   3.919
 3959SOL    HW112209   2.786   0.411   3.870
 3959SOL    HW212210   2.746   0.254   3.890
 3960SOL     OW12211   3.581   0.585   5.555
 3960SOL    HW112212   3.555   0.674   5.519
 3960SOL    HW212213   3.579   0.517   5.482
 3961SOL     OW12214   3.224   1.144   4.269
 3961SOL    HW112215   3.307   1.115   4.221
 3961SOL    HW212216   3.175   1.211   4.213
 3962SOL     OW12217   2.412   0.196   4.609
 3962SOL    HW112218   2.407   0.191   4.709
 3962SOL    HW212219   2.414   0.292   4.580
 3963SOL     OW12220   2.870   1.456   4.201
 3963SOL    HW112221   2.824   1.528   4.149
 3963SOL    HW212222   2.866   1.476   4.299
 3964SOL     OW12223   2.213   1.801   4.577
 3964SOL    HW112224   2.263   1.715   4.583
 3964SOL    HW212225   2.278   1.878   4.574
 3965SOL     OW12226   3.657   1.066   4.597
 3965SOL    HW112227   3.595   1.051   4.521
 3965SOL    HW212228   3.605   1.077   4.682
 3966SOL     OW12229   3.089   1.550   5.230
 3966SOL    HW112230   3.095   1.473   5.294
 3966SOL    HW212231   3.037   1.524   5.150
 3967SOL     OW12232   2.183   0.943   3.966
 3967SOL    HW112233   2.265   0.982   3.924
 3967SOL    HW212234   2.156   0.861   3.917
 3968SOL     OW12235   3.320   0.735   4.452
 3968SOL    HW112236   3.315   0.670   4.527
 3968SOL    HW212237   3.400   0.794   4.465
 3969SOL     OW12238   2.323   1.266   5.451
 3969SOL    HW112239   2.273   1.267   5.365
 3969SOL    HW212240   2.260   1.248   5.527
 3970SOL     OW12241   2.973   1.776   3.961
 3970SOL    HW112242   2.913   1.714   4.011
 3970SOL    HW212243   3.004   1.732   3.876
 3971SOL     OW12244   2.064   0.285   5.222
 3971SOL    HW112245   1.984   0.345   5.209
 3971SOL    HW212246   2.054   0.236   5.308
 3972SOL     OW12247   3.494   1.377   3.805
 3972SOL    HW112248   3.462   1.471   3.795
 3972SOL    HW212249   3.418   1.314   3.793
 3973SOL     OW12250   2.326   1.743   4.047
 3973SOL    HW112251   2.359   1.782   4.133
 3973SOL    HW212252   2.402   1.736   3.982
 3974SOL     OW12253   3.262   0.107   4.150
 3974SOL    HW112254   3.238   0.070   4.060
 3974SOL    HW212255   3.361   0.123   4.154
 3975SOL     OW12256   2.111   1.785   4.965
 3975SOL    HW112257   2.168   1.720   5.015
 3975SOL    HW212258   2.095   1.752   4.872
 3976SOL     OW12259   2.802   1.698   4.628
 3976SOL    HW112260   2.882   1.641   4.649
 3976SOL    HW212261   2.753   1.658   4.551
 3977SOL     OW12262   2.244   0.700   4.204
 3977SOL    HW112263   2.289   0.610   4.201
 3977SOL    HW212264   2.150   0.689   4.237
 3978SOL     OW12265   3.409   0.222   5.453
 3978SOL    HW112266   3.404   0.259   5.545
 3978SOL    HW212267   3.337   0.153   5.441
 3979SOL     OW12268   2.476   0.122   3.841
 3979SOL    HW112269   2.574   0.100   3.848
 3979SOL    HW212270   2.445   0.105   3.748
 3980SOL     OW12271   2.643   0.264   5.473
 3980SOL    HW112272   2.710   0.203   5.516
 3980SOL    HW212273   2.570   0.283   5.538
 3981SOL     OW12274   2.750   1.514   4.919
 3981SOL    HW112275   2.727   1.489   4.825
 3981SOL    HW212276   2.811   1.445   4.958
 3982SOL     OW12277   3.213   0.590   5.157
 3982SOL    HW112278   3.241   0.547   5.242
 3982SOL    HW212279   3.238   0.686   5.158
 3983SOL     OW12280   2.665   1.402   4.648
 3983SOL    HW112281   2.755   1.416   4.606
 3983SOL    HW212282   2.594   1.404   4.577
 3984SOL     OW12283   2.784   0.503   4.623
 3984SOL    HW112284   2.759   0.494   4.527
 3984SOL    HW212285   2.832   0.421   4.654
 3985SOL     OW12286   2.401   0.064   4.236
 3985SOL    HW112287   2.320   0.065   4.294
 3985SOL    HW212288   2.404   0.147   4.181
 3986SOL     OW12289   3.296   1.188   3.765
 3986SOL    HW112290   3.328   1.112   3.822
 3986SOL    HW212291   3.204   1.215   3.795
 3987SOL     OW12292   2.159   0.035   3.895
 3987SOL    HW112293   2.208   0.119   3.874
 3987SOL    HW212294   2.221  -0.030   3.940
 3988SOL     OW12295   2.797   0.236   4.204
 3988SOL    HW112296   2.749   0.277   4.126
 3988SOL    HW212297   2.896   0.234   4.185
 3989SOL     OW12298   2.938   0.683   5.188
 3989SOL    HW112299   2.858   0.622   5.191
 3989SOL    HW212300   3.019   0.630   5.164
 3990SOL     OW12301   3.089   1.570   4.517
 3990SOL    HW112302   3.110   1.644   4.452
 3990SOL    HW212303   3.157   1.570   4.590
 3991SOL     OW12304   2.321   1.152   4.465
 3991SOL    HW112305   2.250   1.125   4.530
 3991SOL    HW212306   2.295   1.124   4.372
 3992SOL     OW12307   3.133   1.797   4.315
 3992SOL    HW112308   3.177   1.861   4.251
 3992SOL    HW212309   3.083   1.849   4.385
 3993SOL     OW12310   2.894   0.549   3.740
 3993SOL    HW112311   2.853   0.631   3.701
 3993SOL    HW212312   2.958   0.575   3.813
 3994SOL     OW12313   1.940   0.556   5.110
 3994SOL    HW112314   2.032   0.555   5.069
 3994SOL    HW212315   1.934   0.630   5.177
 3995SOL     OW12316   2.423   0.222   4.871
 3995SOL    HW112317   2.461   0.138   4.908
 3995SOL    HW212318   2.335   0.241   4.915
 3996SOL     OW12319   2.728   0.454   4.366
 3996SOL    HW112320   2.696   0.526   4.304
 3996SOL    HW212321   2.752   0.373   4.313
 3997SOL     OW12322   2.879   0.039   4.477
 3997SOL    HW112323   2.807   0.044   4.408
 3997SOL    HW212324   2.855  -0.030   4.546
 3998SOL     OW12325   3.291   1.173   4.591
 3998SOL    HW112326   3.236   1.089   4.584
 3998SOL    HW212327   3.317   1.202   4.499
 3999SOL     OW12328   3.328   0.590   4.716
 3999SOL    HW112329   3.298   0.495   4.723
 3999SOL    HW212330   3.401   0.606   4.782
 4000SOL     OW12331   3.719   0.833   4.101
 4000SOL    HW112332   3.761   0.769   4.165
 4000SOL    HW212333   3.681   0.782   4.023
 4001SOL     OW12334   2.350   1.385   3.898
 4001SOL    HW112335   2.263   1.370   3.945
 4001SOL    HW212336   2.333   1.411   3.803
 4002SOL     OW12337   3.526   1.280   4.381
 4002SOL    HW112338   3.625   1.288   4.395
 4002SOL    HW212339   3.481   1.364   4.412
 4003SOL     OW12340   3.252   0.575   3.802
 4003SOL    HW112341   3.198   0.554   3.883
 4003SOL    HW212342   3.343   0.534   3.811
 4004SOL     OW12343   2.389   0.256   4.052
 4004SOL    HW112344   2.416   0.197   3.977
 4004SOL    HW212345   2.389   0.351   4.021
 4005SOL     OW12346   3.616   1.223   5.312
 4005SOL    HW112347   3.707   1.184   5.299
 4005SOL    HW212348   3.624   1.319   5.336
 4006SOL     OW12349   2.926   1.347   5.064
 4006SOL    HW112350   2.846   1.324   5.119
 4006SOL    HW212351   3.009   1.321   5.113
 4007SOL     OW12352   3.454   1.629   5.349
 4007SOL    HW112353   3.481   1.663   5.259
 4007SOL    HW212354   3.533   1.591   5.395
 4008SOL     OW12355   2.973   1.195   4.824
 4008SOL    HW112356   2.933   1.239   4.905
 4008SOL    HW212357   2.932   1.232   4.741
 4009SOL     OW12358   3.500   1.099   4.803
 4009SOL    HW112359   3.505   1.180   4.862
 4009SOL    HW212360   3.414   1.101   4.752
 4010SOL     OW12361   2.777   0.089   5.126
 4010SOL    HW112362   2.802   0.069   5.031
 4010SOL    HW212363   2.849   0.145   5.168
 4011SOL     OW12364   2.842   1.116   5.443
 4011SOL    HW112365   2.743   1.122   5.453
 4011SOL    HW212366   2.865   1.036   5.387
 4012SOL     OW12367   2.567   1.050   4.092
 4012SOL    HW112368   2.553   1.057   4.191
 4012SOL    HW212369   2.651   0.999   4.074
 4013SOL     OW12370   2.272   0.813   4.975
 4013SOL    HW112371   2.358   0.825   5.025
 4013SOL    HW212372   2.230   0.726   5.002
 4014SOL     OW12373   3.136   0.386   4.986
 4014SOL    HW112374   3.157   0.460   5.050
 4014SOL    HW212375   3.047   0.403   4.943
 4015SOL     OW12376   1.926   1.564   5.055
 4015SOL    HW112377   1.880   1.646   5.021
 4015SOL    HW212378   2.024   1.583   5.064
 4016SOL     OW12379   2.229   1.100   4.225
 4016SOL    HW112380   2.222   1.183   4.169
 4016SOL    HW212381   2.233   1.020   4.165
 4017SOL     OW12382   2.428   0.537   4.589
 4017SOL    HW112383   2.440   0.603   4.515
 4017SOL    HW212384   2.474   0.571   4.672
 4018SOL     OW12385   3.114   1.348   4.112
 4018SOL    HW112386   3.164   1.425   4.152
 4018SOL    HW212387   3.019   1.350   4.144
 4019SOL     OW12388   3.134   1.445   4.866
 4019SOL    HW112389   3.181   1.458   4.953
 4019SOL    HW212390   3.068   1.371   4.875
 4020SOL     OW12391   3.444   0.639   4.196
 4020SOL    HW112392   3.413   0.700   4.269
 4020SOL    HW212393   3.494   0.691   4.127
 4021SOL     OW12394   2.216   1.510   5.053
 4021SOL    HW112395   2.195   1.466   4.966
 4021SOL    HW212396   2.313   1.536   5.056
 4022SOL     OW12397   2.264   0.751   5.322
 4022SOL    HW112398   2.332   0.806   5.275
 4022SOL    HW212399   2.304   0.663   5.349
 4023SOL     OW12400   3.449   0.779   5.394
 4023SOL    HW112401   3.357   0.817   5.389
 4023SOL    HW212402   3.509   0.826   5.329
 4024SOL     OW12403   2.875   0.105   5.494
 4024SOL    HW112404   2.881   0.190   5.442
 4024SOL    HW212405   2.907   0.029   5.437
 4025SOL     OW12406   2.366   0.050   5.464
 4025SOL    HW112407   2.324  -0.007   5.394
 4025SOL    HW212408   2.300   0.119   5.496
 4026SOL     OW12409   2.435   0.870   4.753
 4026SOL    HW112410   2.479   0.959   4.744
 4026SOL    HW212411   2.372   0.870   4.830
 4027SOL     OW12412   3.222   0.862   4.769
 4027SOL    HW112413   3.147   0.862   4.703
 4027SOL    HW212414   3.259   0.770   4.778
 4028SOL     OW12415   3.071   0.525   3.999
 4028SOL    HW112416   3.084   0.441   4.053
 4028SOL    HW212417   3.042   0.599   4.059
 4029SOL     OW12418   2.169   0.213   4.955
 4029SOL    HW112419   2.146   0.250   5.045
 4029SOL    HW212420   2.139   0.118   4.949
 4030SOL     OW12421   1.899   1.310   5.006
 4030SOL    HW112422   1.952   1.261   5.074
 4030SOL    HW212423   1.921   1.408   5.011
 4031SOL     OW12424   2.594   0.634   4.788
 4031SOL    HW112425   2.653   0.608   4.712
 4031SOL    HW212426   2.566   0.730   4.777
 4032SOL     OW12427   3.590   0.935   5.578
 4032SOL    HW112428   3.544   0.928   5.489
 4032SOL    HW212429   3.528   0.979   5.644
 4033SOL     OW12430   2.169   0.063   4.342
 4033SOL    HW112431   2.158   0.157   4.375
 4033SOL    HW212432   2.164   0.000   4.419
 4034SOL     OW12433   3.484   0.367   4.098
 4034SOL    HW112434   3.486   0.291   4.162
 4034SOL    HW212435   3.436   0.444   4.138
 4035SOL     OW12436   2.885   0.766   4.690
 4035SOL    HW112437   2.900   0.787   4.786
 4035SOL    HW212438   2.855   0.671   4.681
 4036SOL     OW12439   2.842   1.573   5.424
 4036SOL    HW112440   2.822   1.617   5.336
 4036SOL    HW212441   2.881   1.482   5.408
 4037SOL     OW12442   3.721   1.518   5.329
 4037SOL    HW112443   3.735   1.545   5.234
 4037SOL    HW212444   3.804   1.540   5.382
 4038SOL     OW12445   2.212   0.898   5.528
 4038SOL    HW112446   2.288   0.942   5.576
 4038SOL    HW212447   2.247   0.851   5.446
 4039SOL     OW12448   3.402   0.274   3.849
 4039SOL    HW112449   3.341   0.199   3.872
 4039SOL    HW212450   3.424   0.326   3.932
 4040SOL     OW12451   3.165   0.838   3.766
 4040SOL    HW112452   3.199   0.745   3.781
 4040SOL    HW212453   3.183   0.865   3.671
 4041SOL     OW12454   2.930   1.333   4.573
 4041SOL    HW112455   2.937   1.249   4.518
 4041SOL    HW212456   2.992   1.402   4.537
 4042SOL     OW12457   2.181   0.810   4.673
 4042SOL    HW112458   2.274   0.846   4.678
 4042SOL    HW212459   2.175   0.725   4.725
 4043SOL     OW12460   2.201   0.509   4.730
 4043SOL    HW112461   2.149   0.426   4.713
 4043SOL    HW212462   2.278   0.514   4.666
 4044SOL     OW12463   3.000   0.380   5.402
 4044SOL    HW112464   2.955   0.443   5.466
 4044SOL    HW212465   3.093   0.411   5.385
 4045SOL     OW12466   3.022   0.207   5.201
 4045SOL    HW112467   3.022   0.271   5.278
 4045SOL    HW212468   3.050   0.255   5.118
 4046SOL     OW12469   1.870   1.326   3.924
 4046SOL    HW112470   1.777   1.347   3.893
 4046SOL    HW212471   1.880   1.227   3.937
 4047SOL     OW12472   1.950   1.801   4.651
 4047SOL    HW112473   1.908   1.715   4.624
 4047SOL    HW212474   2.044   1.804   4.617
 4048SOL     OW12475   2.366   1.568   4.634
 4048SOL    HW112476   2.432   1.642   4.643
 4048SOL    HW212477   2.410   1.489   4.592
 4049SOL     OW12478   2.864   0.796   4.962
 4049SOL    HW112479   2.905   0.764   5.048
 4049SOL    HW212480   2.768   0.769   4.959
 4050SOL     OW12481   1.902   0.544   4.838
 4050SOL    HW112482   1.987   0.511   4.797
 4050SOL    HW212483   1.915   0.559   4.936
 4051SOL     OW12484   2.051   0.520   5.446
 4051SOL    HW112485   2.110   0.480   5.376
 4051SOL    HW212486   1.993   0.591   5.405
 4052SOL     OW12487   3.231   0.950   5.384
 4052SOL    HW112488   3.270   1.039   5.404
 4052SOL    HW212489   3.241   0.930   5.287
 4053SOL     OW12490   2.677   0.572   4.049
 4053SOL    HW112491   2.684   0.483   4.003
 4053SOL    HW212492   2.583   0.606   4.041
 4054SOL     OW12493   3.519   0.604   4.930
 4054SOL    HW112494   3.481   0.535   4.992
 4054SOL    HW212495   3.601   0.568   4.886
 4055SOL     OW12496   2.114   1.564   5.468
 4055SOL    HW112497   2.084   1.621   5.544
 4055SOL    HW212498   2.107   1.467   5.494
 4056SOL     OW12499   2.533   0.464   4.993
 4056SOL    HW112500   2.499   0.375   4.963
 4056SOL    HW212501   2.559   0.518   4.913
 4057SOL     OW12502   2.792   1.678   5.189
 4057SOL    HW112503   2.768   1.660   5.094
 4057SOL    HW212504   2.822   1.772   5.199
 4058SOL     OW12505   2.335   0.500   3.915
 4058SOL    HW112506   2.396   0.580   3.919
 4058SOL    HW212507   2.240   0.531   3.922
 4059SOL     OW12508   2.021   1.137   5.190
 4059SOL    HW112509   2.043   1.076   5.266
 4059SOL    HW212510   2.031   1.088   5.104
 4060SOL     OW12511   3.209   1.059   4.958
 4060SOL    HW112512   3.233   0.996   4.884
 4060SOL    HW212513   3.119   1.099   4.940
 4061SOL     OW12514   3.164   0.855   4.033
 4061SOL    HW112515   3.078   0.824   4.075
 4061SOL    HW212516   3.160   0.841   3.934
 4062SOL     OW12517   3.621   1.747   4.878
 4062SOL    HW112518   3.682   1.777   4.805
 4062SOL    HW212519   3.583   1.658   4.856
 4063SOL     OW12520   3.114   1.731   4.852
 4063SOL    HW112521   3.198   1.736   4.798
 4063SOL    HW212522   3.091   1.635   4.870
 4064SOL     OW12523   1.945   1.258   4.746
 4064SOL    HW112524   1.940   1.257   4.846
 4064SOL    HW212525   1.862   1.217   4.708
 4065SOL     OW12526   2.550   1.662   5.440
 4065SOL    HW112527   2.494   1.743   5.449
 4065SOL    HW212528   2.602   1.666   5.354
 4066SOL     OW12529   3.588   0.135   4.247
 4066SOL    HW112530   3.661   0.118   4.180
 4066SOL    HW212531   3.557   0.048   4.285
 4067SOL     OW12532   3.250   1.573   4.201
 4067SOL    HW112533   3.317   1.585   4.127
 4067SOL    HW212534   3.210   1.662   4.224
 4068SOL     OW12535   1.992   1.794   5.575
 4068SOL    HW112536   1.951   1.720   5.628
 4068SOL    HW212537   2.056   1.845   5.633
 4069SOL     OW12538   3.142   0.927   4.396
 4069SOL    HW112539   3.202   0.846   4.398
 4069SOL    HW212540   3.182   0.996   4.336
 4070SOL     OW12541   2.692   1.273   5.146
 4070SOL    HW112542   2.687   1.306   5.241
 4070SOL    HW212543   2.606   1.292   5.100
 4071SOL     OW12544   2.534   1.616   3.878
 4071SOL    HW112545   2.543   1.626   3.779
 4071SOL    HW212546   2.494   1.527   3.899
 4072SOL     OW12547   3.512   1.720   5.118
 4072SOL    HW112548   3.565   1.730   5.034
 4072SOL    HW212549   3.485   1.810   5.152
 4073SOL     OW12550   3.703   0.175   4.687
 4073SOL    HW112551   3.742   0.090   4.651
 4073SOL    HW212552   3.605   0.177   4.668
 4074SOL     OW12553   2.125   0.326   4.444
 4074SOL    HW112554   2.046   0.377   4.410
 4074SOL    HW212555   2.116   0.311   4.542
 4075SOL     OW12556   3.056   1.612   3.755
 4075SOL    HW112557   3.062   1.519   3.792
 4075SOL    HW212558   2.997   1.612   3.675
 4076SOL     OW12559   2.684   1.002   5.096
 4076SOL    HW112560   2.724   1.001   5.004
 4076SOL    HW212561   2.694   1.094   5.136
 4077SOL     OW12562   2.778   0.910   4.015
 4077SOL    HW112563   2.841   0.948   3.947
 4077SOL    HW212564   2.818   0.827   4.054
 4078SOL     OW12565   3.366   1.607   3.768
 4078SOL    HW112566   3.274   1.644   3.775
 4078SOL    HW212567   3.404   1.627   3.678
 4079SOL     OW12568   2.234   1.288   5.214
 4079SOL    HW112569   2.221   1.381   5.180
 4079SOL    HW212570   2.150   1.236   5.201
 4080SOL     OW12571   3.476   1.292   5.013
 4080SOL    HW112572   3.536   1.295   5.093
 4080SOL    HW212573   3.401   1.356   5.026
 4081SOL     OW12574   2.901   1.098   4.420
 4081SOL    HW112575   2.831   1.051   4.474
 4081SOL    HW212576   2.960   1.030   4.377
 4082SOL     OW12577   2.876   0.236   4.695
 4082SOL    HW112578   2.868   0.200   4.602
 4082SOL    HW212579   2.874   0.160   4.760
 4083SOL     OW12580   2.452   1.487   4.215
 4083SOL    HW112581   2.494   1.429   4.145
 4083SOL    HW212582   2.408   1.566   4.171
 4084SOL     OW12583   3.571   0.385   5.105
 4084SOL    HW112584   3.644   0.454   5.109
 4084SOL    HW212585   3.599   0.310   5.046
 4085SOL     OW12586   2.117   1.348   4.014
 4085SOL    HW112587   2.021   1.349   3.987
 4085SOL    HW212588   2.129   1.401   4.098
 4086SOL     OW12589   1.967   1.013   5.450
 4086SOL    HW112590   1.890   0.980   5.504
 4086SOL    HW212591   2.052   0.983   5.492
 4087SOL     OW12592   2.534   0.203   5.213
 4087SOL    HW112593   2.624   0.187   5.173
 4087SOL    HW212594   2.542   0.208   5.312
 4088SOL     OW12595   1.937   0.345   3.757
 4088SOL    HW112596   1.845   0.317   3.728
 4088SOL    HW212597   1.968   0.422   3.701
 4089SOL     OW12598   3.302   0.856   5.122
 4089SOL    HW112599   3.245   0.908   5.059
 4089SOL    HW212600   3.398   0.868   5.098
 4090SOL     OW12601   1.934   0.166   4.042
 4090SOL    HW112602   1.917   0.249   3.988
 4090SOL    HW212603   2.024   0.129   4.020
 4091SOL     OW12604   3.045   1.335   3.843
 4091SOL    HW112605   2.946   1.324   3.845
 4091SOL    HW212606   3.079   1.350   3.936
 4092SOL     OW12607   2.475   0.842   5.155
 4092SOL    HW112608   2.531   0.923   5.138
 4092SOL    HW212609   2.534   0.762   5.158
 4093SOL     OW12610   3.355   1.767   4.683
 4093SOL    HW112611   3.388   1.831   4.614
 4093SOL    HW212612   3.421   1.761   4.758
 4094SOL     OW12613   2.578   0.565   5.432
 4094SOL    HW112614   2.597   0.630   5.506
 4094SOL    HW212615   2.638   0.485   5.441
 4095SOL     OW12616   3.312   1.220   5.357
 4095SOL    HW112617   3.303   1.210   5.456
 4095SOL    HW212618   3.408   1.213   5.331
 4096SOL     OW12619   2.252   1.741   5.284
 4096SOL    HW112620   2.161   1.782   5.282
 4096SOL    HW212621   2.245   1.647   5.316
 4097SOL     OW12622   3.536   0.883   4.978
 4097SOL    HW112623   3.509   0.794   4.941
 4097SOL    HW212624   3.537   0.951   4.905
 4098SOL     OW12625   3.087   0.325   4.173
 4098SOL    HW112626   3.152   0.251   4.162
 4098SOL    HW212627   3.107   0.375   4.257
 4099SOL     OW12628   2.456   0.745   4.376
 4099SOL    HW112629   2.506   0.830   4.357
 4099SOL    HW212630   2.368   0.747   4.328
 4100SOL     OW12631   3.639   0.342   5.366
 4100SOL    HW112632   3.622   0.373   5.272
 4100SOL    HW212633   3.555   0.305   5.404
 4101SOL     OW12634   3.592   0.934   5.241
 4101SOL    HW112635   3.630   1.025   5.256
 4101SOL    HW212636   3.584   0.917   5.142
 4102SOL     OW12637   2.721   1.374   3.740
 4102SOL    HW112638   2.675   1.389   3.828
 4102SOL    HW212639   2.765   1.459   3.710
 4103SOL     OW12640   2.523   1.790   4.677
 4103SOL    HW112641   2.477   1.878   4.664
 4103SOL    HW212642   2.622   1.802   4.670
 4104SOL     OW12643   2.721   0.956   4.585
 4104SOL    HW112644   2.775   0.887   4.633
 4104SOL    HW212645   2.689   1.025   4.651
 4105SOL     OW12646   2.945   0.984   3.811
 4105SOL    HW112647   2.922   1.037   3.729
 4105SOL    HW212648   3.026   0.928   3.792
 4106SOL     OW12649   3.723   1.569   4.575
 4106SOL    HW112650   3.652   1.557   4.505
 4106SOL    HW212651   3.724   1.490   4.635
 4107SOL     OW12652   2.083   1.314   5.568
 4107SOL    HW112653   2.018   1.241   5.547
 4107SOL    HW212654   2.087   1.328   5.666
 4108SOL     OW12655   1.941   1.240   4.377
 4108SOL    HW112656   1.940   1.193   4.465
 4108SOL    HW212657   2.023   1.212   4.326
 4109SOL     OW12658   2.534   1.391   5.348
 4109SOL    HW112659   2.456   1.341   5.386
 4109SOL    HW212660   2.531   1.486   5.379
 4110SOL     OW12661   3.686   0.192   4.951
 4110SOL    HW112662   3.682   0.102   4.995
 4110SOL    HW212663   3.689   0.181   4.852
 4111SOL     OW12664   2.290   0.424   4.244
 4111SOL    HW112665   2.320   0.352   4.182
 4111SOL    HW212666   2.251   0.384   4.327
 4112SOL     OW12667   3.567   1.487   4.828
 4112SOL    HW112668   3.474   1.462   4.801
 4112SOL    HW212669   3.593   1.437   4.910
 4113SOL     OW12670   2.179   0.547   5.004
 4113SOL    HW112671   2.217   0.488   5.076
 4113SOL    HW212672   2.219   0.521   4.916
 4114SOL     OW12673   2.674   1.586   4.411
 4114SOL    HW112674   2.706   1.596   4.317
 4114SOL    HW212675   2.595   1.524   4.413
 4115SOL     OW12676   3.286   0.214   4.836
 4115SOL    HW112677   3.338   0.149   4.891
 4115SOL    HW212678   3.237   0.277   4.897
 4116SOL     OW12679   2.863   0.034   4.878
 4116SOL    HW112680   2.800  -0.038   4.847
 4116SOL    HW212681   2.956  -0.002   4.878
 4117SOL     OW12682   2.632   1.330   4.025
 4117SOL    HW112683   2.586   1.243   4.042
 4117SOL    HW212684   2.723   1.327   4.066
 4118SOL     OW12685   2.480   1.567   5.008
 4118SOL    HW112686   2.475   1.649   5.065
 4118SOL    HW212687   2.569   1.564   4.963
 4119SOL     OW12688   3.214   0.052   3.892
 4119SOL    HW112689   3.249   0.011   3.808
 4119SOL    HW212690   3.124   0.014   3.912
 4120SOL     OW12691   3.162   0.453   4.415
 4120SOL    HW112692   3.103   0.533   4.419
 4120SOL    HW212693   3.177   0.418   4.508
 4121SOL     OW12694   3.455   0.221   4.606
 4121SOL    HW112695   3.371   0.220   4.660
 4121SOL    HW212696   3.457   0.304   4.550
 4122SOL     OW12697   1.901   1.077   4.024
 4122SOL    HW112698   2.000   1.066   4.015
 4122SOL    HW212699   1.861   0.991   4.056
 4123SOL     OW12700   2.737   1.646   4.061
 4123SOL    HW112701   2.660   1.611   4.007
 4123SOL    HW212702   2.705   1.717   4.123
 4124SOL     OW12703   2.092   0.628   5.699
 4124SOL    HW112704   1.999   0.626   5.736
 4124SOL    HW212705   2.093   0.589   5.607
 4125SOL     OW12706   2.087   0.275   6.582
 4125SOL    HW112707   2.122   0.258   6.674
 4125SOL    HW212708   1.999   0.230   6.570
 4126SOL     OW12709   1.881   0.368   6.233
 4126SOL    HW112710   1.799   0.411   6.272
 4126SOL    HW212711   1.853   0.295   6.170
 4127SOL     OW12712   2.431   1.275   6.751
 4127SOL    HW112713   2.338   1.268   6.714
 4127SOL    HW212714   2.442   1.364   6.795
 4128SOL     OW12715   3.417   1.511   6.289
 4128SOL    HW112716   3.360   1.495   6.370
 4128SOL    HW212717   3.358   1.521   6.209
 4129SOL     OW12718   2.997   0.703   6.303
 4129SOL    HW112719   3.054   0.781   6.278
 4129SOL    HW212720   2.937   0.729   6.379
 4130SOL     OW12721   3.617   0.607   5.817
 4130SOL    HW112722   3.605   0.594   5.718
 4130SOL    HW212723   3.587   0.526   5.866
 4131SOL     OW12724   2.630   1.144   6.609
 4131SOL    HW112725   2.552   1.161   6.669
 4131SOL    HW212726   2.664   1.231   6.573
 4132SOL     OW12727   2.712   0.798   7.409
 4132SOL    HW112728   2.708   0.874   7.474
 4132SOL    HW212729   2.734   0.834   7.318
 4133SOL     OW12730   2.547   1.012   6.251
 4133SOL    HW112731   2.616   0.996   6.321
 4133SOL    HW212732   2.474   1.069   6.289
 4134SOL     OW12733   2.548   1.161   7.389
 4134SOL    HW112734   2.608   1.240   7.403
 4134SOL    HW212735   2.462   1.192   7.348
 4135SOL     OW12736   2.197   1.435   6.647
 4135SOL    HW112737   2.119   1.404   6.594
 4135SOL    HW212738   2.255   1.493   6.590
 4136SOL     OW12739   3.322   1.505   6.925
 4136SOL    HW112740   3.346   1.599   6.951
 4136SOL    HW212741   3.306   1.451   7.007
 4137SOL     OW12742   2.300   0.392   7.085
 4137SOL    HW112743   2.382   0.336   7.094
 4137SOL    HW212744   2.219   0.334   7.089
 4138SOL     OW12745   3.465   0.447   6.323
 4138SOL    HW112746   3.391   0.493   6.273
 4138SOL    HW212747   3.516   0.515   6.376
 4139SOL     OW12748   2.093   1.713   6.069
 4139SOL    HW112749   2.127   1.790   6.123
 4139SOL    HW212750   2.137   1.713   5.979
 4140SOL     OW12751   2.989   1.341   7.276
 4140SOL    HW112752   3.036   1.341   7.364
 4140SOL    HW212753   2.941   1.254   7.265
 4141SOL     OW12754   2.092   1.434   6.124
 4141SOL    HW112755   2.066   1.530   6.124
 4141SOL    HW212756   2.021   1.380   6.169
 4142SOL     OW12757   2.102   1.091   6.472
 4142SOL    HW112758   2.116   1.007   6.524
 4142SOL    HW212759   2.047   1.155   6.527
 4143SOL     OW12760   2.482   1.786   7.025
 4143SOL    HW112761   2.390   1.769   7.060
 4143SOL    HW212762   2.510   1.878   7.051
 4144SOL     OW12763   2.468   0.964   5.709
 4144SOL    HW112764   2.475   1.048   5.655
 4144SOL    HW212765   2.514   0.977   5.797
 4145SOL     OW12766   3.456   0.114   7.066
 4145SOL    HW112767   3.438   0.181   6.994
 4145SOL    HW212768   3.453   0.160   7.155
 4146SOL     OW12769   1.984   0.643   6.149
 4146SOL    HW112770   1.939   0.555   6.166
 4146SOL    HW212771   1.983   0.697   6.233
 4147SOL     OW12772   3.704   1.767   5.945
 4147SOL    HW112773   3.758   1.738   6.025
 4147SOL    HW212774   3.734   1.857   5.916
 4148SOL     OW12775   1.889   1.596   5.703
 4148SOL    HW112776   1.870   1.500   5.724
 4148SOL    HW212777   1.856   1.654   5.778
 4149SOL     OW12778   3.551   0.922   6.198
 4149SOL    HW112779   3.646   0.893   6.206
 4149SOL    HW212780   3.543   0.987   6.123
 4150SOL     OW12781   3.503   1.108   6.018
 4150SOL    HW112782   3.589   1.110   5.966
 4150SOL    HW212783   3.517   1.155   6.106
 4151SOL     OW12784   1.975   0.737   7.183
 4151SOL    HW112785   2.063   0.724   7.228
 4151SOL    HW212786   1.962   0.834   7.161
 4152SOL     OW12787   2.475   1.365   6.312
 4152SOL    HW112788   2.426   1.278   6.321
 4152SOL    HW212789   2.452   1.408   6.225
 4153SOL     OW12790   3.155   1.228   7.009
 4153SOL    HW112791   3.192   1.155   6.951
 4153SOL    HW212792   3.207   1.233   7.094
 4154SOL     OW12793   2.671   0.004   6.088
 4154SOL    HW112794   2.711   0.095   6.079
 4154SOL    HW212795   2.571   0.012   6.094
 4155SOL     OW12796   2.059   0.976   6.850
 4155SOL    HW112797   2.148   0.931   6.836
 4155SOL    HW212798   1.986   0.911   6.831
 4156SOL     OW12799   3.387   0.999   5.776
 4156SOL    HW112800   3.324   0.923   5.789
 4156SOL    HW212801   3.435   1.017   5.862
 4157SOL     OW12802   3.049   1.792   7.202
 4157SOL    HW112803   3.073   1.852   7.126
 4157SOL    HW212804   3.056   1.697   7.172
 4158SOL     OW12805   2.179   0.251   7.387
 4158SOL    HW112806   2.250   0.322   7.393
 4158SOL    HW212807   2.091   0.290   7.415
 4159SOL     OW12808   3.328   1.417   6.539
 4159SOL    HW112809   3.269   1.423   6.619
 4159SOL    HW212810   3.313   1.329   6.493
 4160SOL     OW12811   3.529   1.714   6.158
 4160SOL    HW112812   3.488   1.691   6.070
 4160SOL    HW212813   3.511   1.640   6.223
 4161SOL     OW12814   2.460   0.729   5.856
 4161SOL    HW112815   2.484   0.798   5.788
 4161SOL    HW212816   2.382   0.762   5.910
 4162SOL     OW12817   3.143   0.345   6.530
 4162SOL    HW112818   3.057   0.295   6.517
 4162SOL    HW212819   3.205   0.291   6.586
 4163SOL     OW12820   3.438   1.662   5.893
 4163SOL    HW112821   3.527   1.708   5.896
 4163SOL    HW212822   3.417   1.638   5.798
 4164SOL     OW12823   2.669   0.605   7.051
 4164SOL    HW112824   2.622   0.602   7.140
 4164SOL    HW212825   2.618   0.550   6.985
 4165SOL     OW12826   3.256   0.469   7.260
 4165SOL    HW112827   3.236   0.512   7.348
 4165SOL    HW212828   3.334   0.407   7.269
 4166SOL     OW12829   2.835   0.890   7.158
 4166SOL    HW112830   2.881   0.806   7.129
 4166SOL    HW212831   2.779   0.924   7.083
 4167SOL     OW12832   2.853   0.410   6.828
 4167SOL    HW112833   2.776   0.444   6.882
 4167SOL    HW212834   2.819   0.359   6.749
 4168SOL     OW12835   2.903   0.701   6.015
 4168SOL    HW112836   2.929   0.697   6.111
 4168SOL    HW212837   2.818   0.650   6.001
 4169SOL     OW12838   1.938   0.811   6.375
 4169SOL    HW112839   2.037   0.799   6.384
 4169SOL    HW212840   1.914   0.906   6.396
 4170SOL     OW12841   1.992   1.821   7.157
 4170SOL    HW112842   1.982   1.806   7.256
 4170SOL    HW212843   1.906   1.857   7.121
 4171SOL     OW12844   2.727   0.348   5.781
 4171SOL    HW112845   2.786   0.411   5.732
 4171SOL    HW212846   2.746   0.254   5.752
 4172SOL     OW12847   3.581   0.585   7.417
 4172SOL    HW112848   3.555   0.674   7.381
 4172SOL    HW212849   3.579   0.517   7.344
 4173SOL     OW12850   3.224   1.144   6.131
 4173SOL    HW112851   3.307   1.115   6.083
 4173SOL    HW212852   3.175   1.211   6.075
 4174SOL     OW12853   2.412   0.196   6.471
 4174SOL    HW112854   2.407   0.191   6.571
 4174SOL    HW212855   2.414   0.292   6.442
 4175SOL     OW12856   2.870   1.456   6.063
 4175SOL    HW112857   2.824   1.528   6.011
 4175SOL    HW212858   2.866   1.476   6.161
 4176SOL     OW12859   2.213   1.801   6.439
 4176SOL    HW112860   2.263   1.715   6.445
 4176SOL    HW212861   2.278   1.878   6.436
 4177SOL     OW12862   3.657   1.066   6.459
 4177SOL    HW112863   3.595   1.051   6.383
 4177SOL    HW212864   3.605   1.077   6.544
 4178SOL     OW12865   3.089   1.550   7.092
 4178SOL    HW112866   3.095   1.473   7.156
 4178SOL    HW212867   3.037   1.524   7.012
 4179SOL     OW12868   2.183   0.943   5.828
 4179SOL    HW112869   2.265   0.982   5.786
 4179SOL    HW212870   2.156   0.861   5.779
 4180SOL     OW12871   3.320   0.735   6.314
 4180SOL    HW112872   3.315   0.670   6.389
 4180SOL    HW212873   3.400   0.794   6.327
 4181SOL     OW12874   2.323   1.266   7.313
 4181SOL    HW112875   2.273   1.267   7.227
 4181SOL    HW212876   2.260   1.248   7.389
 4182SOL     OW12877   2.973   1.776   5.823
 4182SOL    HW112878   2.913   1.714   5.873
 4182SOL    HW212879   3.004   1.732   5.738
 4183SOL     OW12880   2.064   0.285   7.084
 4183SOL    HW112881   1.984   0.345   7.071
 4183SOL    HW212882   2.054   0.236   7.170
 4184SOL     OW12883   3.494   1.377   5.667
 4184SOL    HW112884   3.462   1.471   5.657
 4184SOL    HW212885   3.418   1.314   5.655
 4185SOL     OW12886   2.326   1.743   5.909
 4185SOL    HW112887   2.359   1.782   5.995
 4185SOL    HW212888   2.402   1.736   5.844
 4186SOL     OW12889   3.262   0.107   6.012
 4186SOL    HW112890   3.238   0.070   5.922
 4186SOL    HW212891   3.361   0.123   6.016
 4187SOL     OW12892   2.111   1.785   6.827
 4187SOL    HW112893   2.168   1.720   6.877
 4187SOL    HW212894   2.095   1.752   6.734
 4188SOL     OW12895   2.802   1.698   6.490
 4188SOL    HW112896   2.882   1.641   6.511
 4188SOL    HW212897   2.753   1.658   6.413
 4189SOL     OW12898   2.244   0.700   6.066
 4189SOL    HW112899   2.289   0.610   6.063
 4189SOL    HW212900   2.150   0.689   6.099
 4190SOL     OW12901   3.409   0.222   7.315
 4190SOL    HW112902   3.404   0.259   7.407
 4190SOL    HW212903   3.337   0.153   7.303
 4191SOL     OW12904   2.476   0.122   5.703
 4191SOL    HW112905   2.574   0.100   5.710
 4191SOL    HW212906   2.445   0.105   5.610
 4192SOL     OW12907   2.643   0.264   7.335
 4192SOL    HW112908   2.710   0.203   7.378
 4192SOL    HW212909   2.570   0.283   7.400
 4193SOL     OW12910   2.750   1.514   6.781
 4193SOL    HW112911   2.727   1.489   6.687
 4193SOL    HW212912   2.811   1.445   6.820
 4194SOL     OW12913   3.213   0.590   7.019
 4194SOL    HW112914   3.241   0.547   7.104
 4194SOL    HW212915   3.238   0.686   7.020
 4195SOL     OW12916   2.665   1.402   6.510
 4195SOL    HW112917   2.755   1.416   6.468
 4195SOL    HW212918   2.594   1.404   6.439
 4196SOL     OW12919   2.784   0.503   6.485
 4196SOL    HW112920   2.759   0.494   6.389
 4196SOL    HW212921   2.832   0.421   6.516
 4197SOL     OW12922   2.401   0.064   6.098
 4197SOL    HW112923   2.320   0.065   6.156
 4197SOL    HW212924   2.404   0.147   6.043
 4198SOL     OW12925   3.296   1.188   5.627
 4198SOL    HW112926   3.328   1.112   5.684
 4198SOL    HW212927   3.204   1.215   5.657
 4199SOL     OW12928   2.159   0.035   5.757
 4199SOL    HW112929   2.208   0.119   5.736
 4199SOL    HW212930   2.221  -0.030   5.802
 4200SOL     OW12931   2.797   0.236   6.066
 4200SOL    HW112932   2.749   0.277   5.988
 4200SOL    HW212933   2.896   0.234   6.047
 4201SOL     OW12934   2.938   0.683   7.050
 4201SOL    HW112935   2.858   0.622   7.053
 4201SOL    HW212936   3.019   0.630   7.026
 4202SOL     OW12937   3.089   1.570   6.379
 4202SOL    HW112938   3.110   1.644   6.314
 4202SOL    HW212939   3.157   1.570   6.452
 4203SOL     OW12940   2.321   1.152   6.327
 4203SOL    HW112941   2.250   1.125   6.392
 4203SOL    HW212942   2.295   1.124   6.234
 4204SOL     OW12943   3.133   1.797   6.177
 4204SOL    HW112944   3.177   1.861   6.113
 4204SOL    HW212945   3.083   1.849   6.247
 4205SOL     OW12946   2.894   0.549   5.602
 4205SOL    HW112947   2.853   0.631   5.563
 4205SOL    HW212948   2.958   0.575   5.675
 4206SOL     OW12949   1.940   0.556   6.972
 4206SOL    HW112950   2.032   0.555   6.931
 4206SOL    HW212951   1.934   0.630   7.039
 4207SOL     OW12952   2.423   0.222   6.733
 4207SOL    HW112953   2.461   0.138   6.770
 4207SOL    HW212954   2.335   0.241   6.777
 4208SOL     OW12955   2.728   0.454   6.228
 4208SOL    HW112956   2.696   0.526   6.166
 4208SOL    HW212957   2.752   0.373   6.175
 4209SOL     OW12958   2.879   0.039   6.339
 4209SOL    HW112959   2.807   0.044   6.270
 4209SOL    HW212960   2.855  -0.030   6.408
 4210SOL     OW12961   3.291   1.173   6.453
 4210SOL    HW112962   3.236   1.089   6.446
 4210SOL    HW212963   3.317   1.202   6.361
 4211SOL     OW12964   3.328   0.590   6.578
 4211SOL    HW112965   3.298   0.495   6.585
 4211SOL    HW212966   3.401   0.606   6.644
 4212SOL     OW12967   3.719   0.833   5.963
 4212SOL    HW112968   3.761   0.769   6.027
 4212SOL    HW212969   3.681   0.782   5.885
 4213SOL     OW12970   2.350   1.385   5.760
 4213SOL    HW112971   2.263   1.370   5.807
 4213SOL    HW212972   2.333   1.411   5.665
 4214SOL     OW12973   3.526   1.280   6.243
 4214SOL    HW112974   3.625   1.288   6.257
 4214SOL    HW212975   3.481   1.364   6.274
 4215SOL     OW12976   3.252   0.575   5.664
 4215SOL    HW112977   3.198   0.554   5.745
 4215SOL    HW212978   3.343   0.534   5.673
 4216SOL     OW12979   2.389   0.256   5.914
 4216SOL    HW112980   2.416   0.197   5.839
 4216SOL    HW212981   2.389   0.351   5.883
 4217SOL     OW12982   3.616   1.223   7.174
 4217SOL    HW112983   3.707   1.184   7.161
 4217SOL    HW212984   3.624   1.319   7.198
 4218SOL     OW12985   2.926   1.347   6.926
 4218SOL    HW112986   2.846   1.324   6.981
 4218SOL    HW212987   3.009   1.321   6.975
 4219SOL     OW12988   3.454   1.629   7.211
 4219SOL    HW112989   3.481   1.663   7.121
 4219SOL    HW212990   3.533   1.591   7.257
 4220SOL     OW12991   2.973   1.195   6.686
 4220SOL    HW112992   2.933   1.239   6.767
 4220SOL    HW212993   2.932   1.232   6.603
 4221SOL     OW12994   3.500   1.099   6.665
 4221SOL    HW112995   3.505   1.180   6.724
 4221SOL    HW212996   3.414   1.101   6.614
 4222SOL     OW12997   2.777   0.089   6.988
 4222SOL    HW112998   2.802   0.069   6.893
 4222SOL    HW212999   2.849   0.145   7.030
 4223SOL     OW13000   2.842   1.116   7.305
 4223SOL    HW113001   2.743   1.122   7.315
 4223SOL    HW213002   2.865   1.036   7.249
 4224SOL     OW13003   2.567   1.050   5.954
 4224SOL    HW113004   2.553   1.057   6.053
 4224SOL    HW213005   2.651   0.999   5.936
 4225SOL     OW13006   2.272   0.813   6.837
 4225SOL    HW113007   2.358   0.825   6.887
 4225SOL    HW213008   2.230   0.726   6.864
 4226SOL     OW13009   3.136   0.386   6.848
 4226SOL    HW113010   3.157   0.460   6.912
 4226SOL    HW213011   3.047   0.403   6.805
 4227SOL     OW13012   1.926   1.564   6.917
 4227SOL    HW113013   1.880   1.646   6.883
 4227SOL    HW213014   2.024   1.583   6.926
 4228SOL     OW13015   2.229   1.100   6.087
 4228SOL    HW113016   2.222   1.183   6.031
 4228SOL    HW213017   2.233   1.020   6.027
 4229SOL     OW13018   2.428   0.537   6.451
 4229SOL    HW113019   2.440   0.603   6.377
 4229SOL    HW213020   2.474   0.571   6.534
 4230SOL     OW13021   3.114   1.348   5.974
 4230SOL    HW113022   3.164   1.425   6.014
 4230SOL    HW213023   3.019   1.350   6.006
 4231SOL     OW13024   3.134   1.445   6.728
 4231SOL    HW113025   3.181   1.458   6.815
 4231SOL    HW213026   3.068   1.371   6.737
 4232SOL     OW13027   3.444   0.639   6.058
 4232SOL    HW113028   3.413   0.700   6.131
 4232SOL    HW213029   3.494   0.691   5.989
 4233SOL     OW13030   2.216   1.510   6.915
 4233SOL    HW113031   2.195   1.466   6.828
 4233SOL    HW213032   2.313   1.536   6.918
 4234SOL     OW13033   2.264   0.751   7.184
 4234SOL    HW113034   2.332   0.806   7.137
 4234SOL    HW213035   2.304   0.663   7.211
 4235SOL     OW13036   3.449   0.779   7.256
 4235SOL    HW113037   3.357   0.817   7.251
 4235SOL    HW213038   3.509   0.826   7.191
 4236SOL     OW13039   2.875   0.105   7.356
 4236SOL    HW113040   2.881   0.190   7.304
 4236SOL    HW213041   2.907   0.029   7.299
 4237SOL     OW13042   2.366   0.050   7.326
 4237SOL    HW113043   2.324  -0.007   7.256
 4237SOL    HW213044   2.300   0.119   7.358
 4238SOL     OW13045   2.435   0.870   6.615
 4238SOL    HW113046   2.479   0.959   6.606
 4238SOL    HW213047   2.372   0.870   6.692
 4239SOL     OW13048   3.222   0.862   6.631
 4239SOL    HW113049   3.147   0.862   6.565
 4239SOL    HW213050   3.259   0.770   6.640
 4240SOL     OW13051   3.071   0.525   5.861
 4240SOL    HW113052   3.084   0.441   5.915
 4240SOL    HW213053   3.042   0.599   5.921
 4241SOL     OW13054   2.169   0.213   6.817
 4241SOL    HW113055   2.146   0.250   6.907
 4241SOL    HW213056   2.139   0.118   6.811
 4242SOL     OW13057   1.899   1.310   6.868
 4242SOL    HW113058   1.952   1.261   6.936
 4242SOL    HW213059   1.921   1.408   6.873
 4243SOL     OW13060   2.594   0.634   6.650
 4243SOL    HW113061   2.653   0.608   6.574
 4243SOL    HW213062   2.566   0.730   6.639
 4244SOL     OW13063   3.590   0.935   7.440
 4244SOL    HW113064   3.544   0.928   7.351
 4244SOL    HW213065   3.528   0.979   7.506
 4245SOL     OW13066   2.169   0.063   6.204
 4245SOL    HW113067   2.158   0.157   6.237
 4245SOL    HW213068   2.164   0.000   6.281
 4246SOL     OW13069   3.484   0.367   5.960
 4246SOL    HW113070   3.486   0.291   6.024
 4246SOL    HW213071   3.436   0.444   6.000
 4247SOL     OW13072   2.885   0.766   6.552
 4247SOL    HW113073   2.900   0.787   6.648
 4247SOL    HW213074   2.855   0.671   6.543
 4248SOL     OW13075   2.842   1.573   7.286
 4248SOL    HW113076   2.822   1.617   7.198
 4248SOL    HW213077   2.881   1.482   7.270
 4249SOL     OW13078   3.721   1.518   7.191
 4249SOL    HW113079   3.735   1.545   7.096
 4249SOL    HW213080   3.804   1.540   7.244
 4250SOL     OW13081   2.212   0.898   7.390
 4250SOL    HW113082   2.288   0.942   7.438
 4250SOL    HW213083   2.247   0.851   7.308
 4251SOL     OW13084   3.402   0.274   5.711
 4251SOL    HW113085   3.341   0.199   5.734
 4251SOL    HW213086   3.424   0.326   5.794
 4252SOL     OW13087   3.165   0.838   5.628
 4252SOL    HW113088   3.199   0.745   5.643
 4252SOL    HW213089   3.183   0.865   5.533
 4253SOL     OW13090   2.930   1.333   6.435
 4253SOL    HW113091   2.937   1.249   6.380
 4253SOL    HW213092   2.992   1.402   6.399
 4254SOL     OW13093   2.181   0.810   6.535
 4254SOL    HW113094   2.274   0.846   6.540
 4254SOL    HW213095   2.175   0.725   6.587
 4255SOL     OW13096   2.201   0.509   6.592
 4255SOL    HW113097   2.149   0.426   6.575
 4255SOL    HW213098   2.278   0.514   6.528
 4256SOL     OW13099   3.000   0.380   7.264
 4256SOL    HW113100   2.955   0.443   7.328
 4256SOL    HW213101   3.093   0.411   7.247
 4257SOL     OW13102   3.022   0.207   7.063
 4257SOL    HW113103   3.022   0.271   7.140
 4257SOL    HW213104   3.050   0.255   6.980
 4258SOL     OW13105   1.870   1.326   5.786
 4258SOL    HW113106   1.777   1.347   5.755
 4258SOL    HW213107   1.880   1.227   5.799
 4259SOL     OW13108   1.950   1.801   6.513
 4259SOL    HW113109   1.908   1.715   6.486
 4259SOL    HW213110   2.044   1.804   6.479
 4260SOL     OW13111   2.366   1.568   6.496
 4260SOL    HW113112   2.432   1.642   6.505
 4260SOL    HW213113   2.410   1.489   6.454
 4261SOL     OW13114   2.864   0.796   6.824
 4261SOL    HW113115   2.905   0.764   6.910
 4261SOL    HW213116   2.768   0.769   6.821
 4262SOL     OW13117   1.902   0.544   6.700
 4262SOL    HW113118   1.987   0.511   6.659
 4262SOL    HW213119   1.915   0.559   6.798
 4263SOL     OW13120   2.051   0.520   7.308
 4263SOL    HW113121   2.110   0.480   7.238
 4263SOL    HW213122   1.993   0.591   7.267
 4264SOL     OW13123   3.231   0.950   7.246
 4264SOL    HW113124   3.270   1.039   7.266
 4264SOL    HW213125   3.241   0.930   7.149
 4265SOL     OW13126   2.677   0.572   5.911
 4265SOL    HW113127   2.684   0.483   5.865
 4265SOL    HW213128   2.583   0.606   5.903
 4266SOL     OW13129   3.519   0.604   6.792
 4266SOL    HW113130   3.481   0.535   6.854
 4266SOL    HW213131   3.601   0.568   6.748
 4267SOL     OW13132   2.114   1.564   7.330
 4267SOL    HW113133   2.084   1.621   7.406
 4267SOL    HW213134   2.107   1.467   7.356
 4268SOL     OW13135   2.533   0.464   6.855
 4268SOL    HW113136   2.499   0.375   6.825
 4268SOL    HW213137   2.559   0.518   6.775
 4269SOL     OW13138   2.792   1.678   7.051
 4269SOL    HW113139   2.768   1.660   6.956
 4269SOL    HW213140   2.822   1.772   7.061
 4270SOL     OW13141   2.335   0.500   5.777
 4270SOL    HW113142   2.396   0.580   5.781
 4270SOL    HW213143   2.240   0.531   5.784
 4271SOL     OW13144   2.021   1.137   7.052
 4271SOL    HW113145   2.043   1.076   7.128
 4271SOL    HW213146   2.031   1.088   6.966
 4272SOL     OW13147   3.209   1.059   6.820
 4272SOL    HW113148   3.233   0.996   6.746
 4272SOL    HW213149   3.119   1.099   6.802
 4273SOL     OW13150   3.164   0.855   5.895
 4273SOL    HW113151   3.078   0.824   5.937
 4273SOL    HW213152   3.160   0.841   5.796
 4274SOL     OW13153   3.621   1.747   6.740
 4274SOL    HW113154   3.682   1.777   6.667
 4274SOL    HW213155   3.583   1.658   6.718
 4275SOL     OW13156   3.114   1.731   6.714
 4275SOL    HW113157   3.198   1.736   6.660
 4275SOL    HW213158   3.091   1.635   6.732
 4276SOL     OW13159   1.945   1.258   6.608
 4276SOL    HW113160   1.940   1.257   6.708
 4276SOL    HW213161   1.862   1.217   6.570
 4277SOL     OW13162   2.550   1.662   7.302
 4277SOL    HW113163   2.494   1.743   7.311
 4277SOL    HW213164   2.602   1.666   7.216
 4278SOL     OW13165   3.588   0.135   6.109
 4278SOL    HW113166   3.661   0.118   6.042
 4278SOL    HW213167   3.557   0.048   6.147
 4279SOL     OW13168   3.250   1.573   6.063
 4279SOL    HW113169   3.317   1.585   5.989
 4279SOL    HW213170   3.210   1.662   6.086
 4280SOL     OW13171   1.992   1.794   7.437
 4280SOL    HW113172   1.951   1.720   7.490
 4280SOL    HW213173   2.056   1.845   7.495
 4281SOL     OW13174   3.142   0.927   6.258
 4281SOL    HW113175   3.202   0.846   6.260
 4281SOL    HW213176   3.182   0.996   6.198
 4282SOL     OW13177   2.692   1.273   7.008
 4282SOL    HW113178   2.687   1.306   7.103
 4282SOL    HW213179   2.606   1.292   6.962
 4283SOL     OW13180   2.534   1.616   5.740
 4283SOL    HW113181   2.543   1.626   5.641
 4283SOL    HW213182   2.494   1.527   5.761
 4284SOL     OW13183   3.512   1.720   6.980
 4284SOL    HW113184   3.565   1.730   6.896
 4284SOL    HW213185   3.485   1.810   7.014
 4285SOL     OW13186   3.703   0.175   6.549
 4285SOL    HW113187   3.742   0.090   6.513
 4285SOL    HW213188   3.605   0.177   6.530
 4286SOL     OW13189   2.125   0.326   6.306
 4286SOL    HW113190   2.046   0.377   6.272
 4286SOL    HW213191   2.116   0.311   6.404
 4287SOL     OW13192   3.056   1.612   5.617
 4287SOL    HW113193   3.062   1.519   5.654
 4287SOL    HW213194   2.997   1.612   5.537
 4288SOL     OW13195   2.684   1.002   6.958
 4288SOL    HW113196   2.724   1.001   6.866
 4288SOL    HW213197   2.694   1.094   6.998
 4289SOL     OW13198   2.778   0.910   5.877
 4289SOL    HW113199   2.841   0.948   5.809
 4289SOL    HW213200   2.818   0.827   5.916
 4290SOL     OW13201   3.366   1.607   5.630
 4290SOL    HW113202   3.274   1.644   5.637
 4290SOL    HW213203   3.404   1.627   5.540
 4291SOL     OW13204   2.234   1.288   7.076
 4291SOL    HW113205   2.221   1.381   7.042
 4291SOL    HW213206   2.150   1.236   7.063
 4292SOL     OW13207   3.476   1.292   6.875
 4292SOL    HW113208   3.536   1.295   6.955
 4292SOL    HW213209   3.401   1.356   6.888
 4293SOL     OW13210   2.901   1.098   6.282
 4293SOL    HW113211   2.831   1.051   6.336
 4293SOL    HW213212   2.960   1.030   6.239
 4294SOL     OW13213   2.876   0.236   6.557
 4294SOL    HW113214   2.868   0.200   6.464
 4294SOL    HW213215   2.874   0.160   6.622
 4295SOL     OW13216   2.452   1.487   6.077
 4295SOL    HW113217   2.494   1.429   6.007
 4295SOL    HW213218   2.408   1.566   6.033
 4296SOL     OW13219   3.571   0.385   6.967
 4296SOL    HW113220   3.644   0.454   6.971
 4296SOL    HW213221   3.599   0.310   6.908
 4297SOL     OW13222   2.117   1.348   5.876
 4297SOL    HW113223   2.021   1.349   5.849
 4297SOL    HW213224   2.129   1.401   5.960
 4298SOL     OW13225   1.967   1.013   7.312
 4298SOL    HW113226   1.890   0.980   7.366
 4298SOL    HW213227   2.052   0.983   7.354
 4299SOL     OW13228   2.534   0.203   7.075
 4299SOL    HW113229   2.624   0.187   7.035
 4299SOL    HW213230   2.542   0.208   7.174
 4300SOL     OW13231   1.937   0.345   5.619
 4300SOL    HW113232   1.845   0.317   5.590
 4300SOL    HW213233   1.968   0.422   5.563
 4301SOL     OW13234   3.302   0.856   6.984
 4301SOL    HW113235   3.245   0.908   6.921
 4301SOL    HW213236   3.398   0.868   6.960
 4302SOL     OW13237   1.934   0.166   5.904
 4302SOL    HW113238   1.917   0.249   5.850
 4302SOL    HW213239   2.024   0.129   5.882
 4303SOL     OW13240   3.045   1.335   5.705
 4303SOL    HW113241   2.946   1.324   5.707
 4303SOL    HW213242   3.079   1.350   5.798
 4304SOL     OW13243   2.475   0.842   7.017
 4304SOL    HW113244   2.531   0.923   7.000
 4304SOL    HW213245   2.534   0.762   7.020
 4305SOL     OW13246   3.355   1.767   6.545
 4305SOL    HW113247   3.388   1.831   6.476
 4305SOL    HW213248   3.421   1.761   6.620
 4306SOL     OW13249   2.578   0.565   7.294
 4306SOL    HW113250   2.597   0.630   7.368
 4306SOL    HW213251   2.638   0.485   7.303
 4307SOL     OW13252   3.312   1.220   7.219
 4307SOL    HW113253   3.303   1.210   7.318
 4307SOL    HW213254   3.408   1.213   7.193
 4308SOL     OW13255   2.252   1.741   7.146
 4308SOL    HW113256   2.161   1.782   7.144
 4308SOL    HW213257   2.245   1.647   7.178
 4309SOL     OW13258   3.536   0.883   6.840
 4309SOL    HW113259   3.509   0.794   6.803
 4309SOL    HW213260   3.537   0.951   6.767
 4310SOL     OW13261   3.087   0.325   6.035
 4310SOL    HW113262   3.152   0.251   6.024
 4310SOL    HW213263   3.107   0.375   6.119
 4311SOL     OW13264   2.456   0.745   6.238
 4311SOL    HW113265   2.506   0.830   6.219
 4311SOL    HW213266   2.368   0.747   6.190
 4312SOL     OW13267   3.639   0.342   7.228
 4312SOL    HW113268   3.622   0.373   7.134
 4312SOL    HW213269   3.555   0.305   7.266
 4313SOL     OW13270   3.592   0.934   7.103
 4313SOL    HW113271   3.630   1.025   7.118
 4313SOL    HW213272   3.584   0.917   7.004
 4314SOL     OW13273   2.721   1.374   5.602
 4314SOL    HW113274   2.675   1.389   5.690
 4314SOL    HW213275   2.765   1.459   5.572
 4315SOL     OW13276   2.523   1.790   6.539
 4315SOL    HW113277   2.477   1.878   6.526
 4315SOL    HW213278   2.622   1.802   6.532
 4316SOL     OW13279   2.721   0.956   6.447
 4316SOL    HW113280   2.775   0.887   6.495
 4316SOL    HW213281   2.689   1.025   6.513
 4317SOL     OW13282   2.945   0.984   5.673
 4317SOL    HW113283   2.922   1.037   5.591
 4317SOL    HW213284   3.026   0.928   5.654
 4318SOL     OW13285   3.723   1.569   6.437
 4318SOL    HW113286   3.652   1.557   6.367
 4318SOL    HW213287   3.724   1.490   6.497
 4319SOL     OW13288   2.083   1.314   7.430
 4319SOL    HW113289   2.018   1.241   7.409
 4319SOL    HW213290   2.087   1.328   7.528
 4320SOL     OW13291   1.941   1.240   6.239
 4320SOL    HW113292   1.940   1.193   6.327
 4320SOL    HW213293   2.023   1.212   6.188
 4321SOL     OW13294   2.534   1.391   7.210
 4321SOL    HW113295   2.456   1.341   7.248
 4321SOL    HW213296   2.531   1.486   7.241
 4322SOL     OW13297   3.686   0.192   6.813
 4322SOL    HW113298   3.682   0.102   6.857
 4322SOL    HW213299   3.689   0.181   6.714
 4323SOL     OW13300   2.290   0.424   6.106
 4323SOL    HW113301   2.320   0.352   6.044
 4323SOL    HW213302   2.251   0.384   6.189
 4324SOL     OW13303   3.567   1.487   6.690
 4324SOL    HW113304   3.474   1.462   6.663
 4324SOL    HW213305   3.593   1.437   6.772
 4325SOL     OW13306   2.179   0.547   6.866
 4325SOL    HW113307   2.217   0.488   6.938
 4325SOL    HW213308   2.219   0.521   6.778
 4326SOL     OW13309   2.674   1.586   6.273
 4326SOL    HW113310   2.706   1.596   6.179
 4326SOL    HW213311   2.595   1.524   6.275
 4327SOL     OW13312   3.286   0.214   6.698
 4327SOL    HW113313   3.338   0.149   6.753
 4327SOL    HW213314   3.237   0.277   6.759
 4328SOL     OW13315   2.863   0.034   6.740
 4328SOL    HW113316   2.800  -0.038   6.709
 4328SOL    HW213317   2.956  -0.002   6.740
 4329SOL     OW13318   2.632   1.330   5.887
 4329SOL    HW113319   2.586   1.243   5.904
 4329SOL    HW213320   2.723   1.327   5.928
 4330SOL     OW13321   2.480   1.567   6.870
 4330SOL    HW113322   2.475   1.649   6.927
 4330SOL    HW213323   2.569   1.564   6.825
 4331SOL     OW13324   3.214   0.052   5.754
 4331SOL    HW113325   3.249   0.011   5.670
 4331SOL    HW213326   3.124   0.014   5.774
 4332SOL     OW13327   3.162   0.453   6.277
 4332SOL    HW113328   3.103   0.533   6.281
 4332SOL    HW213329   3.177   0.418   6.370
 4333SOL     OW13330   3.455   0.221   6.468
 4333SOL    HW113331   3.371   0.220   6.522
 4333SOL    HW213332   3.457   0.304   6.412
 4334SOL     OW13333   1.901   1.077   5.886
 4334SOL    HW113334   2.000   1.066   5.877
 4334SOL    HW213335   1.861   0.991   5.918
 4335SOL     OW13336   2.737   1.646   5.923
 4335SOL    HW113337   2.660   1.611   5.869
 4335SOL    HW213338   2.705   1.717   5.985
 4336SOL     OW13339   2.092   0.628   7.561
 4336SOL    HW113340   1.999   0.626   7.598
 4336SOL    HW213341   2.093   0.589   7.469
 4337SOL     OW13342   2.087   0.275   8.444
 4337SOL    HW113343   2.122   0.258   8.536
 4337SOL    HW213344   1.999   0.230   8.432
 4338SOL     OW13345   1.881   0.368   8.095
 4338SOL    HW113346   1.799   0.411   8.134
 4338SOL    HW213347   1.853   0.295   8.032
 4339SOL     OW13348   2.431   1.275   8.613
 4339SOL    HW113349   2.338   1.268   8.576
 4339SOL    HW213350   2.442   1.364   8.657
 4340SOL     OW13351   3.417   1.511   8.151
 4340SOL    HW113352   3.360   1.495   8.232
 4340SOL    HW213353   3.358   1.521   8.071
 4341SOL     OW13354   2.997   0.703   8.165
 4341SOL    HW113355   3.054   0.781   8.140
 4341SOL    HW213356   2.937   0.729   8.241
 4342SOL     OW13357   3.617   0.607   7.679
 4342SOL    HW113358   3.605   0.594   7.580
 4342SOL    HW213359   3.587   0.526   7.728
 4343SOL     OW13360   2.630   1.144   8.471
 4343SOL    HW113361   2.552   1.161   8.531
 4343SOL    HW213362   2.664   1.231   8.435
 4344SOL     OW13363   2.712   0.798   9.271
 4344SOL    HW113364   2.708   0.874   9.336
 4344SOL    HW213365   2.734   0.834   9.180
 4345SOL     OW13366   2.547   1.012   8.113
 4345SOL    HW113367   2.616   0.996   8.183
 4345SOL    HW213368   2.474   1.069   8.151
 4346SOL     OW13369   2.548   1.161   9.251
 4346SOL    HW113370   2.608   1.240   9.265
 4346SOL    HW213371   2.462   1.192   9.210
 4347SOL     OW13372   2.197   1.435   8.509
 4347SOL    HW113373   2.119   1.404   8.456
 4347SOL    HW213374   2.255   1.493   8.452
 4348SOL     OW13375   3.322   1.505   8.787
 4348SOL    HW113376   3.346   1.599   8.813
 4348SOL    HW213377   3.306   1.451   8.869
 4349SOL     OW13378   2.300   0.392   8.947
 4349SOL    HW113379   2.382   0.336   8.956
 4349SOL    HW213380   2.219   0.334   8.951
 4350SOL     OW13381   3.465   0.447   8.185
 4350SOL    HW113382   3.391   0.493   8.135
 4350SOL    HW213383   3.516   0.515   8.238
 4351SOL     OW13384   2.093   1.713   7.931
 4351SOL    HW113385   2.127   1.790   7.985
 4351SOL    HW213386   2.137   1.713   7.841
 4352SOL     OW13387   2.989   1.341   9.138
 4352SOL    HW113388   3.036   1.341   9.226
 4352SOL    HW213389   2.941   1.254   9.127
 4353SOL     OW13390   2.092   1.434   7.986
 4353SOL    HW113391   2.066   1.530   7.986
 4353SOL    HW213392   2.021   1.380   8.031
 4354SOL     OW13393   2.102   1.091   8.334
 4354SOL    HW113394   2.116   1.007   8.386
 4354SOL    HW213395   2.047   1.155   8.389
 4355SOL     OW13396   2.482   1.786   8.887
 4355SOL    HW113397   2.390   1.769   8.922
 4355SOL    HW213398   2.510   1.878   8.913
 4356SOL     OW13399   2.468   0.964   7.571
 4356SOL    HW113400   2.475   1.048   7.517
 4356SOL    HW213401   2.514   0.977   7.659
 4357SOL     OW13402   3.456   0.114   8.928
 4357SOL    HW113403   3.438   0.181   8.856
 4357SOL    HW213404   3.453   0.160   9.017
 4358SOL     OW13405   1.984   0.643   8.011
 4358SOL    HW113406   1.939   0.555   8.028
 4358SOL    HW213407   1.983   0.697   8.095
 4359SOL     OW13408   3.704   1.767   7.807
 4359SOL    HW113409   3.758   1.738   7.887
 4359SOL    HW213410   3.734   1.857   7.778
 4360SOL     OW13411   1.889   1.596   7.565
 4360SOL    HW113412   1.870   1.500   7.586
 4360SOL    HW213413   1.856   1.654   7.640
 4361SOL     OW13414   3.551   0.922   8.060
 4361SOL    HW113415   3.646   0.893   8.068
 4361SOL    HW213416   3.543   0.987   7.985
 4362SOL     OW13417   3.503   1.108   7.880
 4362SOL    HW113418   3.589   1.110   7.828
 4362SOL    HW213419   3.517   1.155   7.968
 4363SOL     OW13420   1.975   0.737   9.045
 4363SOL    HW113421   2.063   0.724   9.090
 4363SOL    HW213422   1.962   0.834   9.023
 4364SOL     OW13423   2.475   1.365   8.174
 4364SOL    HW113424   2.426   1.278   8.183
 4364SOL    HW213425   2.452   1.408   8.087
 4365SOL     OW13426   3.155   1.228   8.871
 4365SOL    HW113427   3.192   1.155   8.813
 4365SOL    HW213428   3.207   1.233   8.956
 4366SOL     OW13429   2.671   0.004   7.950
 4366SOL    HW113430   2.711   0.095   7.941
 4366SOL    HW213431   2.571   0.012   7.956
 4367SOL     OW13432   2.059   0.976   8.712
 4367SOL    HW113433   2.148   0.931   8.698
 4367SOL    HW213434   1.986   0.911   8.693
 4368SOL     OW13435   3.387   0.999   7.638
 4368SOL    HW113436   3.324   0.923   7.651
 4368SOL    HW213437   3.435   1.017   7.724
 4369SOL     OW13438   3.049   1.792   9.064
 4369SOL    HW113439   3.073   1.852   8.988
 4369SOL    HW213440   3.056   1.697   9.034
 4370SOL     OW13441   2.179   0.251   9.249
 4370SOL    HW113442   2.250   0.322   9.255
 4370SOL    HW213443   2.091   0.290   9.277
 4371SOL     OW13444   3.328   1.417   8.401
 4371SOL    HW113445   3.269   1.423   8.481
 4371SOL    HW213446   3.313   1.329   8.355
 4372SOL     OW13447   3.529   1.714   8.020
 4372SOL    HW113448   3.488   1.691   7.932
 4372SOL    HW213449   3.511   1.640   8.085
 4373SOL     OW13450   2.460   0.729   7.718
 4373SOL    HW113451   2.484   0.798   7.650
 4373SOL    HW213452   2.382   0.762   7.772
 4374SOL     OW13453   3.143   0.345   8.392
 4374SOL    HW113454   3.057   0.295   8.379
 4374SOL    HW213455   3.205   0.291   8.448
 4375SOL     OW13456   3.438   1.662   7.755
 4375SOL    HW113457   3.527   1.708   7.758
 4375SOL    HW213458   3.417   1.638   7.660
 4376SOL     OW13459   2.669   0.605   8.913
 4376SOL    HW113460   2.622   0.602   9.002
 4376SOL    HW213461   2.618   0.550   8.847
 4377SOL     OW13462   3.256   0.469   9.122
 4377SOL    HW113463   3.236   0.512   9.210
 4377SOL    HW213464   3.334   0.407   9.131
 4378SOL     OW13465   2.835   0.890   9.020
 4378SOL    HW113466   2.881   0.806   8.991
 4378SOL    HW213467   2.779   0.924   8.945
 4379SOL     OW13468   2.853   0.410   8.690
 4379SOL    HW113469   2.776   0.444   8.744
 4379SOL    HW213470   2.819   0.359   8.611
 4380SOL     OW13471   2.903   0.701   7.877
 4380SOL    HW113472   2.929   0.697   7.973
 4380SOL    HW213473   2.818   0.650   7.863
 4381SOL     OW13474   1.938   0.811   8.237
 4381SOL    HW113475   2.037   0.799   8.246
 4381SOL    HW213476   1.914   0.906   8.258
 4382SOL     OW13477   1.992   1.821   9.019
 4382SOL    HW113478   1.982   1.806   9.118
 4382SOL    HW213479   1.906   1.857   8.983
 4383SOL     OW13480   2.727   0.348   7.643
 4383SOL    HW113481   2.786   0.411   7.594
 4383SOL    HW213482   2.746   0.254   7.614
 4384SOL     OW13483   3.581   0.585   9.279
 4384SOL    HW113484   3.555   0.674   9.243
 4384SOL    HW213485   3.579   0.517   9.206
 4385SOL     OW13486   3.224   1.144   7.993
 4385SOL    HW113487   3.307   1.115   7.945
 4385SOL    HW213488   3.175   1.211   7.937
 4386SOL     OW13489   2.412   0.196   8.333
 4386SOL    HW113490   2.407   0.191   8.433
 4386SOL    HW213491   2.414   0.292   8.304
 4387SOL     OW13492   2.870   1.456   7.925
 4387SOL    HW113493   2.824   1.528   7.873
 4387SOL    HW213494   2.866   1.476   8.023
 4388SOL     OW13495   2.213   1.801   8.301
 4388SOL    HW113496   2.263   1.715   8.307
 4388SOL    HW213497   2.278   1.878   8.298
 4389SOL     OW13498   3.657   1.066   8.321
 4389SOL    HW113499   3.595   1.051   8.245
 4389SOL    HW213500   3.605   1.077   8.406
 4390SOL     OW13501   3.089   1.550   8.954
 4390SOL    HW113502   3.095   1.473   9.018
 4390SOL    HW213503   3.037   1.524   8.874
 4391SOL     OW13504   2.183   0.943   7.690
 4391SOL    HW113505   2.265   0.982   7.648
 4391SOL    HW213506   2.156   0.861   7.641
 4392SOL     OW13507   3.320   0.735   8.176
 4392SOL    HW113508   3.315   0.670   8.251
 4392SOL    HW213509   3.400   0.794   8.189
 4393SOL     OW13510   2.323   1.266   9.175
 4393SOL    HW113511   2.273   1.267   9.089
 4393SOL    HW213512   2.260   1.248   9.251
 4394SOL     OW13513   2.973   1.776   7.685
 4394SOL    HW113514   2.913   1.714   7.735
 4394SOL    HW213515   3.004   1.732   7.600
 4395SOL     OW13516   2.064   0.285   8.946
 4395SOL    HW113517   1.984   0.345   8.933
 4395SOL    HW213518   2.054   0.236   9.032
 4396SOL     OW13519   3.494   1.377   7.529
 4396SOL    HW113520   3.462   1.471   7.519
 4396SOL    HW213521   3.418   1.314   7.517
 4397SOL     OW13522   2.326   1.743   7.771
 4397SOL    HW113523   2.359   1.782   7.857
 4397SOL    HW213524   2.402   1.736   7.706
 4398SOL     OW13525   3.262   0.107   7.874
 4398SOL    HW113526   3.238   0.070   7.784
 4398SOL    HW213527   3.361   0.123   7.878
 4399SOL     OW13528   2.111   1.785   8.689
 4399SOL    HW113529   2.168   1.720   8.739
 4399SOL    HW213530   2.095   1.752   8.596
 4400SOL     OW13531   2.802   1.698   8.352
 4400SOL    HW113532   2.882   1.641   8.373
 4400SOL    HW213533   2.753   1.658   8.275
 4401SOL     OW13534   2.244   0.700   7.928
 4401SOL    HW113535   2.289   0.610   7.925
 4401SOL    HW213536   2.150   0.689   7.961
 4402SOL     OW13537   3.409   0.222   9.177
 4402SOL    HW113538   3.404   0.259   9.269
 4402SOL    HW213539   3.337   0.153   9.165
 4403SOL     OW13540   2.476   0.122   7.565
 4403SOL    HW113541   2.574   0.100   7.572
 4403SOL    HW213542   2.445   0.105   7.472
 4404SOL     OW13543   2.643   0.264   9.197
 4404SOL    HW113544   2.710   0.203   9.240
 4404SOL    HW213545   2.570   0.283   9.262
 4405SOL     OW13546   2.750   1.514   8.643
 4405SOL    HW113547   2.727   1.489   8.549
 4405SOL    HW213548   2.811   1.445   8.682
 4406SOL     OW13549   3.213   0.590   8.881
 4406SOL    HW113550   3.241   0.547   8.966
 4406SOL    HW213551   3.238   0.686   8.882
 4407SOL     OW13552   2.665   1.402   8.372
 4407SOL    HW113553   2.755   1.416   8.330
 4407SOL    HW213554   2.594   1.404   8.301
 4408SOL     OW13555   2.784   0.503   8.347
 4408SOL    HW113556   2.759   0.494   8.251
 4408SOL    HW213557   2.832   0.421   8.378
 4409SOL     OW13558   2.401   0.064   7.960
 4409SOL    HW113559   2.320   0.065   8.018
 4409SOL    HW213560   2.404   0.147   7.905
 4410SOL     OW13561   3.296   1.188   7.489
 4410SOL    HW113562   3.328   1.112   7.546
 4410SOL    HW213563   3.204   1.215   7.519
 4411SOL     OW13564   2.159   0.035   7.619
 4411SOL    HW113565   2.208   0.119   7.598
 4411SOL    HW213566   2.221  -0.030   7.664
 4412SOL     OW13567   2.797   0.236   7.928
 4412SOL    HW113568   2.749   0.277   7.850
 4412SOL    HW213569   2.896   0.234   7.909
 4413SOL     OW13570   2.938   0.683   8.912
 4413SOL    HW113571   2.858   0.622   8.915
 4413SOL    HW213572   3.019   0.630   8.888
 4414SOL     OW13573   3.089   1.570   8.241
 4414SOL    HW113574   3.110   1.644   8.176
 4414SOL    HW213575   3.157   1.570   8.314
 4415SOL     OW13576   2.321   1.152   8.189
 4415SOL    HW113577   2.250   1.125   8.254
 4415SOL    HW213578   2.295   1.124   8.096
 4416SOL     OW13579   3.133   1.797   8.039
 4416SOL    HW113580   3.177   1.861   7.975
 4416SOL    HW213581   3.083   1.849   8.109
 4417SOL     OW13582   2.894   0.549   7.464
 4417SOL    HW113583   2.853   0.631   7.425
 4417SOL    HW213584   2.958   0.575   7.537
 4418SOL     OW13585   1.940   0.556   8.834
 4418SOL    HW113586   2.032   0.555   8.793
 4418SOL    HW213587   1.934   0.630   8.901
 4419SOL     OW13588   2.423   0.222   8.595
 4419SOL    HW113589   2.461   0.138   8.632
 4419SOL    HW213590   2.335   0.241   8.639
 4420SOL     OW13591   2.728   0.454   8.090
 4420SOL    HW113592   2.696   0.526   8.028
 4420SOL    HW213593   2.752   0.373   8.037
 4421SOL     OW13594   2.879   0.039   8.201
 4421SOL    HW113595   2.807   0.044   8.132
 4421SOL    HW213596   2.855  -0.030   8.270
 4422SOL     OW13597   3.291   1.173   8.315
 4422SOL    HW113598   3.236   1.089   8.308
 4422SOL    HW213599   3.317   1.202   8.223
 4423SOL     OW13600   3.328   0.590   8.440
 4423SOL    HW113601   3.298   0.495   8.447
 4423SOL    HW213602   3.401   0.606   8.506
 4424SOL     OW13603   3.719   0.833   7.825
 4424SOL    HW113604   3.761   0.769   7.889
 4424SOL    HW213605   3.681   0.782   7.747
 4425SOL     OW13606   2.350   1.385   7.622
 4425SOL    HW113607   2.263   1.370   7.669
 4425SOL    HW213608   2.333   1.411   7.527
 4426SOL     OW13609   3.526   1.280   8.105
 4426SOL    HW113610   3.625   1.288   8.119
 4426SOL    HW213611   3.481   1.364   8.136
 4427SOL     OW13612   3.252   0.575   7.526
 4427SOL    HW113613   3.198   0.554   7.607
 4427SOL    HW213614   3.343   0.534   7.535
 4428SOL     OW13615   2.389   0.256   7.776
 4428SOL    HW113616   2.416   0.197   7.701
 4428SOL    HW213617   2.389   0.351   7.745
 4429SOL     OW13618   3.616   1.223   9.036
 4429SOL    HW113619   3.707   1.184   9.023
 4429SOL    HW213620   3.624   1.319   9.060
 4430SOL     OW13621   2.926   1.347   8.788
 4430SOL    HW113622   2.846   1.324   8.843
 4430SOL    HW213623   3.009   1.321   8.837
 4431SOL     OW13624   3.454   1.629   9.073
 4431SOL    HW113625   3.481   1.663   8.983
 4431SOL    HW213626   3.533   1.591   9.119
 4432SOL     OW13627   2.973   1.195   8.548
 4432SOL    HW113628   2.933   1.239   8.629
 4432SOL    HW213629   2.932   1.232   8.465
 4433SOL     OW13630   3.500   1.099   8.527
 4433SOL    HW113631   3.505   1.180   8.586
 4433SOL    HW213632   3.414   1.101   8.476
 4434SOL     OW13633   2.777   0.089   8.850
 4434SOL    HW113634   2.802   0.069   8.755
 4434SOL    HW213635   2.849   0.145   8.892
 4435SOL     OW13636   2.842   1.116   9.167
 4435SOL    HW113637   2.743   1.122   9.177
 4435SOL    HW213638   2.865   1.036   9.111
 4436SOL     OW13639   2.567   1.050   7.816
 4436SOL    HW113640   2.553   1.057   7.915
 4436SOL    HW213641   2.651   0.999   7.798
 4437SOL     OW13642   2.272   0.813   8.699
 4437SOL    HW113643   2.358   0.825   8.749
 4437SOL    HW213644   2.230   0.726   8.726
 4438SOL     OW13645   3.136   0.386   8.710
 4438SOL    HW113646   3.157   0.460   8.774
 4438SOL    HW213647   3.047   0.403   8.667
 4439SOL     OW13648   1.926   1.564   8.779
 4439SOL    HW113649   1.880   1.646   8.745
 4439SOL    HW213650   2.024   1.583   8.788
 4440SOL     OW13651   2.229   1.100   7.949
 4440SOL    HW113652   2.222   1.183   7.893
 4440SOL    HW213653   2.233   1.020   7.889
 4441SOL     OW13654   2.428   0.537   8.313
 4441SOL    HW113655   2.440   0.603   8.239
 4441SOL    HW213656   2.474   0.571   8.396
 4442SOL     OW13657   3.114   1.348   7.836
 4442SOL    HW113658   3.164   1.425   7.876
 4442SOL    HW213659   3.019   1.350   7.868
 4443SOL     OW13660   3.134   1.445   8.590
 4443SOL    HW113661   3.181   1.458   8.677
 4443SOL    HW213662   3.068   1.371   8.599
 4444SOL     OW13663   3.444   0.639   7.920
 4444SOL    HW113664   3.413   0.700   7.993
 4444SOL    HW213665   3.494   0.691   7.851
 4445SOL     OW13666   2.216   1.510   8.777
 4445SOL    HW113667   2.195   1.466   8.690
 4445SOL    HW213668   2.313   1.536   8.780
 4446SOL     OW13669   2.264   0.751   9.046
 4446SOL    HW113670   2.332   0.806   8.999
 4446SOL    HW213671   2.304   0.663   9.073
 4447SOL     OW13672   3.449   0.779   9.118
 4447SOL    HW113673   3.357   0.817   9.113
 4447SOL    HW213674   3.509   0.826   9.053
 4448SOL     OW13675   2.875   0.105   9.218
 4448SOL    HW113676   2.881   0.190   9.166
 4448SOL    HW213677   2.907   0.029   9.161
 4449SOL     OW13678   2.366   0.050   9.188
 4449SOL    HW113679   2.324  -0.007   9.118
 4449SOL    HW213680   2.300   0.119   9.220
 4450SOL     OW13681   2.435   0.870   8.477
 4450SOL    HW113682   2.479   0.959   8.468
 4450SOL    HW213683   2.372   0.870   8.554
 4451SOL     OW13684   3.222   0.862   8.493
 4451SOL    HW113685   3.147   0.862   8.427
 4451SOL    HW213686   3.259   0.770   8.502
 4452SOL     OW13687   3.071   0.525   7.723
 4452SOL    HW113688   3.084   0.441   7.777
 4452SOL    HW213689   3.042   0.599   7.783
 4453SOL     OW13690   2.169   0.213   8.679
 4453SOL    HW113691   2.146   0.250   8.769
 4453SOL    HW213692   2.139   0.118   8.673
 4454SOL     OW13693   1.899   1.310   8.730
 4454SOL    HW113694   1.952   1.261   8.798
 4454SOL    HW213695   1.921   1.408   8.735
 4455SOL     OW13696   2.594   0.634   8.512
 4455SOL    HW113697   2.653   0.608   8.436
 4455SOL    HW213698   2.566   0.730   8.501
 4456SOL     OW13699   3.590   0.935   9.302
 4456SOL    HW113700   3.544   0.928   9.213
 4456SOL    HW213701   3.528   0.979   9.368
 4457SOL     OW13702   2.169   0.063   8.066
 4457SOL    HW113703   2.158   0.157   8.099
 4457SOL    HW213704   2.164   0.000   8.143
 4458SOL     OW13705   3.484   0.367   7.822
 4458SOL    HW113706   3.486   0.291   7.886
 4458SOL    HW213707   3.436   0.444   7.862
 4459SOL     OW13708   2.885   0.766   8.414
 4459SOL    HW113709   2.900   0.787   8.510
 4459SOL    HW213710   2.855   0.671   8.405
 4460SOL     OW13711   2.842   1.573   9.148
 4460SOL    HW113712   2.822   1.617   9.060
 4460SOL    HW213713   2.881   1.482   9.132
 4461SOL     OW13714   3.721   1.518   9.053
 4461SOL    HW113715   3.735   1.545   8.958
 4461SOL    HW213716   3.804   1.540   9.106
 4462SOL     OW13717   2.212   0.898   9.252
 4462SOL    HW113718   2.288   0.942   9.300
 4462SOL    HW213719   2.247   0.851   9.170
 4463SOL     OW13720   3.402   0.274   7.573
 4463SOL    HW113721   3.341   0.199   7.596
 4463SOL    HW213722   3.424   0.326   7.656
 4464SOL     OW13723   3.165   0.838   7.490
 4464SOL    HW113724   3.199   0.745   7.505
 4464SOL    HW213725   3.183   0.865   7.395
 4465SOL     OW13726   2.930   1.333   8.297
 4465SOL    HW113727   2.937   1.249   8.242
 4465SOL    HW213728   2.992   1.402   8.261
 4466SOL     OW13729   2.181   0.810   8.397
 4466SOL    HW113730   2.274   0.846   8.402
 4466SOL    HW213731   2.175   0.725   8.449
 4467SOL     OW13732   2.201   0.509   8.454
 4467SOL    HW113733   2.149   0.426   8.437
 4467SOL    HW213734   2.278   0.514   8.390
 4468SOL     OW13735   3.000   0.380   9.126
 4468SOL    HW113736   2.955   0.443   9.190
 4468SOL    HW213737   3.093   0.411   9.109
 4469SOL     OW13738   3.022   0.207   8.925
 4469SOL    HW113739   3.022   0.271   9.002
 4469SOL    HW213740   3.050   0.255   8.842
 4470SOL     OW13741   1.870   1.326   7.648
 4470SOL    HW113742   1.777   1.347   7.617
 4470SOL    HW213743   1.880   1.227   7.661
 4471SOL     OW13744   1.950   1.801   8.375
 4471SOL    HW113745   1.908   1.715   8.348
 4471SOL    HW213746   2.044   1.804   8.341
 4472SOL     OW13747   2.366   1.568   8.358
 4472SOL    HW113748   2.432   1.642   8.367
 4472SOL    HW213749   2.410   1.489   8.316
 4473SOL     OW13750   2.864   0.796   8.686
 4473SOL    HW113751   2.905   0.764   8.772
 4473SOL    HW213752   2.768   0.769   8.683
 4474SOL     OW13753   1.902   0.544   8.562
 4474SOL    HW113754   1.987   0.511   8.521
 4474SOL    HW213755   1.915   0.559   8.660
 4475SOL     OW13756   2.051   0.520   9.170
 4475SOL    HW113757   2.110   0.480   9.100
 4475SOL    HW213758   1.993   0.591   9.129
 4476SOL     OW13759   3.231   0.950   9.108
 4476SOL    HW113760   3.270   1.039   9.128
 4476SOL    HW213761   3.241   0.930   9.011
 4477SOL     OW13762   2.677   0.572   7.773
 4477SOL    HW113763   2.684   0.483   7.727
 4477SOL    HW213764   2.583   0.606   7.765
 4478SOL     OW13765   3.519   0.604   8.654
 4478SOL    HW113766   3.481   0.535   8.716
 4478SOL    HW213767   3.601   0.568   8.610
 4479SOL     OW13768   2.114   1.564   9.192
 4479SOL    HW113769   2.084   1.621   9.268
 4479SOL    HW213770   2.107   1.467   9.218
 4480SOL     OW13771   2.533   0.464   8.717
 4480SOL    HW113772   2.499   0.375   8.687
 4480SOL    HW213773   2.559   0.518   8.637
 4481SOL     OW13774   2.792   1.678   8.913
 4481SOL    HW113775   2.768   1.660   8.818
 4481SOL    HW213776   2.822   1.772   8.923
 4482SOL     OW13777   2.335   0.500   7.639
 4482SOL    HW113778   2.396   0.580   7.643
 4482SOL    HW213779   2.240   0.531   7.646
 4483SOL     OW13780   2.021   1.137   8.914
 4483SOL    HW113781   2.043   1.076   8.990
 4483SOL    HW213782   2.031   1.088   8.828
 4484SOL     OW13783   3.209   1.059   8.682
 4484SOL    HW113784   3.233   0.996   8.608
 4484SOL    HW213785   3.119   1.099   8.664
 4485SOL     OW13786   3.164   0.855   7.757
 4485SOL    HW113787   3.078   0.824   7.799
 4485SOL    HW213788   3.160   0.841   7.658
 4486SOL     OW13789   3.621   1.747   8.602
 4486SOL    HW113790   3.682   1.777   8.529
 4486SOL    HW213791   3.583   1.658   8.580
 4487SOL     OW13792   3.114   1.731   8.576
 4487SOL    HW113793   3.198   1.736   8.522
 4487SOL    HW213794   3.091   1.635   8.594
 4488SOL     OW13795   1.945   1.258   8.470
 4488SOL    HW113796   1.940   1.257   8.570
 4488SOL    HW213797   1.862   1.217   8.432
 4489SOL     OW13798   2.550   1.662   9.164
 4489SOL    HW113799   2.494   1.743   9.173
 4489SOL    HW213800   2.602   1.666   9.078
 4490SOL     OW13801   3.588   0.135   7.971
 4490SOL    HW113802   3.661   0.118   7.904
 4490SOL    HW213803   3.557   0.048   8.009
 4491SOL     OW13804   3.250   1.573   7.925
 4491SOL    HW113805   3.317   1.585   7.851
 4491SOL    HW213806   3.210   1.662   7.948
 4492SOL     OW13807   1.992   1.794   9.299
 4492SOL    HW113808   1.951   1.720   9.352
 4492SOL    HW213809   2.056   1.845   9.357
 4493SOL     OW13810   3.142   0.927   8.120
 4493SOL    HW113811   3.202   0.846   8.122
 4493SOL    HW213812   3.182   0.996   8.060
 4494SOL     OW13813   2.692   1.273   8.870
 4494SOL    HW113814   2.687   1.306   8.965
 4494SOL    HW213815   2.606   1.292   8.824
 4495SOL     OW13816   2.534   1.616   7.602
 4495SOL    HW113817   2.543   1.626   7.503
 4495SOL    HW213818   2.494   1.527   7.623
 4496SOL     OW13819   3.512   1.720   8.842
 4496SOL    HW113820   3.565   1.730   8.758
 4496SOL    HW213821   3.485   1.810   8.876
 4497SOL     OW13822   3.703   0.175   8.411
 4497SOL    HW113823   3.742   0.090   8.375
 4497SOL    HW213824   3.605   0.177   8.392
 4498SOL     OW13825   2.125   0.326   8.168
 4498SOL    HW113826   2.046   0.377   8.134
 4498SOL    HW213827   2.116   0.311   8.266
 4499SOL     OW13828   3.056   1.612   7.479
 4499SOL    HW113829   3.062   1.519   7.516
 4499SOL    HW213830   2.997   1.612   7.399
 4500SOL     OW13831   2.684   1.002   8.820
 4500SOL    HW113832   2.724   1.001   8.728
 4500SOL    HW213833   2.694   1.094   8.860
 4501SOL     OW13834   2.778   0.910   7.739
 4501SOL    HW113835   2.841   0.948   7.671
 4501SOL    HW213836   2.818   0.827   7.778
 4502SOL     OW13837   3.366   1.607   7.492
 4502SOL    HW113838   3.274   1.644   7.499
 4502SOL    HW213839   3.404   1.627   7.402
 4503SOL     OW13840   2.234   1.288   8.938
 4503SOL    HW113841   2.221   1.381   8.904
 4503SOL    HW213842   2.150   1.236   8.925
 4504SOL     OW13843   3.476   1.292   8.737
 4504SOL    HW113844   3.536   1.295   8.817
 4504SOL    HW213845   3.401   1.356   8.750
 4505SOL     OW13846   2.901   1.098   8.144
 4505SOL    HW113847   2.831   1.051   8.198
 4505SOL    HW213848   2.960   1.030   8.101
 4506SOL     OW13849   2.876   0.236   8.419
 4506SOL    HW113850   2.868   0.200   8.326
 4506SOL    HW213851   2.874   0.160   8.484
 4507SOL     OW13852   2.452   1.487   7.939
 4507SOL    HW113853   2.494   1.429   7.869
 4507SOL    HW213854   2.408   1.566   7.895
 4508SOL     OW13855   3.571   0.385   8.829
 4508SOL    HW113856   3.644   0.454   8.833
 4508SOL    HW213857   3.599   0.310   8.770
 4509SOL     OW13858   2.117   1.348   7.738
 4509SOL    HW113859   2.021   1.349   7.711
 4509SOL    HW213860   2.129   1.401   7.822
 4510SOL     OW13861   1.967   1.013   9.174
 4510SOL    HW113862   1.890   0.980   9.228
 4510SOL    HW213863   2.052   0.983   9.216
 4511SOL     OW13864   2.534   0.203   8.937
 4511SOL    HW113865   2.624   0.187   8.897
 4511SOL    HW213866   2.542   0.208   9.036
 4512SOL     OW13867   1.937   0.345   7.481
 4512SOL    HW113868   1.845   0.317   7.452
 4512SOL    HW213869   1.968   0.422   7.425
 4513SOL     OW13870   3.302   0.856   8.846
 4513SOL    HW113871   3.245   0.908   8.783
 4513SOL    HW213872   3.398   0.868   8.822
 4514SOL     OW13873   1.934   0.166   7.766
 4514SOL    HW113874   1.917   0.249   7.712
 4514SOL    HW213875   2.024   0.129   7.744
 4515SOL     OW13876   3.045   1.335   7.567
 4515SOL    HW113877   2.946   1.324   7.569
 4515SOL    HW213878   3.079   1.350   7.660
 4516SOL     OW13879   2.475   0.842   8.879
 4516SOL    HW113880   2.531   0.923   8.862
 4516SOL    HW213881   2.534   0.762   8.882
 4517SOL     OW13882   3.355   1.767   8.407
 4517SOL    HW113883   3.388   1.831   8.338
 4517SOL    HW213884   3.421   1.761   8.482
 4518SOL     OW13885   2.578   0.565   9.156
 4518SOL    HW113886   2.597   0.630   9.230
 4518SOL    HW213887   2.638   0.485   9.165
 4519SOL     OW13888   3.312   1.220   9.081
 4519SOL    HW113889   3.303   1.210   9.180
 4519SOL    HW213890   3.408   1.213   9.055
 4520SOL     OW13891   2.252   1.741   9.008
 4520SOL    HW113892   2.161   1.782   9.006
 4520SOL    HW213893   2.245   1.647   9.040
 4521SOL     OW13894   3.536   0.883   8.702
 4521SOL    HW113895   3.509   0.794   8.665
 4521SOL    HW213896   3.537   0.951   8.629
 4522SOL     OW13897   3.087   0.325   7.897
 4522SOL    HW113898   3.152   0.251   7.886
 4522SOL    HW213899   3.107   0.375   7.981
 4523SOL     OW13900   2.456   0.745   8.100
 4523SOL    HW113901   2.506   0.830   8.081
 4523SOL    HW213902   2.368   0.747   8.052
 4524SOL     OW13903   3.639   0.342   9.090
 4524SOL    HW113904   3.622   0.373   8.996
 4524SOL    HW213905   3.555   0.305   9.128
 4525SOL     OW13906   3.592   0.934   8.965
 4525SOL    HW113907   3.630   1.025   8.980
 4525SOL    HW213908   3.584   0.917   8.866
 4526SOL     OW13909   2.721   1.374   7.464
 4526SOL    HW113910   2.675   1.389   7.552
 4526SOL    HW213911   2.765   1.459   7.434
 4527SOL     OW13912   2.523   1.790   8.401
 4527SOL    HW113913   2.477   1.878   8.388
 4527SOL    HW213914   2.622   1.802   8.394
 4528SOL     OW13915   2.721   0.956   8.309
 4528SOL    HW113916   2.775   0.887   8.357
 4528SOL    HW213917   2.689   1.025   8.375
 4529SOL     OW13918   2.945   0.984   7.535
 4529SOL    HW113919   2.922   1.037   7.453
 4529SOL    HW213920   3.026   0.928   7.516
 4530SOL     OW13921   3.723   1.569   8.299
 4530SOL    HW113922   3.652   1.557   8.229
 4530SOL    HW213923   3.724   1.490   8.359
 4531SOL     OW13924   2.083   1.314   9.292
 4531SOL    HW113925   2.018   1.241   9.271
 4531SOL    HW213926   2.087   1.328   9.390
 4532SOL     OW13927   1.941   1.240   8.101
 4532SOL    HW113928   1.940   1.193   8.189
 4532SOL    HW213929   2.023   1.212   8.050
 4533SOL     OW13930   2.534   1.391   9.072
 4533SOL    HW113931   2.456   1.341   9.110
 4533SOL    HW213932   2.531   1.486   9.103
 4534SOL     OW13933   3.686   0.192   8.675
 4534SOL    HW113934   3.682   0.102   8.719
 4534SOL    HW213935   3.689   0.181   8.576
 4535SOL     OW13936   2.290   0.424   7.968
 4535SOL    HW113937   2.320   0.352   7.906
 4535SOL    HW213938   2.251   0.384   8.051
 4536SOL     OW13939   3.567   1.487   8.552
 4536SOL    HW113940   3.474   1.462   8.525
 4536SOL    HW213941   3.593   1.437   8.634
 4537SOL     OW13942   2.179   0.547   8.728
 4537SOL    HW113943   2.217   0.488   8.800
 4537SOL    HW213944   2.219   0.521   8.640
 4538SOL     OW13945   2.674   1.586   8.135
 4538SOL    HW113946   2.706   1.596   8.041
 4538SOL    HW213947   2.595   1.524   8.137
 4539SOL     OW13948   3.286   0.214   8.560
 4539SOL    HW113949   3.338   0.149   8.615
 4539SOL    HW213950   3.237   0.277   8.621
 4540SOL     OW13951   2.863   0.034   8.602
 4540SOL    HW113952   2.800  -0.038   8.571
 4540SOL    HW213953   2.956  -0.002   8.602
 4541SOL     OW13954   2.632   1.330   7.749
 4541SOL    HW113955   2.586   1.243   7.766
 4541SOL    HW213956   2.723   1.327   7.790
 4542SOL     OW13957   2.480   1.567   8.732
 4542SOL    HW113958   2.475   1.649   8.789
 4542SOL    HW213959   2.569   1.564   8.687
 4543SOL     OW13960   3.214   0.052   7.616
 4543SOL    HW113961   3.249   0.011   7.532
 4543SOL    HW213962   3.124   0.014   7.636
 4544SOL     OW13963   3.162   0.453   8.139
 4544SOL    HW113964   3.103   0.533   8.143
 4544SOL    HW213965   3.177   0.418   8.232
 4545SOL     OW13966   3.455   0.221   8.330
 4545SOL    HW113967   3.371   0.220   8.384
 4545SOL    HW213968   3.457   0.304   8.274
 4546SOL     OW13969   1.901   1.077   7.748
 4546SOL    HW113970   2.000   1.066   7.739
 4546SOL    HW213971   1.861   0.991   7.780
 4547SOL     OW13972   2.737   1.646   7.785
 4547SOL    HW113973   2.660   1.611   7.731
 4547SOL    HW213974   2.705   1.717   7.847
 4548SOL     OW13975   2.092   0.628   9.423
 4548SOL    HW113976   1.999   0.626   9.460
 4548SOL    HW213977   2.093   0.589   9.331
 4549SOL     OW13978   2.087   0.275  10.306
 4549SOL    HW113979   2.122   0.258  10.398
 4549SOL    HW213980   1.999   0.230  10.294
 4550SOL     OW13981   1.881   0.368   9.957
 4550SOL    HW113982   1.799   0.411   9.996
 4550SOL    HW213983   1.853   0.295   9.894
 4551SOL     OW13984   2.431   1.275  10.475
 4551SOL    HW113985   2.338   1.268  10.438
 4551SOL    HW213986   2.442   1.364  10.519
 4552SOL     OW13987   3.417   1.511  10.013
 4552SOL    HW113988   3.360   1.495  10.094
 4552SOL    HW213989   3.358   1.521   9.933
 4553SOL     OW13990   2.997   0.703  10.027
 4553SOL    HW113991   3.054   0.781  10.002
 4553SOL    HW213992   2.937   0.729  10.103
 4554SOL     OW13993   3.617   0.607   9.541
 4554SOL    HW113994   3.605   0.594   9.442
 4554SOL    HW213995   3.587   0.526   9.590
 4555SOL     OW13996   2.630   1.144  10.333
 4555SOL    HW113997   2.552   1.161  10.393
 4555SOL    HW213998   2.664   1.231  10.297
 4556SOL     OW13999   2.547   1.012   9.975
 4556SOL    HW114000   2.616   0.996  10.045
 4556SOL    HW214001   2.474   1.069  10.013
 4557SOL     OW14002   2.197   1.435  10.371
 4557SOL    HW114003   2.119   1.404  10.318
 4557SOL    HW214004   2.255   1.493  10.314
 4558SOL     OW14005   2.300   0.392  10.809
 4558SOL    HW114006   2.382   0.336  10.818
 4558SOL    HW214007   2.219   0.334  10.813
 4559SOL     OW14008   3.465   0.447  10.047
 4559SOL    HW114009   3.391   0.493   9.997
 4559SOL    HW214010   3.516   0.515  10.100
 4560SOL     OW14011   2.093   1.713   9.793
 4560SOL    HW114012   2.127   1.790   9.847
 4560SOL    HW214013   2.137   1.713   9.703
 4561SOL     OW14014   2.092   1.434   9.848
 4561SOL    HW114015   2.066   1.530   9.848
 4561SOL    HW214016   2.021   1.380   9.893
 4562SOL     OW14017   2.102   1.091  10.196
 4562SOL    HW114018   2.116   1.007  10.248
 4562SOL    HW214019   2.047   1.155  10.251
 4563SOL     OW14020   2.482   1.786  10.749
 4563SOL    HW114021   2.390   1.769  10.784
 4563SOL    HW214022   2.510   1.878  10.775
 4564SOL     OW14023   2.468   0.964   9.433
 4564SOL    HW114024   2.475   1.048   9.379
 4564SOL    HW214025   2.514   0.977   9.521
 4565SOL     OW14026   1.984   0.643   9.873
 4565SOL    HW114027   1.939   0.555   9.890
 4565SOL    HW214028   1.983   0.697   9.957
 4566SOL     OW14029   3.704   1.767   9.669
 4566SOL    HW114030   3.758   1.738   9.749
 4566SOL    HW214031   3.734   1.857   9.640
 4567SOL     OW14032   1.889   1.596   9.427
 4567SOL    HW114033   1.870   1.500   9.448
 4567SOL    HW214034   1.856   1.654   9.502
 4568SOL     OW14035   3.551   0.922   9.922
 4568SOL    HW114036   3.646   0.893   9.930
 4568SOL    HW214037   3.543   0.987   9.847
 4569SOL     OW14038   3.503   1.108   9.742
 4569SOL    HW114039   3.589   1.110   9.690
 4569SOL    HW214040   3.517   1.155   9.830
 4570SOL     OW14041   2.475   1.365  10.036
 4570SOL    HW114042   2.426   1.278  10.045
 4570SOL    HW214043   2.452   1.408   9.949
 4571SOL     OW14044   2.671   0.004   9.812
 4571SOL    HW114045   2.711   0.095   9.803
 4571SOL    HW214046   2.571   0.012   9.818
 4572SOL     OW14047   2.059   0.976  10.574
 4572SOL    HW114048   2.148   0.931  10.560
 4572SOL    HW214049   1.986   0.911  10.555
 4573SOL     OW14050   3.387   0.999   9.500
 4573SOL    HW114051   3.324   0.923   9.513
 4573SOL    HW214052   3.435   1.017   9.586
 4574SOL     OW14053   3.328   1.417  10.263
 4574SOL    HW114054   3.269   1.423  10.343
 4574SOL    HW214055   3.313   1.329  10.217
 4575SOL     OW14056   3.529   1.714   9.882
 4575SOL    HW114057   3.488   1.691   9.794
 4575SOL    HW214058   3.511   1.640   9.947
 4576SOL     OW14059   2.460   0.729   9.580
 4576SOL    HW114060   2.484   0.798   9.512
 4576SOL    HW214061   2.382   0.762   9.634
 4577SOL     OW14062   3.143   0.345  10.254
 4577SOL    HW114063   3.057   0.295  10.241
 4577SOL    HW214064   3.205   0.291  10.310
 4578SOL     OW14065   3.438   1.662   9.617
 4578SOL    HW114066   3.527   1.708   9.620
 4578SOL    HW214067   3.417   1.638   9.522
 4579SOL     OW14068   2.669   0.605  10.775
 4579SOL    HW114069   2.622   0.602  10.864
 4579SOL    HW214070   2.618   0.550  10.709
 4580SOL     OW14071   2.853   0.410  10.552
 4580SOL    HW114072   2.776   0.444  10.606
 4580SOL    HW214073   2.819   0.359  10.473
 4581SOL     OW14074   2.903   0.701   9.739
 4581SOL    HW114075   2.929   0.697   9.835
 4581SOL    HW214076   2.818   0.650   9.725
 4582SOL     OW14077   1.938   0.811  10.099
 4582SOL    HW114078   2.037   0.799  10.108
 4582SOL    HW214079   1.914   0.906  10.120
 4583SOL     OW14080   1.992   1.821  10.881
 4583SOL    HW114081   1.982   1.806  10.980
 4583SOL    HW214082   1.906   1.857  10.845
 4584SOL     OW14083   2.727   0.348   9.505
 4584SOL    HW114084   2.786   0.411   9.456
 4584SOL    HW214085   2.746   0.254   9.476
 4585SOL     OW14086   3.224   1.144   9.855
 4585SOL    HW114087   3.307   1.115   9.807
 4585SOL    HW214088   3.175   1.211   9.799
 4586SOL     OW14089   2.412   0.196  10.195
 4586SOL    HW114090   2.407   0.191  10.295
 4586SOL    HW214091   2.414   0.292  10.166
 4587SOL     OW14092   2.870   1.456   9.787
 4587SOL    HW114093   2.824   1.528   9.735
 4587SOL    HW214094   2.866   1.476   9.885
 4588SOL     OW14095   2.213   1.801  10.163
 4588SOL    HW114096   2.263   1.715  10.169
 4588SOL    HW214097   2.278   1.878  10.160
 4589SOL     OW14098   3.657   1.066  10.183
 4589SOL    HW114099   3.595   1.051  10.107
 4589SOL    HW214100   3.605   1.077  10.268
 4590SOL     OW14101   2.183   0.943   9.552
 4590SOL    HW114102   2.265   0.982   9.510
 4590SOL    HW214103   2.156   0.861   9.503
 4591SOL     OW14104   3.320   0.735  10.038
 4591SOL    HW114105   3.315   0.670  10.113
 4591SOL    HW214106   3.400   0.794  10.051
 4592SOL     OW14107   2.973   1.776   9.547
 4592SOL    HW114108   2.913   1.714   9.597
 4592SOL    HW214109   3.004   1.732   9.462
 4593SOL     OW14110   3.494   1.377   9.391
 4593SOL    HW114111   3.462   1.471   9.381
 4593SOL    HW214112   3.418   1.314   9.379
 4594SOL     OW14113   2.326   1.743   9.633
 4594SOL    HW114114   2.359   1.782   9.719
 4594SOL    HW214115   2.402   1.736   9.568
 4595SOL     OW14116   3.262   0.107   9.736
 4595SOL    HW114117   3.238   0.070   9.646
 4595SOL    HW214118   3.361   0.123   9.740
 4596SOL     OW14119   2.111   1.785  10.551
 4596SOL    HW114120   2.168   1.720  10.601
 4596SOL    HW214121   2.095   1.752  10.458
 4597SOL     OW14122   2.802   1.698  10.214
 4597SOL    HW114123   2.882   1.641  10.235
 4597SOL    HW214124   2.753   1.658  10.137
 4598SOL     OW14125   2.244   0.700   9.790
 4598SOL    HW114126   2.289   0.610   9.787
 4598SOL    HW214127   2.150   0.689   9.823
 4599SOL     OW14128   2.476   0.122   9.427
 4599SOL    HW114129   2.574   0.100   9.434
 4599SOL    HW214130   2.445   0.105   9.334
 4600SOL     OW14131   2.750   1.514  10.505
 4600SOL    HW114132   2.727   1.489  10.411
 4600SOL    HW214133   2.811   1.445  10.544
 4601SOL     OW14134   2.665   1.402  10.234
 4601SOL    HW114135   2.755   1.416  10.192
 4601SOL    HW214136   2.594   1.404  10.163
 4602SOL     OW14137   2.784   0.503  10.209
 4602SOL    HW114138   2.759   0.494  10.113
 4602SOL    HW214139   2.832   0.421  10.240
 4603SOL     OW14140   2.401   0.064   9.822
 4603SOL    HW114141   2.320   0.065   9.880
 4603SOL    HW214142   2.404   0.147   9.767
 4604SOL     OW14143   3.296   1.188   9.351
 4604SOL    HW114144   3.328   1.112   9.408
 4604SOL    HW214145   3.204   1.215   9.381
 4605SOL     OW14146   2.159   0.035   9.481
 4605SOL    HW114147   2.208   0.119   9.460
 4605SOL    HW214148   2.221  -0.030   9.526
 4606SOL     OW14149   2.797   0.236   9.790
 4606SOL    HW114150   2.749   0.277   9.712
 4606SOL    HW214151   2.896   0.234   9.771
 4607SOL     OW14152   3.089   1.570  10.103
 4607SOL    HW114153   3.110   1.644  10.038
 4607SOL    HW214154   3.157   1.570  10.176
 4608SOL     OW14155   2.321   1.152  10.051
 4608SOL    HW114156   2.250   1.125  10.116
 4608SOL    HW214157   2.295   1.124   9.958
 4609SOL     OW14158   3.133   1.797   9.901
 4609SOL    HW114159   3.177   1.861   9.837
 4609SOL    HW214160   3.083   1.849   9.971
 4610SOL     OW14161   2.894   0.549   9.326
 4610SOL    HW114162   2.853   0.631   9.287
 4610SOL    HW214163   2.958   0.575   9.399
 4611SOL     OW14164   2.423   0.222  10.457
 4611SOL    HW114165   2.461   0.138  10.494
 4611SOL    HW214166   2.335   0.241  10.501
 4612SOL     OW14167   2.728   0.454   9.952
 4612SOL    HW114168   2.696   0.526   9.890
 4612SOL    HW214169   2.752   0.373   9.899
 4613SOL     OW14170   2.879   0.039  10.063
 4613SOL    HW114171   2.807   0.044   9.994
 4613SOL    HW214172   2.855  -0.030  10.132
 4614SOL     OW14173   3.291   1.173  10.177
 4614SOL    HW114174   3.236   1.089  10.170
 4614SOL    HW214175   3.317   1.202  10.085
 4615SOL     OW14176   3.328   0.590  10.302
 4615SOL    HW114177   3.298   0.495  10.309
 4615SOL    HW214178   3.401   0.606  10.368
 4616SOL     OW14179   3.719   0.833   9.687
 4616SOL    HW114180   3.761   0.769   9.751
 4616SOL    HW214181   3.681   0.782   9.609
 4617SOL     OW14182   2.350   1.385   9.484
 4617SOL    HW114183   2.263   1.370   9.531
 4617SOL    HW214184   2.333   1.411   9.389
 4618SOL     OW14185   3.526   1.280   9.967
 4618SOL    HW114186   3.625   1.288   9.981
 4618SOL    HW214187   3.481   1.364   9.998
 4619SOL     OW14188   3.252   0.575   9.388
 4619SOL    HW114189   3.198   0.554   9.469
 4619SOL    HW214190   3.343   0.534   9.397
 4620SOL     OW14191   2.389   0.256   9.638
 4620SOL    HW114192   2.416   0.197   9.563
 4620SOL    HW214193   2.389   0.351   9.607
 4621SOL     OW14194   2.926   1.347  10.650
 4621SOL    HW114195   2.846   1.324  10.705
 4621SOL    HW214196   3.009   1.321  10.699
 4622SOL     OW14197   2.973   1.195  10.410
 4622SOL    HW114198   2.933   1.239  10.491
 4622SOL    HW214199   2.932   1.232  10.327
 4623SOL     OW14200   3.500   1.099  10.389
 4623SOL    HW114201   3.505   1.180  10.448
 4623SOL    HW214202   3.414   1.101  10.338
 4624SOL     OW14203   2.567   1.050   9.678
 4624SOL    HW114204   2.553   1.057   9.777
 4624SOL    HW214205   2.651   0.999   9.660
 4625SOL     OW14206   2.272   0.813  10.561
 4625SOL    HW114207   2.358   0.825  10.611
 4625SOL    HW214208   2.230   0.726  10.588
 4626SOL     OW14209   3.136   0.386  10.572
 4626SOL    HW114210   3.157   0.460  10.636
 4626SOL    HW214211   3.047   0.403  10.529
 4627SOL     OW14212   1.926   1.564  10.641
 4627SOL    HW114213   1.880   1.646  10.607
 4627SOL    HW214214   2.024   1.583  10.650
 4628SOL     OW14215   2.229   1.100   9.811
 4628SOL    HW114216   2.222   1.183   9.755
 4628SOL    HW214217   2.233   1.020   9.751
 4629SOL     OW14218   2.428   0.537  10.175
 4629SOL    HW114219   2.440   0.603  10.101
 4629SOL    HW214220   2.474   0.571  10.258
 4630SOL     OW14221   3.114   1.348   9.698
 4630SOL    HW114222   3.164   1.425   9.738
 4630SOL    HW214223   3.019   1.350   9.730
 4631SOL     OW14224   3.134   1.445  10.452
 4631SOL    HW114225   3.181   1.458  10.539
 4631SOL    HW214226   3.068   1.371  10.461
 4632SOL     OW14227   3.444   0.639   9.782
 4632SOL    HW114228   3.413   0.700   9.855
 4632SOL    HW214229   3.494   0.691   9.713
 4633SOL     OW14230   2.216   1.510  10.639
 4633SOL    HW114231   2.195   1.466  10.552
 4633SOL    HW214232   2.313   1.536  10.642
 4634SOL     OW14233   2.435   0.870  10.339
 4634SOL    HW114234   2.479   0.959  10.330
 4634SOL    HW214235   2.372   0.870  10.416
 4635SOL     OW14236   3.222   0.862  10.355
 4635SOL    HW114237   3.147   0.862  10.289
 4635SOL    HW214238   3.259   0.770  10.364
 4636SOL     OW14239   3.071   0.525   9.585
 4636SOL    HW114240   3.084   0.441   9.639
 4636SOL    HW214241   3.042   0.599   9.645
 4637SOL     OW14242   2.169   0.213  10.541
 4637SOL    HW114243   2.146   0.250  10.631
 4637SOL    HW214244   2.139   0.118  10.535
 4638SOL     OW14245   1.899   1.310  10.592
 4638SOL    HW114246   1.952   1.261  10.660
 4638SOL    HW214247   1.921   1.408  10.597
 4639SOL     OW14248   2.594   0.634  10.374
 4639SOL    HW114249   2.653   0.608  10.298
 4639SOL    HW214250   2.566   0.730  10.363
 4640SOL     OW14251   2.169   0.063   9.928
 4640SOL    HW114252   2.158   0.157   9.961
 4640SOL    HW214253   2.164   0.000  10.005
 4641SOL     OW14254   3.484   0.367   9.684
 4641SOL    HW114255   3.486   0.291   9.748
 4641SOL    HW214256   3.436   0.444   9.724
 4642SOL     OW14257   2.885   0.766  10.276
 4642SOL    HW114258   2.900   0.787  10.372
 4642SOL    HW214259   2.855   0.671  10.267
 4643SOL     OW14260   3.402   0.274   9.435
 4643SOL    HW114261   3.341   0.199   9.458
 4643SOL    HW214262   3.424   0.326   9.518
 4644SOL     OW14263   3.165   0.838   9.352
 4644SOL    HW114264   3.199   0.745   9.367
 4644SOL    HW214265   3.183   0.865   9.257
 4645SOL     OW14266   2.930   1.333  10.159
 4645SOL    HW114267   2.937   1.249  10.104
 4645SOL    HW214268   2.992   1.402  10.123
 4646SOL     OW14269   2.181   0.810  10.259
 4646SOL    HW114270   2.274   0.846  10.264
 4646SOL    HW214271   2.175   0.725  10.311
 4647SOL     OW14272   2.201   0.509  10.316
 4647SOL    HW114273   2.149   0.426  10.299
 4647SOL    HW214274   2.278   0.514  10.252
 4648SOL     OW14275   3.022   0.207  10.787
 4648SOL    HW114276   3.022   0.271  10.864
 4648SOL    HW214277   3.050   0.255  10.704
 4649SOL     OW14278   1.870   1.326   9.510
 4649SOL    HW114279   1.777   1.347   9.479
 4649SOL    HW214280   1.880   1.227   9.523
 4650SOL     OW14281   1.950   1.801  10.237
 4650SOL    HW114282   1.908   1.715  10.210
 4650SOL    HW214283   2.044   1.804  10.203
 4651SOL     OW14284   2.366   1.568  10.220
 4651SOL    HW114285   2.432   1.642  10.229
 4651SOL    HW214286   2.410   1.489  10.178
 4652SOL     OW14287   2.864   0.796  10.548
 4652SOL    HW114288   2.905   0.764  10.634
 4652SOL    HW214289   2.768   0.769  10.545
 4653SOL     OW14290   1.902   0.544  10.424
 4653SOL    HW114291   1.987   0.511  10.383
 4653SOL    HW214292   1.915   0.559  10.522
 4654SOL     OW14293   2.677   0.572   9.635
 4654SOL    HW114294   2.684   0.483   9.589
 4654SOL    HW214295   2.583   0.606   9.627
 4655SOL     OW14296   3.519   0.604  10.516
 4655SOL    HW114297   3.481   0.535  10.578
 4655SOL    HW214298   3.601   0.568  10.472
 4656SOL     OW14299   2.533   0.464  10.579
 4656SOL    HW114300   2.499   0.375  10.549
 4656SOL    HW214301   2.559   0.518  10.499
 4657SOL     OW14302   2.792   1.678  10.775
 4657SOL    HW114303   2.768   1.660  10.680
 4657SOL    HW214304   2.822   1.772  10.785
 4658SOL     OW14305   2.335   0.500   9.501
 4658SOL    HW114306   2.396   0.580   9.505
 4658SOL    HW214307   2.240   0.531   9.508
 4659SOL     OW14308   2.021   1.137  10.776
 4659SOL    HW114309   2.043   1.076  10.852
 4659SOL    HW214310   2.031   1.088  10.690
 4660SOL     OW14311   3.209   1.059  10.544
 4660SOL    HW114312   3.233   0.996  10.470
 4660SOL    HW214313   3.119   1.099  10.526
 4661SOL     OW14314   3.164   0.855   9.619
 4661SOL    HW114315   3.078   0.824   9.661
 4661SOL    HW214316   3.160   0.841   9.520
 4662SOL     OW14317   3.621   1.747  10.464
 4662SOL    HW114318   3.682   1.777  10.391
 4662SOL    HW214319   3.583   1.658  10.442
 4663SOL     OW14320   3.114   1.731  10.438
 4663SOL    HW114321   3.198   1.736  10.384
 4663SOL    HW214322   3.091   1.635  10.456
 4664SOL     OW14323   1.945   1.258  10.332
 4664SOL    HW114324   1.940   1.257  10.432
 4664SOL    HW214325   1.862   1.217  10.294
 4665SOL     OW14326   3.588   0.135   9.833
 4665SOL    HW114327   3.661   0.118   9.766
 4665SOL    HW214328   3.557   0.048   9.871
 4666SOL     OW14329   3.250   1.573   9.787
 4666SOL    HW114330   3.317   1.585   9.713
 4666SOL    HW214331   3.210   1.662   9.810
 4667SOL     OW14332   3.142   0.927   9.982
 4667SOL    HW114333   3.202   0.846   9.984
 4667SOL    HW214334   3.182   0.996   9.922
 4668SOL     OW14335   2.534   1.616   9.464
 4668SOL    HW114336   2.543   1.626   9.365
 4668SOL    HW214337   2.494   1.527   9.485
 4669SOL     OW14338   3.703   0.175  10.273
 4669SOL    HW114339   3.742   0.090  10.237
 4669SOL    HW214340   3.605   0.177  10.254
 4670SOL     OW14341   2.125   0.326  10.030
 4670SOL    HW114342   2.046   0.377   9.996
 4670SOL    HW214343   2.116   0.311  10.128
 4671SOL     OW14344   3.056   1.612   9.341
 4671SOL    HW114345   3.062   1.519   9.378
 4671SOL    HW214346   2.997   1.612   9.261
 4672SOL     OW14347   2.684   1.002  10.682
 4672SOL    HW114348   2.724   1.001  10.590
 4672SOL    HW214349   2.694   1.094  10.722
 4673SOL     OW14350   2.778   0.910   9.601
 4673SOL    HW114351   2.841   0.948   9.533
 4673SOL    HW214352   2.818   0.827   9.640
 4674SOL     OW14353   3.366   1.607   9.354
 4674SOL    HW114354   3.274   1.644   9.361
 4674SOL    HW214355   3.404   1.627   9.264
 4675SOL     OW14356   2.234   1.288  10.800
 4675SOL    HW114357   2.221   1.381  10.766
 4675SOL    HW214358   2.150   1.236  10.787
 4676SOL     OW14359   3.476   1.292  10.599
 4676SOL    HW114360   3.536   1.295  10.679
 4676SOL    HW214361   3.401   1.356  10.612
 4677SOL     OW14362   2.901   1.098  10.006
 4677SOL    HW114363   2.831   1.051  10.060
 4677SOL    HW214364   2.960   1.030   9.963
 4678SOL     OW14365   2.876   0.236  10.281
 4678SOL    HW114366   2.868   0.200  10.188
 4678SOL    HW214367   2.874   0.160  10.346
 4679SOL     OW14368   2.452   1.487   9.801
 4679SOL    HW114369   2.494   1.429   9.731
 4679SOL    HW214370   2.408   1.566   9.757
 4680SOL     OW14371   3.571   0.385  10.691
 4680SOL    HW114372   3.644   0.454  10.695
 4680SOL    HW214373   3.599   0.310  10.632
 4681SOL     OW14374   2.117   1.348   9.600
 4681SOL    HW114375   2.021   1.349   9.573
 4681SOL    HW214376   2.129   1.401   9.684
 4682SOL     OW14377   1.937   0.345   9.343
 4682SOL    HW114378   1.845   0.317   9.314
 4682SOL    HW214379   1.968   0.422   9.287
 4683SOL     OW14380   1.934   0.166   9.628
 4683SOL    HW114381   1.917   0.249   9.574
 4683SOL    HW214382   2.024   0.129   9.606
 4684SOL     OW14383   3.045   1.335   9.429
 4684SOL    HW114384   2.946   1.324   9.431
 4684SOL    HW214385   3.079   1.350   9.522
 4685SOL     OW14386   2.475   0.842  10.741
 4685SOL    HW114387   2.531   0.923  10.724
 4685SOL    HW214388   2.534   0.762  10.744
 4686SOL     OW14389   3.355   1.767  10.269
 4686SOL    HW114390   3.388   1.831  10.200
 4686SOL    HW214391   3.421   1.761  10.344
 4687SOL     OW14392   2.252   1.741  10.870
 4687SOL    HW114393   2.161   1.782  10.868
 4687SOL    HW214394   2.245   1.647  10.902
 4688SOL     OW14395   3.536   0.883  10.564
 4688SOL    HW114396   3.509   0.794  10.527
 4688SOL    HW214397   3.537   0.951  10.491
 4689SOL     OW14398   3.087   0.325   9.759
 4689SOL    HW114399   3.152   0.251   9.748
 4689SOL    HW214400   3.107   0.375   9.843
 4690SOL     OW14401   2.456   0.745   9.962
 4690SOL    HW114402   2.506   0.830   9.943
 4690SOL    HW214403   2.368   0.747   9.914
 4691SOL     OW14404   3.592   0.934  10.827
 4691SOL    HW114405   3.630   1.025  10.842
 4691SOL    HW214406   3.584   0.917  10.728
 4692SOL     OW14407   2.721   1.374   9.326
 4692SOL    HW114408   2.675   1.389   9.414
 4692SOL    HW214409   2.765   1.459   9.296
 4693SOL     OW14410   2.523   1.790  10.263
 4693SOL    HW114411   2.477   1.878  10.250
 4693SOL    HW214412   2.622   1.802  10.256
 4694SOL     OW14413   2.721   0.956  10.171
 4694SOL    HW114414   2.775   0.887  10.219
 4694SOL    HW214415   2.689   1.025  10.237
 4695SOL     OW14416   2.945   0.984   9.397
 4695SOL    HW114417   2.922   1.037   9.315
 4695SOL    HW214418   3.026   0.928   9.378
 4696SOL     OW14419   3.723   1.569  10.161
 4696SOL    HW114420   3.652   1.557  10.091
 4696SOL    HW214421   3.724   1.490  10.221
 4697SOL     OW14422   1.941   1.240   9.963
 4697SOL    HW114423   1.940   1.193  10.051
 4697SOL    HW214424   2.023   1.212   9.912
 4698SOL     OW14425   3.686   0.192  10.537
 4698SOL    HW114426   3.682   0.102  10.581
 4698SOL    HW214427   3.689   0.181  10.438
 4699SOL     OW14428   2.290   0.424   9.830
 4699SOL    HW114429   2.320   0.352   9.768
 4699SOL    HW214430   2.251   0.384   9.913
 4700SOL     OW14431   3.567   1.487  10.414
 4700SOL    HW114432   3.474   1.462  10.387
 4700SOL    HW214433   3.593   1.437  10.496
 4701SOL     OW14434   2.179   0.547  10.590
 4701SOL    HW114435   2.217   0.488  10.662
 4701SOL    HW214436   2.219   0.521  10.502
 4702SOL     OW14437   2.674   1.586   9.997
 4702SOL    HW114438   2.706   1.596   9.903
 4702SOL    HW214439   2.595   1.524   9.999
 4703SOL     OW14440   3.286   0.214  10.422
 4703SOL    HW114441   3.338   0.149  10.477
 4703SOL    HW214442   3.237   0.277  10.483
 4704SOL     OW14443   2.863   0.034  10.464
 4704SOL    HW114444   2.800  -0.038  10.433
 4704SOL    HW214445   2.956  -0.002  10.464
 4705SOL     OW14446   2.632   1.330   9.611
 4705SOL    HW114447   2.586   1.243   9.628
 4705SOL    HW214448   2.723   1.327   9.652
 4706SOL     OW14449   2.480   1.567  10.594
 4706SOL    HW114450   2.475   1.649  10.651
 4706SOL    HW214451   2.569   1.564  10.549
 4707SOL     OW14452   3.214   0.052   9.478
 4707SOL    HW114453   3.249   0.011   9.394
 4707SOL    HW214454   3.124   0.014   9.498
 4708SOL     OW14455   3.162   0.453  10.001
 4708SOL    HW114456   3.103   0.533  10.005
 4708SOL    HW214457   3.177   0.418  10.094
 4709SOL     OW14458   3.455   0.221  10.192
 4709SOL    HW114459   3.371   0.220  10.246
 4709SOL    HW214460   3.457   0.304  10.136
 4710SOL     OW14461   1.901   1.077   9.610
 4710SOL    HW114462   2.000   1.066   9.601
 4710SOL    HW214463   1.861   0.991   9.642
 4711SOL     OW14464   2.737   1.646   9.647
 4711SOL    HW114465   2.660   1.611   9.593
 4711SOL    HW214466   2.705   1.717   9.709
 4712SOL     OW14467   2.092   2.490   0.113
 4712SOL    HW114468   1.999   2.488   0.150
 4712SOL    HW214469   2.093   2.451   0.021
 4713SOL     OW14470   2.087   2.137   0.996
 4713SOL    HW114471   2.122   2.120   1.088
 4713SOL    HW214472   1.999   2.092   0.984
 4714SOL     OW14473   1.881   2.230   0.647
 4714SOL    HW114474   1.799   2.273   0.686
 4714SOL    HW214475   1.853   2.157   0.584
 4715SOL     OW14476   2.431   3.137   1.165
 4715SOL    HW114477   2.338   3.130   1.128
 4715SOL    HW214478   2.442   3.226   1.209
 4716SOL     OW14479   3.417   3.373   0.703
 4716SOL    HW114480   3.360   3.357   0.784
 4716SOL    HW214481   3.358   3.383   0.623
 4717SOL     OW14482   2.997   2.565   0.717
 4717SOL    HW114483   3.054   2.643   0.692
 4717SOL    HW214484   2.937   2.591   0.793
 4718SOL     OW14485   3.617   2.469   0.231
 4718SOL    HW114486   3.605   2.456   0.132
 4718SOL    HW214487   3.587   2.388   0.280
 4719SOL     OW14488   2.630   3.006   1.023
 4719SOL    HW114489   2.552   3.023   1.083
 4719SOL    HW214490   2.664   3.093   0.987
 4720SOL     OW14491   2.547   2.874   0.665
 4720SOL    HW114492   2.616   2.858   0.735
 4720SOL    HW214493   2.474   2.931   0.703
 4721SOL     OW14494   2.548   3.023   1.803
 4721SOL    HW114495   2.608   3.102   1.817
 4721SOL    HW214496   2.462   3.054   1.762
 4722SOL     OW14497   2.197   3.297   1.061
 4722SOL    HW114498   2.119   3.266   1.008
 4722SOL    HW214499   2.255   3.355   1.004
 4723SOL     OW14500   3.322   3.367   1.339
 4723SOL    HW114501   3.346   3.461   1.365
 4723SOL    HW214502   3.306   3.313   1.421
 4724SOL     OW14503   2.300   2.254   1.499
 4724SOL    HW114504   2.382   2.198   1.508
 4724SOL    HW214505   2.219   2.196   1.503
 4725SOL     OW14506   3.465   2.309   0.737
 4725SOL    HW114507   3.391   2.355   0.687
 4725SOL    HW214508   3.516   2.377   0.790
 4726SOL     OW14509   2.093   3.575   0.483
 4726SOL    HW114510   2.127   3.652   0.537
 4726SOL    HW214511   2.137   3.575   0.393
 4727SOL     OW14512   2.989   3.203   1.690
 4727SOL    HW114513   3.036   3.203   1.778
 4727SOL    HW214514   2.941   3.116   1.679
 4728SOL     OW14515   2.092   3.296   0.538
 4728SOL    HW114516   2.066   3.392   0.538
 4728SOL    HW214517   2.021   3.242   0.583
 4729SOL     OW14518   2.102   2.953   0.886
 4729SOL    HW114519   2.116   2.869   0.938
 4729SOL    HW214520   2.047   3.017   0.941
 4730SOL     OW14521   2.482   3.648   1.439
 4730SOL    HW114522   2.390   3.631   1.474
 4730SOL    HW214523   2.510   3.740   1.465
 4731SOL     OW14524   2.468   2.826   0.123
 4731SOL    HW114525   2.475   2.910   0.069
 4731SOL    HW214526   2.514   2.839   0.211
 4732SOL     OW14527   3.456   1.976   1.480
 4732SOL    HW114528   3.438   2.043   1.408
 4732SOL    HW214529   3.453   2.022   1.569
 4733SOL     OW14530   1.984   2.505   0.563
 4733SOL    HW114531   1.939   2.417   0.580
 4733SOL    HW214532   1.983   2.559   0.647
 4734SOL     OW14533   3.704   3.629   0.359
 4734SOL    HW114534   3.758   3.600   0.439
 4734SOL    HW214535   3.734   3.719   0.330
 4735SOL     OW14536   1.889   3.458   0.117
 4735SOL    HW114537   1.870   3.362   0.138
 4735SOL    HW214538   1.856   3.516   0.192
 4736SOL     OW14539   3.551   2.784   0.612
 4736SOL    HW114540   3.646   2.755   0.620
 4736SOL    HW214541   3.543   2.849   0.537
 4737SOL     OW14542   3.503   2.970   0.432
 4737SOL    HW114543   3.589   2.972   0.380
 4737SOL    HW214544   3.517   3.017   0.520
 4738SOL     OW14545   1.975   2.599   1.597
 4738SOL    HW114546   2.063   2.586   1.642
 4738SOL    HW214547   1.962   2.696   1.575
 4739SOL     OW14548   2.475   3.227   0.726
 4739SOL    HW114549   2.426   3.140   0.735
 4739SOL    HW214550   2.452   3.270   0.639
 4740SOL     OW14551   3.155   3.090   1.423
 4740SOL    HW114552   3.192   3.017   1.365
 4740SOL    HW214553   3.207   3.095   1.508
 4741SOL     OW14554   2.671   1.866   0.502
 4741SOL    HW114555   2.711   1.957   0.493
 4741SOL    HW214556   2.571   1.874   0.508
 4742SOL     OW14557   2.059   2.838   1.264
 4742SOL    HW114558   2.148   2.793   1.250
 4742SOL    HW214559   1.986   2.773   1.245
 4743SOL     OW14560   3.387   2.861   0.190
 4743SOL    HW114561   3.324   2.785   0.203
 4743SOL    HW214562   3.435   2.879   0.276
 4744SOL     OW14563   3.049   3.654   1.616
 4744SOL    HW114564   3.073   3.714   1.540
 4744SOL    HW214565   3.056   3.559   1.586
 4745SOL     OW14566   2.179   2.113   1.801
 4745SOL    HW114567   2.250   2.184   1.807
 4745SOL    HW214568   2.091   2.152   1.829
 4746SOL     OW14569   3.328   3.279   0.953
 4746SOL    HW114570   3.269   3.285   1.033
 4746SOL    HW214571   3.313   3.191   0.907
 4747SOL     OW14572   3.529   3.576   0.572
 4747SOL    HW114573   3.488   3.553   0.484
 4747SOL    HW214574   3.511   3.502   0.637
 4748SOL     OW14575   3.143   2.207   0.944
 4748SOL    HW114576   3.057   2.157   0.931
 4748SOL    HW214577   3.205   2.153   1.000
 4749SOL     OW14578   3.438   3.524   0.307
 4749SOL    HW114579   3.527   3.570   0.310
 4749SOL    HW214580   3.417   3.500   0.212
 4750SOL     OW14581   3.256   2.331   1.674
 4750SOL    HW114582   3.236   2.374   1.762
 4750SOL    HW214583   3.334   2.269   1.683
 4751SOL     OW14584   2.853   2.272   1.242
 4751SOL    HW114585   2.776   2.306   1.296
 4751SOL    HW214586   2.819   2.221   1.163
 4752SOL     OW14587   2.903   2.563   0.429
 4752SOL    HW114588   2.929   2.559   0.525
 4752SOL    HW214589   2.818   2.512   0.415
 4753SOL     OW14590   1.938   2.673   0.789
 4753SOL    HW114591   2.037   2.661   0.798
 4753SOL    HW214592   1.914   2.768   0.810
 4754SOL     OW14593   1.992   3.683   1.571
 4754SOL    HW114594   1.982   3.668   1.670
 4754SOL    HW214595   1.906   3.719   1.535
 4755SOL     OW14596   2.727   2.210   0.195
 4755SOL    HW114597   2.786   2.273   0.146
 4755SOL    HW214598   2.746   2.116   0.166
 4756SOL     OW14599   3.581   2.447   1.831
 4756SOL    HW114600   3.555   2.536   1.795
 4756SOL    HW214601   3.579   2.379   1.758
 4757SOL     OW14602   3.224   3.006   0.545
 4757SOL    HW114603   3.307   2.977   0.497
 4757SOL    HW214604   3.175   3.073   0.489
 4758SOL     OW14605   2.412   2.058   0.885
 4758SOL    HW114606   2.407   2.053   0.985
 4758SOL    HW214607   2.414   2.154   0.856
 4759SOL     OW14608   2.870   3.318   0.477
 4759SOL    HW114609   2.824   3.390   0.425
 4759SOL    HW214610   2.866   3.338   0.575
 4760SOL     OW14611   2.213   3.663   0.853
 4760SOL    HW114612   2.263   3.577   0.859
 4760SOL    HW214613   2.278   3.740   0.850
 4761SOL     OW14614   3.657   2.928   0.873
 4761SOL    HW114615   3.595   2.913   0.797
 4761SOL    HW214616   3.605   2.939   0.958
 4762SOL     OW14617   3.089   3.412   1.506
 4762SOL    HW114618   3.095   3.335   1.570
 4762SOL    HW214619   3.037   3.386   1.426
 4763SOL     OW14620   2.183   2.805   0.242
 4763SOL    HW114621   2.265   2.844   0.200
 4763SOL    HW214622   2.156   2.723   0.193
 4764SOL     OW14623   3.320   2.597   0.728
 4764SOL    HW114624   3.315   2.532   0.803
 4764SOL    HW214625   3.400   2.656   0.741
 4765SOL     OW14626   2.323   3.128   1.727
 4765SOL    HW114627   2.273   3.129   1.641
 4765SOL    HW214628   2.260   3.110   1.803
 4766SOL     OW14629   2.973   3.638   0.237
 4766SOL    HW114630   2.913   3.576   0.287
 4766SOL    HW214631   3.004   3.594   0.152
 4767SOL     OW14632   2.064   2.147   1.498
 4767SOL    HW114633   1.984   2.207   1.485
 4767SOL    HW214634   2.054   2.098   1.584
 4768SOL     OW14635   3.494   3.239   0.081
 4768SOL    HW114636   3.462   3.333   0.071
 4768SOL    HW214637   3.418   3.176   0.069
 4769SOL     OW14638   2.326   3.605   0.323
 4769SOL    HW114639   2.359   3.644   0.409
 4769SOL    HW214640   2.402   3.598   0.258
 4770SOL     OW14641   3.262   1.969   0.426
 4770SOL    HW114642   3.238   1.932   0.336
 4770SOL    HW214643   3.361   1.985   0.430
 4771SOL     OW14644   2.111   3.647   1.241
 4771SOL    HW114645   2.168   3.582   1.291
 4771SOL    HW214646   2.095   3.614   1.148
 4772SOL     OW14647   2.802   3.560   0.904
 4772SOL    HW114648   2.882   3.503   0.925
 4772SOL    HW214649   2.753   3.520   0.827
 4773SOL     OW14650   2.244   2.562   0.480
 4773SOL    HW114651   2.289   2.472   0.477
 4773SOL    HW214652   2.150   2.551   0.513
 4774SOL     OW14653   3.409   2.084   1.729
 4774SOL    HW114654   3.404   2.121   1.821
 4774SOL    HW214655   3.337   2.015   1.717
 4775SOL     OW14656   2.643   2.126   1.749
 4775SOL    HW114657   2.710   2.065   1.792
 4775SOL    HW214658   2.570   2.145   1.814
 4776SOL     OW14659   2.750   3.376   1.195
 4776SOL    HW114660   2.727   3.351   1.101
 4776SOL    HW214661   2.811   3.307   1.234
 4777SOL     OW14662   3.213   2.452   1.433
 4777SOL    HW114663   3.241   2.409   1.518
 4777SOL    HW214664   3.238   2.548   1.434
 4778SOL     OW14665   2.665   3.264   0.924
 4778SOL    HW114666   2.755   3.278   0.882
 4778SOL    HW214667   2.594   3.266   0.853
 4779SOL     OW14668   2.784   2.365   0.899
 4779SOL    HW114669   2.759   2.356   0.803
 4779SOL    HW214670   2.832   2.283   0.930
 4780SOL     OW14671   2.401   1.926   0.512
 4780SOL    HW114672   2.320   1.927   0.570
 4780SOL    HW214673   2.404   2.009   0.457
 4781SOL     OW14674   3.296   3.050   0.041
 4781SOL    HW114675   3.328   2.974   0.098
 4781SOL    HW214676   3.204   3.077   0.071
 4782SOL     OW14677   2.797   2.098   0.480
 4782SOL    HW114678   2.749   2.139   0.402
 4782SOL    HW214679   2.896   2.096   0.461
 4783SOL     OW14680   2.938   2.545   1.464
 4783SOL    HW114681   2.858   2.484   1.467
 4783SOL    HW214682   3.019   2.492   1.440
 4784SOL     OW14683   3.089   3.432   0.793
 4784SOL    HW114684   3.110   3.506   0.728
 4784SOL    HW214685   3.157   3.432   0.866
 4785SOL     OW14686   2.321   3.014   0.741
 4785SOL    HW114687   2.250   2.987   0.806
 4785SOL    HW214688   2.295   2.986   0.648
 4786SOL     OW14689   3.133   3.659   0.591
 4786SOL    HW114690   3.177   3.723   0.527
 4786SOL    HW214691   3.083   3.711   0.661
 4787SOL     OW14692   2.894   2.411   0.016
 4787SOL    HW114693   2.853   2.493  -0.023
 4787SOL    HW214694   2.958   2.437   0.089
 4788SOL     OW14695   1.940   2.418   1.386
 4788SOL    HW114696   2.032   2.417   1.345
 4788SOL    HW214697   1.934   2.492   1.453
 4789SOL     OW14698   2.423   2.084   1.147
 4789SOL    HW114699   2.461   2.000   1.184
 4789SOL    HW214700   2.335   2.103   1.191
 4790SOL     OW14701   2.728   2.316   0.642
 4790SOL    HW114702   2.696   2.388   0.580
 4790SOL    HW214703   2.752   2.235   0.589
 4791SOL     OW14704   2.879   1.901   0.753
 4791SOL    HW114705   2.807   1.906   0.684
 4791SOL    HW214706   2.855   1.832   0.822
 4792SOL     OW14707   3.291   3.035   0.867
 4792SOL    HW114708   3.236   2.951   0.860
 4792SOL    HW214709   3.317   3.064   0.775
 4793SOL     OW14710   3.328   2.452   0.992
 4793SOL    HW114711   3.298   2.357   0.999
 4793SOL    HW214712   3.401   2.468   1.058
 4794SOL     OW14713   3.719   2.695   0.377
 4794SOL    HW114714   3.761   2.631   0.441
 4794SOL    HW214715   3.681   2.644   0.299
 4795SOL     OW14716   2.350   3.247   0.174
 4795SOL    HW114717   2.263   3.232   0.221
 4795SOL    HW214718   2.333   3.273   0.079
 4796SOL     OW14719   3.526   3.142   0.657
 4796SOL    HW114720   3.625   3.150   0.671
 4796SOL    HW214721   3.481   3.226   0.688
 4797SOL     OW14722   3.252   2.437   0.078
 4797SOL    HW114723   3.198   2.416   0.159
 4797SOL    HW214724   3.343   2.396   0.087
 4798SOL     OW14725   2.389   2.118   0.328
 4798SOL    HW114726   2.416   2.059   0.253
 4798SOL    HW214727   2.389   2.213   0.297
 4799SOL     OW14728   3.616   3.085   1.588
 4799SOL    HW114729   3.707   3.046   1.575
 4799SOL    HW214730   3.624   3.181   1.612
 4800SOL     OW14731   2.926   3.209   1.340
 4800SOL    HW114732   2.846   3.186   1.395
 4800SOL    HW214733   3.009   3.183   1.389
 4801SOL     OW14734   3.454   3.491   1.625
 4801SOL    HW114735   3.481   3.525   1.535
 4801SOL    HW214736   3.533   3.453   1.671
 4802SOL     OW14737   2.973   3.057   1.100
 4802SOL    HW114738   2.933   3.101   1.181
 4802SOL    HW214739   2.932   3.094   1.017
 4803SOL     OW14740   3.500   2.961   1.079
 4803SOL    HW114741   3.505   3.042   1.138
 4803SOL    HW214742   3.414   2.963   1.028
 4804SOL     OW14743   2.777   1.951   1.402
 4804SOL    HW114744   2.802   1.931   1.307
 4804SOL    HW214745   2.849   2.007   1.444
 4805SOL     OW14746   2.842   2.978   1.719
 4805SOL    HW114747   2.743   2.984   1.729
 4805SOL    HW214748   2.865   2.898   1.663
 4806SOL     OW14749   2.567   2.912   0.368
 4806SOL    HW114750   2.553   2.919   0.467
 4806SOL    HW214751   2.651   2.861   0.350
 4807SOL     OW14752   2.272   2.675   1.251
 4807SOL    HW114753   2.358   2.687   1.301
 4807SOL    HW214754   2.230   2.588   1.278
 4808SOL     OW14755   3.136   2.248   1.262
 4808SOL    HW114756   3.157   2.322   1.326
 4808SOL    HW214757   3.047   2.265   1.219
 4809SOL     OW14758   1.926   3.426   1.331
 4809SOL    HW114759   1.880   3.508   1.297
 4809SOL    HW214760   2.024   3.445   1.340
 4810SOL     OW14761   2.229   2.962   0.501
 4810SOL    HW114762   2.222   3.045   0.445
 4810SOL    HW214763   2.233   2.882   0.441
 4811SOL     OW14764   2.428   2.399   0.865
 4811SOL    HW114765   2.440   2.465   0.791
 4811SOL    HW214766   2.474   2.433   0.948
 4812SOL     OW14767   3.114   3.210   0.388
 4812SOL    HW114768   3.164   3.287   0.428
 4812SOL    HW214769   3.019   3.212   0.420
 4813SOL     OW14770   3.134   3.307   1.142
 4813SOL    HW114771   3.181   3.320   1.229
 4813SOL    HW214772   3.068   3.233   1.151
 4814SOL     OW14773   3.444   2.501   0.472
 4814SOL    HW114774   3.413   2.562   0.545
 4814SOL    HW214775   3.494   2.553   0.403
 4815SOL     OW14776   2.216   3.372   1.329
 4815SOL    HW114777   2.195   3.328   1.242
 4815SOL    HW214778   2.313   3.398   1.332
 4816SOL     OW14779   2.264   2.613   1.598
 4816SOL    HW114780   2.332   2.668   1.551
 4816SOL    HW214781   2.304   2.525   1.625
 4817SOL     OW14782   3.449   2.641   1.670
 4817SOL    HW114783   3.357   2.679   1.665
 4817SOL    HW214784   3.509   2.688   1.605
 4818SOL     OW14785   2.875   1.967   1.770
 4818SOL    HW114786   2.881   2.052   1.718
 4818SOL    HW214787   2.907   1.891   1.713
 4819SOL     OW14788   2.366   1.912   1.740
 4819SOL    HW114789   2.324   1.855   1.670
 4819SOL    HW214790   2.300   1.981   1.772
 4820SOL     OW14791   3.222   2.724   1.045
 4820SOL    HW114792   3.147   2.724   0.979
 4820SOL    HW214793   3.259   2.632   1.054
 4821SOL     OW14794   3.071   2.387   0.275
 4821SOL    HW114795   3.084   2.303   0.329
 4821SOL    HW214796   3.042   2.461   0.335
 4822SOL     OW14797   2.169   2.075   1.231
 4822SOL    HW114798   2.146   2.112   1.321
 4822SOL    HW214799   2.139   1.980   1.225
 4823SOL     OW14800   1.899   3.172   1.282
 4823SOL    HW114801   1.952   3.123   1.350
 4823SOL    HW214802   1.921   3.270   1.287
 4824SOL     OW14803   3.590   2.797   1.854
 4824SOL    HW114804   3.544   2.790   1.765
 4824SOL    HW214805   3.528   2.841   1.920
 4825SOL     OW14806   2.169   1.925   0.618
 4825SOL    HW114807   2.158   2.019   0.651
 4825SOL    HW214808   2.164   1.862   0.695
 4826SOL     OW14809   3.484   2.229   0.374
 4826SOL    HW114810   3.486   2.153   0.438
 4826SOL    HW214811   3.436   2.306   0.414
 4827SOL     OW14812   2.842   3.435   1.700
 4827SOL    HW114813   2.822   3.479   1.612
 4827SOL    HW214814   2.881   3.344   1.684
 4828SOL     OW14815   3.721   3.380   1.605
 4828SOL    HW114816   3.735   3.407   1.510
 4828SOL    HW214817   3.804   3.402   1.658
 4829SOL     OW14818   2.212   2.760   1.804
 4829SOL    HW114819   2.288   2.804   1.852
 4829SOL    HW214820   2.247   2.713   1.722
 4830SOL     OW14821   3.402   2.136   0.125
 4830SOL    HW114822   3.341   2.061   0.148
 4830SOL    HW214823   3.424   2.188   0.208
 4831SOL     OW14824   3.165   2.700   0.042
 4831SOL    HW114825   3.199   2.607   0.057
 4831SOL    HW214826   3.183   2.727  -0.053
 4832SOL     OW14827   2.930   3.195   0.849
 4832SOL    HW114828   2.937   3.111   0.794
 4832SOL    HW214829   2.992   3.264   0.813
 4833SOL     OW14830   2.181   2.672   0.949
 4833SOL    HW114831   2.274   2.708   0.954
 4833SOL    HW214832   2.175   2.587   1.001
 4834SOL     OW14833   2.201   2.371   1.006
 4834SOL    HW114834   2.149   2.288   0.989
 4834SOL    HW214835   2.278   2.376   0.942
 4835SOL     OW14836   3.000   2.242   1.678
 4835SOL    HW114837   2.955   2.305   1.742
 4835SOL    HW214838   3.093   2.273   1.661
 4836SOL     OW14839   3.022   2.069   1.477
 4836SOL    HW114840   3.022   2.133   1.554
 4836SOL    HW214841   3.050   2.117   1.394
 4837SOL     OW14842   1.870   3.188   0.200
 4837SOL    HW114843   1.777   3.209   0.169
 4837SOL    HW214844   1.880   3.089   0.213
 4838SOL     OW14845   1.950   3.663   0.927
 4838SOL    HW114846   1.908   3.577   0.900
 4838SOL    HW214847   2.044   3.666   0.893
 4839SOL     OW14848   2.366   3.430   0.910
 4839SOL    HW114849   2.432   3.504   0.919
 4839SOL    HW214850   2.410   3.351   0.868
 4840SOL     OW14851   1.902   2.406   1.114
 4840SOL    HW114852   1.987   2.373   1.073
 4840SOL    HW214853   1.915   2.421   1.212
 4841SOL     OW14854   2.051   2.382   1.722
 4841SOL    HW114855   2.110   2.342   1.652
 4841SOL    HW214856   1.993   2.453   1.681
 4842SOL     OW14857   3.231   2.812   1.660
 4842SOL    HW114858   3.270   2.901   1.680
 4842SOL    HW214859   3.241   2.792   1.563
 4843SOL     OW14860   3.519   2.466   1.206
 4843SOL    HW114861   3.481   2.397   1.268
 4843SOL    HW214862   3.601   2.430   1.162
 4844SOL     OW14863   2.114   3.426   1.744
 4844SOL    HW114864   2.084   3.483   1.820
 4844SOL    HW214865   2.107   3.329   1.770
 4845SOL     OW14866   2.533   2.326   1.269
 4845SOL    HW114867   2.499   2.237   1.239
 4845SOL    HW214868   2.559   2.380   1.189
 4846SOL     OW14869   2.792   3.540   1.465
 4846SOL    HW114870   2.768   3.522   1.370
 4846SOL    HW214871   2.822   3.634   1.475
 4847SOL     OW14872   2.335   2.362   0.191
 4847SOL    HW114873   2.396   2.442   0.195
 4847SOL    HW214874   2.240   2.393   0.198
 4848SOL     OW14875   2.021   2.999   1.466
 4848SOL    HW114876   2.043   2.938   1.542
 4848SOL    HW214877   2.031   2.950   1.380
 4849SOL     OW14878   3.209   2.921   1.234
 4849SOL    HW114879   3.233   2.858   1.160
 4849SOL    HW214880   3.119   2.961   1.216
 4850SOL     OW14881   3.164   2.717   0.309
 4850SOL    HW114882   3.078   2.686   0.351
 4850SOL    HW214883   3.160   2.703   0.210
 4851SOL     OW14884   3.621   3.609   1.154
 4851SOL    HW114885   3.682   3.639   1.081
 4851SOL    HW214886   3.583   3.520   1.132
 4852SOL     OW14887   3.114   3.593   1.128
 4852SOL    HW114888   3.198   3.598   1.074
 4852SOL    HW214889   3.091   3.497   1.146
 4853SOL     OW14890   1.945   3.120   1.022
 4853SOL    HW114891   1.940   3.119   1.122
 4853SOL    HW214892   1.862   3.079   0.984
 4854SOL     OW14893   2.550   3.524   1.716
 4854SOL    HW114894   2.494   3.605   1.725
 4854SOL    HW214895   2.602   3.528   1.630
 4855SOL     OW14896   2.765   1.948   0.133
 4855SOL    HW114897   2.816   1.949   0.047
 4855SOL    HW214898   2.821   1.906   0.204
 4856SOL     OW14899   3.588   1.997   0.523
 4856SOL    HW114900   3.661   1.980   0.456
 4856SOL    HW214901   3.557   1.910   0.561
 4857SOL     OW14902   3.250   3.435   0.477
 4857SOL    HW114903   3.317   3.447   0.403
 4857SOL    HW214904   3.210   3.524   0.500
 4858SOL     OW14905   1.992   3.656   1.851
 4858SOL    HW114906   1.951   3.582   1.904
 4858SOL    HW214907   2.056   3.707   1.909
 4859SOL     OW14908   3.142   2.789   0.672
 4859SOL    HW114909   3.202   2.708   0.674
 4859SOL    HW214910   3.182   2.858   0.612
 4860SOL     OW14911   2.692   3.135   1.422
 4860SOL    HW114912   2.687   3.168   1.517
 4860SOL    HW214913   2.606   3.154   1.376
 4861SOL     OW14914   2.534   3.478   0.154
 4861SOL    HW114915   2.543   3.488   0.055
 4861SOL    HW214916   2.494   3.389   0.175
 4862SOL     OW14917   3.512   3.582   1.394
 4862SOL    HW114918   3.565   3.592   1.310
 4862SOL    HW214919   3.485   3.672   1.428
 4863SOL     OW14920   3.703   2.037   0.963
 4863SOL    HW114921   3.742   1.952   0.927
 4863SOL    HW214922   3.605   2.039   0.944
 4864SOL     OW14923   2.125   2.188   0.720
 4864SOL    HW114924   2.046   2.239   0.686
 4864SOL    HW214925   2.116   2.173   0.818
 4865SOL     OW14926   3.056   3.474   0.031
 4865SOL    HW114927   3.062   3.381   0.068
 4865SOL    HW214928   2.997   3.474  -0.049
 4866SOL     OW14929   3.366   3.469   0.044
 4866SOL    HW114930   3.274   3.506   0.051
 4866SOL    HW214931   3.404   3.489  -0.046
 4867SOL     OW14932   2.234   3.150   1.490
 4867SOL    HW114933   2.221   3.243   1.456
 4867SOL    HW214934   2.150   3.098   1.477
 4868SOL     OW14935   3.476   3.154   1.289
 4868SOL    HW114936   3.536   3.157   1.369
 4868SOL    HW214937   3.401   3.218   1.302
 4869SOL     OW14938   2.901   2.960   0.696
 4869SOL    HW114939   2.831   2.913   0.750
 4869SOL    HW214940   2.960   2.892   0.653
 4870SOL     OW14941   2.876   2.098   0.971
 4870SOL    HW114942   2.868   2.062   0.878
 4870SOL    HW214943   2.874   2.022   1.036
 4871SOL     OW14944   2.452   3.349   0.491
 4871SOL    HW114945   2.494   3.291   0.421
 4871SOL    HW214946   2.408   3.428   0.447
 4872SOL     OW14947   3.571   2.247   1.381
 4872SOL    HW114948   3.644   2.316   1.385
 4872SOL    HW214949   3.599   2.172   1.322
 4873SOL     OW14950   2.117   3.210   0.290
 4873SOL    HW114951   2.021   3.211   0.263
 4873SOL    HW214952   2.129   3.263   0.374
 4874SOL     OW14953   1.967   2.875   1.726
 4874SOL    HW114954   1.890   2.842   1.780
 4874SOL    HW214955   2.052   2.845   1.768
 4875SOL     OW14956   2.534   2.065   1.489
 4875SOL    HW114957   2.624   2.049   1.449
 4875SOL    HW214958   2.542   2.070   1.588
 4876SOL     OW14959   1.937   2.207   0.033
 4876SOL    HW114960   1.845   2.179   0.004
 4876SOL    HW214961   1.968   2.284  -0.023
 4877SOL     OW14962   3.302   2.718   1.398
 4877SOL    HW114963   3.245   2.770   1.335
 4877SOL    HW214964   3.398   2.730   1.374
 4878SOL     OW14965   1.934   2.028   0.318
 4878SOL    HW114966   1.917   2.111   0.264
 4878SOL    HW214967   2.024   1.991   0.296
 4879SOL     OW14968   3.045   3.197   0.119
 4879SOL    HW114969   2.946   3.186   0.121
 4879SOL    HW214970   3.079   3.212   0.212
 4880SOL     OW14971   3.355   3.629   0.959
 4880SOL    HW114972   3.388   3.693   0.890
 4880SOL    HW214973   3.421   3.623   1.034
 4881SOL     OW14974   3.312   3.082   1.633
 4881SOL    HW114975   3.303   3.072   1.732
 4881SOL    HW214976   3.408   3.075   1.607
 4882SOL     OW14977   2.252   3.603   1.560
 4882SOL    HW114978   2.161   3.644   1.558
 4882SOL    HW214979   2.245   3.509   1.592
 4883SOL     OW14980   3.536   2.745   1.254
 4883SOL    HW114981   3.509   2.656   1.217
 4883SOL    HW214982   3.537   2.813   1.181
 4884SOL     OW14983   3.087   2.187   0.449
 4884SOL    HW114984   3.152   2.113   0.438
 4884SOL    HW214985   3.107   2.237   0.533
 4885SOL     OW14986   2.456   2.607   0.652
 4885SOL    HW114987   2.506   2.692   0.633
 4885SOL    HW214988   2.368   2.609   0.604
 4886SOL     OW14989   3.639   2.204   1.642
 4886SOL    HW114990   3.622   2.235   1.548
 4886SOL    HW214991   3.555   2.167   1.680
 4887SOL     OW14992   3.592   2.796   1.517
 4887SOL    HW114993   3.630   2.887   1.532
 4887SOL    HW214994   3.584   2.779   1.418
 4888SOL     OW14995   2.721   3.236   0.016
 4888SOL    HW114996   2.675   3.251   0.104
 4888SOL    HW214997   2.765   3.321  -0.014
 4889SOL     OW14998   2.523   3.652   0.953
 4889SOL    HW114999   2.477   3.740   0.940
 4889SOL    HW215000   2.622   3.664   0.946
 4890SOL     OW15001   2.945   2.846   0.087
 4890SOL    HW115002   2.922   2.899   0.005
 4890SOL    HW215003   3.026   2.790   0.068
 4891SOL     OW15004   3.723   3.431   0.851
 4891SOL    HW115005   3.652   3.419   0.781
 4891SOL    HW215006   3.724   3.352   0.911
 4892SOL     OW15007   2.083   3.176   1.844
 4892SOL    HW115008   2.018   3.103   1.823
 4892SOL    HW215009   2.087   3.190   1.942
 4893SOL     OW15010   1.941   3.102   0.653
 4893SOL    HW115011   1.940   3.055   0.741
 4893SOL    HW215012   2.023   3.074   0.602
 4894SOL     OW15013   2.534   3.253   1.624
 4894SOL    HW115014   2.456   3.203   1.662
 4894SOL    HW215015   2.531   3.348   1.655
 4895SOL     OW15016   3.686   2.054   1.227
 4895SOL    HW115017   3.682   1.964   1.271
 4895SOL    HW215018   3.689   2.043   1.128
 4896SOL     OW15019   2.290   2.286   0.520
 4896SOL    HW115020   2.320   2.214   0.458
 4896SOL    HW215021   2.251   2.246   0.603
 4897SOL     OW15022   3.567   3.349   1.104
 4897SOL    HW115023   3.474   3.324   1.077
 4897SOL    HW215024   3.593   3.299   1.186
 4898SOL     OW15025   2.179   2.409   1.280
 4898SOL    HW115026   2.217   2.350   1.352
 4898SOL    HW215027   2.219   2.383   1.192
 4899SOL     OW15028   2.674   3.448   0.687
 4899SOL    HW115029   2.706   3.458   0.593
 4899SOL    HW215030   2.595   3.386   0.689
 4900SOL     OW15031   3.286   2.076   1.112
 4900SOL    HW115032   3.338   2.011   1.167
 4900SOL    HW215033   3.237   2.139   1.173
 4901SOL     OW15034   2.863   1.896   1.154
 4901SOL    HW115035   2.800   1.824   1.123
 4901SOL    HW215036   2.956   1.860   1.154
 4902SOL     OW15037   2.632   3.192   0.301
 4902SOL    HW115038   2.586   3.105   0.318
 4902SOL    HW215039   2.723   3.189   0.342
 4903SOL     OW15040   2.480   3.429   1.284
 4903SOL    HW115041   2.475   3.511   1.341
 4903SOL    HW215042   2.569   3.426   1.239
 4904SOL     OW15043   3.214   1.914   0.168
 4904SOL    HW115044   3.249   1.873   0.084
 4904SOL    HW215045   3.124   1.876   0.188
 4905SOL     OW15046   3.162   2.315   0.691
 4905SOL    HW115047   3.103   2.395   0.695
 4905SOL    HW215048   3.177   2.280   0.784
 4906SOL     OW15049   3.455   2.083   0.882
 4906SOL    HW115050   3.371   2.082   0.936
 4906SOL    HW215051   3.457   2.166   0.826
 4907SOL     OW15052   1.901   2.939   0.300
 4907SOL    HW115053   2.000   2.928   0.291
 4907SOL    HW215054   1.861   2.853   0.332
 4908SOL     OW15055   2.737   3.508   0.337
 4908SOL    HW115056   2.660   3.473   0.283
 4908SOL    HW215057   2.705   3.579   0.399
 4909SOL     OW15058   2.092   2.490   1.975
 4909SOL    HW115059   1.999   2.488   2.012
 4909SOL    HW215060   2.093   2.451   1.883
 4910SOL     OW15061   2.087   2.137   2.858
 4910SOL    HW115062   2.122   2.120   2.950
 4910SOL    HW215063   1.999   2.092   2.846
 4911SOL     OW15064   1.881   2.230   2.509
 4911SOL    HW115065   1.799   2.273   2.548
 4911SOL    HW215066   1.853   2.157   2.446
 4912SOL     OW15067   2.431   3.137   3.027
 4912SOL    HW115068   2.338   3.130   2.990
 4912SOL    HW215069   2.442   3.226   3.071
 4913SOL     OW15070   3.417   3.373   2.565
 4913SOL    HW115071   3.360   3.357   2.646
 4913SOL    HW215072   3.358   3.383   2.485
 4914SOL     OW15073   2.997   2.565   2.579
 4914SOL    HW115074   3.054   2.643   2.554
 4914SOL    HW215075   2.937   2.591   2.655
 4915SOL     OW15076   3.617   2.469   2.093
 4915SOL    HW115077   3.605   2.456   1.994
 4915SOL    HW215078   3.587   2.388   2.142
 4916SOL     OW15079   2.630   3.006   2.885
 4916SOL    HW115080   2.552   3.023   2.945
 4916SOL    HW215081   2.664   3.093   2.849
 4917SOL     OW15082   2.547   2.874   2.527
 4917SOL    HW115083   2.616   2.858   2.597
 4917SOL    HW215084   2.474   2.931   2.565
 4918SOL     OW15085   2.548   3.023   3.665
 4918SOL    HW115086   2.608   3.102   3.679
 4918SOL    HW215087   2.462   3.054   3.624
 4919SOL     OW15088   2.197   3.297   2.923
 4919SOL    HW115089   2.119   3.266   2.870
 4919SOL    HW215090   2.255   3.355   2.866
 4920SOL     OW15091   3.322   3.367   3.201
 4920SOL    HW115092   3.346   3.461   3.227
 4920SOL    HW215093   3.306   3.313   3.283
 4921SOL     OW15094   2.300   2.254   3.361
 4921SOL    HW115095   2.382   2.198   3.370
 4921SOL    HW215096   2.219   2.196   3.365
 4922SOL     OW15097   3.465   2.309   2.599
 4922SOL    HW115098   3.391   2.355   2.549
 4922SOL    HW215099   3.516   2.377   2.652
 4923SOL     OW15100   2.093   3.575   2.345
 4923SOL    HW115101   2.127   3.652   2.399
 4923SOL    HW215102   2.137   3.575   2.255
 4924SOL     OW15103   2.989   3.203   3.552
 4924SOL    HW115104   3.036   3.203   3.640
 4924SOL    HW215105   2.941   3.116   3.541
 4925SOL     OW15106   2.092   3.296   2.400
 4925SOL    HW115107   2.066   3.392   2.400
 4925SOL    HW215108   2.021   3.242   2.445
 4926SOL     OW15109   2.102   2.953   2.748
 4926SOL    HW115110   2.116   2.869   2.800
 4926SOL    HW215111   2.047   3.017   2.803
 4927SOL     OW15112   2.482   3.648   3.301
 4927SOL    HW115113   2.390   3.631   3.336
 4927SOL    HW215114   2.510   3.740   3.327
 4928SOL     OW15115   2.468   2.826   1.985
 4928SOL    HW115116   2.475   2.910   1.931
 4928SOL    HW215117   2.514   2.839   2.073
 4929SOL     OW15118   3.456   1.976   3.342
 4929SOL    HW115119   3.438   2.043   3.270
 4929SOL    HW215120   3.453   2.022   3.431
 4930SOL     OW15121   1.984   2.505   2.425
 4930SOL    HW115122   1.939   2.417   2.442
 4930SOL    HW215123   1.983   2.559   2.509
 4931SOL     OW15124   3.704   3.629   2.221
 4931SOL    HW115125   3.758   3.600   2.301
 4931SOL    HW215126   3.734   3.719   2.192
 4932SOL     OW15127   1.889   3.458   1.979
 4932SOL    HW115128   1.870   3.362   2.000
 4932SOL    HW215129   1.856   3.516   2.054
 4933SOL     OW15130   3.551   2.784   2.474
 4933SOL    HW115131   3.646   2.755   2.482
 4933SOL    HW215132   3.543   2.849   2.399
 4934SOL     OW15133   3.503   2.970   2.294
 4934SOL    HW115134   3.589   2.972   2.242
 4934SOL    HW215135   3.517   3.017   2.382
 4935SOL     OW15136   1.975   2.599   3.459
 4935SOL    HW115137   2.063   2.586   3.504
 4935SOL    HW215138   1.962   2.696   3.437
 4936SOL     OW15139   2.475   3.227   2.588
 4936SOL    HW115140   2.426   3.140   2.597
 4936SOL    HW215141   2.452   3.270   2.501
 4937SOL     OW15142   3.155   3.090   3.285
 4937SOL    HW115143   3.192   3.017   3.227
 4937SOL    HW215144   3.207   3.095   3.370
 4938SOL     OW15145   2.671   1.866   2.364
 4938SOL    HW115146   2.711   1.957   2.355
 4938SOL    HW215147   2.571   1.874   2.370
 4939SOL     OW15148   2.059   2.838   3.126
 4939SOL    HW115149   2.148   2.793   3.112
 4939SOL    HW215150   1.986   2.773   3.107
 4940SOL     OW15151   3.387   2.861   2.052
 4940SOL    HW115152   3.324   2.785   2.065
 4940SOL    HW215153   3.435   2.879   2.138
 4941SOL     OW15154   3.049   3.654   3.478
 4941SOL    HW115155   3.073   3.714   3.402
 4941SOL    HW215156   3.056   3.559   3.448
 4942SOL     OW15157   2.179   2.113   3.663
 4942SOL    HW115158   2.250   2.184   3.669
 4942SOL    HW215159   2.091   2.152   3.691
 4943SOL     OW15160   3.328   3.279   2.815
 4943SOL    HW115161   3.269   3.285   2.895
 4943SOL    HW215162   3.313   3.191   2.769
 4944SOL     OW15163   3.529   3.576   2.434
 4944SOL    HW115164   3.488   3.553   2.346
 4944SOL    HW215165   3.511   3.502   2.499
 4945SOL     OW15166   3.143   2.207   2.806
 4945SOL    HW115167   3.057   2.157   2.793
 4945SOL    HW215168   3.205   2.153   2.862
 4946SOL     OW15169   3.438   3.524   2.169
 4946SOL    HW115170   3.527   3.570   2.172
 4946SOL    HW215171   3.417   3.500   2.074
 4947SOL     OW15172   3.256   2.331   3.536
 4947SOL    HW115173   3.236   2.374   3.624
 4947SOL    HW215174   3.334   2.269   3.545
 4948SOL     OW15175   2.853   2.272   3.104
 4948SOL    HW115176   2.776   2.306   3.158
 4948SOL    HW215177   2.819   2.221   3.025
 4949SOL     OW15178   1.938   2.673   2.651
 4949SOL    HW115179   2.037   2.661   2.660
 4949SOL    HW215180   1.914   2.768   2.672
 4950SOL     OW15181   1.992   3.683   3.433
 4950SOL    HW115182   1.982   3.668   3.532
 4950SOL    HW215183   1.906   3.719   3.397
 4951SOL     OW15184   2.727   2.210   2.057
 4951SOL    HW115185   2.786   2.273   2.008
 4951SOL    HW215186   2.746   2.116   2.028
 4952SOL     OW15187   3.581   2.447   3.693
 4952SOL    HW115188   3.555   2.536   3.657
 4952SOL    HW215189   3.579   2.379   3.620
 4953SOL     OW15190   3.224   3.006   2.407
 4953SOL    HW115191   3.307   2.977   2.359
 4953SOL    HW215192   3.175   3.073   2.351
 4954SOL     OW15193   2.412   2.058   2.747
 4954SOL    HW115194   2.407   2.053   2.847
 4954SOL    HW215195   2.414   2.154   2.718
 4955SOL     OW15196   2.870   3.318   2.339
 4955SOL    HW115197   2.824   3.390   2.287
 4955SOL    HW215198   2.866   3.338   2.437
 4956SOL     OW15199   2.213   3.663   2.715
 4956SOL    HW115200   2.263   3.577   2.721
 4956SOL    HW215201   2.278   3.740   2.712
 4957SOL     OW15202   3.657   2.928   2.735
 4957SOL    HW115203   3.595   2.913   2.659
 4957SOL    HW215204   3.605   2.939   2.820
 4958SOL     OW15205   3.089   3.412   3.368
 4958SOL    HW115206   3.095   3.335   3.432
 4958SOL    HW215207   3.037   3.386   3.288
 4959SOL     OW15208   2.183   2.805   2.104
 4959SOL    HW115209   2.265   2.844   2.062
 4959SOL    HW215210   2.156   2.723   2.055
 4960SOL     OW15211   3.320   2.597   2.590
 4960SOL    HW115212   3.315   2.532   2.665
 4960SOL    HW215213   3.400   2.656   2.603
 4961SOL     OW15214   2.323   3.128   3.589
 4961SOL    HW115215   2.273   3.129   3.503
 4961SOL    HW215216   2.260   3.110   3.665
 4962SOL     OW15217   2.973   3.638   2.099
 4962SOL    HW115218   2.913   3.576   2.149
 4962SOL    HW215219   3.004   3.594   2.014
 4963SOL     OW15220   2.064   2.147   3.360
 4963SOL    HW115221   1.984   2.207   3.347
 4963SOL    HW215222   2.054   2.098   3.446
 4964SOL     OW15223   3.494   3.239   1.943
 4964SOL    HW115224   3.462   3.333   1.933
 4964SOL    HW215225   3.418   3.176   1.931
 4965SOL     OW15226   2.326   3.605   2.185
 4965SOL    HW115227   2.359   3.644   2.271
 4965SOL    HW215228   2.402   3.598   2.120
 4966SOL     OW15229   3.262   1.969   2.288
 4966SOL    HW115230   3.238   1.932   2.198
 4966SOL    HW215231   3.361   1.985   2.292
 4967SOL     OW15232   2.111   3.647   3.103
 4967SOL    HW115233   2.168   3.582   3.153
 4967SOL    HW215234   2.095   3.614   3.010
 4968SOL     OW15235   2.802   3.560   2.766
 4968SOL    HW115236   2.882   3.503   2.787
 4968SOL    HW215237   2.753   3.520   2.689
 4969SOL     OW15238   2.244   2.562   2.342
 4969SOL    HW115239   2.289   2.472   2.339
 4969SOL    HW215240   2.150   2.551   2.375
 4970SOL     OW15241   3.409   2.084   3.591
 4970SOL    HW115242   3.404   2.121   3.683
 4970SOL    HW215243   3.337   2.015   3.579
 4971SOL     OW15244   2.476   1.984   1.979
 4971SOL    HW115245   2.574   1.962   1.986
 4971SOL    HW215246   2.445   1.967   1.886
 4972SOL     OW15247   2.643   2.126   3.611
 4972SOL    HW115248   2.710   2.065   3.654
 4972SOL    HW215249   2.570   2.145   3.676
 4973SOL     OW15250   2.750   3.376   3.057
 4973SOL    HW115251   2.727   3.351   2.963
 4973SOL    HW215252   2.811   3.307   3.096
 4974SOL     OW15253   3.213   2.452   3.295
 4974SOL    HW115254   3.241   2.409   3.380
 4974SOL    HW215255   3.238   2.548   3.296
 4975SOL     OW15256   2.665   3.264   2.786
 4975SOL    HW115257   2.755   3.278   2.744
 4975SOL    HW215258   2.594   3.266   2.715
 4976SOL     OW15259   2.784   2.365   2.761
 4976SOL    HW115260   2.759   2.356   2.665
 4976SOL    HW215261   2.832   2.283   2.792
 4977SOL     OW15262   2.401   1.926   2.374
 4977SOL    HW115263   2.320   1.927   2.432
 4977SOL    HW215264   2.404   2.009   2.319
 4978SOL     OW15265   3.296   3.050   1.903
 4978SOL    HW115266   3.328   2.974   1.960
 4978SOL    HW215267   3.204   3.077   1.933
 4979SOL     OW15268   2.159   1.897   2.033
 4979SOL    HW115269   2.208   1.981   2.012
 4979SOL    HW215270   2.221   1.832   2.078
 4980SOL     OW15271   2.797   2.098   2.342
 4980SOL    HW115272   2.749   2.139   2.264
 4980SOL    HW215273   2.896   2.096   2.323
 4981SOL     OW15274   2.938   2.545   3.326
 4981SOL    HW115275   2.858   2.484   3.329
 4981SOL    HW215276   3.019   2.492   3.302
 4982SOL     OW15277   3.089   3.432   2.655
 4982SOL    HW115278   3.110   3.506   2.590
 4982SOL    HW215279   3.157   3.432   2.728
 4983SOL     OW15280   2.321   3.014   2.603
 4983SOL    HW115281   2.250   2.987   2.668
 4983SOL    HW215282   2.295   2.986   2.510
 4984SOL     OW15283   3.133   3.659   2.453
 4984SOL    HW115284   3.177   3.723   2.389
 4984SOL    HW215285   3.083   3.711   2.523
 4985SOL     OW15286   2.894   2.411   1.878
 4985SOL    HW115287   2.853   2.493   1.839
 4985SOL    HW215288   2.958   2.437   1.951
 4986SOL     OW15289   1.940   2.418   3.248
 4986SOL    HW115290   2.032   2.417   3.207
 4986SOL    HW215291   1.934   2.492   3.315
 4987SOL     OW15292   2.423   2.084   3.009
 4987SOL    HW115293   2.461   2.000   3.046
 4987SOL    HW215294   2.335   2.103   3.053
 4988SOL     OW15295   2.728   2.316   2.504
 4988SOL    HW115296   2.696   2.388   2.442
 4988SOL    HW215297   2.752   2.235   2.451
 4989SOL     OW15298   2.879   1.901   2.615
 4989SOL    HW115299   2.807   1.906   2.546
 4989SOL    HW215300   2.855   1.832   2.684
 4990SOL     OW15301   3.291   3.035   2.729
 4990SOL    HW115302   3.236   2.951   2.722
 4990SOL    HW215303   3.317   3.064   2.637
 4991SOL     OW15304   3.328   2.452   2.854
 4991SOL    HW115305   3.298   2.357   2.861
 4991SOL    HW215306   3.401   2.468   2.920
 4992SOL     OW15307   3.719   2.695   2.239
 4992SOL    HW115308   3.761   2.631   2.303
 4992SOL    HW215309   3.681   2.644   2.161
 4993SOL     OW15310   2.350   3.247   2.036
 4993SOL    HW115311   2.263   3.232   2.083
 4993SOL    HW215312   2.333   3.273   1.941
 4994SOL     OW15313   3.526   3.142   2.519
 4994SOL    HW115314   3.625   3.150   2.533
 4994SOL    HW215315   3.481   3.226   2.550
 4995SOL     OW15316   3.252   2.437   1.940
 4995SOL    HW115317   3.198   2.416   2.021
 4995SOL    HW215318   3.343   2.396   1.949
 4996SOL     OW15319   2.389   2.118   2.190
 4996SOL    HW115320   2.416   2.059   2.115
 4996SOL    HW215321   2.389   2.213   2.159
 4997SOL     OW15322   3.616   3.085   3.450
 4997SOL    HW115323   3.707   3.046   3.437
 4997SOL    HW215324   3.624   3.181   3.474
 4998SOL     OW15325   2.926   3.209   3.202
 4998SOL    HW115326   2.846   3.186   3.257
 4998SOL    HW215327   3.009   3.183   3.251
 4999SOL     OW15328   3.454   3.491   3.487
 4999SOL    HW115329   3.481   3.525   3.397
 4999SOL    HW215330   3.533   3.453   3.533
 5000SOL     OW15331   2.973   3.057   2.962
 5000SOL    HW115332   2.933   3.101   3.043
 5000SOL    HW215333   2.932   3.094   2.879
 5001SOL     OW15334   3.500   2.961   2.941
 5001SOL    HW115335   3.505   3.042   3.000
 5001SOL    HW215336   3.414   2.963   2.890
 5002SOL     OW15337   2.777   1.951   3.264
 5002SOL    HW115338   2.802   1.931   3.169
 5002SOL    HW215339   2.849   2.007   3.306
 5003SOL     OW15340   2.842   2.978   3.581
 5003SOL    HW115341   2.743   2.984   3.591
 5003SOL    HW215342   2.865   2.898   3.525
 5004SOL     OW15343   2.272   2.675   3.113
 5004SOL    HW115344   2.358   2.687   3.163
 5004SOL    HW215345   2.230   2.588   3.140
 5005SOL     OW15346   3.136   2.248   3.124
 5005SOL    HW115347   3.157   2.322   3.188
 5005SOL    HW215348   3.047   2.265   3.081
 5006SOL     OW15349   1.926   3.426   3.193
 5006SOL    HW115350   1.880   3.508   3.159
 5006SOL    HW215351   2.024   3.445   3.202
 5007SOL     OW15352   2.229   2.962   2.363
 5007SOL    HW115353   2.222   3.045   2.307
 5007SOL    HW215354   2.233   2.882   2.303
 5008SOL     OW15355   2.428   2.399   2.727
 5008SOL    HW115356   2.440   2.465   2.653
 5008SOL    HW215357   2.474   2.433   2.810
 5009SOL     OW15358   3.114   3.210   2.250
 5009SOL    HW115359   3.164   3.287   2.290
 5009SOL    HW215360   3.019   3.212   2.282
 5010SOL     OW15361   3.134   3.307   3.004
 5010SOL    HW115362   3.181   3.320   3.091
 5010SOL    HW215363   3.068   3.233   3.013
 5011SOL     OW15364   3.444   2.501   2.334
 5011SOL    HW115365   3.413   2.562   2.407
 5011SOL    HW215366   3.494   2.553   2.265
 5012SOL     OW15367   2.216   3.372   3.191
 5012SOL    HW115368   2.195   3.328   3.104
 5012SOL    HW215369   2.313   3.398   3.194
 5013SOL     OW15370   2.264   2.613   3.460
 5013SOL    HW115371   2.332   2.668   3.413
 5013SOL    HW215372   2.304   2.525   3.487
 5014SOL     OW15373   3.449   2.641   3.532
 5014SOL    HW115374   3.357   2.679   3.527
 5014SOL    HW215375   3.509   2.688   3.467
 5015SOL     OW15376   2.875   1.967   3.632
 5015SOL    HW115377   2.881   2.052   3.580
 5015SOL    HW215378   2.907   1.891   3.575
 5016SOL     OW15379   2.366   1.912   3.602
 5016SOL    HW115380   2.324   1.855   3.532
 5016SOL    HW215381   2.300   1.981   3.634
 5017SOL     OW15382   2.435   2.732   2.891
 5017SOL    HW115383   2.479   2.821   2.882
 5017SOL    HW215384   2.372   2.732   2.968
 5018SOL     OW15385   3.222   2.724   2.907
 5018SOL    HW115386   3.147   2.724   2.841
 5018SOL    HW215387   3.259   2.632   2.916
 5019SOL     OW15388   3.071   2.387   2.137
 5019SOL    HW115389   3.084   2.303   2.191
 5019SOL    HW215390   3.042   2.461   2.197
 5020SOL     OW15391   2.169   2.075   3.093
 5020SOL    HW115392   2.146   2.112   3.183
 5020SOL    HW215393   2.139   1.980   3.087
 5021SOL     OW15394   1.899   3.172   3.144
 5021SOL    HW115395   1.952   3.123   3.212
 5021SOL    HW215396   1.921   3.270   3.149
 5022SOL     OW15397   3.590   2.797   3.716
 5022SOL    HW115398   3.544   2.790   3.627
 5022SOL    HW215399   3.528   2.841   3.782
 5023SOL     OW15400   2.169   1.925   2.480
 5023SOL    HW115401   2.158   2.019   2.513
 5023SOL    HW215402   2.164   1.862   2.557
 5024SOL     OW15403   3.484   2.229   2.236
 5024SOL    HW115404   3.486   2.153   2.300
 5024SOL    HW215405   3.436   2.306   2.276
 5025SOL     OW15406   2.842   3.435   3.562
 5025SOL    HW115407   2.822   3.479   3.474
 5025SOL    HW215408   2.881   3.344   3.546
 5026SOL     OW15409   3.721   3.380   3.467
 5026SOL    HW115410   3.735   3.407   3.372
 5026SOL    HW215411   3.804   3.402   3.520
 5027SOL     OW15412   2.212   2.760   3.666
 5027SOL    HW115413   2.288   2.804   3.714
 5027SOL    HW215414   2.247   2.713   3.584
 5028SOL     OW15415   3.402   2.136   1.987
 5028SOL    HW115416   3.341   2.061   2.010
 5028SOL    HW215417   3.424   2.188   2.070
 5029SOL     OW15418   3.165   2.700   1.904
 5029SOL    HW115419   3.199   2.607   1.919
 5029SOL    HW215420   3.183   2.727   1.809
 5030SOL     OW15421   2.930   3.195   2.711
 5030SOL    HW115422   2.937   3.111   2.656
 5030SOL    HW215423   2.992   3.264   2.675
 5031SOL     OW15424   2.181   2.672   2.811
 5031SOL    HW115425   2.274   2.708   2.816
 5031SOL    HW215426   2.175   2.587   2.863
 5032SOL     OW15427   2.201   2.371   2.868
 5032SOL    HW115428   2.149   2.288   2.851
 5032SOL    HW215429   2.278   2.376   2.804
 5033SOL     OW15430   3.000   2.242   3.540
 5033SOL    HW115431   2.955   2.305   3.604
 5033SOL    HW215432   3.093   2.273   3.523
 5034SOL     OW15433   3.022   2.069   3.339
 5034SOL    HW115434   3.022   2.133   3.416
 5034SOL    HW215435   3.050   2.117   3.256
 5035SOL     OW15436   1.870   3.188   2.062
 5035SOL    HW115437   1.777   3.209   2.031
 5035SOL    HW215438   1.880   3.089   2.075
 5036SOL     OW15439   1.950   3.663   2.789
 5036SOL    HW115440   1.908   3.577   2.762
 5036SOL    HW215441   2.044   3.666   2.755
 5037SOL     OW15442   2.366   3.430   2.772
 5037SOL    HW115443   2.432   3.504   2.781
 5037SOL    HW215444   2.410   3.351   2.730
 5038SOL     OW15445   1.902   2.406   2.976
 5038SOL    HW115446   1.987   2.373   2.935
 5038SOL    HW215447   1.915   2.421   3.074
 5039SOL     OW15448   2.051   2.382   3.584
 5039SOL    HW115449   2.110   2.342   3.514
 5039SOL    HW215450   1.993   2.453   3.543
 5040SOL     OW15451   3.231   2.812   3.522
 5040SOL    HW115452   3.270   2.901   3.542
 5040SOL    HW215453   3.241   2.792   3.425
 5041SOL     OW15454   2.677   2.434   2.187
 5041SOL    HW115455   2.684   2.345   2.141
 5041SOL    HW215456   2.583   2.468   2.179
 5042SOL     OW15457   3.519   2.466   3.068
 5042SOL    HW115458   3.481   2.397   3.130
 5042SOL    HW215459   3.601   2.430   3.024
 5043SOL     OW15460   2.114   3.426   3.606
 5043SOL    HW115461   2.084   3.483   3.682
 5043SOL    HW215462   2.107   3.329   3.632
 5044SOL     OW15463   2.533   2.326   3.131
 5044SOL    HW115464   2.499   2.237   3.101
 5044SOL    HW215465   2.559   2.380   3.051
 5045SOL     OW15466   2.792   3.540   3.327
 5045SOL    HW115467   2.768   3.522   3.232
 5045SOL    HW215468   2.822   3.634   3.337
 5046SOL     OW15469   2.335   2.362   2.053
 5046SOL    HW115470   2.396   2.442   2.057
 5046SOL    HW215471   2.240   2.393   2.060
 5047SOL     OW15472   2.021   2.999   3.328
 5047SOL    HW115473   2.043   2.938   3.404
 5047SOL    HW215474   2.031   2.950   3.242
 5048SOL     OW15475   3.209   2.921   3.096
 5048SOL    HW115476   3.233   2.858   3.022
 5048SOL    HW215477   3.119   2.961   3.078
 5049SOL     OW15478   3.164   2.717   2.171
 5049SOL    HW115479   3.078   2.686   2.213
 5049SOL    HW215480   3.160   2.703   2.072
 5050SOL     OW15481   3.621   3.609   3.016
 5050SOL    HW115482   3.682   3.639   2.943
 5050SOL    HW215483   3.583   3.520   2.994
 5051SOL     OW15484   3.114   3.593   2.990
 5051SOL    HW115485   3.198   3.598   2.936
 5051SOL    HW215486   3.091   3.497   3.008
 5052SOL     OW15487   1.945   3.120   2.884
 5052SOL    HW115488   1.940   3.119   2.984
 5052SOL    HW215489   1.862   3.079   2.846
 5053SOL     OW15490   2.550   3.524   3.578
 5053SOL    HW115491   2.494   3.605   3.587
 5053SOL    HW215492   2.602   3.528   3.492
 5054SOL     OW15493   3.588   1.997   2.385
 5054SOL    HW115494   3.661   1.980   2.318
 5054SOL    HW215495   3.557   1.910   2.423
 5055SOL     OW15496   3.250   3.435   2.339
 5055SOL    HW115497   3.317   3.447   2.265
 5055SOL    HW215498   3.210   3.524   2.362
 5056SOL     OW15499   1.992   3.656   3.713
 5056SOL    HW115500   1.951   3.582   3.766
 5056SOL    HW215501   2.056   3.707   3.771
 5057SOL     OW15502   3.142   2.789   2.534
 5057SOL    HW115503   3.202   2.708   2.536
 5057SOL    HW215504   3.182   2.858   2.474
 5058SOL     OW15505   2.692   3.135   3.284
 5058SOL    HW115506   2.687   3.168   3.379
 5058SOL    HW215507   2.606   3.154   3.238
 5059SOL     OW15508   2.534   3.478   2.016
 5059SOL    HW115509   2.543   3.488   1.917
 5059SOL    HW215510   2.494   3.389   2.037
 5060SOL     OW15511   3.512   3.582   3.256
 5060SOL    HW115512   3.565   3.592   3.172
 5060SOL    HW215513   3.485   3.672   3.290
 5061SOL     OW15514   3.703   2.037   2.825
 5061SOL    HW115515   3.742   1.952   2.789
 5061SOL    HW215516   3.605   2.039   2.806
 5062SOL     OW15517   2.125   2.188   2.582
 5062SOL    HW115518   2.046   2.239   2.548
 5062SOL    HW215519   2.116   2.173   2.680
 5063SOL     OW15520   3.056   3.474   1.893
 5063SOL    HW115521   3.062   3.381   1.930
 5063SOL    HW215522   2.997   3.474   1.813
 5064SOL     OW15523   2.684   2.864   3.234
 5064SOL    HW115524   2.724   2.863   3.142
 5064SOL    HW215525   2.694   2.956   3.274
 5065SOL     OW15526   3.366   3.469   1.906
 5065SOL    HW115527   3.274   3.506   1.913
 5065SOL    HW215528   3.404   3.489   1.816
 5066SOL     OW15529   2.234   3.150   3.352
 5066SOL    HW115530   2.221   3.243   3.318
 5066SOL    HW215531   2.150   3.098   3.339
 5067SOL     OW15532   3.476   3.154   3.151
 5067SOL    HW115533   3.536   3.157   3.231
 5067SOL    HW215534   3.401   3.218   3.164
 5068SOL     OW15535   2.901   2.960   2.558
 5068SOL    HW115536   2.831   2.913   2.612
 5068SOL    HW215537   2.960   2.892   2.515
 5069SOL     OW15538   2.876   2.098   2.833
 5069SOL    HW115539   2.868   2.062   2.740
 5069SOL    HW215540   2.874   2.022   2.898
 5070SOL     OW15541   2.452   3.349   2.353
 5070SOL    HW115542   2.494   3.291   2.283
 5070SOL    HW215543   2.408   3.428   2.309
 5071SOL     OW15544   3.571   2.247   3.243
 5071SOL    HW115545   3.644   2.316   3.247
 5071SOL    HW215546   3.599   2.172   3.184
 5072SOL     OW15547   2.117   3.210   2.152
 5072SOL    HW115548   2.021   3.211   2.125
 5072SOL    HW215549   2.129   3.263   2.236
 5073SOL     OW15550   1.967   2.875   3.588
 5073SOL    HW115551   1.890   2.842   3.642
 5073SOL    HW215552   2.052   2.845   3.630
 5074SOL     OW15553   2.534   2.065   3.351
 5074SOL    HW115554   2.624   2.049   3.311
 5074SOL    HW215555   2.542   2.070   3.450
 5075SOL     OW15556   1.937   2.207   1.895
 5075SOL    HW115557   1.845   2.179   1.866
 5075SOL    HW215558   1.968   2.284   1.839
 5076SOL     OW15559   3.302   2.718   3.260
 5076SOL    HW115560   3.245   2.770   3.197
 5076SOL    HW215561   3.398   2.730   3.236
 5077SOL     OW15562   1.934   2.028   2.180
 5077SOL    HW115563   1.917   2.111   2.126
 5077SOL    HW215564   2.024   1.991   2.158
 5078SOL     OW15565   3.045   3.197   1.981
 5078SOL    HW115566   2.946   3.186   1.983
 5078SOL    HW215567   3.079   3.212   2.074
 5079SOL     OW15568   3.355   3.629   2.821
 5079SOL    HW115569   3.388   3.693   2.752
 5079SOL    HW215570   3.421   3.623   2.896
 5080SOL     OW15571   3.312   3.082   3.495
 5080SOL    HW115572   3.303   3.072   3.594
 5080SOL    HW215573   3.408   3.075   3.469
 5081SOL     OW15574   2.252   3.603   3.422
 5081SOL    HW115575   2.161   3.644   3.420
 5081SOL    HW215576   2.245   3.509   3.454
 5082SOL     OW15577   3.536   2.745   3.116
 5082SOL    HW115578   3.509   2.656   3.079
 5082SOL    HW215579   3.537   2.813   3.043
 5083SOL     OW15580   3.087   2.187   2.311
 5083SOL    HW115581   3.152   2.113   2.300
 5083SOL    HW215582   3.107   2.237   2.395
 5084SOL     OW15583   3.639   2.204   3.504
 5084SOL    HW115584   3.622   2.235   3.410
 5084SOL    HW215585   3.555   2.167   3.542
 5085SOL     OW15586   3.592   2.796   3.379
 5085SOL    HW115587   3.630   2.887   3.394
 5085SOL    HW215588   3.584   2.779   3.280
 5086SOL     OW15589   2.721   3.236   1.878
 5086SOL    HW115590   2.675   3.251   1.966
 5086SOL    HW215591   2.765   3.321   1.848
 5087SOL     OW15592   2.523   3.652   2.815
 5087SOL    HW115593   2.477   3.740   2.802
 5087SOL    HW215594   2.622   3.664   2.808
 5088SOL     OW15595   2.945   2.846   1.949
 5088SOL    HW115596   2.922   2.899   1.867
 5088SOL    HW215597   3.026   2.790   1.930
 5089SOL     OW15598   3.723   3.431   2.713
 5089SOL    HW115599   3.652   3.419   2.643
 5089SOL    HW215600   3.724   3.352   2.773
 5090SOL     OW15601   2.083   3.176   3.706
 5090SOL    HW115602   2.018   3.103   3.685
 5090SOL    HW215603   2.087   3.190   3.804
 5091SOL     OW15604   1.941   3.102   2.515
 5091SOL    HW115605   1.940   3.055   2.603
 5091SOL    HW215606   2.023   3.074   2.464
 5092SOL     OW15607   2.534   3.253   3.486
 5092SOL    HW115608   2.456   3.203   3.524
 5092SOL    HW215609   2.531   3.348   3.517
 5093SOL     OW15610   3.686   2.054   3.089
 5093SOL    HW115611   3.682   1.964   3.133
 5093SOL    HW215612   3.689   2.043   2.990
 5094SOL     OW15613   2.290   2.286   2.382
 5094SOL    HW115614   2.320   2.214   2.320
 5094SOL    HW215615   2.251   2.246   2.465
 5095SOL     OW15616   3.567   3.349   2.966
 5095SOL    HW115617   3.474   3.324   2.939
 5095SOL    HW215618   3.593   3.299   3.048
 5096SOL     OW15619   2.179   2.409   3.142
 5096SOL    HW115620   2.217   2.350   3.214
 5096SOL    HW215621   2.219   2.383   3.054
 5097SOL     OW15622   2.674   3.448   2.549
 5097SOL    HW115623   2.706   3.458   2.455
 5097SOL    HW215624   2.595   3.386   2.551
 5098SOL     OW15625   3.286   2.076   2.974
 5098SOL    HW115626   3.338   2.011   3.029
 5098SOL    HW215627   3.237   2.139   3.035
 5099SOL     OW15628   2.863   1.896   3.016
 5099SOL    HW115629   2.800   1.824   2.985
 5099SOL    HW215630   2.956   1.860   3.016
 5100SOL     OW15631   2.632   3.192   2.163
 5100SOL    HW115632   2.586   3.105   2.180
 5100SOL    HW215633   2.723   3.189   2.204
 5101SOL     OW15634   2.480   3.429   3.146
 5101SOL    HW115635   2.475   3.511   3.203
 5101SOL    HW215636   2.569   3.426   3.101
 5102SOL     OW15637   3.214   1.914   2.030
 5102SOL    HW115638   3.249   1.873   1.946
 5102SOL    HW215639   3.124   1.876   2.050
 5103SOL     OW15640   3.162   2.315   2.553
 5103SOL    HW115641   3.103   2.395   2.557
 5103SOL    HW215642   3.177   2.280   2.646
 5104SOL     OW15643   3.455   2.083   2.744
 5104SOL    HW115644   3.371   2.082   2.798
 5104SOL    HW215645   3.457   2.166   2.688
 5105SOL     OW15646   1.901   2.939   2.162
 5105SOL    HW115647   2.000   2.928   2.153
 5105SOL    HW215648   1.861   2.853   2.194
 5106SOL     OW15649   2.737   3.508   2.199
 5106SOL    HW115650   2.660   3.473   2.145
 5106SOL    HW215651   2.705   3.579   2.261
 5107SOL     OW15652   2.092   2.490   3.837
 5107SOL    HW115653   1.999   2.488   3.874
 5107SOL    HW215654   2.093   2.451   3.745
 5108SOL     OW15655   2.087   2.137   4.720
 5108SOL    HW115656   2.122   2.120   4.812
 5108SOL    HW215657   1.999   2.092   4.708
 5109SOL     OW15658   1.881   2.230   4.371
 5109SOL    HW115659   1.799   2.273   4.410
 5109SOL    HW215660   1.853   2.157   4.308
 5110SOL     OW15661   2.431   3.137   4.889
 5110SOL    HW115662   2.338   3.130   4.852
 5110SOL    HW215663   2.442   3.226   4.933
 5111SOL     OW15664   3.417   3.373   4.427
 5111SOL    HW115665   3.360   3.357   4.508
 5111SOL    HW215666   3.358   3.383   4.347
 5112SOL     OW15667   2.997   2.565   4.441
 5112SOL    HW115668   3.054   2.643   4.416
 5112SOL    HW215669   2.937   2.591   4.517
 5113SOL     OW15670   3.617   2.469   3.955
 5113SOL    HW115671   3.605   2.456   3.856
 5113SOL    HW215672   3.587   2.388   4.004
 5114SOL     OW15673   2.630   3.006   4.747
 5114SOL    HW115674   2.552   3.023   4.807
 5114SOL    HW215675   2.664   3.093   4.711
 5115SOL     OW15676   2.197   3.297   4.785
 5115SOL    HW115677   2.119   3.266   4.732
 5115SOL    HW215678   2.255   3.355   4.728
 5116SOL     OW15679   3.322   3.367   5.063
 5116SOL    HW115680   3.346   3.461   5.089
 5116SOL    HW215681   3.306   3.313   5.145
 5117SOL     OW15682   3.465   2.309   4.461
 5117SOL    HW115683   3.391   2.355   4.411
 5117SOL    HW215684   3.516   2.377   4.514
 5118SOL     OW15685   2.093   3.575   4.207
 5118SOL    HW115686   2.127   3.652   4.261
 5118SOL    HW215687   2.137   3.575   4.117
 5119SOL     OW15688   2.092   3.296   4.262
 5119SOL    HW115689   2.066   3.392   4.262
 5119SOL    HW215690   2.021   3.242   4.307
 5120SOL     OW15691   2.102   2.953   4.610
 5120SOL    HW115692   2.116   2.869   4.662
 5120SOL    HW215693   2.047   3.017   4.665
 5121SOL     OW15694   2.482   3.648   5.163
 5121SOL    HW115695   2.390   3.631   5.198
 5121SOL    HW215696   2.510   3.740   5.189
 5122SOL     OW15697   2.468   2.826   3.847
 5122SOL    HW115698   2.475   2.910   3.793
 5122SOL    HW215699   2.514   2.839   3.935
 5123SOL     OW15700   3.456   1.976   5.204
 5123SOL    HW115701   3.438   2.043   5.132
 5123SOL    HW215702   3.453   2.022   5.293
 5124SOL     OW15703   1.984   2.505   4.287
 5124SOL    HW115704   1.939   2.417   4.304
 5124SOL    HW215705   1.983   2.559   4.371
 5125SOL     OW15706   3.704   3.629   4.083
 5125SOL    HW115707   3.758   3.600   4.163
 5125SOL    HW215708   3.734   3.719   4.054
 5126SOL     OW15709   1.889   3.458   3.841
 5126SOL    HW115710   1.870   3.362   3.862
 5126SOL    HW215711   1.856   3.516   3.916
 5127SOL     OW15712   3.551   2.784   4.336
 5127SOL    HW115713   3.646   2.755   4.344
 5127SOL    HW215714   3.543   2.849   4.261
 5128SOL     OW15715   3.503   2.970   4.156
 5128SOL    HW115716   3.589   2.972   4.104
 5128SOL    HW215717   3.517   3.017   4.244
 5129SOL     OW15718   2.475   3.227   4.450
 5129SOL    HW115719   2.426   3.140   4.459
 5129SOL    HW215720   2.452   3.270   4.363
 5130SOL     OW15721   2.671   1.866   4.226
 5130SOL    HW115722   2.711   1.957   4.217
 5130SOL    HW215723   2.571   1.874   4.232
 5131SOL     OW15724   3.387   2.861   3.914
 5131SOL    HW115725   3.324   2.785   3.927
 5131SOL    HW215726   3.435   2.879   4.000
 5132SOL     OW15727   3.049   3.654   5.340
 5132SOL    HW115728   3.073   3.714   5.264
 5132SOL    HW215729   3.056   3.559   5.310
 5133SOL     OW15730   3.328   3.279   4.677
 5133SOL    HW115731   3.269   3.285   4.757
 5133SOL    HW215732   3.313   3.191   4.631
 5134SOL     OW15733   3.529   3.576   4.296
 5134SOL    HW115734   3.488   3.553   4.208
 5134SOL    HW215735   3.511   3.502   4.361
 5135SOL     OW15736   3.143   2.207   4.668
 5135SOL    HW115737   3.057   2.157   4.655
 5135SOL    HW215738   3.205   2.153   4.724
 5136SOL     OW15739   3.438   3.524   4.031
 5136SOL    HW115740   3.527   3.570   4.034
 5136SOL    HW215741   3.417   3.500   3.936
 5137SOL     OW15742   2.853   2.272   4.966
 5137SOL    HW115743   2.776   2.306   5.020
 5137SOL    HW215744   2.819   2.221   4.887
 5138SOL     OW15745   2.903   2.563   4.153
 5138SOL    HW115746   2.929   2.559   4.249
 5138SOL    HW215747   2.818   2.512   4.139
 5139SOL     OW15748   1.938   2.673   4.513
 5139SOL    HW115749   2.037   2.661   4.522
 5139SOL    HW215750   1.914   2.768   4.534
 5140SOL     OW15751   1.992   3.683   5.295
 5140SOL    HW115752   1.982   3.668   5.394
 5140SOL    HW215753   1.906   3.719   5.259
 5141SOL     OW15754   2.727   2.210   3.919
 5141SOL    HW115755   2.786   2.273   3.870
 5141SOL    HW215756   2.746   2.116   3.890
 5142SOL     OW15757   3.581   2.447   5.555
 5142SOL    HW115758   3.555   2.536   5.519
 5142SOL    HW215759   3.579   2.379   5.482
 5143SOL     OW15760   3.224   3.006   4.269
 5143SOL    HW115761   3.307   2.977   4.221
 5143SOL    HW215762   3.175   3.073   4.213
 5144SOL     OW15763   2.412   2.058   4.609
 5144SOL    HW115764   2.407   2.053   4.709
 5144SOL    HW215765   2.414   2.154   4.580
 5145SOL     OW15766   2.870   3.318   4.201
 5145SOL    HW115767   2.824   3.390   4.149
 5145SOL    HW215768   2.866   3.338   4.299
 5146SOL     OW15769   2.213   3.663   4.577
 5146SOL    HW115770   2.263   3.577   4.583
 5146SOL    HW215771   2.278   3.740   4.574
 5147SOL     OW15772   3.657   2.928   4.597
 5147SOL    HW115773   3.595   2.913   4.521
 5147SOL    HW215774   3.605   2.939   4.682
 5148SOL     OW15775   3.089   3.412   5.230
 5148SOL    HW115776   3.095   3.335   5.294
 5148SOL    HW215777   3.037   3.386   5.150
 5149SOL     OW15778   2.183   2.805   3.966
 5149SOL    HW115779   2.265   2.844   3.924
 5149SOL    HW215780   2.156   2.723   3.917
 5150SOL     OW15781   3.320   2.597   4.452
 5150SOL    HW115782   3.315   2.532   4.527
 5150SOL    HW215783   3.400   2.656   4.465
 5151SOL     OW15784   2.973   3.638   3.961
 5151SOL    HW115785   2.913   3.576   4.011
 5151SOL    HW215786   3.004   3.594   3.876
 5152SOL     OW15787   3.494   3.239   3.805
 5152SOL    HW115788   3.462   3.333   3.795
 5152SOL    HW215789   3.418   3.176   3.793
 5153SOL     OW15790   2.326   3.605   4.047
 5153SOL    HW115791   2.359   3.644   4.133
 5153SOL    HW215792   2.402   3.598   3.982
 5154SOL     OW15793   3.262   1.969   4.150
 5154SOL    HW115794   3.238   1.932   4.060
 5154SOL    HW215795   3.361   1.985   4.154
 5155SOL     OW15796   2.111   3.647   4.965
 5155SOL    HW115797   2.168   3.582   5.015
 5155SOL    HW215798   2.095   3.614   4.872
 5156SOL     OW15799   2.802   3.560   4.628
 5156SOL    HW115800   2.882   3.503   4.649
 5156SOL    HW215801   2.753   3.520   4.551
 5157SOL     OW15802   2.244   2.562   4.204
 5157SOL    HW115803   2.289   2.472   4.201
 5157SOL    HW215804   2.150   2.551   4.237
 5158SOL     OW15805   3.409   2.084   5.453
 5158SOL    HW115806   3.404   2.121   5.545
 5158SOL    HW215807   3.337   2.015   5.441
 5159SOL     OW15808   2.476   1.984   3.841
 5159SOL    HW115809   2.574   1.962   3.848
 5159SOL    HW215810   2.445   1.967   3.748
 5160SOL     OW15811   2.750   3.376   4.919
 5160SOL    HW115812   2.727   3.351   4.825
 5160SOL    HW215813   2.811   3.307   4.958
 5161SOL     OW15814   2.665   3.264   4.648
 5161SOL    HW115815   2.755   3.278   4.606
 5161SOL    HW215816   2.594   3.266   4.577
 5162SOL     OW15817   2.784   2.365   4.623
 5162SOL    HW115818   2.759   2.356   4.527
 5162SOL    HW215819   2.832   2.283   4.654
 5163SOL     OW15820   2.401   1.926   4.236
 5163SOL    HW115821   2.320   1.927   4.294
 5163SOL    HW215822   2.404   2.009   4.181
 5164SOL     OW15823   3.296   3.050   3.765
 5164SOL    HW115824   3.328   2.974   3.822
 5164SOL    HW215825   3.204   3.077   3.795
 5165SOL     OW15826   2.159   1.897   3.895
 5165SOL    HW115827   2.208   1.981   3.874
 5165SOL    HW215828   2.221   1.832   3.940
 5166SOL     OW15829   2.797   2.098   4.204
 5166SOL    HW115830   2.749   2.139   4.126
 5166SOL    HW215831   2.896   2.096   4.185
 5167SOL     OW15832   3.089   3.432   4.517
 5167SOL    HW115833   3.110   3.506   4.452
 5167SOL    HW215834   3.157   3.432   4.590
 5168SOL     OW15835   2.321   3.014   4.465
 5168SOL    HW115836   2.250   2.987   4.530
 5168SOL    HW215837   2.295   2.986   4.372
 5169SOL     OW15838   3.133   3.659   4.315
 5169SOL    HW115839   3.177   3.723   4.251
 5169SOL    HW215840   3.083   3.711   4.385
 5170SOL     OW15841   2.894   2.411   3.740
 5170SOL    HW115842   2.853   2.493   3.701
 5170SOL    HW215843   2.958   2.437   3.813
 5171SOL     OW15844   1.940   2.418   5.110
 5171SOL    HW115845   2.032   2.417   5.069
 5171SOL    HW215846   1.934   2.492   5.177
 5172SOL     OW15847   2.423   2.084   4.871
 5172SOL    HW115848   2.461   2.000   4.908
 5172SOL    HW215849   2.335   2.103   4.915
 5173SOL     OW15850   2.728   2.316   4.366
 5173SOL    HW115851   2.696   2.388   4.304
 5173SOL    HW215852   2.752   2.235   4.313
 5174SOL     OW15853   2.879   1.901   4.477
 5174SOL    HW115854   2.807   1.906   4.408
 5174SOL    HW215855   2.855   1.832   4.546
 5175SOL     OW15856   3.291   3.035   4.591
 5175SOL    HW115857   3.236   2.951   4.584
 5175SOL    HW215858   3.317   3.064   4.499
 5176SOL     OW15859   3.328   2.452   4.716
 5176SOL    HW115860   3.298   2.357   4.723
 5176SOL    HW215861   3.401   2.468   4.782
 5177SOL     OW15862   3.719   2.695   4.101
 5177SOL    HW115863   3.761   2.631   4.165
 5177SOL    HW215864   3.681   2.644   4.023
 5178SOL     OW15865   2.350   3.247   3.898
 5178SOL    HW115866   2.263   3.232   3.945
 5178SOL    HW215867   2.333   3.273   3.803
 5179SOL     OW15868   3.526   3.142   4.381
 5179SOL    HW115869   3.625   3.150   4.395
 5179SOL    HW215870   3.481   3.226   4.412
 5180SOL     OW15871   3.252   2.437   3.802
 5180SOL    HW115872   3.198   2.416   3.883
 5180SOL    HW215873   3.343   2.396   3.811
 5181SOL     OW15874   2.389   2.118   4.052
 5181SOL    HW115875   2.416   2.059   3.977
 5181SOL    HW215876   2.389   2.213   4.021
 5182SOL     OW15877   3.616   3.085   5.312
 5182SOL    HW115878   3.707   3.046   5.299
 5182SOL    HW215879   3.624   3.181   5.336
 5183SOL     OW15880   3.454   3.491   5.349
 5183SOL    HW115881   3.481   3.525   5.259
 5183SOL    HW215882   3.533   3.453   5.395
 5184SOL     OW15883   2.973   3.057   4.824
 5184SOL    HW115884   2.933   3.101   4.905
 5184SOL    HW215885   2.932   3.094   4.741
 5185SOL     OW15886   3.500   2.961   4.803
 5185SOL    HW115887   3.505   3.042   4.862
 5185SOL    HW215888   3.414   2.963   4.752
 5186SOL     OW15889   2.567   2.912   4.092
 5186SOL    HW115890   2.553   2.919   4.191
 5186SOL    HW215891   2.651   2.861   4.074
 5187SOL     OW15892   2.272   2.675   4.975
 5187SOL    HW115893   2.358   2.687   5.025
 5187SOL    HW215894   2.230   2.588   5.002
 5188SOL     OW15895   1.926   3.426   5.055
 5188SOL    HW115896   1.880   3.508   5.021
 5188SOL    HW215897   2.024   3.445   5.064
 5189SOL     OW15898   2.229   2.962   4.225
 5189SOL    HW115899   2.222   3.045   4.169
 5189SOL    HW215900   2.233   2.882   4.165
 5190SOL     OW15901   2.428   2.399   4.589
 5190SOL    HW115902   2.440   2.465   4.515
 5190SOL    HW215903   2.474   2.433   4.672
 5191SOL     OW15904   3.114   3.210   4.112
 5191SOL    HW115905   3.164   3.287   4.152
 5191SOL    HW215906   3.019   3.212   4.144
 5192SOL     OW15907   3.134   3.307   4.866
 5192SOL    HW115908   3.181   3.320   4.953
 5192SOL    HW215909   3.068   3.233   4.875
 5193SOL     OW15910   3.444   2.501   4.196
 5193SOL    HW115911   3.413   2.562   4.269
 5193SOL    HW215912   3.494   2.553   4.127
 5194SOL     OW15913   2.216   3.372   5.053
 5194SOL    HW115914   2.195   3.328   4.966
 5194SOL    HW215915   2.313   3.398   5.056
 5195SOL     OW15916   2.366   1.912   5.464
 5195SOL    HW115917   2.324   1.855   5.394
 5195SOL    HW215918   2.300   1.981   5.496
 5196SOL     OW15919   3.222   2.724   4.769
 5196SOL    HW115920   3.147   2.724   4.703
 5196SOL    HW215921   3.259   2.632   4.778
 5197SOL     OW15922   3.071   2.387   3.999
 5197SOL    HW115923   3.084   2.303   4.053
 5197SOL    HW215924   3.042   2.461   4.059
 5198SOL     OW15925   2.169   2.075   4.955
 5198SOL    HW115926   2.146   2.112   5.045
 5198SOL    HW215927   2.139   1.980   4.949
 5199SOL     OW15928   1.899   3.172   5.006
 5199SOL    HW115929   1.952   3.123   5.074
 5199SOL    HW215930   1.921   3.270   5.011
 5200SOL     OW15931   3.590   2.797   5.578
 5200SOL    HW115932   3.544   2.790   5.489
 5200SOL    HW215933   3.528   2.841   5.644
 5201SOL     OW15934   2.169   1.925   4.342
 5201SOL    HW115935   2.158   2.019   4.375
 5201SOL    HW215936   2.164   1.862   4.419
 5202SOL     OW15937   3.484   2.229   4.098
 5202SOL    HW115938   3.486   2.153   4.162
 5202SOL    HW215939   3.436   2.306   4.138
 5203SOL     OW15940   2.885   2.628   4.690
 5203SOL    HW115941   2.900   2.649   4.786
 5203SOL    HW215942   2.855   2.533   4.681
 5204SOL     OW15943   2.842   3.435   5.424
 5204SOL    HW115944   2.822   3.479   5.336
 5204SOL    HW215945   2.881   3.344   5.408
 5205SOL     OW15946   3.721   3.380   5.329
 5205SOL    HW115947   3.735   3.407   5.234
 5205SOL    HW215948   3.804   3.402   5.382
 5206SOL     OW15949   3.402   2.136   3.849
 5206SOL    HW115950   3.341   2.061   3.872
 5206SOL    HW215951   3.424   2.188   3.932
 5207SOL     OW15952   3.165   2.700   3.766
 5207SOL    HW115953   3.199   2.607   3.781
 5207SOL    HW215954   3.183   2.727   3.671
 5208SOL     OW15955   2.930   3.195   4.573
 5208SOL    HW115956   2.937   3.111   4.518
 5208SOL    HW215957   2.992   3.264   4.537
 5209SOL     OW15958   2.181   2.672   4.673
 5209SOL    HW115959   2.274   2.708   4.678
 5209SOL    HW215960   2.175   2.587   4.725
 5210SOL     OW15961   2.201   2.371   4.730
 5210SOL    HW115962   2.149   2.288   4.713
 5210SOL    HW215963   2.278   2.376   4.666
 5211SOL     OW15964   1.870   3.188   3.924
 5211SOL    HW115965   1.777   3.209   3.893
 5211SOL    HW215966   1.880   3.089   3.937
 5212SOL     OW15967   1.950   3.663   4.651
 5212SOL    HW115968   1.908   3.577   4.624
 5212SOL    HW215969   2.044   3.666   4.617
 5213SOL     OW15970   2.366   3.430   4.634
 5213SOL    HW115971   2.432   3.504   4.643
 5213SOL    HW215972   2.410   3.351   4.592
 5214SOL     OW15973   1.902   2.406   4.838
 5214SOL    HW115974   1.987   2.373   4.797
 5214SOL    HW215975   1.915   2.421   4.936
 5215SOL     OW15976   3.519   2.466   4.930
 5215SOL    HW115977   3.481   2.397   4.992
 5215SOL    HW215978   3.601   2.430   4.886
 5216SOL     OW15979   2.114   3.426   5.468
 5216SOL    HW115980   2.084   3.483   5.544
 5216SOL    HW215981   2.107   3.329   5.494
 5217SOL     OW15982   2.533   2.326   4.993
 5217SOL    HW115983   2.499   2.237   4.963
 5217SOL    HW215984   2.559   2.380   4.913
 5218SOL     OW15985   2.792   3.540   5.189
 5218SOL    HW115986   2.768   3.522   5.094
 5218SOL    HW215987   2.822   3.634   5.199
 5219SOL     OW15988   2.335   2.362   3.915
 5219SOL    HW115989   2.396   2.442   3.919
 5219SOL    HW215990   2.240   2.393   3.922
 5220SOL     OW15991   2.021   2.999   5.190
 5220SOL    HW115992   2.043   2.938   5.266
 5220SOL    HW215993   2.031   2.950   5.104
 5221SOL     OW15994   3.164   2.717   4.033
 5221SOL    HW115995   3.078   2.686   4.075
 5221SOL    HW215996   3.160   2.703   3.934
 5222SOL     OW15997   3.621   3.609   4.878
 5222SOL    HW115998   3.682   3.639   4.805
 5222SOL    HW215999   3.583   3.520   4.856
 5223SOL     OW16000   3.114   3.593   4.852
 5223SOL    HW116001   3.198   3.598   4.798
 5223SOL    HW216002   3.091   3.497   4.870
 5224SOL     OW16003   1.945   3.120   4.746
 5224SOL    HW116004   1.940   3.119   4.846
 5224SOL    HW216005   1.862   3.079   4.708
 5225SOL     OW16006   2.550   3.524   5.440
 5225SOL    HW116007   2.494   3.605   5.449
 5225SOL    HW216008   2.602   3.528   5.354
 5226SOL     OW16009   3.588   1.997   4.247
 5226SOL    HW116010   3.661   1.980   4.180
 5226SOL    HW216011   3.557   1.910   4.285
 5227SOL     OW16012   3.250   3.435   4.201
 5227SOL    HW116013   3.317   3.447   4.127
 5227SOL    HW216014   3.210   3.524   4.224
 5228SOL     OW16015   1.992   3.656   5.575
 5228SOL    HW116016   1.951   3.582   5.628
 5228SOL    HW216017   2.056   3.707   5.633
 5229SOL     OW16018   3.142   2.789   4.396
 5229SOL    HW116019   3.202   2.708   4.398
 5229SOL    HW216020   3.182   2.858   4.336
 5230SOL     OW16021   2.534   3.478   3.878
 5230SOL    HW116022   2.543   3.488   3.779
 5230SOL    HW216023   2.494   3.389   3.899
 5231SOL     OW16024   3.512   3.582   5.118
 5231SOL    HW116025   3.565   3.592   5.034
 5231SOL    HW216026   3.485   3.672   5.152
 5232SOL     OW16027   3.703   2.037   4.687
 5232SOL    HW116028   3.742   1.952   4.651
 5232SOL    HW216029   3.605   2.039   4.668
 5233SOL     OW16030   2.125   2.188   4.444
 5233SOL    HW116031   2.046   2.239   4.410
 5233SOL    HW216032   2.116   2.173   4.542
 5234SOL     OW16033   3.056   3.474   3.755
 5234SOL    HW116034   3.062   3.381   3.792
 5234SOL    HW216035   2.997   3.474   3.675
 5235SOL     OW16036   3.366   3.469   3.768
 5235SOL    HW116037   3.274   3.506   3.775
 5235SOL    HW216038   3.404   3.489   3.678
 5236SOL     OW16039   3.476   3.154   5.013
 5236SOL    HW116040   3.536   3.157   5.093
 5236SOL    HW216041   3.401   3.218   5.026
 5237SOL     OW16042   2.901   2.960   4.420
 5237SOL    HW116043   2.831   2.913   4.474
 5237SOL    HW216044   2.960   2.892   4.377
 5238SOL     OW16045   2.876   2.098   4.695
 5238SOL    HW116046   2.868   2.062   4.602
 5238SOL    HW216047   2.874   2.022   4.760
 5239SOL     OW16048   2.452   3.349   4.215
 5239SOL    HW116049   2.494   3.291   4.145
 5239SOL    HW216050   2.408   3.428   4.171
 5240SOL     OW16051   3.571   2.247   5.105
 5240SOL    HW116052   3.644   2.316   5.109
 5240SOL    HW216053   3.599   2.172   5.046
 5241SOL     OW16054   2.117   3.210   4.014
 5241SOL    HW116055   2.021   3.211   3.987
 5241SOL    HW216056   2.129   3.263   4.098
 5242SOL     OW16057   1.937   2.207   3.757
 5242SOL    HW116058   1.845   2.179   3.728
 5242SOL    HW216059   1.968   2.284   3.701
 5243SOL     OW16060   1.934   2.028   4.042
 5243SOL    HW116061   1.917   2.111   3.988
 5243SOL    HW216062   2.024   1.991   4.020
 5244SOL     OW16063   3.045   3.197   3.843
 5244SOL    HW116064   2.946   3.186   3.845
 5244SOL    HW216065   3.079   3.212   3.936
 5245SOL     OW16066   3.355   3.629   4.683
 5245SOL    HW116067   3.388   3.693   4.614
 5245SOL    HW216068   3.421   3.623   4.758
 5246SOL     OW16069   3.312   3.082   5.357
 5246SOL    HW116070   3.303   3.072   5.456
 5246SOL    HW216071   3.408   3.075   5.331
 5247SOL     OW16072   2.252   3.603   5.284
 5247SOL    HW116073   2.161   3.644   5.282
 5247SOL    HW216074   2.245   3.509   5.316
 5248SOL     OW16075   3.536   2.745   4.978
 5248SOL    HW116076   3.509   2.656   4.941
 5248SOL    HW216077   3.537   2.813   4.905
 5249SOL     OW16078   3.087   2.187   4.173
 5249SOL    HW116079   3.152   2.113   4.162
 5249SOL    HW216080   3.107   2.237   4.257
 5250SOL     OW16081   3.639   2.204   5.366
 5250SOL    HW116082   3.622   2.235   5.272
 5250SOL    HW216083   3.555   2.167   5.404
 5251SOL     OW16084   3.592   2.796   5.241
 5251SOL    HW116085   3.630   2.887   5.256
 5251SOL    HW216086   3.584   2.779   5.142
 5252SOL     OW16087   2.721   3.236   3.740
 5252SOL    HW116088   2.675   3.251   3.828
 5252SOL    HW216089   2.765   3.321   3.710
 5253SOL     OW16090   2.523   3.652   4.677
 5253SOL    HW116091   2.477   3.740   4.664
 5253SOL    HW216092   2.622   3.664   4.670
 5254SOL     OW16093   2.945   2.846   3.811
 5254SOL    HW116094   2.922   2.899   3.729
 5254SOL    HW216095   3.026   2.790   3.792
 5255SOL     OW16096   3.723   3.431   4.575
 5255SOL    HW116097   3.652   3.419   4.505
 5255SOL    HW216098   3.724   3.352   4.635
 5256SOL     OW16099   2.083   3.176   5.568
 5256SOL    HW116100   2.018   3.103   5.547
 5256SOL    HW216101   2.087   3.190   5.666
 5257SOL     OW16102   1.941   3.102   4.377
 5257SOL    HW116103   1.940   3.055   4.465
 5257SOL    HW216104   2.023   3.074   4.326
 5258SOL     OW16105   3.686   2.054   4.951
 5258SOL    HW116106   3.682   1.964   4.995
 5258SOL    HW216107   3.689   2.043   4.852
 5259SOL     OW16108   2.290   2.286   4.244
 5259SOL    HW116109   2.320   2.214   4.182
 5259SOL    HW216110   2.251   2.246   4.327
 5260SOL     OW16111   3.567   3.349   4.828
 5260SOL    HW116112   3.474   3.324   4.801
 5260SOL    HW216113   3.593   3.299   4.910
 5261SOL     OW16114   2.674   3.448   4.411
 5261SOL    HW116115   2.706   3.458   4.317
 5261SOL    HW216116   2.595   3.386   4.413
 5262SOL     OW16117   3.286   2.076   4.836
 5262SOL    HW116118   3.338   2.011   4.891
 5262SOL    HW216119   3.237   2.139   4.897
 5263SOL     OW16120   2.863   1.896   4.878
 5263SOL    HW116121   2.800   1.824   4.847
 5263SOL    HW216122   2.956   1.860   4.878
 5264SOL     OW16123   2.632   3.192   4.025
 5264SOL    HW116124   2.586   3.105   4.042
 5264SOL    HW216125   2.723   3.189   4.066
 5265SOL     OW16126   2.480   3.429   5.008
 5265SOL    HW116127   2.475   3.511   5.065
 5265SOL    HW216128   2.569   3.426   4.963
 5266SOL     OW16129   3.214   1.914   3.892
 5266SOL    HW116130   3.249   1.873   3.808
 5266SOL    HW216131   3.124   1.876   3.912
 5267SOL     OW16132   3.162   2.315   4.415
 5267SOL    HW116133   3.103   2.395   4.419
 5267SOL    HW216134   3.177   2.280   4.508
 5268SOL     OW16135   3.455   2.083   4.606
 5268SOL    HW116136   3.371   2.082   4.660
 5268SOL    HW216137   3.457   2.166   4.550
 5269SOL     OW16138   1.901   2.939   4.024
 5269SOL    HW116139   2.000   2.928   4.015
 5269SOL    HW216140   1.861   2.853   4.056
 5270SOL     OW16141   2.737   3.508   4.061
 5270SOL    HW116142   2.660   3.473   4.007
 5270SOL    HW216143   2.705   3.579   4.123
 5271SOL     OW16144   2.087   2.137   6.582
 5271SOL    HW116145   2.122   2.120   6.674
 5271SOL    HW216146   1.999   2.092   6.570
 5272SOL     OW16147   1.881   2.230   6.233
 5272SOL    HW116148   1.799   2.273   6.272
 5272SOL    HW216149   1.853   2.157   6.170
 5273SOL     OW16150   2.431   3.137   6.751
 5273SOL    HW116151   2.338   3.130   6.714
 5273SOL    HW216152   2.442   3.226   6.795
 5274SOL     OW16153   3.417   3.373   6.289
 5274SOL    HW116154   3.360   3.357   6.370
 5274SOL    HW216155   3.358   3.383   6.209
 5275SOL     OW16156   2.997   2.565   6.303
 5275SOL    HW116157   3.054   2.643   6.278
 5275SOL    HW216158   2.937   2.591   6.379
 5276SOL     OW16159   3.617   2.469   5.817
 5276SOL    HW116160   3.605   2.456   5.718
 5276SOL    HW216161   3.587   2.388   5.866
 5277SOL     OW16162   2.630   3.006   6.609
 5277SOL    HW116163   2.552   3.023   6.669
 5277SOL    HW216164   2.664   3.093   6.573
 5278SOL     OW16165   2.548   3.023   7.389
 5278SOL    HW116166   2.608   3.102   7.403
 5278SOL    HW216167   2.462   3.054   7.348
 5279SOL     OW16168   2.197   3.297   6.647
 5279SOL    HW116169   2.119   3.266   6.594
 5279SOL    HW216170   2.255   3.355   6.590
 5280SOL     OW16171   3.322   3.367   6.925
 5280SOL    HW116172   3.346   3.461   6.951
 5280SOL    HW216173   3.306   3.313   7.007
 5281SOL     OW16174   2.300   2.254   7.085
 5281SOL    HW116175   2.382   2.198   7.094
 5281SOL    HW216176   2.219   2.196   7.089
 5282SOL     OW16177   3.465   2.309   6.323
 5282SOL    HW116178   3.391   2.355   6.273
 5282SOL    HW216179   3.516   2.377   6.376
 5283SOL     OW16180   2.093   3.575   6.069
 5283SOL    HW116181   2.127   3.652   6.123
 5283SOL    HW216182   2.137   3.575   5.979
 5284SOL     OW16183   2.989   3.203   7.276
 5284SOL    HW116184   3.036   3.203   7.364
 5284SOL    HW216185   2.941   3.116   7.265
 5285SOL     OW16186   2.092   3.296   6.124
 5285SOL    HW116187   2.066   3.392   6.124
 5285SOL    HW216188   2.021   3.242   6.169
 5286SOL     OW16189   2.102   2.953   6.472
 5286SOL    HW116190   2.116   2.869   6.524
 5286SOL    HW216191   2.047   3.017   6.527
 5287SOL     OW16192   2.482   3.648   7.025
 5287SOL    HW116193   2.390   3.631   7.060
 5287SOL    HW216194   2.510   3.740   7.051
 5288SOL     OW16195   2.468   2.826   5.709
 5288SOL    HW116196   2.475   2.910   5.655
 5288SOL    HW216197   2.514   2.839   5.797
 5289SOL     OW16198   3.456   1.976   7.066
 5289SOL    HW116199   3.438   2.043   6.994
 5289SOL    HW216200   3.453   2.022   7.155
 5290SOL     OW16201   1.984   2.505   6.149
 5290SOL    HW116202   1.939   2.417   6.166
 5290SOL    HW216203   1.983   2.559   6.233
 5291SOL     OW16204   3.704   3.629   5.945
 5291SOL    HW116205   3.758   3.600   6.025
 5291SOL    HW216206   3.734   3.719   5.916
 5292SOL     OW16207   1.889   3.458   5.703
 5292SOL    HW116208   1.870   3.362   5.724
 5292SOL    HW216209   1.856   3.516   5.778
 5293SOL     OW16210   3.551   2.784   6.198
 5293SOL    HW116211   3.646   2.755   6.206
 5293SOL    HW216212   3.543   2.849   6.123
 5294SOL     OW16213   3.503   2.970   6.018
 5294SOL    HW116214   3.589   2.972   5.966
 5294SOL    HW216215   3.517   3.017   6.106
 5295SOL     OW16216   1.975   2.599   7.183
 5295SOL    HW116217   2.063   2.586   7.228
 5295SOL    HW216218   1.962   2.696   7.161
 5296SOL     OW16219   2.475   3.227   6.312
 5296SOL    HW116220   2.426   3.140   6.321
 5296SOL    HW216221   2.452   3.270   6.225
 5297SOL     OW16222   3.155   3.090   7.009
 5297SOL    HW116223   3.192   3.017   6.951
 5297SOL    HW216224   3.207   3.095   7.094
 5298SOL     OW16225   2.671   1.866   6.088
 5298SOL    HW116226   2.711   1.957   6.079
 5298SOL    HW216227   2.571   1.874   6.094
 5299SOL     OW16228   2.059   2.838   6.850
 5299SOL    HW116229   2.148   2.793   6.836
 5299SOL    HW216230   1.986   2.773   6.831
 5300SOL     OW16231   3.387   2.861   5.776
 5300SOL    HW116232   3.324   2.785   5.789
 5300SOL    HW216233   3.435   2.879   5.862
 5301SOL     OW16234   3.049   3.654   7.202
 5301SOL    HW116235   3.073   3.714   7.126
 5301SOL    HW216236   3.056   3.559   7.172
 5302SOL     OW16237   2.179   2.113   7.387
 5302SOL    HW116238   2.250   2.184   7.393
 5302SOL    HW216239   2.091   2.152   7.415
 5303SOL     OW16240   3.328   3.279   6.539
 5303SOL    HW116241   3.269   3.285   6.619
 5303SOL    HW216242   3.313   3.191   6.493
 5304SOL     OW16243   3.529   3.576   6.158
 5304SOL    HW116244   3.488   3.553   6.070
 5304SOL    HW216245   3.511   3.502   6.223
 5305SOL     OW16246   3.143   2.207   6.530
 5305SOL    HW116247   3.057   2.157   6.517
 5305SOL    HW216248   3.205   2.153   6.586
 5306SOL     OW16249   3.438   3.524   5.893
 5306SOL    HW116250   3.527   3.570   5.896
 5306SOL    HW216251   3.417   3.500   5.798
 5307SOL     OW16252   3.256   2.331   7.260
 5307SOL    HW116253   3.236   2.374   7.348
 5307SOL    HW216254   3.334   2.269   7.269
 5308SOL     OW16255   2.853   2.272   6.828
 5308SOL    HW116256   2.776   2.306   6.882
 5308SOL    HW216257   2.819   2.221   6.749
 5309SOL     OW16258   2.903   2.563   6.015
 5309SOL    HW116259   2.929   2.559   6.111
 5309SOL    HW216260   2.818   2.512   6.001
 5310SOL     OW16261   1.938   2.673   6.375
 5310SOL    HW116262   2.037   2.661   6.384
 5310SOL    HW216263   1.914   2.768   6.396
 5311SOL     OW16264   1.992   3.683   7.157
 5311SOL    HW116265   1.982   3.668   7.256
 5311SOL    HW216266   1.906   3.719   7.121
 5312SOL     OW16267   3.581   2.447   7.417
 5312SOL    HW116268   3.555   2.536   7.381
 5312SOL    HW216269   3.579   2.379   7.344
 5313SOL     OW16270   3.224   3.006   6.131
 5313SOL    HW116271   3.307   2.977   6.083
 5313SOL    HW216272   3.175   3.073   6.075
 5314SOL     OW16273   2.412   2.058   6.471
 5314SOL    HW116274   2.407   2.053   6.571
 5314SOL    HW216275   2.414   2.154   6.442
 5315SOL     OW16276   2.870   3.318   6.063
 5315SOL    HW116277   2.824   3.390   6.011
 5315SOL    HW216278   2.866   3.338   6.161
 5316SOL     OW16279   2.213   3.663   6.439
 5316SOL    HW116280   2.263   3.577   6.445
 5316SOL    HW216281   2.278   3.740   6.436
 5317SOL     OW16282   3.657   2.928   6.459
 5317SOL    HW116283   3.595   2.913   6.383
 5317SOL    HW216284   3.605   2.939   6.544
 5318SOL     OW16285   3.089   3.412   7.092
 5318SOL    HW116286   3.095   3.335   7.156
 5318SOL    HW216287   3.037   3.386   7.012
 5319SOL     OW16288   3.320   2.597   6.314
 5319SOL    HW116289   3.315   2.532   6.389
 5319SOL    HW216290   3.400   2.656   6.327
 5320SOL     OW16291   2.323   3.128   7.313
 5320SOL    HW116292   2.273   3.129   7.227
 5320SOL    HW216293   2.260   3.110   7.389
 5321SOL     OW16294   2.973   3.638   5.823
 5321SOL    HW116295   2.913   3.576   5.873
 5321SOL    HW216296   3.004   3.594   5.738
 5322SOL     OW16297   2.064   2.147   7.084
 5322SOL    HW116298   1.984   2.207   7.071
 5322SOL    HW216299   2.054   2.098   7.170
 5323SOL     OW16300   3.494   3.239   5.667
 5323SOL    HW116301   3.462   3.333   5.657
 5323SOL    HW216302   3.418   3.176   5.655
 5324SOL     OW16303   2.326   3.605   5.909
 5324SOL    HW116304   2.359   3.644   5.995
 5324SOL    HW216305   2.402   3.598   5.844
 5325SOL     OW16306   3.262   1.969   6.012
 5325SOL    HW116307   3.238   1.932   5.922
 5325SOL    HW216308   3.361   1.985   6.016
 5326SOL     OW16309   2.111   3.647   6.827
 5326SOL    HW116310   2.168   3.582   6.877
 5326SOL    HW216311   2.095   3.614   6.734
 5327SOL     OW16312   2.802   3.560   6.490
 5327SOL    HW116313   2.882   3.503   6.511
 5327SOL    HW216314   2.753   3.520   6.413
 5328SOL     OW16315   2.244   2.562   6.066
 5328SOL    HW116316   2.289   2.472   6.063
 5328SOL    HW216317   2.150   2.551   6.099
 5329SOL     OW16318   3.409   2.084   7.315
 5329SOL    HW116319   3.404   2.121   7.407
 5329SOL    HW216320   3.337   2.015   7.303
 5330SOL     OW16321   2.476   1.984   5.703
 5330SOL    HW116322   2.574   1.962   5.710
 5330SOL    HW216323   2.445   1.967   5.610
 5331SOL     OW16324   2.643   2.126   7.335
 5331SOL    HW116325   2.710   2.065   7.378
 5331SOL    HW216326   2.570   2.145   7.400
 5332SOL     OW16327   2.750   3.376   6.781
 5332SOL    HW116328   2.727   3.351   6.687
 5332SOL    HW216329   2.811   3.307   6.820
 5333SOL     OW16330   3.213   2.452   7.019
 5333SOL    HW116331   3.241   2.409   7.104
 5333SOL    HW216332   3.238   2.548   7.020
 5334SOL     OW16333   2.665   3.264   6.510
 5334SOL    HW116334   2.755   3.278   6.468
 5334SOL    HW216335   2.594   3.266   6.439
 5335SOL     OW16336   2.784   2.365   6.485
 5335SOL    HW116337   2.759   2.356   6.389
 5335SOL    HW216338   2.832   2.283   6.516
 5336SOL     OW16339   2.401   1.926   6.098
 5336SOL    HW116340   2.320   1.927   6.156
 5336SOL    HW216341   2.404   2.009   6.043
 5337SOL     OW16342   3.296   3.050   5.627
 5337SOL    HW116343   3.328   2.974   5.684
 5337SOL    HW216344   3.204   3.077   5.657
 5338SOL     OW16345   2.159   1.897   5.757
 5338SOL    HW116346   2.208   1.981   5.736
 5338SOL    HW216347   2.221   1.832   5.802
 5339SOL     OW16348   2.797   2.098   6.066
 5339SOL    HW116349   2.749   2.139   5.988
 5339SOL    HW216350   2.896   2.096   6.047
 5340SOL     OW16351   2.938   2.545   7.050
 5340SOL    HW116352   2.858   2.484   7.053
 5340SOL    HW216353   3.019   2.492   7.026
 5341SOL     OW16354   3.089   3.432   6.379
 5341SOL    HW116355   3.110   3.506   6.314
 5341SOL    HW216356   3.157   3.432   6.452
 5342SOL     OW16357   2.321   3.014   6.327
 5342SOL    HW116358   2.250   2.987   6.392
 5342SOL    HW216359   2.295   2.986   6.234
 5343SOL     OW16360   3.133   3.659   6.177
 5343SOL    HW116361   3.177   3.723   6.113
 5343SOL    HW216362   3.083   3.711   6.247
 5344SOL     OW16363   1.940   2.418   6.972
 5344SOL    HW116364   2.032   2.417   6.931
 5344SOL    HW216365   1.934   2.492   7.039
 5345SOL     OW16366   2.423   2.084   6.733
 5345SOL    HW116367   2.461   2.000   6.770
 5345SOL    HW216368   2.335   2.103   6.777
 5346SOL     OW16369   2.728   2.316   6.228
 5346SOL    HW116370   2.696   2.388   6.166
 5346SOL    HW216371   2.752   2.235   6.175
 5347SOL     OW16372   2.879   1.901   6.339
 5347SOL    HW116373   2.807   1.906   6.270
 5347SOL    HW216374   2.855   1.832   6.408
 5348SOL     OW16375   3.291   3.035   6.453
 5348SOL    HW116376   3.236   2.951   6.446
 5348SOL    HW216377   3.317   3.064   6.361
 5349SOL     OW16378   3.328   2.452   6.578
 5349SOL    HW116379   3.298   2.357   6.585
 5349SOL    HW216380   3.401   2.468   6.644
 5350SOL     OW16381   3.719   2.695   5.963
 5350SOL    HW116382   3.761   2.631   6.027
 5350SOL    HW216383   3.681   2.644   5.885
 5351SOL     OW16384   2.350   3.247   5.760
 5351SOL    HW116385   2.263   3.232   5.807
 5351SOL    HW216386   2.333   3.273   5.665
 5352SOL     OW16387   3.526   3.142   6.243
 5352SOL    HW116388   3.625   3.150   6.257
 5352SOL    HW216389   3.481   3.226   6.274
 5353SOL     OW16390   2.389   2.118   5.914
 5353SOL    HW116391   2.416   2.059   5.839
 5353SOL    HW216392   2.389   2.213   5.883
 5354SOL     OW16393   3.616   3.085   7.174
 5354SOL    HW116394   3.707   3.046   7.161
 5354SOL    HW216395   3.624   3.181   7.198
 5355SOL     OW16396   2.926   3.209   6.926
 5355SOL    HW116397   2.846   3.186   6.981
 5355SOL    HW216398   3.009   3.183   6.975
 5356SOL     OW16399   3.454   3.491   7.211
 5356SOL    HW116400   3.481   3.525   7.121
 5356SOL    HW216401   3.533   3.453   7.257
 5357SOL     OW16402   2.973   3.057   6.686
 5357SOL    HW116403   2.933   3.101   6.767
 5357SOL    HW216404   2.932   3.094   6.603
 5358SOL     OW16405   3.500   2.961   6.665
 5358SOL    HW116406   3.505   3.042   6.724
 5358SOL    HW216407   3.414   2.963   6.614
 5359SOL     OW16408   2.777   1.951   6.988
 5359SOL    HW116409   2.802   1.931   6.893
 5359SOL    HW216410   2.849   2.007   7.030
 5360SOL     OW16411   2.842   2.978   7.305
 5360SOL    HW116412   2.743   2.984   7.315
 5360SOL    HW216413   2.865   2.898   7.249
 5361SOL     OW16414   2.272   2.675   6.837
 5361SOL    HW116415   2.358   2.687   6.887
 5361SOL    HW216416   2.230   2.588   6.864
 5362SOL     OW16417   3.136   2.248   6.848
 5362SOL    HW116418   3.157   2.322   6.912
 5362SOL    HW216419   3.047   2.265   6.805
 5363SOL     OW16420   1.926   3.426   6.917
 5363SOL    HW116421   1.880   3.508   6.883
 5363SOL    HW216422   2.024   3.445   6.926
 5364SOL     OW16423   2.229   2.962   6.087
 5364SOL    HW116424   2.222   3.045   6.031
 5364SOL    HW216425   2.233   2.882   6.027
 5365SOL     OW16426   2.428   2.399   6.451
 5365SOL    HW116427   2.440   2.465   6.377
 5365SOL    HW216428   2.474   2.433   6.534
 5366SOL     OW16429   3.114   3.210   5.974
 5366SOL    HW116430   3.164   3.287   6.014
 5366SOL    HW216431   3.019   3.212   6.006
 5367SOL     OW16432   3.134   3.307   6.728
 5367SOL    HW116433   3.181   3.320   6.815
 5367SOL    HW216434   3.068   3.233   6.737
 5368SOL     OW16435   3.444   2.501   6.058
 5368SOL    HW116436   3.413   2.562   6.131
 5368SOL    HW216437   3.494   2.553   5.989
 5369SOL     OW16438   2.216   3.372   6.915
 5369SOL    HW116439   2.195   3.328   6.828
 5369SOL    HW216440   2.313   3.398   6.918
 5370SOL     OW16441   2.264   2.613   7.184
 5370SOL    HW116442   2.332   2.668   7.137
 5370SOL    HW216443   2.304   2.525   7.211
 5371SOL     OW16444   3.449   2.641   7.256
 5371SOL    HW116445   3.357   2.679   7.251
 5371SOL    HW216446   3.509   2.688   7.191
 5372SOL     OW16447   2.875   1.967   7.356
 5372SOL    HW116448   2.881   2.052   7.304
 5372SOL    HW216449   2.907   1.891   7.299
 5373SOL     OW16450   2.366   1.912   7.326
 5373SOL    HW116451   2.324   1.855   7.256
 5373SOL    HW216452   2.300   1.981   7.358
 5374SOL     OW16453   2.435   2.732   6.615
 5374SOL    HW116454   2.479   2.821   6.606
 5374SOL    HW216455   2.372   2.732   6.692
 5375SOL     OW16456   3.222   2.724   6.631
 5375SOL    HW116457   3.147   2.724   6.565
 5375SOL    HW216458   3.259   2.632   6.640
 5376SOL     OW16459   3.071   2.387   5.861
 5376SOL    HW116460   3.084   2.303   5.915
 5376SOL    HW216461   3.042   2.461   5.921
 5377SOL     OW16462   2.169   2.075   6.817
 5377SOL    HW116463   2.146   2.112   6.907
 5377SOL    HW216464   2.139   1.980   6.811
 5378SOL     OW16465   1.899   3.172   6.868
 5378SOL    HW116466   1.952   3.123   6.936
 5378SOL    HW216467   1.921   3.270   6.873
 5379SOL     OW16468   3.590   2.797   7.440
 5379SOL    HW116469   3.544   2.790   7.351
 5379SOL    HW216470   3.528   2.841   7.506
 5380SOL     OW16471   2.169   1.925   6.204
 5380SOL    HW116472   2.158   2.019   6.237
 5380SOL    HW216473   2.164   1.862   6.281
 5381SOL     OW16474   3.484   2.229   5.960
 5381SOL    HW116475   3.486   2.153   6.024
 5381SOL    HW216476   3.436   2.306   6.000
 5382SOL     OW16477   2.842   3.435   7.286
 5382SOL    HW116478   2.822   3.479   7.198
 5382SOL    HW216479   2.881   3.344   7.270
 5383SOL     OW16480   3.721   3.380   7.191
 5383SOL    HW116481   3.735   3.407   7.096
 5383SOL    HW216482   3.804   3.402   7.244
 5384SOL     OW16483   2.212   2.760   7.390
 5384SOL    HW116484   2.288   2.804   7.438
 5384SOL    HW216485   2.247   2.713   7.308
 5385SOL     OW16486   3.402   2.136   5.711
 5385SOL    HW116487   3.341   2.061   5.734
 5385SOL    HW216488   3.424   2.188   5.794
 5386SOL     OW16489   2.930   3.195   6.435
 5386SOL    HW116490   2.937   3.111   6.380
 5386SOL    HW216491   2.992   3.264   6.399
 5387SOL     OW16492   2.181   2.672   6.535
 5387SOL    HW116493   2.274   2.708   6.540
 5387SOL    HW216494   2.175   2.587   6.587
 5388SOL     OW16495   2.201   2.371   6.592
 5388SOL    HW116496   2.149   2.288   6.575
 5388SOL    HW216497   2.278   2.376   6.528
 5389SOL     OW16498   3.000   2.242   7.264
 5389SOL    HW116499   2.955   2.305   7.328
 5389SOL    HW216500   3.093   2.273   7.247
 5390SOL     OW16501   3.022   2.069   7.063
 5390SOL    HW116502   3.022   2.133   7.140
 5390SOL    HW216503   3.050   2.117   6.980
 5391SOL     OW16504   1.870   3.188   5.786
 5391SOL    HW116505   1.777   3.209   5.755
 5391SOL    HW216506   1.880   3.089   5.799
 5392SOL     OW16507   1.950   3.663   6.513
 5392SOL    HW116508   1.908   3.577   6.486
 5392SOL    HW216509   2.044   3.666   6.479
 5393SOL     OW16510   2.366   3.430   6.496
 5393SOL    HW116511   2.432   3.504   6.505
 5393SOL    HW216512   2.410   3.351   6.454
 5394SOL     OW16513   1.902   2.406   6.700
 5394SOL    HW116514   1.987   2.373   6.659
 5394SOL    HW216515   1.915   2.421   6.798
 5395SOL     OW16516   2.051   2.382   7.308
 5395SOL    HW116517   2.110   2.342   7.238
 5395SOL    HW216518   1.993   2.453   7.267
 5396SOL     OW16519   3.231   2.812   7.246
 5396SOL    HW116520   3.270   2.901   7.266
 5396SOL    HW216521   3.241   2.792   7.149
 5397SOL     OW16522   3.519   2.466   6.792
 5397SOL    HW116523   3.481   2.397   6.854
 5397SOL    HW216524   3.601   2.430   6.748
 5398SOL     OW16525   2.114   3.426   7.330
 5398SOL    HW116526   2.084   3.483   7.406
 5398SOL    HW216527   2.107   3.329   7.356
 5399SOL     OW16528   2.533   2.326   6.855
 5399SOL    HW116529   2.499   2.237   6.825
 5399SOL    HW216530   2.559   2.380   6.775
 5400SOL     OW16531   2.792   3.540   7.051
 5400SOL    HW116532   2.768   3.522   6.956
 5400SOL    HW216533   2.822   3.634   7.061
 5401SOL     OW16534   2.021   2.999   7.052
 5401SOL    HW116535   2.043   2.938   7.128
 5401SOL    HW216536   2.031   2.950   6.966
 5402SOL     OW16537   3.209   2.921   6.820
 5402SOL    HW116538   3.233   2.858   6.746
 5402SOL    HW216539   3.119   2.961   6.802
 5403SOL     OW16540   3.164   2.717   5.895
 5403SOL    HW116541   3.078   2.686   5.937
 5403SOL    HW216542   3.160   2.703   5.796
 5404SOL     OW16543   3.621   3.609   6.740
 5404SOL    HW116544   3.682   3.639   6.667
 5404SOL    HW216545   3.583   3.520   6.718
 5405SOL     OW16546   3.114   3.593   6.714
 5405SOL    HW116547   3.198   3.598   6.660
 5405SOL    HW216548   3.091   3.497   6.732
 5406SOL     OW16549   1.945   3.120   6.608
 5406SOL    HW116550   1.940   3.119   6.708
 5406SOL    HW216551   1.862   3.079   6.570
 5407SOL     OW16552   2.550   3.524   7.302
 5407SOL    HW116553   2.494   3.605   7.311
 5407SOL    HW216554   2.602   3.528   7.216
 5408SOL     OW16555   3.588   1.997   6.109
 5408SOL    HW116556   3.661   1.980   6.042
 5408SOL    HW216557   3.557   1.910   6.147
 5409SOL     OW16558   3.250   3.435   6.063
 5409SOL    HW116559   3.317   3.447   5.989
 5409SOL    HW216560   3.210   3.524   6.086
 5410SOL     OW16561   1.992   3.656   7.437
 5410SOL    HW116562   1.951   3.582   7.490
 5410SOL    HW216563   2.056   3.707   7.495
 5411SOL     OW16564   3.142   2.789   6.258
 5411SOL    HW116565   3.202   2.708   6.260
 5411SOL    HW216566   3.182   2.858   6.198
 5412SOL     OW16567   2.692   3.135   7.008
 5412SOL    HW116568   2.687   3.168   7.103
 5412SOL    HW216569   2.606   3.154   6.962
 5413SOL     OW16570   2.534   3.478   5.740
 5413SOL    HW116571   2.543   3.488   5.641
 5413SOL    HW216572   2.494   3.389   5.761
 5414SOL     OW16573   3.512   3.582   6.980
 5414SOL    HW116574   3.565   3.592   6.896
 5414SOL    HW216575   3.485   3.672   7.014
 5415SOL     OW16576   3.703   2.037   6.549
 5415SOL    HW116577   3.742   1.952   6.513
 5415SOL    HW216578   3.605   2.039   6.530
 5416SOL     OW16579   2.125   2.188   6.306
 5416SOL    HW116580   2.046   2.239   6.272
 5416SOL    HW216581   2.116   2.173   6.404
 5417SOL     OW16582   3.056   3.474   5.617
 5417SOL    HW116583   3.062   3.381   5.654
 5417SOL    HW216584   2.997   3.474   5.537
 5418SOL     OW16585   2.684   2.864   6.958
 5418SOL    HW116586   2.724   2.863   6.866
 5418SOL    HW216587   2.694   2.956   6.998
 5419SOL     OW16588   3.366   3.469   5.630
 5419SOL    HW116589   3.274   3.506   5.637
 5419SOL    HW216590   3.404   3.489   5.540
 5420SOL     OW16591   2.234   3.150   7.076
 5420SOL    HW116592   2.221   3.243   7.042
 5420SOL    HW216593   2.150   3.098   7.063
 5421SOL     OW16594   3.476   3.154   6.875
 5421SOL    HW116595   3.536   3.157   6.955
 5421SOL    HW216596   3.401   3.218   6.888
 5422SOL     OW16597   2.901   2.960   6.282
 5422SOL    HW116598   2.831   2.913   6.336
 5422SOL    HW216599   2.960   2.892   6.239
 5423SOL     OW16600   2.876   2.098   6.557
 5423SOL    HW116601   2.868   2.062   6.464
 5423SOL    HW216602   2.874   2.022   6.622
 5424SOL     OW16603   2.452   3.349   6.077
 5424SOL    HW116604   2.494   3.291   6.007
 5424SOL    HW216605   2.408   3.428   6.033
 5425SOL     OW16606   3.571   2.247   6.967
 5425SOL    HW116607   3.644   2.316   6.971
 5425SOL    HW216608   3.599   2.172   6.908
 5426SOL     OW16609   2.117   3.210   5.876
 5426SOL    HW116610   2.021   3.211   5.849
 5426SOL    HW216611   2.129   3.263   5.960
 5427SOL     OW16612   1.967   2.875   7.312
 5427SOL    HW116613   1.890   2.842   7.366
 5427SOL    HW216614   2.052   2.845   7.354
 5428SOL     OW16615   2.534   2.065   7.075
 5428SOL    HW116616   2.624   2.049   7.035
 5428SOL    HW216617   2.542   2.070   7.174
 5429SOL     OW16618   1.937   2.207   5.619
 5429SOL    HW116619   1.845   2.179   5.590
 5429SOL    HW216620   1.968   2.284   5.563
 5430SOL     OW16621   3.302   2.718   6.984
 5430SOL    HW116622   3.245   2.770   6.921
 5430SOL    HW216623   3.398   2.730   6.960
 5431SOL     OW16624   1.934   2.028   5.904
 5431SOL    HW116625   1.917   2.111   5.850
 5431SOL    HW216626   2.024   1.991   5.882
 5432SOL     OW16627   3.045   3.197   5.705
 5432SOL    HW116628   2.946   3.186   5.707
 5432SOL    HW216629   3.079   3.212   5.798
 5433SOL     OW16630   3.355   3.629   6.545
 5433SOL    HW116631   3.388   3.693   6.476
 5433SOL    HW216632   3.421   3.623   6.620
 5434SOL     OW16633   3.312   3.082   7.219
 5434SOL    HW116634   3.303   3.072   7.318
 5434SOL    HW216635   3.408   3.075   7.193
 5435SOL     OW16636   2.252   3.603   7.146
 5435SOL    HW116637   2.161   3.644   7.144
 5435SOL    HW216638   2.245   3.509   7.178
 5436SOL     OW16639   3.536   2.745   6.840
 5436SOL    HW116640   3.509   2.656   6.803
 5436SOL    HW216641   3.537   2.813   6.767
 5437SOL     OW16642   3.087   2.187   6.035
 5437SOL    HW116643   3.152   2.113   6.024
 5437SOL    HW216644   3.107   2.237   6.119
 5438SOL     OW16645   3.639   2.204   7.228
 5438SOL    HW116646   3.622   2.235   7.134
 5438SOL    HW216647   3.555   2.167   7.266
 5439SOL     OW16648   3.592   2.796   7.103
 5439SOL    HW116649   3.630   2.887   7.118
 5439SOL    HW216650   3.584   2.779   7.004
 5440SOL     OW16651   2.523   3.652   6.539
 5440SOL    HW116652   2.477   3.740   6.526
 5440SOL    HW216653   2.622   3.664   6.532
 5441SOL     OW16654   3.723   3.431   6.437
 5441SOL    HW116655   3.652   3.419   6.367
 5441SOL    HW216656   3.724   3.352   6.497
 5442SOL     OW16657   2.083   3.176   7.430
 5442SOL    HW116658   2.018   3.103   7.409
 5442SOL    HW216659   2.087   3.190   7.528
 5443SOL     OW16660   1.941   3.102   6.239
 5443SOL    HW116661   1.940   3.055   6.327
 5443SOL    HW216662   2.023   3.074   6.188
 5444SOL     OW16663   2.534   3.253   7.210
 5444SOL    HW116664   2.456   3.203   7.248
 5444SOL    HW216665   2.531   3.348   7.241
 5445SOL     OW16666   3.686   2.054   6.813
 5445SOL    HW116667   3.682   1.964   6.857
 5445SOL    HW216668   3.689   2.043   6.714
 5446SOL     OW16669   2.290   2.286   6.106
 5446SOL    HW116670   2.320   2.214   6.044
 5446SOL    HW216671   2.251   2.246   6.189
 5447SOL     OW16672   3.567   3.349   6.690
 5447SOL    HW116673   3.474   3.324   6.663
 5447SOL    HW216674   3.593   3.299   6.772
 5448SOL     OW16675   2.179   2.409   6.866
 5448SOL    HW116676   2.217   2.350   6.938
 5448SOL    HW216677   2.219   2.383   6.778
 5449SOL     OW16678   2.674   3.448   6.273
 5449SOL    HW116679   2.706   3.458   6.179
 5449SOL    HW216680   2.595   3.386   6.275
 5450SOL     OW16681   3.286   2.076   6.698
 5450SOL    HW116682   3.338   2.011   6.753
 5450SOL    HW216683   3.237   2.139   6.759
 5451SOL     OW16684   2.863   1.896   6.740
 5451SOL    HW116685   2.800   1.824   6.709
 5451SOL    HW216686   2.956   1.860   6.740
 5452SOL     OW16687   2.632   3.192   5.887
 5452SOL    HW116688   2.586   3.105   5.904
 5452SOL    HW216689   2.723   3.189   5.928
 5453SOL     OW16690   2.480   3.429   6.870
 5453SOL    HW116691   2.475   3.511   6.927
 5453SOL    HW216692   2.569   3.426   6.825
 5454SOL     OW16693   3.214   1.914   5.754
 5454SOL    HW116694   3.249   1.873   5.670
 5454SOL    HW216695   3.124   1.876   5.774
 5455SOL     OW16696   3.162   2.315   6.277
 5455SOL    HW116697   3.103   2.395   6.281
 5455SOL    HW216698   3.177   2.280   6.370
 5456SOL     OW16699   3.455   2.083   6.468
 5456SOL    HW116700   3.371   2.082   6.522
 5456SOL    HW216701   3.457   2.166   6.412
 5457SOL     OW16702   1.901   2.939   5.886
 5457SOL    HW116703   2.000   2.928   5.877
 5457SOL    HW216704   1.861   2.853   5.918
 5458SOL     OW16705   2.737   3.508   5.923
 5458SOL    HW116706   2.660   3.473   5.869
 5458SOL    HW216707   2.705   3.579   5.985
 5459SOL     OW16708   2.092   2.490   7.561
 5459SOL    HW116709   1.999   2.488   7.598
 5459SOL    HW216710   2.093   2.451   7.469
 5460SOL     OW16711   2.087   2.137   8.444
 5460SOL    HW116712   2.122   2.120   8.536
 5460SOL    HW216713   1.999   2.092   8.432
 5461SOL     OW16714   1.881   2.230   8.095
 5461SOL    HW116715   1.799   2.273   8.134
 5461SOL    HW216716   1.853   2.157   8.032
 5462SOL     OW16717   2.431   3.137   8.613
 5462SOL    HW116718   2.338   3.130   8.576
 5462SOL    HW216719   2.442   3.226   8.657
 5463SOL     OW16720   3.417   3.373   8.151
 5463SOL    HW116721   3.360   3.357   8.232
 5463SOL    HW216722   3.358   3.383   8.071
 5464SOL     OW16723   2.997   2.565   8.165
 5464SOL    HW116724   3.054   2.643   8.140
 5464SOL    HW216725   2.937   2.591   8.241
 5465SOL     OW16726   3.617   2.469   7.679
 5465SOL    HW116727   3.605   2.456   7.580
 5465SOL    HW216728   3.587   2.388   7.728
 5466SOL     OW16729   2.630   3.006   8.471
 5466SOL    HW116730   2.552   3.023   8.531
 5466SOL    HW216731   2.664   3.093   8.435
 5467SOL     OW16732   2.547   2.874   8.113
 5467SOL    HW116733   2.616   2.858   8.183
 5467SOL    HW216734   2.474   2.931   8.151
 5468SOL     OW16735   2.548   3.023   9.251
 5468SOL    HW116736   2.608   3.102   9.265
 5468SOL    HW216737   2.462   3.054   9.210
 5469SOL     OW16738   2.197   3.297   8.509
 5469SOL    HW116739   2.119   3.266   8.456
 5469SOL    HW216740   2.255   3.355   8.452
 5470SOL     OW16741   3.322   3.367   8.787
 5470SOL    HW116742   3.346   3.461   8.813
 5470SOL    HW216743   3.306   3.313   8.869
 5471SOL     OW16744   2.300   2.254   8.947
 5471SOL    HW116745   2.382   2.198   8.956
 5471SOL    HW216746   2.219   2.196   8.951
 5472SOL     OW16747   3.465   2.309   8.185
 5472SOL    HW116748   3.391   2.355   8.135
 5472SOL    HW216749   3.516   2.377   8.238
 5473SOL     OW16750   2.093   3.575   7.931
 5473SOL    HW116751   2.127   3.652   7.985
 5473SOL    HW216752   2.137   3.575   7.841
 5474SOL     OW16753   2.989   3.203   9.138
 5474SOL    HW116754   3.036   3.203   9.226
 5474SOL    HW216755   2.941   3.116   9.127
 5475SOL     OW16756   2.092   3.296   7.986
 5475SOL    HW116757   2.066   3.392   7.986
 5475SOL    HW216758   2.021   3.242   8.031
 5476SOL     OW16759   2.102   2.953   8.334
 5476SOL    HW116760   2.116   2.869   8.386
 5476SOL    HW216761   2.047   3.017   8.389
 5477SOL     OW16762   2.482   3.648   8.887
 5477SOL    HW116763   2.390   3.631   8.922
 5477SOL    HW216764   2.510   3.740   8.913
 5478SOL     OW16765   2.468   2.826   7.571
 5478SOL    HW116766   2.475   2.910   7.517
 5478SOL    HW216767   2.514   2.839   7.659
 5479SOL     OW16768   3.456   1.976   8.928
 5479SOL    HW116769   3.438   2.043   8.856
 5479SOL    HW216770   3.453   2.022   9.017
 5480SOL     OW16771   1.984   2.505   8.011
 5480SOL    HW116772   1.939   2.417   8.028
 5480SOL    HW216773   1.983   2.559   8.095
 5481SOL     OW16774   3.704   3.629   7.807
 5481SOL    HW116775   3.758   3.600   7.887
 5481SOL    HW216776   3.734   3.719   7.778
 5482SOL     OW16777   1.889   3.458   7.565
 5482SOL    HW116778   1.870   3.362   7.586
 5482SOL    HW216779   1.856   3.516   7.640
 5483SOL     OW16780   3.551   2.784   8.060
 5483SOL    HW116781   3.646   2.755   8.068
 5483SOL    HW216782   3.543   2.849   7.985
 5484SOL     OW16783   3.503   2.970   7.880
 5484SOL    HW116784   3.589   2.972   7.828
 5484SOL    HW216785   3.517   3.017   7.968
 5485SOL     OW16786   1.975   2.599   9.045
 5485SOL    HW116787   2.063   2.586   9.090
 5485SOL    HW216788   1.962   2.696   9.023
 5486SOL     OW16789   2.475   3.227   8.174
 5486SOL    HW116790   2.426   3.140   8.183
 5486SOL    HW216791   2.452   3.270   8.087
 5487SOL     OW16792   3.155   3.090   8.871
 5487SOL    HW116793   3.192   3.017   8.813
 5487SOL    HW216794   3.207   3.095   8.956
 5488SOL     OW16795   2.671   1.866   7.950
 5488SOL    HW116796   2.711   1.957   7.941
 5488SOL    HW216797   2.571   1.874   7.956
 5489SOL     OW16798   2.059   2.838   8.712
 5489SOL    HW116799   2.148   2.793   8.698
 5489SOL    HW216800   1.986   2.773   8.693
 5490SOL     OW16801   3.387   2.861   7.638
 5490SOL    HW116802   3.324   2.785   7.651
 5490SOL    HW216803   3.435   2.879   7.724
 5491SOL     OW16804   3.049   3.654   9.064
 5491SOL    HW116805   3.073   3.714   8.988
 5491SOL    HW216806   3.056   3.559   9.034
 5492SOL     OW16807   2.179   2.113   9.249
 5492SOL    HW116808   2.250   2.184   9.255
 5492SOL    HW216809   2.091   2.152   9.277
 5493SOL     OW16810   3.328   3.279   8.401
 5493SOL    HW116811   3.269   3.285   8.481
 5493SOL    HW216812   3.313   3.191   8.355
 5494SOL     OW16813   3.529   3.576   8.020
 5494SOL    HW116814   3.488   3.553   7.932
 5494SOL    HW216815   3.511   3.502   8.085
 5495SOL     OW16816   3.143   2.207   8.392
 5495SOL    HW116817   3.057   2.157   8.379
 5495SOL    HW216818   3.205   2.153   8.448
 5496SOL     OW16819   3.438   3.524   7.755
 5496SOL    HW116820   3.527   3.570   7.758
 5496SOL    HW216821   3.417   3.500   7.660
 5497SOL     OW16822   3.256   2.331   9.122
 5497SOL    HW116823   3.236   2.374   9.210
 5497SOL    HW216824   3.334   2.269   9.131
 5498SOL     OW16825   2.835   2.752   9.020
 5498SOL    HW116826   2.881   2.668   8.991
 5498SOL    HW216827   2.779   2.786   8.945
 5499SOL     OW16828   2.853   2.272   8.690
 5499SOL    HW116829   2.776   2.306   8.744
 5499SOL    HW216830   2.819   2.221   8.611
 5500SOL     OW16831   1.938   2.673   8.237
 5500SOL    HW116832   2.037   2.661   8.246
 5500SOL    HW216833   1.914   2.768   8.258
 5501SOL     OW16834   1.992   3.683   9.019
 5501SOL    HW116835   1.982   3.668   9.118
 5501SOL    HW216836   1.906   3.719   8.983
 5502SOL     OW16837   2.727   2.210   7.643
 5502SOL    HW116838   2.786   2.273   7.594
 5502SOL    HW216839   2.746   2.116   7.614
 5503SOL     OW16840   3.581   2.447   9.279
 5503SOL    HW116841   3.555   2.536   9.243
 5503SOL    HW216842   3.579   2.379   9.206
 5504SOL     OW16843   3.224   3.006   7.993
 5504SOL    HW116844   3.307   2.977   7.945
 5504SOL    HW216845   3.175   3.073   7.937
 5505SOL     OW16846   2.412   2.058   8.333
 5505SOL    HW116847   2.407   2.053   8.433
 5505SOL    HW216848   2.414   2.154   8.304
 5506SOL     OW16849   2.870   3.318   7.925
 5506SOL    HW116850   2.824   3.390   7.873
 5506SOL    HW216851   2.866   3.338   8.023
 5507SOL     OW16852   2.213   3.663   8.301
 5507SOL    HW116853   2.263   3.577   8.307
 5507SOL    HW216854   2.278   3.740   8.298
 5508SOL     OW16855   3.657   2.928   8.321
 5508SOL    HW116856   3.595   2.913   8.245
 5508SOL    HW216857   3.605   2.939   8.406
 5509SOL     OW16858   3.089   3.412   8.954
 5509SOL    HW116859   3.095   3.335   9.018
 5509SOL    HW216860   3.037   3.386   8.874
 5510SOL     OW16861   2.183   2.805   7.690
 5510SOL    HW116862   2.265   2.844   7.648
 5510SOL    HW216863   2.156   2.723   7.641
 5511SOL     OW16864   3.320   2.597   8.176
 5511SOL    HW116865   3.315   2.532   8.251
 5511SOL    HW216866   3.400   2.656   8.189
 5512SOL     OW16867   2.323   3.128   9.175
 5512SOL    HW116868   2.273   3.129   9.089
 5512SOL    HW216869   2.260   3.110   9.251
 5513SOL     OW16870   2.973   3.638   7.685
 5513SOL    HW116871   2.913   3.576   7.735
 5513SOL    HW216872   3.004   3.594   7.600
 5514SOL     OW16873   2.064   2.147   8.946
 5514SOL    HW116874   1.984   2.207   8.933
 5514SOL    HW216875   2.054   2.098   9.032
 5515SOL     OW16876   3.494   3.239   7.529
 5515SOL    HW116877   3.462   3.333   7.519
 5515SOL    HW216878   3.418   3.176   7.517
 5516SOL     OW16879   2.326   3.605   7.771
 5516SOL    HW116880   2.359   3.644   7.857
 5516SOL    HW216881   2.402   3.598   7.706
 5517SOL     OW16882   3.262   1.969   7.874
 5517SOL    HW116883   3.238   1.932   7.784
 5517SOL    HW216884   3.361   1.985   7.878
 5518SOL     OW16885   2.111   3.647   8.689
 5518SOL    HW116886   2.168   3.582   8.739
 5518SOL    HW216887   2.095   3.614   8.596
 5519SOL     OW16888   2.802   3.560   8.352
 5519SOL    HW116889   2.882   3.503   8.373
 5519SOL    HW216890   2.753   3.520   8.275
 5520SOL     OW16891   2.244   2.562   7.928
 5520SOL    HW116892   2.289   2.472   7.925
 5520SOL    HW216893   2.150   2.551   7.961
 5521SOL     OW16894   3.409   2.084   9.177
 5521SOL    HW116895   3.404   2.121   9.269
 5521SOL    HW216896   3.337   2.015   9.165
 5522SOL     OW16897   2.476   1.984   7.565
 5522SOL    HW116898   2.574   1.962   7.572
 5522SOL    HW216899   2.445   1.967   7.472
 5523SOL     OW16900   2.643   2.126   9.197
 5523SOL    HW116901   2.710   2.065   9.240
 5523SOL    HW216902   2.570   2.145   9.262
 5524SOL     OW16903   2.750   3.376   8.643
 5524SOL    HW116904   2.727   3.351   8.549
 5524SOL    HW216905   2.811   3.307   8.682
 5525SOL     OW16906   3.213   2.452   8.881
 5525SOL    HW116907   3.241   2.409   8.966
 5525SOL    HW216908   3.238   2.548   8.882
 5526SOL     OW16909   2.665   3.264   8.372
 5526SOL    HW116910   2.755   3.278   8.330
 5526SOL    HW216911   2.594   3.266   8.301
 5527SOL     OW16912   2.784   2.365   8.347
 5527SOL    HW116913   2.759   2.356   8.251
 5527SOL    HW216914   2.832   2.283   8.378
 5528SOL     OW16915   2.401   1.926   7.960
 5528SOL    HW116916   2.320   1.927   8.018
 5528SOL    HW216917   2.404   2.009   7.905
 5529SOL     OW16918   3.296   3.050   7.489
 5529SOL    HW116919   3.328   2.974   7.546
 5529SOL    HW216920   3.204   3.077   7.519
 5530SOL     OW16921   2.159   1.897   7.619
 5530SOL    HW116922   2.208   1.981   7.598
 5530SOL    HW216923   2.221   1.832   7.664
 5531SOL     OW16924   2.797   2.098   7.928
 5531SOL    HW116925   2.749   2.139   7.850
 5531SOL    HW216926   2.896   2.096   7.909
 5532SOL     OW16927   2.938   2.545   8.912
 5532SOL    HW116928   2.858   2.484   8.915
 5532SOL    HW216929   3.019   2.492   8.888
 5533SOL     OW16930   3.089   3.432   8.241
 5533SOL    HW116931   3.110   3.506   8.176
 5533SOL    HW216932   3.157   3.432   8.314
 5534SOL     OW16933   2.321   3.014   8.189
 5534SOL    HW116934   2.250   2.987   8.254
 5534SOL    HW216935   2.295   2.986   8.096
 5535SOL     OW16936   3.133   3.659   8.039
 5535SOL    HW116937   3.177   3.723   7.975
 5535SOL    HW216938   3.083   3.711   8.109
 5536SOL     OW16939   2.894   2.411   7.464
 5536SOL    HW116940   2.853   2.493   7.425
 5536SOL    HW216941   2.958   2.437   7.537
 5537SOL     OW16942   1.940   2.418   8.834
 5537SOL    HW116943   2.032   2.417   8.793
 5537SOL    HW216944   1.934   2.492   8.901
 5538SOL     OW16945   2.423   2.084   8.595
 5538SOL    HW116946   2.461   2.000   8.632
 5538SOL    HW216947   2.335   2.103   8.639
 5539SOL     OW16948   2.728   2.316   8.090
 5539SOL    HW116949   2.696   2.388   8.028
 5539SOL    HW216950   2.752   2.235   8.037
 5540SOL     OW16951   2.879   1.901   8.201
 5540SOL    HW116952   2.807   1.906   8.132
 5540SOL    HW216953   2.855   1.832   8.270
 5541SOL     OW16954   3.291   3.035   8.315
 5541SOL    HW116955   3.236   2.951   8.308
 5541SOL    HW216956   3.317   3.064   8.223
 5542SOL     OW16957   3.328   2.452   8.440
 5542SOL    HW116958   3.298   2.357   8.447
 5542SOL    HW216959   3.401   2.468   8.506
 5543SOL     OW16960   3.719   2.695   7.825
 5543SOL    HW116961   3.761   2.631   7.889
 5543SOL    HW216962   3.681   2.644   7.747
 5544SOL     OW16963   2.350   3.247   7.622
 5544SOL    HW116964   2.263   3.232   7.669
 5544SOL    HW216965   2.333   3.273   7.527
 5545SOL     OW16966   3.526   3.142   8.105
 5545SOL    HW116967   3.625   3.150   8.119
 5545SOL    HW216968   3.481   3.226   8.136
 5546SOL     OW16969   3.252   2.437   7.526
 5546SOL    HW116970   3.198   2.416   7.607
 5546SOL    HW216971   3.343   2.396   7.535
 5547SOL     OW16972   2.389   2.118   7.776
 5547SOL    HW116973   2.416   2.059   7.701
 5547SOL    HW216974   2.389   2.213   7.745
 5548SOL     OW16975   3.616   3.085   9.036
 5548SOL    HW116976   3.707   3.046   9.023
 5548SOL    HW216977   3.624   3.181   9.060
 5549SOL     OW16978   2.926   3.209   8.788
 5549SOL    HW116979   2.846   3.186   8.843
 5549SOL    HW216980   3.009   3.183   8.837
 5550SOL     OW16981   3.454   3.491   9.073
 5550SOL    HW116982   3.481   3.525   8.983
 5550SOL    HW216983   3.533   3.453   9.119
 5551SOL     OW16984   2.973   3.057   8.548
 5551SOL    HW116985   2.933   3.101   8.629
 5551SOL    HW216986   2.932   3.094   8.465
 5552SOL     OW16987   3.500   2.961   8.527
 5552SOL    HW116988   3.505   3.042   8.586
 5552SOL    HW216989   3.414   2.963   8.476
 5553SOL     OW16990   2.777   1.951   8.850
 5553SOL    HW116991   2.802   1.931   8.755
 5553SOL    HW216992   2.849   2.007   8.892
 5554SOL     OW16993   2.842   2.978   9.167
 5554SOL    HW116994   2.743   2.984   9.177
 5554SOL    HW216995   2.865   2.898   9.111
 5555SOL     OW16996   2.272   2.675   8.699
 5555SOL    HW116997   2.358   2.687   8.749
 5555SOL    HW216998   2.230   2.588   8.726
 5556SOL     OW16999   3.136   2.248   8.710
 5556SOL    HW117000   3.157   2.322   8.774
 5556SOL    HW217001   3.047   2.265   8.667
 5557SOL     OW17002   1.926   3.426   8.779
 5557SOL    HW117003   1.880   3.508   8.745
 5557SOL    HW217004   2.024   3.445   8.788
 5558SOL     OW17005   2.229   2.962   7.949
 5558SOL    HW117006   2.222   3.045   7.893
 5558SOL    HW217007   2.233   2.882   7.889
 5559SOL     OW17008   2.428   2.399   8.313
 5559SOL    HW117009   2.440   2.465   8.239
 5559SOL    HW217010   2.474   2.433   8.396
 5560SOL     OW17011   3.114   3.210   7.836
 5560SOL    HW117012   3.164   3.287   7.876
 5560SOL    HW217013   3.019   3.212   7.868
 5561SOL     OW17014   3.134   3.307   8.590
 5561SOL    HW117015   3.181   3.320   8.677
 5561SOL    HW217016   3.068   3.233   8.599
 5562SOL     OW17017   3.444   2.501   7.920
 5562SOL    HW117018   3.413   2.562   7.993
 5562SOL    HW217019   3.494   2.553   7.851
 5563SOL     OW17020   2.216   3.372   8.777
 5563SOL    HW117021   2.195   3.328   8.690
 5563SOL    HW217022   2.313   3.398   8.780
 5564SOL     OW17023   2.264   2.613   9.046
 5564SOL    HW117024   2.332   2.668   8.999
 5564SOL    HW217025   2.304   2.525   9.073
 5565SOL     OW17026   3.449   2.641   9.118
 5565SOL    HW117027   3.357   2.679   9.113
 5565SOL    HW217028   3.509   2.688   9.053
 5566SOL     OW17029   2.875   1.967   9.218
 5566SOL    HW117030   2.881   2.052   9.166
 5566SOL    HW217031   2.907   1.891   9.161
 5567SOL     OW17032   2.366   1.912   9.188
 5567SOL    HW117033   2.324   1.855   9.118
 5567SOL    HW217034   2.300   1.981   9.220
 5568SOL     OW17035   3.222   2.724   8.493
 5568SOL    HW117036   3.147   2.724   8.427
 5568SOL    HW217037   3.259   2.632   8.502
 5569SOL     OW17038   3.071   2.387   7.723
 5569SOL    HW117039   3.084   2.303   7.777
 5569SOL    HW217040   3.042   2.461   7.783
 5570SOL     OW17041   2.169   2.075   8.679
 5570SOL    HW117042   2.146   2.112   8.769
 5570SOL    HW217043   2.139   1.980   8.673
 5571SOL     OW17044   1.899   3.172   8.730
 5571SOL    HW117045   1.952   3.123   8.798
 5571SOL    HW217046   1.921   3.270   8.735
 5572SOL     OW17047   3.590   2.797   9.302
 5572SOL    HW117048   3.544   2.790   9.213
 5572SOL    HW217049   3.528   2.841   9.368
 5573SOL     OW17050   2.169   1.925   8.066
 5573SOL    HW117051   2.158   2.019   8.099
 5573SOL    HW217052   2.164   1.862   8.143
 5574SOL     OW17053   3.484   2.229   7.822
 5574SOL    HW117054   3.486   2.153   7.886
 5574SOL    HW217055   3.436   2.306   7.862
 5575SOL     OW17056   2.842   3.435   9.148
 5575SOL    HW117057   2.822   3.479   9.060
 5575SOL    HW217058   2.881   3.344   9.132
 5576SOL     OW17059   3.721   3.380   9.053
 5576SOL    HW117060   3.735   3.407   8.958
 5576SOL    HW217061   3.804   3.402   9.106
 5577SOL     OW17062   2.212   2.760   9.252
 5577SOL    HW117063   2.288   2.804   9.300
 5577SOL    HW217064   2.247   2.713   9.170
 5578SOL     OW17065   3.402   2.136   7.573
 5578SOL    HW117066   3.341   2.061   7.596
 5578SOL    HW217067   3.424   2.188   7.656
 5579SOL     OW17068   3.165   2.700   7.490
 5579SOL    HW117069   3.199   2.607   7.505
 5579SOL    HW217070   3.183   2.727   7.395
 5580SOL     OW17071   2.930   3.195   8.297
 5580SOL    HW117072   2.937   3.111   8.242
 5580SOL    HW217073   2.992   3.264   8.261
 5581SOL     OW17074   2.181   2.672   8.397
 5581SOL    HW117075   2.274   2.708   8.402
 5581SOL    HW217076   2.175   2.587   8.449
 5582SOL     OW17077   2.201   2.371   8.454
 5582SOL    HW117078   2.149   2.288   8.437
 5582SOL    HW217079   2.278   2.376   8.390
 5583SOL     OW17080   3.000   2.242   9.126
 5583SOL    HW117081   2.955   2.305   9.190
 5583SOL    HW217082   3.093   2.273   9.109
 5584SOL     OW17083   3.022   2.069   8.925
 5584SOL    HW117084   3.022   2.133   9.002
 5584SOL    HW217085   3.050   2.117   8.842
 5585SOL     OW17086   1.870   3.188   7.648
 5585SOL    HW117087   1.777   3.209   7.617
 5585SOL    HW217088   1.880   3.089   7.661
 5586SOL     OW17089   1.950   3.663   8.375
 5586SOL    HW117090   1.908   3.577   8.348
 5586SOL    HW217091   2.044   3.666   8.341
 5587SOL     OW17092   2.366   3.430   8.358
 5587SOL    HW117093   2.432   3.504   8.367
 5587SOL    HW217094   2.410   3.351   8.316
 5588SOL     OW17095   1.902   2.406   8.562
 5588SOL    HW117096   1.987   2.373   8.521
 5588SOL    HW217097   1.915   2.421   8.660
 5589SOL     OW17098   2.051   2.382   9.170
 5589SOL    HW117099   2.110   2.342   9.100
 5589SOL    HW217100   1.993   2.453   9.129
 5590SOL     OW17101   3.231   2.812   9.108
 5590SOL    HW117102   3.270   2.901   9.128
 5590SOL    HW217103   3.241   2.792   9.011
 5591SOL     OW17104   3.519   2.466   8.654
 5591SOL    HW117105   3.481   2.397   8.716
 5591SOL    HW217106   3.601   2.430   8.610
 5592SOL     OW17107   2.114   3.426   9.192
 5592SOL    HW117108   2.084   3.483   9.268
 5592SOL    HW217109   2.107   3.329   9.218
 5593SOL     OW17110   2.533   2.326   8.717
 5593SOL    HW117111   2.499   2.237   8.687
 5593SOL    HW217112   2.559   2.380   8.637
 5594SOL     OW17113   2.792   3.540   8.913
 5594SOL    HW117114   2.768   3.522   8.818
 5594SOL    HW217115   2.822   3.634   8.923
 5595SOL     OW17116   2.335   2.362   7.639
 5595SOL    HW117117   2.396   2.442   7.643
 5595SOL    HW217118   2.240   2.393   7.646
 5596SOL     OW17119   2.021   2.999   8.914
 5596SOL    HW117120   2.043   2.938   8.990
 5596SOL    HW217121   2.031   2.950   8.828
 5597SOL     OW17122   3.209   2.921   8.682
 5597SOL    HW117123   3.233   2.858   8.608
 5597SOL    HW217124   3.119   2.961   8.664
 5598SOL     OW17125   3.164   2.717   7.757
 5598SOL    HW117126   3.078   2.686   7.799
 5598SOL    HW217127   3.160   2.703   7.658
 5599SOL     OW17128   3.621   3.609   8.602
 5599SOL    HW117129   3.682   3.639   8.529
 5599SOL    HW217130   3.583   3.520   8.580
 5600SOL     OW17131   3.114   3.593   8.576
 5600SOL    HW117132   3.198   3.598   8.522
 5600SOL    HW217133   3.091   3.497   8.594
 5601SOL     OW17134   1.945   3.120   8.470
 5601SOL    HW117135   1.940   3.119   8.570
 5601SOL    HW217136   1.862   3.079   8.432
 5602SOL     OW17137   2.550   3.524   9.164
 5602SOL    HW117138   2.494   3.605   9.173
 5602SOL    HW217139   2.602   3.528   9.078
 5603SOL     OW17140   3.588   1.997   7.971
 5603SOL    HW117141   3.661   1.980   7.904
 5603SOL    HW217142   3.557   1.910   8.009
 5604SOL     OW17143   3.250   3.435   7.925
 5604SOL    HW117144   3.317   3.447   7.851
 5604SOL    HW217145   3.210   3.524   7.948
 5605SOL     OW17146   1.992   3.656   9.299
 5605SOL    HW117147   1.951   3.582   9.352
 5605SOL    HW217148   2.056   3.707   9.357
 5606SOL     OW17149   3.142   2.789   8.120
 5606SOL    HW117150   3.202   2.708   8.122
 5606SOL    HW217151   3.182   2.858   8.060
 5607SOL     OW17152   2.692   3.135   8.870
 5607SOL    HW117153   2.687   3.168   8.965
 5607SOL    HW217154   2.606   3.154   8.824
 5608SOL     OW17155   2.534   3.478   7.602
 5608SOL    HW117156   2.543   3.488   7.503
 5608SOL    HW217157   2.494   3.389   7.623
 5609SOL     OW17158   3.512   3.582   8.842
 5609SOL    HW117159   3.565   3.592   8.758
 5609SOL    HW217160   3.485   3.672   8.876
 5610SOL     OW17161   3.703   2.037   8.411
 5610SOL    HW117162   3.742   1.952   8.375
 5610SOL    HW217163   3.605   2.039   8.392
 5611SOL     OW17164   2.125   2.188   8.168
 5611SOL    HW117165   2.046   2.239   8.134
 5611SOL    HW217166   2.116   2.173   8.266
 5612SOL     OW17167   3.056   3.474   7.479
 5612SOL    HW117168   3.062   3.381   7.516
 5612SOL    HW217169   2.997   3.474   7.399
 5613SOL     OW17170   3.366   3.469   7.492
 5613SOL    HW117171   3.274   3.506   7.499
 5613SOL    HW217172   3.404   3.489   7.402
 5614SOL     OW17173   2.234   3.150   8.938
 5614SOL    HW117174   2.221   3.243   8.904
 5614SOL    HW217175   2.150   3.098   8.925
 5615SOL     OW17176   3.476   3.154   8.737
 5615SOL    HW117177   3.536   3.157   8.817
 5615SOL    HW217178   3.401   3.218   8.750
 5616SOL     OW17179   2.901   2.960   8.144
 5616SOL    HW117180   2.831   2.913   8.198
 5616SOL    HW217181   2.960   2.892   8.101
 5617SOL     OW17182   2.876   2.098   8.419
 5617SOL    HW117183   2.868   2.062   8.326
 5617SOL    HW217184   2.874   2.022   8.484
 5618SOL     OW17185   2.452   3.349   7.939
 5618SOL    HW117186   2.494   3.291   7.869
 5618SOL    HW217187   2.408   3.428   7.895
 5619SOL     OW17188   3.571   2.247   8.829
 5619SOL    HW117189   3.644   2.316   8.833
 5619SOL    HW217190   3.599   2.172   8.770
 5620SOL     OW17191   2.117   3.210   7.738
 5620SOL    HW117192   2.021   3.211   7.711
 5620SOL    HW217193   2.129   3.263   7.822
 5621SOL     OW17194   1.967   2.875   9.174
 5621SOL    HW117195   1.890   2.842   9.228
 5621SOL    HW217196   2.052   2.845   9.216
 5622SOL     OW17197   2.534   2.065   8.937
 5622SOL    HW117198   2.624   2.049   8.897
 5622SOL    HW217199   2.542   2.070   9.036
 5623SOL     OW17200   1.937   2.207   7.481
 5623SOL    HW117201   1.845   2.179   7.452
 5623SOL    HW217202   1.968   2.284   7.425
 5624SOL     OW17203   3.302   2.718   8.846
 5624SOL    HW117204   3.245   2.770   8.783
 5624SOL    HW217205   3.398   2.730   8.822
 5625SOL     OW17206   1.934   2.028   7.766
 5625SOL    HW117207   1.917   2.111   7.712
 5625SOL    HW217208   2.024   1.991   7.744
 5626SOL     OW17209   3.045   3.197   7.567
 5626SOL    HW117210   2.946   3.186   7.569
 5626SOL    HW217211   3.079   3.212   7.660
 5627SOL     OW17212   3.355   3.629   8.407
 5627SOL    HW117213   3.388   3.693   8.338
 5627SOL    HW217214   3.421   3.623   8.482
 5628SOL     OW17215   3.312   3.082   9.081
 5628SOL    HW117216   3.303   3.072   9.180
 5628SOL    HW217217   3.408   3.075   9.055
 5629SOL     OW17218   2.252   3.603   9.008
 5629SOL    HW117219   2.161   3.644   9.006
 5629SOL    HW217220   2.245   3.509   9.040
 5630SOL     OW17221   3.536   2.745   8.702
 5630SOL    HW117222   3.509   2.656   8.665
 5630SOL    HW217223   3.537   2.813   8.629
 5631SOL     OW17224   3.087   2.187   7.897
 5631SOL    HW117225   3.152   2.113   7.886
 5631SOL    HW217226   3.107   2.237   7.981
 5632SOL     OW17227   3.639   2.204   9.090
 5632SOL    HW117228   3.622   2.235   8.996
 5632SOL    HW217229   3.555   2.167   9.128
 5633SOL     OW17230   3.592   2.796   8.965
 5633SOL    HW117231   3.630   2.887   8.980
 5633SOL    HW217232   3.584   2.779   8.866
 5634SOL     OW17233   2.721   3.236   7.464
 5634SOL    HW117234   2.675   3.251   7.552
 5634SOL    HW217235   2.765   3.321   7.434
 5635SOL     OW17236   2.523   3.652   8.401
 5635SOL    HW117237   2.477   3.740   8.388
 5635SOL    HW217238   2.622   3.664   8.394
 5636SOL     OW17239   2.945   2.846   7.535
 5636SOL    HW117240   2.922   2.899   7.453
 5636SOL    HW217241   3.026   2.790   7.516
 5637SOL     OW17242   3.723   3.431   8.299
 5637SOL    HW117243   3.652   3.419   8.229
 5637SOL    HW217244   3.724   3.352   8.359
 5638SOL     OW17245   2.083   3.176   9.292
 5638SOL    HW117246   2.018   3.103   9.271
 5638SOL    HW217247   2.087   3.190   9.390
 5639SOL     OW17248   1.941   3.102   8.101
 5639SOL    HW117249   1.940   3.055   8.189
 5639SOL    HW217250   2.023   3.074   8.050
 5640SOL     OW17251   2.534   3.253   9.072
 5640SOL    HW117252   2.456   3.203   9.110
 5640SOL    HW217253   2.531   3.348   9.103
 5641SOL     OW17254   3.686   2.054   8.675
 5641SOL    HW117255   3.682   1.964   8.719
 5641SOL    HW217256   3.689   2.043   8.576
 5642SOL     OW17257   2.290   2.286   7.968
 5642SOL    HW117258   2.320   2.214   7.906
 5642SOL    HW217259   2.251   2.246   8.051
 5643SOL     OW17260   3.567   3.349   8.552
 5643SOL    HW117261   3.474   3.324   8.525
 5643SOL    HW217262   3.593   3.299   8.634
 5644SOL     OW17263   2.179   2.409   8.728
 5644SOL    HW117264   2.217   2.350   8.800
 5644SOL    HW217265   2.219   2.383   8.640
 5645SOL     OW17266   2.674   3.448   8.135
 5645SOL    HW117267   2.706   3.458   8.041
 5645SOL    HW217268   2.595   3.386   8.137
 5646SOL     OW17269   3.286   2.076   8.560
 5646SOL    HW117270   3.338   2.011   8.615
 5646SOL    HW217271   3.237   2.139   8.621
 5647SOL     OW17272   2.863   1.896   8.602
 5647SOL    HW117273   2.800   1.824   8.571
 5647SOL    HW217274   2.956   1.860   8.602
 5648SOL     OW17275   2.632   3.192   7.749
 5648SOL    HW117276   2.586   3.105   7.766
 5648SOL    HW217277   2.723   3.189   7.790
 5649SOL     OW17278   2.480   3.429   8.732
 5649SOL    HW117279   2.475   3.511   8.789
 5649SOL    HW217280   2.569   3.426   8.687
 5650SOL     OW17281   3.214   1.914   7.616
 5650SOL    HW117282   3.249   1.873   7.532
 5650SOL    HW217283   3.124   1.876   7.636
 5651SOL     OW17284   3.162   2.315   8.139
 5651SOL    HW117285   3.103   2.395   8.143
 5651SOL    HW217286   3.177   2.280   8.232
 5652SOL     OW17287   3.455   2.083   8.330
 5652SOL    HW117288   3.371   2.082   8.384
 5652SOL    HW217289   3.457   2.166   8.274
 5653SOL     OW17290   1.901   2.939   7.748
 5653SOL    HW117291   2.000   2.928   7.739
 5653SOL    HW217292   1.861   2.853   7.780
 5654SOL     OW17293   2.737   3.508   7.785
 5654SOL    HW117294   2.660   3.473   7.731
 5654SOL    HW217295   2.705   3.579   7.847
 5655SOL     OW17296   2.092   2.490   9.423
 5655SOL    HW117297   1.999   2.488   9.460
 5655SOL    HW217298   2.093   2.451   9.331
 5656SOL     OW17299   2.087   2.137  10.306
 5656SOL    HW117300   2.122   2.120  10.398
 5656SOL    HW217301   1.999   2.092  10.294
 5657SOL     OW17302   1.881   2.230   9.957
 5657SOL    HW117303   1.799   2.273   9.996
 5657SOL    HW217304   1.853   2.157   9.894
 5658SOL     OW17305   2.431   3.137  10.475
 5658SOL    HW117306   2.338   3.130  10.438
 5658SOL    HW217307   2.442   3.226  10.519
 5659SOL     OW17308   3.417   3.373  10.013
 5659SOL    HW117309   3.360   3.357  10.094
 5659SOL    HW217310   3.358   3.383   9.933
 5660SOL     OW17311   2.997   2.565  10.027
 5660SOL    HW117312   3.054   2.643  10.002
 5660SOL    HW217313   2.937   2.591  10.103
 5661SOL     OW17314   3.617   2.469   9.541
 5661SOL    HW117315   3.605   2.456   9.442
 5661SOL    HW217316   3.587   2.388   9.590
 5662SOL     OW17317   2.630   3.006  10.333
 5662SOL    HW117318   2.552   3.023  10.393
 5662SOL    HW217319   2.664   3.093  10.297
 5663SOL     OW17320   2.197   3.297  10.371
 5663SOL    HW117321   2.119   3.266  10.318
 5663SOL    HW217322   2.255   3.355  10.314
 5664SOL     OW17323   2.300   2.254  10.809
 5664SOL    HW117324   2.382   2.198  10.818
 5664SOL    HW217325   2.219   2.196  10.813
 5665SOL     OW17326   3.465   2.309  10.047
 5665SOL    HW117327   3.391   2.355   9.997
 5665SOL    HW217328   3.516   2.377  10.100
 5666SOL     OW17329   2.093   3.575   9.793
 5666SOL    HW117330   2.127   3.652   9.847
 5666SOL    HW217331   2.137   3.575   9.703
 5667SOL     OW17332   2.092   3.296   9.848
 5667SOL    HW117333   2.066   3.392   9.848
 5667SOL    HW217334   2.021   3.242   9.893
 5668SOL     OW17335   2.102   2.953  10.196
 5668SOL    HW117336   2.116   2.869  10.248
 5668SOL    HW217337   2.047   3.017  10.251
 5669SOL     OW17338   2.482   3.648  10.749
 5669SOL    HW117339   2.390   3.631  10.784
 5669SOL    HW217340   2.510   3.740  10.775
 5670SOL     OW17341   2.468   2.826   9.433
 5670SOL    HW117342   2.475   2.910   9.379
 5670SOL    HW217343   2.514   2.839   9.521
 5671SOL     OW17344   1.984   2.505   9.873
 5671SOL    HW117345   1.939   2.417   9.890
 5671SOL    HW217346   1.983   2.559   9.957
 5672SOL     OW17347   3.704   3.629   9.669
 5672SOL    HW117348   3.758   3.600   9.749
 5672SOL    HW217349   3.734   3.719   9.640
 5673SOL     OW17350   1.889   3.458   9.427
 5673SOL    HW117351   1.870   3.362   9.448
 5673SOL    HW217352   1.856   3.516   9.502
 5674SOL     OW17353   3.551   2.784   9.922
 5674SOL    HW117354   3.646   2.755   9.930
 5674SOL    HW217355   3.543   2.849   9.847
 5675SOL     OW17356   3.503   2.970   9.742
 5675SOL    HW117357   3.589   2.972   9.690
 5675SOL    HW217358   3.517   3.017   9.830
 5676SOL     OW17359   2.475   3.227  10.036
 5676SOL    HW117360   2.426   3.140  10.045
 5676SOL    HW217361   2.452   3.270   9.949
 5677SOL     OW17362   2.671   1.866   9.812
 5677SOL    HW117363   2.711   1.957   9.803
 5677SOL    HW217364   2.571   1.874   9.818
 5678SOL     OW17365   2.059   2.838  10.574
 5678SOL    HW117366   2.148   2.793  10.560
 5678SOL    HW217367   1.986   2.773  10.555
 5679SOL     OW17368   3.387   2.861   9.500
 5679SOL    HW117369   3.324   2.785   9.513
 5679SOL    HW217370   3.435   2.879   9.586
 5680SOL     OW17371   3.328   3.279  10.263
 5680SOL    HW117372   3.269   3.285  10.343
 5680SOL    HW217373   3.313   3.191  10.217
 5681SOL     OW17374   3.529   3.576   9.882
 5681SOL    HW117375   3.488   3.553   9.794
 5681SOL    HW217376   3.511   3.502   9.947
 5682SOL     OW17377   3.143   2.207  10.254
 5682SOL    HW117378   3.057   2.157  10.241
 5682SOL    HW217379   3.205   2.153  10.310
 5683SOL     OW17380   3.438   3.524   9.617
 5683SOL    HW117381   3.527   3.570   9.620
 5683SOL    HW217382   3.417   3.500   9.522
 5684SOL     OW17383   2.853   2.272  10.552
 5684SOL    HW117384   2.776   2.306  10.606
 5684SOL    HW217385   2.819   2.221  10.473
 5685SOL     OW17386   2.903   2.563   9.739
 5685SOL    HW117387   2.929   2.559   9.835
 5685SOL    HW217388   2.818   2.512   9.725
 5686SOL     OW17389   1.938   2.673  10.099
 5686SOL    HW117390   2.037   2.661  10.108
 5686SOL    HW217391   1.914   2.768  10.120
 5687SOL     OW17392   1.992   3.683  10.881
 5687SOL    HW117393   1.982   3.668  10.980
 5687SOL    HW217394   1.906   3.719  10.845
 5688SOL     OW17395   2.727   2.210   9.505
 5688SOL    HW117396   2.786   2.273   9.456
 5688SOL    HW217397   2.746   2.116   9.476
 5689SOL     OW17398   3.224   3.006   9.855
 5689SOL    HW117399   3.307   2.977   9.807
 5689SOL    HW217400   3.175   3.073   9.799
 5690SOL     OW17401   2.412   2.058  10.195
 5690SOL    HW117402   2.407   2.053  10.295
 5690SOL    HW217403   2.414   2.154  10.166
 5691SOL     OW17404   2.870   3.318   9.787
 5691SOL    HW117405   2.824   3.390   9.735
 5691SOL    HW217406   2.866   3.338   9.885
 5692SOL     OW17407   2.213   3.663  10.163
 5692SOL    HW117408   2.263   3.577  10.169
 5692SOL    HW217409   2.278   3.740  10.160
 5693SOL     OW17410   3.657   2.928  10.183
 5693SOL    HW117411   3.595   2.913  10.107
 5693SOL    HW217412   3.605   2.939  10.268
 5694SOL     OW17413   2.183   2.805   9.552
 5694SOL    HW117414   2.265   2.844   9.510
 5694SOL    HW217415   2.156   2.723   9.503
 5695SOL     OW17416   3.320   2.597  10.038
 5695SOL    HW117417   3.315   2.532  10.113
 5695SOL    HW217418   3.400   2.656  10.051
 5696SOL     OW17419   2.973   3.638   9.547
 5696SOL    HW117420   2.913   3.576   9.597
 5696SOL    HW217421   3.004   3.594   9.462
 5697SOL     OW17422   3.494   3.239   9.391
 5697SOL    HW117423   3.462   3.333   9.381
 5697SOL    HW217424   3.418   3.176   9.379
 5698SOL     OW17425   2.326   3.605   9.633
 5698SOL    HW117426   2.359   3.644   9.719
 5698SOL    HW217427   2.402   3.598   9.568
 5699SOL     OW17428   3.262   1.969   9.736
 5699SOL    HW117429   3.238   1.932   9.646
 5699SOL    HW217430   3.361   1.985   9.740
 5700SOL     OW17431   2.111   3.647  10.551
 5700SOL    HW117432   2.168   3.582  10.601
 5700SOL    HW217433   2.095   3.614  10.458
 5701SOL     OW17434   2.802   3.560  10.214
 5701SOL    HW117435   2.882   3.503  10.235
 5701SOL    HW217436   2.753   3.520  10.137
 5702SOL     OW17437   2.244   2.562   9.790
 5702SOL    HW117438   2.289   2.472   9.787
 5702SOL    HW217439   2.150   2.551   9.823
 5703SOL     OW17440   2.476   1.984   9.427
 5703SOL    HW117441   2.574   1.962   9.434
 5703SOL    HW217442   2.445   1.967   9.334
 5704SOL     OW17443   2.750   3.376  10.505
 5704SOL    HW117444   2.727   3.351  10.411
 5704SOL    HW217445   2.811   3.307  10.544
 5705SOL     OW17446   2.665   3.264  10.234
 5705SOL    HW117447   2.755   3.278  10.192
 5705SOL    HW217448   2.594   3.266  10.163
 5706SOL     OW17449   2.784   2.365  10.209
 5706SOL    HW117450   2.759   2.356  10.113
 5706SOL    HW217451   2.832   2.283  10.240
 5707SOL     OW17452   2.401   1.926   9.822
 5707SOL    HW117453   2.320   1.927   9.880
 5707SOL    HW217454   2.404   2.009   9.767
 5708SOL     OW17455   3.296   3.050   9.351
 5708SOL    HW117456   3.328   2.974   9.408
 5708SOL    HW217457   3.204   3.077   9.381
 5709SOL     OW17458   2.159   1.897   9.481
 5709SOL    HW117459   2.208   1.981   9.460
 5709SOL    HW217460   2.221   1.832   9.526
 5710SOL     OW17461   2.797   2.098   9.790
 5710SOL    HW117462   2.749   2.139   9.712
 5710SOL    HW217463   2.896   2.096   9.771
 5711SOL     OW17464   3.089   3.432  10.103
 5711SOL    HW117465   3.110   3.506  10.038
 5711SOL    HW217466   3.157   3.432  10.176
 5712SOL     OW17467   2.321   3.014  10.051
 5712SOL    HW117468   2.250   2.987  10.116
 5712SOL    HW217469   2.295   2.986   9.958
 5713SOL     OW17470   3.133   3.659   9.901
 5713SOL    HW117471   3.177   3.723   9.837
 5713SOL    HW217472   3.083   3.711   9.971
 5714SOL     OW17473   2.894   2.411   9.326
 5714SOL    HW117474   2.853   2.493   9.287
 5714SOL    HW217475   2.958   2.437   9.399
 5715SOL     OW17476   2.423   2.084  10.457
 5715SOL    HW117477   2.461   2.000  10.494
 5715SOL    HW217478   2.335   2.103  10.501
 5716SOL     OW17479   2.728   2.316   9.952
 5716SOL    HW117480   2.696   2.388   9.890
 5716SOL    HW217481   2.752   2.235   9.899
 5717SOL     OW17482   2.879   1.901  10.063
 5717SOL    HW117483   2.807   1.906   9.994
 5717SOL    HW217484   2.855   1.832  10.132
 5718SOL     OW17485   3.291   3.035  10.177
 5718SOL    HW117486   3.236   2.951  10.170
 5718SOL    HW217487   3.317   3.064  10.085
 5719SOL     OW17488   3.328   2.452  10.302
 5719SOL    HW117489   3.298   2.357  10.309
 5719SOL    HW217490   3.401   2.468  10.368
 5720SOL     OW17491   3.719   2.695   9.687
 5720SOL    HW117492   3.761   2.631   9.751
 5720SOL    HW217493   3.681   2.644   9.609
 5721SOL     OW17494   2.350   3.247   9.484
 5721SOL    HW117495   2.263   3.232   9.531
 5721SOL    HW217496   2.333   3.273   9.389
 5722SOL     OW17497   3.526   3.142   9.967
 5722SOL    HW117498   3.625   3.150   9.981
 5722SOL    HW217499   3.481   3.226   9.998
 5723SOL     OW17500   3.252   2.437   9.388
 5723SOL    HW117501   3.198   2.416   9.469
 5723SOL    HW217502   3.343   2.396   9.397
 5724SOL     OW17503   2.389   2.118   9.638
 5724SOL    HW117504   2.416   2.059   9.563
 5724SOL    HW217505   2.389   2.213   9.607
 5725SOL     OW17506   2.926   3.209  10.650
 5725SOL    HW117507   2.846   3.186  10.705
 5725SOL    HW217508   3.009   3.183  10.699
 5726SOL     OW17509   2.973   3.057  10.410
 5726SOL    HW117510   2.933   3.101  10.491
 5726SOL    HW217511   2.932   3.094  10.327
 5727SOL     OW17512   3.500   2.961  10.389
 5727SOL    HW117513   3.505   3.042  10.448
 5727SOL    HW217514   3.414   2.963  10.338
 5728SOL     OW17515   2.567   2.912   9.678
 5728SOL    HW117516   2.553   2.919   9.777
 5728SOL    HW217517   2.651   2.861   9.660
 5729SOL     OW17518   2.272   2.675  10.561
 5729SOL    HW117519   2.358   2.687  10.611
 5729SOL    HW217520   2.230   2.588  10.588
 5730SOL     OW17521   3.136   2.248  10.572
 5730SOL    HW117522   3.157   2.322  10.636
 5730SOL    HW217523   3.047   2.265  10.529
 5731SOL     OW17524   1.926   3.426  10.641
 5731SOL    HW117525   1.880   3.508  10.607
 5731SOL    HW217526   2.024   3.445  10.650
 5732SOL     OW17527   2.229   2.962   9.811
 5732SOL    HW117528   2.222   3.045   9.755
 5732SOL    HW217529   2.233   2.882   9.751
 5733SOL     OW17530   2.428   2.399  10.175
 5733SOL    HW117531   2.440   2.465  10.101
 5733SOL    HW217532   2.474   2.433  10.258
 5734SOL     OW17533   3.114   3.210   9.698
 5734SOL    HW117534   3.164   3.287   9.738
 5734SOL    HW217535   3.019   3.212   9.730
 5735SOL     OW17536   3.134   3.307  10.452
 5735SOL    HW117537   3.181   3.320  10.539
 5735SOL    HW217538   3.068   3.233  10.461
 5736SOL     OW17539   3.444   2.501   9.782
 5736SOL    HW117540   3.413   2.562   9.855
 5736SOL    HW217541   3.494   2.553   9.713
 5737SOL     OW17542   2.216   3.372  10.639
 5737SOL    HW117543   2.195   3.328  10.552
 5737SOL    HW217544   2.313   3.398  10.642
 5738SOL     OW17545   2.366   1.912  11.050
 5738SOL    HW117546   2.324   1.855  10.980
 5738SOL    HW217547   2.300   1.981  11.082
 5739SOL     OW17548   3.222   2.724  10.355
 5739SOL    HW117549   3.147   2.724  10.289
 5739SOL    HW217550   3.259   2.632  10.364
 5740SOL     OW17551   3.071   2.387   9.585
 5740SOL    HW117552   3.084   2.303   9.639
 5740SOL    HW217553   3.042   2.461   9.645
 5741SOL     OW17554   2.169   2.075  10.541
 5741SOL    HW117555   2.146   2.112  10.631
 5741SOL    HW217556   2.139   1.980  10.535
 5742SOL     OW17557   1.899   3.172  10.592
 5742SOL    HW117558   1.952   3.123  10.660
 5742SOL    HW217559   1.921   3.270  10.597
 5743SOL     OW17560   2.169   1.925   9.928
 5743SOL    HW117561   2.158   2.019   9.961
 5743SOL    HW217562   2.164   1.862  10.005
 5744SOL     OW17563   3.484   2.229   9.684
 5744SOL    HW117564   3.486   2.153   9.748
 5744SOL    HW217565   3.436   2.306   9.724
 5745SOL     OW17566   3.402   2.136   9.435
 5745SOL    HW117567   3.341   2.061   9.458
 5745SOL    HW217568   3.424   2.188   9.518
 5746SOL     OW17569   3.165   2.700   9.352
 5746SOL    HW117570   3.199   2.607   9.367
 5746SOL    HW217571   3.183   2.727   9.257
 5747SOL     OW17572   2.930   3.195  10.159
 5747SOL    HW117573   2.937   3.111  10.104
 5747SOL    HW217574   2.992   3.264  10.123
 5748SOL     OW17575   2.181   2.672  10.259
 5748SOL    HW117576   2.274   2.708  10.264
 5748SOL    HW217577   2.175   2.587  10.311
 5749SOL     OW17578   2.201   2.371  10.316
 5749SOL    HW117579   2.149   2.288  10.299
 5749SOL    HW217580   2.278   2.376  10.252
 5750SOL     OW17581   3.022   2.069  10.787
 5750SOL    HW117582   3.022   2.133  10.864
 5750SOL    HW217583   3.050   2.117  10.704
 5751SOL     OW17584   1.870   3.188   9.510
 5751SOL    HW117585   1.777   3.209   9.479
 5751SOL    HW217586   1.880   3.089   9.523
 5752SOL     OW17587   1.950   3.663  10.237
 5752SOL    HW117588   1.908   3.577  10.210
 5752SOL    HW217589   2.044   3.666  10.203
 5753SOL     OW17590   2.366   3.430  10.220
 5753SOL    HW117591   2.432   3.504  10.229
 5753SOL    HW217592   2.410   3.351  10.178
 5754SOL     OW17593   1.902   2.406  10.424
 5754SOL    HW117594   1.987   2.373  10.383
 5754SOL    HW217595   1.915   2.421  10.522
 5755SOL     OW17596   3.519   2.466  10.516
 5755SOL    HW117597   3.481   2.397  10.578
 5755SOL    HW217598   3.601   2.430  10.472
 5756SOL     OW17599   2.533   2.326  10.579
 5756SOL    HW117600   2.499   2.237  10.549
 5756SOL    HW217601   2.559   2.380  10.499
 5757SOL     OW17602   2.792   3.540  10.775
 5757SOL    HW117603   2.768   3.522  10.680
 5757SOL    HW217604   2.822   3.634  10.785
 5758SOL     OW17605   2.335   2.362   9.501
 5758SOL    HW117606   2.396   2.442   9.505
 5758SOL    HW217607   2.240   2.393   9.508
 5759SOL     OW17608   2.021   2.999  10.776
 5759SOL    HW117609   2.043   2.938  10.852
 5759SOL    HW217610   2.031   2.950  10.690
 5760SOL     OW17611   3.209   2.921  10.544
 5760SOL    HW117612   3.233   2.858  10.470
 5760SOL    HW217613   3.119   2.961  10.526
 5761SOL     OW17614   3.164   2.717   9.619
 5761SOL    HW117615   3.078   2.686   9.661
 5761SOL    HW217616   3.160   2.703   9.520
 5762SOL     OW17617   3.621   3.609  10.464
 5762SOL    HW117618   3.682   3.639  10.391
 5762SOL    HW217619   3.583   3.520  10.442
 5763SOL     OW17620   3.114   3.593  10.438
 5763SOL    HW117621   3.198   3.598  10.384
 5763SOL    HW217622   3.091   3.497  10.456
 5764SOL     OW17623   1.945   3.120  10.332
 5764SOL    HW117624   1.940   3.119  10.432
 5764SOL    HW217625   1.862   3.079  10.294
 5765SOL     OW17626   3.588   1.997   9.833
 5765SOL    HW117627   3.661   1.980   9.766
 5765SOL    HW217628   3.557   1.910   9.871
 5766SOL     OW17629   3.250   3.435   9.787
 5766SOL    HW117630   3.317   3.447   9.713
 5766SOL    HW217631   3.210   3.524   9.810
 5767SOL     OW17632   3.142   2.789   9.982
 5767SOL    HW117633   3.202   2.708   9.984
 5767SOL    HW217634   3.182   2.858   9.922
 5768SOL     OW17635   2.534   3.478   9.464
 5768SOL    HW117636   2.543   3.488   9.365
 5768SOL    HW217637   2.494   3.389   9.485
 5769SOL     OW17638   3.703   2.037  10.273
 5769SOL    HW117639   3.742   1.952  10.237
 5769SOL    HW217640   3.605   2.039  10.254
 5770SOL     OW17641   2.125   2.188  10.030
 5770SOL    HW117642   2.046   2.239   9.996
 5770SOL    HW217643   2.116   2.173  10.128
 5771SOL     OW17644   3.056   3.474   9.341
 5771SOL    HW117645   3.062   3.381   9.378
 5771SOL    HW217646   2.997   3.474   9.261
 5772SOL     OW17647   2.684   2.864  10.682
 5772SOL    HW117648   2.724   2.863  10.590
 5772SOL    HW217649   2.694   2.956  10.722
 5773SOL     OW17650   3.366   3.469   9.354
 5773SOL    HW117651   3.274   3.506   9.361
 5773SOL    HW217652   3.404   3.489   9.264
 5774SOL     OW17653   2.234   3.150  10.800
 5774SOL    HW117654   2.221   3.243  10.766
 5774SOL    HW217655   2.150   3.098  10.787
 5775SOL     OW17656   3.476   3.154  10.599
 5775SOL    HW117657   3.536   3.157  10.679
 5775SOL    HW217658   3.401   3.218  10.612
 5776SOL     OW17659   2.901   2.960  10.006
 5776SOL    HW117660   2.831   2.913  10.060
 5776SOL    HW217661   2.960   2.892   9.963
 5777SOL     OW17662   2.876   2.098  10.281
 5777SOL    HW117663   2.868   2.062  10.188
 5777SOL    HW217664   2.874   2.022  10.346
 5778SOL     OW17665   2.452   3.349   9.801
 5778SOL    HW117666   2.494   3.291   9.731
 5778SOL    HW217667   2.408   3.428   9.757
 5779SOL     OW17668   3.571   2.247  10.691
 5779SOL    HW117669   3.644   2.316  10.695
 5779SOL    HW217670   3.599   2.172  10.632
 5780SOL     OW17671   2.117   3.210   9.600
 5780SOL    HW117672   2.021   3.211   9.573
 5780SOL    HW217673   2.129   3.263   9.684
 5781SOL     OW17674   2.534   2.065  10.799
 5781SOL    HW117675   2.624   2.049  10.759
 5781SOL    HW217676   2.542   2.070  10.898
 5782SOL     OW17677   1.937   2.207   9.343
 5782SOL    HW117678   1.845   2.179   9.314
 5782SOL    HW217679   1.968   2.284   9.287
 5783SOL     OW17680   1.934   2.028   9.628
 5783SOL    HW117681   1.917   2.111   9.574
 5783SOL    HW217682   2.024   1.991   9.606
 5784SOL     OW17683   3.045   3.197   9.429
 5784SOL    HW117684   2.946   3.186   9.431
 5784SOL    HW217685   3.079   3.212   9.522
 5785SOL     OW17686   3.355   3.629  10.269
 5785SOL    HW117687   3.388   3.693  10.200
 5785SOL    HW217688   3.421   3.623  10.344
 5786SOL     OW17689   2.252   3.603  10.870
 5786SOL    HW117690   2.161   3.644  10.868
 5786SOL    HW217691   2.245   3.509  10.902
 5787SOL     OW17692   3.536   2.745  10.564
 5787SOL    HW117693   3.509   2.656  10.527
 5787SOL    HW217694   3.537   2.813  10.491
 5788SOL     OW17695   3.087   2.187   9.759
 5788SOL    HW117696   3.152   2.113   9.748
 5788SOL    HW217697   3.107   2.237   9.843
 5789SOL     OW17698   3.592   2.796  10.827
 5789SOL    HW117699   3.630   2.887  10.842
 5789SOL    HW217700   3.584   2.779  10.728
 5790SOL     OW17701   2.721   3.236   9.326
 5790SOL    HW117702   2.675   3.251   9.414
 5790SOL    HW217703   2.765   3.321   9.296
 5791SOL     OW17704   2.523   3.652  10.263
 5791SOL    HW117705   2.477   3.740  10.250
 5791SOL    HW217706   2.622   3.664  10.256
 5792SOL     OW17707   2.945   2.846   9.397
 5792SOL    HW117708   2.922   2.899   9.315
 5792SOL    HW217709   3.026   2.790   9.378
 5793SOL     OW17710   3.723   3.431  10.161
 5793SOL    HW117711   3.652   3.419  10.091
 5793SOL    HW217712   3.724   3.352  10.221
 5794SOL     OW17713   1.941   3.102   9.963
 5794SOL    HW117714   1.940   3.055  10.051
 5794SOL    HW217715   2.023   3.074   9.912
 5795SOL     OW17716   3.686   2.054  10.537
 5795SOL    HW117717   3.682   1.964  10.581
 5795SOL    HW217718   3.689   2.043  10.438
 5796SOL     OW17719   2.290   2.286   9.830
 5796SOL    HW117720   2.320   2.214   9.768
 5796SOL    HW217721   2.251   2.246   9.913
 5797SOL     OW17722   3.567   3.349  10.414
 5797SOL    HW117723   3.474   3.324  10.387
 5797SOL    HW217724   3.593   3.299  10.496
 5798SOL     OW17725   2.179   2.409  10.590
 5798SOL    HW117726   2.217   2.350  10.662
 5798SOL    HW217727   2.219   2.383  10.502
 5799SOL     OW17728   2.674   3.448   9.997
 5799SOL    HW117729   2.706   3.458   9.903
 5799SOL    HW217730   2.595   3.386   9.999
 5800SOL     OW17731   3.286   2.076  10.422
 5800SOL    HW117732   3.338   2.011  10.477
 5800SOL    HW217733   3.237   2.139  10.483
 5801SOL     OW17734   2.863   1.896  10.464
 5801SOL    HW117735   2.800   1.824  10.433
 5801SOL    HW217736   2.956   1.860  10.464
 5802SOL     OW17737   2.632   3.192   9.611
 5802SOL    HW117738   2.586   3.105   9.628
 5802SOL    HW217739   2.723   3.189   9.652
 5803SOL     OW17740   2.480   3.429  10.594
 5803SOL    HW117741   2.475   3.511  10.651
 5803SOL    HW217742   2.569   3.426  10.549
 5804SOL     OW17743   3.214   1.914   9.478
 5804SOL    HW117744   3.249   1.873   9.394
 5804SOL    HW217745   3.124   1.876   9.498
 5805SOL     OW17746   3.162   2.315  10.001
 5805SOL    HW117747   3.103   2.395  10.005
 5805SOL    HW217748   3.177   2.280  10.094
 5806SOL     OW17749   3.455   2.083  10.192
 5806SOL    HW117750   3.371   2.082  10.246
 5806SOL    HW217751   3.457   2.166  10.136
 5807SOL     OW17752   1.901   2.939   9.610
 5807SOL    HW117753   2.000   2.928   9.601
 5807SOL    HW217754   1.861   2.853   9.642
 5808SOL     OW17755   2.737   3.508   9.647
 5808SOL    HW117756   2.660   3.473   9.593
 5808SOL    HW217757   2.705   3.579   9.709
 5809SOL     OW17758   2.092   4.352   0.113
 5809SOL    HW117759   1.999   4.350   0.150
 5809SOL    HW217760   2.093   4.313   0.021
 5810SOL     OW17761   2.087   3.999   0.996
 5810SOL    HW117762   2.122   3.982   1.088
 5810SOL    HW217763   1.999   3.954   0.984
 5811SOL     OW17764   1.881   4.092   0.647
 5811SOL    HW117765   1.799   4.135   0.686
 5811SOL    HW217766   1.853   4.019   0.584
 5812SOL     OW17767   2.431   4.999   1.165
 5812SOL    HW117768   2.338   4.992   1.128
 5812SOL    HW217769   2.442   5.088   1.209
 5813SOL     OW17770   3.417   5.235   0.703
 5813SOL    HW117771   3.360   5.219   0.784
 5813SOL    HW217772   3.358   5.245   0.623
 5814SOL     OW17773   2.997   4.427   0.717
 5814SOL    HW117774   3.054   4.505   0.692
 5814SOL    HW217775   2.937   4.453   0.793
 5815SOL     OW17776   3.617   4.331   0.231
 5815SOL    HW117777   3.605   4.318   0.132
 5815SOL    HW217778   3.587   4.250   0.280
 5816SOL     OW17779   2.630   4.868   1.023
 5816SOL    HW117780   2.552   4.885   1.083
 5816SOL    HW217781   2.664   4.955   0.987
 5817SOL     OW17782   2.712   4.522   1.823
 5817SOL    HW117783   2.708   4.598   1.888
 5817SOL    HW217784   2.734   4.558   1.732
 5818SOL     OW17785   2.547   4.736   0.665
 5818SOL    HW117786   2.616   4.720   0.735
 5818SOL    HW217787   2.474   4.793   0.703
 5819SOL     OW17788   2.548   4.885   1.803
 5819SOL    HW117789   2.608   4.964   1.817
 5819SOL    HW217790   2.462   4.916   1.762
 5820SOL     OW17791   2.197   5.159   1.061
 5820SOL    HW117792   2.119   5.128   1.008
 5820SOL    HW217793   2.255   5.217   1.004
 5821SOL     OW17794   3.322   5.229   1.339
 5821SOL    HW117795   3.346   5.323   1.365
 5821SOL    HW217796   3.306   5.175   1.421
 5822SOL     OW17797   2.300   4.116   1.499
 5822SOL    HW117798   2.382   4.060   1.508
 5822SOL    HW217799   2.219   4.058   1.503
 5823SOL     OW17800   3.465   4.171   0.737
 5823SOL    HW117801   3.391   4.217   0.687
 5823SOL    HW217802   3.516   4.239   0.790
 5824SOL     OW17803   2.989   5.065   1.690
 5824SOL    HW117804   3.036   5.065   1.778
 5824SOL    HW217805   2.941   4.978   1.679
 5825SOL     OW17806   2.092   5.158   0.538
 5825SOL    HW117807   2.066   5.254   0.538
 5825SOL    HW217808   2.021   5.104   0.583
 5826SOL     OW17809   2.102   4.815   0.886
 5826SOL    HW117810   2.116   4.731   0.938
 5826SOL    HW217811   2.047   4.879   0.941
 5827SOL     OW17812   2.468   4.688   0.123
 5827SOL    HW117813   2.475   4.772   0.069
 5827SOL    HW217814   2.514   4.701   0.211
 5828SOL     OW17815   3.456   3.838   1.480
 5828SOL    HW117816   3.438   3.905   1.408
 5828SOL    HW217817   3.453   3.884   1.569
 5829SOL     OW17818   1.984   4.367   0.563
 5829SOL    HW117819   1.939   4.279   0.580
 5829SOL    HW217820   1.983   4.421   0.647
 5830SOL     OW17821   1.889   5.320   0.117
 5830SOL    HW117822   1.870   5.224   0.138
 5830SOL    HW217823   1.856   5.378   0.192
 5831SOL     OW17824   3.551   4.646   0.612
 5831SOL    HW117825   3.646   4.617   0.620
 5831SOL    HW217826   3.543   4.711   0.537
 5832SOL     OW17827   3.503   4.832   0.432
 5832SOL    HW117828   3.589   4.834   0.380
 5832SOL    HW217829   3.517   4.879   0.520
 5833SOL     OW17830   1.975   4.461   1.597
 5833SOL    HW117831   2.063   4.448   1.642
 5833SOL    HW217832   1.962   4.558   1.575
 5834SOL     OW17833   2.475   5.089   0.726
 5834SOL    HW117834   2.426   5.002   0.735
 5834SOL    HW217835   2.452   5.132   0.639
 5835SOL     OW17836   3.155   4.952   1.423
 5835SOL    HW117837   3.192   4.879   1.365
 5835SOL    HW217838   3.207   4.957   1.508
 5836SOL     OW17839   2.671   3.728   0.502
 5836SOL    HW117840   2.711   3.819   0.493
 5836SOL    HW217841   2.571   3.736   0.508
 5837SOL     OW17842   2.059   4.700   1.264
 5837SOL    HW117843   2.148   4.655   1.250
 5837SOL    HW217844   1.986   4.635   1.245
 5838SOL     OW17845   3.387   4.723   0.190
 5838SOL    HW117846   3.324   4.647   0.203
 5838SOL    HW217847   3.435   4.741   0.276
 5839SOL     OW17848   2.179   3.975   1.801
 5839SOL    HW117849   2.250   4.046   1.807
 5839SOL    HW217850   2.091   4.014   1.829
 5840SOL     OW17851   3.328   5.141   0.953
 5840SOL    HW117852   3.269   5.147   1.033
 5840SOL    HW217853   3.313   5.053   0.907
 5841SOL     OW17854   2.460   4.453   0.270
 5841SOL    HW117855   2.484   4.522   0.202
 5841SOL    HW217856   2.382   4.486   0.324
 5842SOL     OW17857   3.143   4.069   0.944
 5842SOL    HW117858   3.057   4.019   0.931
 5842SOL    HW217859   3.205   4.015   1.000
 5843SOL     OW17860   2.669   4.329   1.465
 5843SOL    HW117861   2.622   4.326   1.554
 5843SOL    HW217862   2.618   4.274   1.399
 5844SOL     OW17863   3.256   4.193   1.674
 5844SOL    HW117864   3.236   4.236   1.762
 5844SOL    HW217865   3.334   4.131   1.683
 5845SOL     OW17866   2.835   4.614   1.572
 5845SOL    HW117867   2.881   4.530   1.543
 5845SOL    HW217868   2.779   4.648   1.497
 5846SOL     OW17869   2.853   4.134   1.242
 5846SOL    HW117870   2.776   4.168   1.296
 5846SOL    HW217871   2.819   4.083   1.163
 5847SOL     OW17872   2.903   4.425   0.429
 5847SOL    HW117873   2.929   4.421   0.525
 5847SOL    HW217874   2.818   4.374   0.415
 5848SOL     OW17875   1.938   4.535   0.789
 5848SOL    HW117876   2.037   4.523   0.798
 5848SOL    HW217877   1.914   4.630   0.810
 5849SOL     OW17878   2.727   4.072   0.195
 5849SOL    HW117879   2.786   4.135   0.146
 5849SOL    HW217880   2.746   3.978   0.166
 5850SOL     OW17881   3.581   4.309   1.831
 5850SOL    HW117882   3.555   4.398   1.795
 5850SOL    HW217883   3.579   4.241   1.758
 5851SOL     OW17884   3.224   4.868   0.545
 5851SOL    HW117885   3.307   4.839   0.497
 5851SOL    HW217886   3.175   4.935   0.489
 5852SOL     OW17887   2.412   3.920   0.885
 5852SOL    HW117888   2.407   3.915   0.985
 5852SOL    HW217889   2.414   4.016   0.856
 5853SOL     OW17890   2.870   5.180   0.477
 5853SOL    HW117891   2.824   5.252   0.425
 5853SOL    HW217892   2.866   5.200   0.575
 5854SOL     OW17893   3.657   4.790   0.873
 5854SOL    HW117894   3.595   4.775   0.797
 5854SOL    HW217895   3.605   4.801   0.958
 5855SOL     OW17896   3.089   5.274   1.506
 5855SOL    HW117897   3.095   5.197   1.570
 5855SOL    HW217898   3.037   5.248   1.426
 5856SOL     OW17899   2.183   4.667   0.242
 5856SOL    HW117900   2.265   4.706   0.200
 5856SOL    HW217901   2.156   4.585   0.193
 5857SOL     OW17902   3.320   4.459   0.728
 5857SOL    HW117903   3.315   4.394   0.803
 5857SOL    HW217904   3.400   4.518   0.741
 5858SOL     OW17905   2.323   4.990   1.727
 5858SOL    HW117906   2.273   4.991   1.641
 5858SOL    HW217907   2.260   4.972   1.803
 5859SOL     OW17908   2.973   5.500   0.237
 5859SOL    HW117909   2.913   5.438   0.287
 5859SOL    HW217910   3.004   5.456   0.152
 5860SOL     OW17911   2.064   4.009   1.498
 5860SOL    HW117912   1.984   4.069   1.485
 5860SOL    HW217913   2.054   3.960   1.584
 5861SOL     OW17914   3.494   5.101   0.081
 5861SOL    HW117915   3.462   5.195   0.071
 5861SOL    HW217916   3.418   5.038   0.069
 5862SOL     OW17917   3.262   3.831   0.426
 5862SOL    HW117918   3.238   3.794   0.336
 5862SOL    HW217919   3.361   3.847   0.430
 5863SOL     OW17920   2.244   4.424   0.480
 5863SOL    HW117921   2.289   4.334   0.477
 5863SOL    HW217922   2.150   4.413   0.513
 5864SOL     OW17923   3.409   3.946   1.729
 5864SOL    HW117924   3.404   3.983   1.821
 5864SOL    HW217925   3.337   3.877   1.717
 5865SOL     OW17926   2.643   3.988   1.749
 5865SOL    HW117927   2.710   3.927   1.792
 5865SOL    HW217928   2.570   4.007   1.814
 5866SOL     OW17929   3.213   4.314   1.433
 5866SOL    HW117930   3.241   4.271   1.518
 5866SOL    HW217931   3.238   4.410   1.434
 5867SOL     OW17932   2.665   5.126   0.924
 5867SOL    HW117933   2.755   5.140   0.882
 5867SOL    HW217934   2.594   5.128   0.853
 5868SOL     OW17935   2.784   4.227   0.899
 5868SOL    HW117936   2.759   4.218   0.803
 5868SOL    HW217937   2.832   4.145   0.930
 5869SOL     OW17938   2.401   3.788   0.512
 5869SOL    HW117939   2.320   3.789   0.570
 5869SOL    HW217940   2.404   3.871   0.457
 5870SOL     OW17941   3.296   4.912   0.041
 5870SOL    HW117942   3.328   4.836   0.098
 5870SOL    HW217943   3.204   4.939   0.071
 5871SOL     OW17944   2.797   3.960   0.480
 5871SOL    HW117945   2.749   4.001   0.402
 5871SOL    HW217946   2.896   3.958   0.461
 5872SOL     OW17947   2.938   4.407   1.464
 5872SOL    HW117948   2.858   4.346   1.467
 5872SOL    HW217949   3.019   4.354   1.440
 5873SOL     OW17950   3.089   5.294   0.793
 5873SOL    HW117951   3.110   5.368   0.728
 5873SOL    HW217952   3.157   5.294   0.866
 5874SOL     OW17953   2.321   4.876   0.741
 5874SOL    HW117954   2.250   4.849   0.806
 5874SOL    HW217955   2.295   4.848   0.648
 5875SOL     OW17956   2.894   4.273   0.016
 5875SOL    HW117957   2.853   4.355  -0.023
 5875SOL    HW217958   2.958   4.299   0.089
 5876SOL     OW17959   1.940   4.280   1.386
 5876SOL    HW117960   2.032   4.279   1.345
 5876SOL    HW217961   1.934   4.354   1.453
 5877SOL     OW17962   2.423   3.946   1.147
 5877SOL    HW117963   2.461   3.862   1.184
 5877SOL    HW217964   2.335   3.965   1.191
 5878SOL     OW17965   2.728   4.178   0.642
 5878SOL    HW117966   2.696   4.250   0.580
 5878SOL    HW217967   2.752   4.097   0.589
 5879SOL     OW17968   2.879   3.763   0.753
 5879SOL    HW117969   2.807   3.768   0.684
 5879SOL    HW217970   2.855   3.694   0.822
 5880SOL     OW17971   3.291   4.897   0.867
 5880SOL    HW117972   3.236   4.813   0.860
 5880SOL    HW217973   3.317   4.926   0.775
 5881SOL     OW17974   3.328   4.314   0.992
 5881SOL    HW117975   3.298   4.219   0.999
 5881SOL    HW217976   3.401   4.330   1.058
 5882SOL     OW17977   3.719   4.557   0.377
 5882SOL    HW117978   3.761   4.493   0.441
 5882SOL    HW217979   3.681   4.506   0.299
 5883SOL     OW17980   2.350   5.109   0.174
 5883SOL    HW117981   2.263   5.094   0.221
 5883SOL    HW217982   2.333   5.135   0.079
 5884SOL     OW17983   3.526   5.004   0.657
 5884SOL    HW117984   3.625   5.012   0.671
 5884SOL    HW217985   3.481   5.088   0.688
 5885SOL     OW17986   3.252   4.299   0.078
 5885SOL    HW117987   3.198   4.278   0.159
 5885SOL    HW217988   3.343   4.258   0.087
 5886SOL     OW17989   2.389   3.980   0.328
 5886SOL    HW117990   2.416   3.921   0.253
 5886SOL    HW217991   2.389   4.075   0.297
 5887SOL     OW17992   3.616   4.947   1.588
 5887SOL    HW117993   3.707   4.908   1.575
 5887SOL    HW217994   3.624   5.043   1.612
 5888SOL     OW17995   2.926   5.071   1.340
 5888SOL    HW117996   2.846   5.048   1.395
 5888SOL    HW217997   3.009   5.045   1.389
 5889SOL     OW17998   2.973   4.919   1.100
 5889SOL    HW117999   2.933   4.963   1.181
 5889SOL    HW218000   2.932   4.956   1.017
 5890SOL     OW18001   3.500   4.823   1.079
 5890SOL    HW118002   3.505   4.904   1.138
 5890SOL    HW218003   3.414   4.825   1.028
 5891SOL     OW18004   2.777   3.813   1.402
 5891SOL    HW118005   2.802   3.793   1.307
 5891SOL    HW218006   2.849   3.869   1.444
 5892SOL     OW18007   2.842   4.840   1.719
 5892SOL    HW118008   2.743   4.846   1.729
 5892SOL    HW218009   2.865   4.760   1.663
 5893SOL     OW18010   2.567   4.774   0.368
 5893SOL    HW118011   2.553   4.781   0.467
 5893SOL    HW218012   2.651   4.723   0.350
 5894SOL     OW18013   2.272   4.537   1.251
 5894SOL    HW118014   2.358   4.549   1.301
 5894SOL    HW218015   2.230   4.450   1.278
 5895SOL     OW18016   3.136   4.110   1.262
 5895SOL    HW118017   3.157   4.184   1.326
 5895SOL    HW218018   3.047   4.127   1.219
 5896SOL     OW18019   2.229   4.824   0.501
 5896SOL    HW118020   2.222   4.907   0.445
 5896SOL    HW218021   2.233   4.744   0.441
 5897SOL     OW18022   2.428   4.261   0.865
 5897SOL    HW118023   2.440   4.327   0.791
 5897SOL    HW218024   2.474   4.295   0.948
 5898SOL     OW18025   3.114   5.072   0.388
 5898SOL    HW118026   3.164   5.149   0.428
 5898SOL    HW218027   3.019   5.074   0.420
 5899SOL     OW18028   3.134   5.169   1.142
 5899SOL    HW118029   3.181   5.182   1.229
 5899SOL    HW218030   3.068   5.095   1.151
 5900SOL     OW18031   3.444   4.363   0.472
 5900SOL    HW118032   3.413   4.424   0.545
 5900SOL    HW218033   3.494   4.415   0.403
 5901SOL     OW18034   2.216   5.234   1.329
 5901SOL    HW118035   2.195   5.190   1.242
 5901SOL    HW218036   2.313   5.260   1.332
 5902SOL     OW18037   2.264   4.475   1.598
 5902SOL    HW118038   2.332   4.530   1.551
 5902SOL    HW218039   2.304   4.387   1.625
 5903SOL     OW18040   3.449   4.503   1.670
 5903SOL    HW118041   3.357   4.541   1.665
 5903SOL    HW218042   3.509   4.550   1.605
 5904SOL     OW18043   2.875   3.829   1.770
 5904SOL    HW118044   2.881   3.914   1.718
 5904SOL    HW218045   2.907   3.753   1.713
 5905SOL     OW18046   2.366   3.774   1.740
 5905SOL    HW118047   2.324   3.717   1.670
 5905SOL    HW218048   2.300   3.843   1.772
 5906SOL     OW18049   2.435   4.594   1.029
 5906SOL    HW118050   2.479   4.683   1.020
 5906SOL    HW218051   2.372   4.594   1.106
 5907SOL     OW18052   3.222   4.586   1.045
 5907SOL    HW118053   3.147   4.586   0.979
 5907SOL    HW218054   3.259   4.494   1.054
 5908SOL     OW18055   3.071   4.249   0.275
 5908SOL    HW118056   3.084   4.165   0.329
 5908SOL    HW218057   3.042   4.323   0.335
 5909SOL     OW18058   2.169   3.937   1.231
 5909SOL    HW118059   2.146   3.974   1.321
 5909SOL    HW218060   2.139   3.842   1.225
 5910SOL     OW18061   1.899   5.034   1.282
 5910SOL    HW118062   1.952   4.985   1.350
 5910SOL    HW218063   1.921   5.132   1.287
 5911SOL     OW18064   2.594   4.358   1.064
 5911SOL    HW118065   2.653   4.332   0.988
 5911SOL    HW218066   2.566   4.454   1.053
 5912SOL     OW18067   3.590   4.659   1.854
 5912SOL    HW118068   3.544   4.652   1.765
 5912SOL    HW218069   3.528   4.703   1.920
 5913SOL     OW18070   2.169   3.787   0.618
 5913SOL    HW118071   2.158   3.881   0.651
 5913SOL    HW218072   2.164   3.724   0.695
 5914SOL     OW18073   3.484   4.091   0.374
 5914SOL    HW118074   3.486   4.015   0.438
 5914SOL    HW218075   3.436   4.168   0.414
 5915SOL     OW18076   2.885   4.490   0.966
 5915SOL    HW118077   2.900   4.511   1.062
 5915SOL    HW218078   2.855   4.395   0.957
 5916SOL     OW18079   3.721   5.242   1.605
 5916SOL    HW118080   3.735   5.269   1.510
 5916SOL    HW218081   3.804   5.264   1.658
 5917SOL     OW18082   2.212   4.622   1.804
 5917SOL    HW118083   2.288   4.666   1.852
 5917SOL    HW218084   2.247   4.575   1.722
 5918SOL     OW18085   3.402   3.998   0.125
 5918SOL    HW118086   3.341   3.923   0.148
 5918SOL    HW218087   3.424   4.050   0.208
 5919SOL     OW18088   3.165   4.562   0.042
 5919SOL    HW118089   3.199   4.469   0.057
 5919SOL    HW218090   3.183   4.589  -0.053
 5920SOL     OW18091   2.930   5.057   0.849
 5920SOL    HW118092   2.937   4.973   0.794
 5920SOL    HW218093   2.992   5.126   0.813
 5921SOL     OW18094   2.181   4.534   0.949
 5921SOL    HW118095   2.274   4.570   0.954
 5921SOL    HW218096   2.175   4.449   1.001
 5922SOL     OW18097   2.201   4.233   1.006
 5922SOL    HW118098   2.149   4.150   0.989
 5922SOL    HW218099   2.278   4.238   0.942
 5923SOL     OW18100   3.000   4.104   1.678
 5923SOL    HW118101   2.955   4.167   1.742
 5923SOL    HW218102   3.093   4.135   1.661
 5924SOL     OW18103   3.022   3.931   1.477
 5924SOL    HW118104   3.022   3.995   1.554
 5924SOL    HW218105   3.050   3.979   1.394
 5925SOL     OW18106   1.870   5.050   0.200
 5925SOL    HW118107   1.777   5.071   0.169
 5925SOL    HW218108   1.880   4.951   0.213
 5926SOL     OW18109   2.864   4.520   1.238
 5926SOL    HW118110   2.905   4.488   1.324
 5926SOL    HW218111   2.768   4.493   1.235
 5927SOL     OW18112   1.902   4.268   1.114
 5927SOL    HW118113   1.987   4.235   1.073
 5927SOL    HW218114   1.915   4.283   1.212
 5928SOL     OW18115   2.051   4.244   1.722
 5928SOL    HW118116   2.110   4.204   1.652
 5928SOL    HW218117   1.993   4.315   1.681
 5929SOL     OW18118   3.231   4.674   1.660
 5929SOL    HW118119   3.270   4.763   1.680
 5929SOL    HW218120   3.241   4.654   1.563
 5930SOL     OW18121   2.677   4.296   0.325
 5930SOL    HW118122   2.684   4.207   0.279
 5930SOL    HW218123   2.583   4.330   0.317
 5931SOL     OW18124   3.519   4.328   1.206
 5931SOL    HW118125   3.481   4.259   1.268
 5931SOL    HW218126   3.601   4.292   1.162
 5932SOL     OW18127   2.114   5.288   1.744
 5932SOL    HW118128   2.084   5.345   1.820
 5932SOL    HW218129   2.107   5.191   1.770
 5933SOL     OW18130   2.533   4.188   1.269
 5933SOL    HW118131   2.499   4.099   1.239
 5933SOL    HW218132   2.559   4.242   1.189
 5934SOL     OW18133   2.335   4.224   0.191
 5934SOL    HW118134   2.396   4.304   0.195
 5934SOL    HW218135   2.240   4.255   0.198
 5935SOL     OW18136   2.021   4.861   1.466
 5935SOL    HW118137   2.043   4.800   1.542
 5935SOL    HW218138   2.031   4.812   1.380
 5936SOL     OW18139   3.209   4.783   1.234
 5936SOL    HW118140   3.233   4.720   1.160
 5936SOL    HW218141   3.119   4.823   1.216
 5937SOL     OW18142   3.164   4.579   0.309
 5937SOL    HW118143   3.078   4.548   0.351
 5937SOL    HW218144   3.160   4.565   0.210
 5938SOL     OW18145   1.945   4.982   1.022
 5938SOL    HW118146   1.940   4.981   1.122
 5938SOL    HW218147   1.862   4.941   0.984
 5939SOL     OW18148   2.550   5.386   1.716
 5939SOL    HW118149   2.494   5.467   1.725
 5939SOL    HW218150   2.602   5.390   1.630
 5940SOL     OW18151   2.765   3.810   0.133
 5940SOL    HW118152   2.816   3.811   0.047
 5940SOL    HW218153   2.821   3.768   0.204
 5941SOL     OW18154   3.588   3.859   0.523
 5941SOL    HW118155   3.661   3.842   0.456
 5941SOL    HW218156   3.557   3.772   0.561
 5942SOL     OW18157   3.142   4.651   0.672
 5942SOL    HW118158   3.202   4.570   0.674
 5942SOL    HW218159   3.182   4.720   0.612
 5943SOL     OW18160   2.692   4.997   1.422
 5943SOL    HW118161   2.687   5.030   1.517
 5943SOL    HW218162   2.606   5.016   1.376
 5944SOL     OW18163   3.703   3.899   0.963
 5944SOL    HW118164   3.742   3.814   0.927
 5944SOL    HW218165   3.605   3.901   0.944
 5945SOL     OW18166   2.125   4.050   0.720
 5945SOL    HW118167   2.046   4.101   0.686
 5945SOL    HW218168   2.116   4.035   0.818
 5946SOL     OW18169   3.056   5.336   0.031
 5946SOL    HW118170   3.062   5.243   0.068
 5946SOL    HW218171   2.997   5.336  -0.049
 5947SOL     OW18172   2.684   4.726   1.372
 5947SOL    HW118173   2.724   4.725   1.280
 5947SOL    HW218174   2.694   4.818   1.412
 5948SOL     OW18175   2.778   4.634   0.291
 5948SOL    HW118176   2.841   4.672   0.223
 5948SOL    HW218177   2.818   4.551   0.330
 5949SOL     OW18178   2.234   5.012   1.490
 5949SOL    HW118179   2.221   5.105   1.456
 5949SOL    HW218180   2.150   4.960   1.477
 5950SOL     OW18181   3.476   5.016   1.289
 5950SOL    HW118182   3.536   5.019   1.369
 5950SOL    HW218183   3.401   5.080   1.302
 5951SOL     OW18184   2.901   4.822   0.696
 5951SOL    HW118185   2.831   4.775   0.750
 5951SOL    HW218186   2.960   4.754   0.653
 5952SOL     OW18187   2.876   3.960   0.971
 5952SOL    HW118188   2.868   3.924   0.878
 5952SOL    HW218189   2.874   3.884   1.036
 5953SOL     OW18190   3.571   4.109   1.381
 5953SOL    HW118191   3.644   4.178   1.385
 5953SOL    HW218192   3.599   4.034   1.322
 5954SOL     OW18193   2.117   5.072   0.290
 5954SOL    HW118194   2.021   5.073   0.263
 5954SOL    HW218195   2.129   5.125   0.374
 5955SOL     OW18196   1.967   4.737   1.726
 5955SOL    HW118197   1.890   4.704   1.780
 5955SOL    HW218198   2.052   4.707   1.768
 5956SOL     OW18199   2.534   3.927   1.489
 5956SOL    HW118200   2.624   3.911   1.449
 5956SOL    HW218201   2.542   3.932   1.588
 5957SOL     OW18202   1.937   4.069   0.033
 5957SOL    HW118203   1.845   4.041   0.004
 5957SOL    HW218204   1.968   4.146  -0.023
 5958SOL     OW18205   3.302   4.580   1.398
 5958SOL    HW118206   3.245   4.632   1.335
 5958SOL    HW218207   3.398   4.592   1.374
 5959SOL     OW18208   1.934   3.890   0.318
 5959SOL    HW118209   1.917   3.973   0.264
 5959SOL    HW218210   2.024   3.853   0.296
 5960SOL     OW18211   3.045   5.059   0.119
 5960SOL    HW118212   2.946   5.048   0.121
 5960SOL    HW218213   3.079   5.074   0.212
 5961SOL     OW18214   2.475   4.566   1.431
 5961SOL    HW118215   2.531   4.647   1.414
 5961SOL    HW218216   2.534   4.486   1.434
 5962SOL     OW18217   2.578   4.289   1.708
 5962SOL    HW118218   2.597   4.354   1.782
 5962SOL    HW218219   2.638   4.209   1.717
 5963SOL     OW18220   3.312   4.944   1.633
 5963SOL    HW118221   3.303   4.934   1.732
 5963SOL    HW218222   3.408   4.937   1.607
 5964SOL     OW18223   3.536   4.607   1.254
 5964SOL    HW118224   3.509   4.518   1.217
 5964SOL    HW218225   3.537   4.675   1.181
 5965SOL     OW18226   3.087   4.049   0.449
 5965SOL    HW118227   3.152   3.975   0.438
 5965SOL    HW218228   3.107   4.099   0.533
 5966SOL     OW18229   2.456   4.469   0.652
 5966SOL    HW118230   2.506   4.554   0.633
 5966SOL    HW218231   2.368   4.471   0.604
 5967SOL     OW18232   3.639   4.066   1.642
 5967SOL    HW118233   3.622   4.097   1.548
 5967SOL    HW218234   3.555   4.029   1.680
 5968SOL     OW18235   3.592   4.658   1.517
 5968SOL    HW118236   3.630   4.749   1.532
 5968SOL    HW218237   3.584   4.641   1.418
 5969SOL     OW18238   2.721   5.098   0.016
 5969SOL    HW118239   2.675   5.113   0.104
 5969SOL    HW218240   2.765   5.183  -0.014
 5970SOL     OW18241   2.721   4.680   0.861
 5970SOL    HW118242   2.775   4.611   0.909
 5970SOL    HW218243   2.689   4.749   0.927
 5971SOL     OW18244   2.945   4.708   0.087
 5971SOL    HW118245   2.922   4.761   0.005
 5971SOL    HW218246   3.026   4.652   0.068
 5972SOL     OW18247   2.083   5.038   1.844
 5972SOL    HW118248   2.018   4.965   1.823
 5972SOL    HW218249   2.087   5.052   1.942
 5973SOL     OW18250   1.941   4.964   0.653
 5973SOL    HW118251   1.940   4.917   0.741
 5973SOL    HW218252   2.023   4.936   0.602
 5974SOL     OW18253   2.534   5.115   1.624
 5974SOL    HW118254   2.456   5.065   1.662
 5974SOL    HW218255   2.531   5.210   1.655
 5975SOL     OW18256   3.686   3.916   1.227
 5975SOL    HW118257   3.682   3.826   1.271
 5975SOL    HW218258   3.689   3.905   1.128
 5976SOL     OW18259   2.290   4.148   0.520
 5976SOL    HW118260   2.320   4.076   0.458
 5976SOL    HW218261   2.251   4.108   0.603
 5977SOL     OW18262   3.567   5.211   1.104
 5977SOL    HW118263   3.474   5.186   1.077
 5977SOL    HW218264   3.593   5.161   1.186
 5978SOL     OW18265   2.179   4.271   1.280
 5978SOL    HW118266   2.217   4.212   1.352
 5978SOL    HW218267   2.219   4.245   1.192
 5979SOL     OW18268   3.286   3.938   1.112
 5979SOL    HW118269   3.338   3.873   1.167
 5979SOL    HW218270   3.237   4.001   1.173
 5980SOL     OW18271   2.863   3.758   1.154
 5980SOL    HW118272   2.800   3.686   1.123
 5980SOL    HW218273   2.956   3.722   1.154
 5981SOL     OW18274   2.632   5.054   0.301
 5981SOL    HW118275   2.586   4.967   0.318
 5981SOL    HW218276   2.723   5.051   0.342
 5982SOL     OW18277   2.480   5.291   1.284
 5982SOL    HW118278   2.475   5.373   1.341
 5982SOL    HW218279   2.569   5.288   1.239
 5983SOL     OW18280   3.214   3.776   0.168
 5983SOL    HW118281   3.249   3.735   0.084
 5983SOL    HW218282   3.124   3.738   0.188
 5984SOL     OW18283   3.162   4.177   0.691
 5984SOL    HW118284   3.103   4.257   0.695
 5984SOL    HW218285   3.177   4.142   0.784
 5985SOL     OW18286   3.455   3.945   0.882
 5985SOL    HW118287   3.371   3.944   0.936
 5985SOL    HW218288   3.457   4.028   0.826
 5986SOL     OW18289   1.901   4.801   0.300
 5986SOL    HW118290   2.000   4.790   0.291
 5986SOL    HW218291   1.861   4.715   0.332
 5987SOL     OW18292   2.092   4.352   1.975
 5987SOL    HW118293   1.999   4.350   2.012
 5987SOL    HW218294   2.093   4.313   1.883
 5988SOL     OW18295   2.087   3.999   2.858
 5988SOL    HW118296   2.122   3.982   2.950
 5988SOL    HW218297   1.999   3.954   2.846
 5989SOL     OW18298   1.881   4.092   2.509
 5989SOL    HW118299   1.799   4.135   2.548
 5989SOL    HW218300   1.853   4.019   2.446
 5990SOL     OW18301   2.431   4.999   3.027
 5990SOL    HW118302   2.338   4.992   2.990
 5990SOL    HW218303   2.442   5.088   3.071
 5991SOL     OW18304   3.417   5.235   2.565
 5991SOL    HW118305   3.360   5.219   2.646
 5991SOL    HW218306   3.358   5.245   2.485
 5992SOL     OW18307   2.997   4.427   2.579
 5992SOL    HW118308   3.054   4.505   2.554
 5992SOL    HW218309   2.937   4.453   2.655
 5993SOL     OW18310   3.617   4.331   2.093
 5993SOL    HW118311   3.605   4.318   1.994
 5993SOL    HW218312   3.587   4.250   2.142
 5994SOL     OW18313   2.630   4.868   2.885
 5994SOL    HW118314   2.552   4.885   2.945
 5994SOL    HW218315   2.664   4.955   2.849
 5995SOL     OW18316   2.712   4.522   3.685
 5995SOL    HW118317   2.708   4.598   3.750
 5995SOL    HW218318   2.734   4.558   3.594
 5996SOL     OW18319   2.547   4.736   2.527
 5996SOL    HW118320   2.616   4.720   2.597
 5996SOL    HW218321   2.474   4.793   2.565
 5997SOL     OW18322   2.548   4.885   3.665
 5997SOL    HW118323   2.608   4.964   3.679
 5997SOL    HW218324   2.462   4.916   3.624
 5998SOL     OW18325   2.197   5.159   2.923
 5998SOL    HW118326   2.119   5.128   2.870
 5998SOL    HW218327   2.255   5.217   2.866
 5999SOL     OW18328   3.322   5.229   3.201
 5999SOL    HW118329   3.346   5.323   3.227
 5999SOL    HW218330   3.306   5.175   3.283
 6000SOL     OW18331   2.300   4.116   3.361
 6000SOL    HW118332   2.382   4.060   3.370
 6000SOL    HW218333   2.219   4.058   3.365
 6001SOL     OW18334   3.465   4.171   2.599
 6001SOL    HW118335   3.391   4.217   2.549
 6001SOL    HW218336   3.516   4.239   2.652
 6002SOL     OW18337   2.989   5.065   3.552
 6002SOL    HW118338   3.036   5.065   3.640
 6002SOL    HW218339   2.941   4.978   3.541
 6003SOL     OW18340   2.092   5.158   2.400
 6003SOL    HW118341   2.066   5.254   2.400
 6003SOL    HW218342   2.021   5.104   2.445
 6004SOL     OW18343   2.102   4.815   2.748
 6004SOL    HW118344   2.116   4.731   2.800
 6004SOL    HW218345   2.047   4.879   2.803
 6005SOL     OW18346   2.468   4.688   1.985
 6005SOL    HW118347   2.475   4.772   1.931
 6005SOL    HW218348   2.514   4.701   2.073
 6006SOL     OW18349   3.456   3.838   3.342
 6006SOL    HW118350   3.438   3.905   3.270
 6006SOL    HW218351   3.453   3.884   3.431
 6007SOL     OW18352   1.984   4.367   2.425
 6007SOL    HW118353   1.939   4.279   2.442
 6007SOL    HW218354   1.983   4.421   2.509
 6008SOL     OW18355   1.889   5.320   1.979
 6008SOL    HW118356   1.870   5.224   2.000
 6008SOL    HW218357   1.856   5.378   2.054
 6009SOL     OW18358   3.551   4.646   2.474
 6009SOL    HW118359   3.646   4.617   2.482
 6009SOL    HW218360   3.543   4.711   2.399
 6010SOL     OW18361   3.503   4.832   2.294
 6010SOL    HW118362   3.589   4.834   2.242
 6010SOL    HW218363   3.517   4.879   2.382
 6011SOL     OW18364   1.975   4.461   3.459
 6011SOL    HW118365   2.063   4.448   3.504
 6011SOL    HW218366   1.962   4.558   3.437
 6012SOL     OW18367   2.475   5.089   2.588
 6012SOL    HW118368   2.426   5.002   2.597
 6012SOL    HW218369   2.452   5.132   2.501
 6013SOL     OW18370   3.155   4.952   3.285
 6013SOL    HW118371   3.192   4.879   3.227
 6013SOL    HW218372   3.207   4.957   3.370
 6014SOL     OW18373   2.671   3.728   2.364
 6014SOL    HW118374   2.711   3.819   2.355
 6014SOL    HW218375   2.571   3.736   2.370
 6015SOL     OW18376   2.059   4.700   3.126
 6015SOL    HW118377   2.148   4.655   3.112
 6015SOL    HW218378   1.986   4.635   3.107
 6016SOL     OW18379   3.387   4.723   2.052
 6016SOL    HW118380   3.324   4.647   2.065
 6016SOL    HW218381   3.435   4.741   2.138
 6017SOL     OW18382   2.179   3.975   3.663
 6017SOL    HW118383   2.250   4.046   3.669
 6017SOL    HW218384   2.091   4.014   3.691
 6018SOL     OW18385   3.328   5.141   2.815
 6018SOL    HW118386   3.269   5.147   2.895
 6018SOL    HW218387   3.313   5.053   2.769
 6019SOL     OW18388   2.460   4.453   2.132
 6019SOL    HW118389   2.484   4.522   2.064
 6019SOL    HW218390   2.382   4.486   2.186
 6020SOL     OW18391   3.143   4.069   2.806
 6020SOL    HW118392   3.057   4.019   2.793
 6020SOL    HW218393   3.205   4.015   2.862
 6021SOL     OW18394   2.669   4.329   3.327
 6021SOL    HW118395   2.622   4.326   3.416
 6021SOL    HW218396   2.618   4.274   3.261
 6022SOL     OW18397   3.256   4.193   3.536
 6022SOL    HW118398   3.236   4.236   3.624
 6022SOL    HW218399   3.334   4.131   3.545
 6023SOL     OW18400   2.835   4.614   3.434
 6023SOL    HW118401   2.881   4.530   3.405
 6023SOL    HW218402   2.779   4.648   3.359
 6024SOL     OW18403   2.853   4.134   3.104
 6024SOL    HW118404   2.776   4.168   3.158
 6024SOL    HW218405   2.819   4.083   3.025
 6025SOL     OW18406   2.903   4.425   2.291
 6025SOL    HW118407   2.929   4.421   2.387
 6025SOL    HW218408   2.818   4.374   2.277
 6026SOL     OW18409   1.938   4.535   2.651
 6026SOL    HW118410   2.037   4.523   2.660
 6026SOL    HW218411   1.914   4.630   2.672
 6027SOL     OW18412   2.727   4.072   2.057
 6027SOL    HW118413   2.786   4.135   2.008
 6027SOL    HW218414   2.746   3.978   2.028
 6028SOL     OW18415   3.581   4.309   3.693
 6028SOL    HW118416   3.555   4.398   3.657
 6028SOL    HW218417   3.579   4.241   3.620
 6029SOL     OW18418   3.224   4.868   2.407
 6029SOL    HW118419   3.307   4.839   2.359
 6029SOL    HW218420   3.175   4.935   2.351
 6030SOL     OW18421   2.412   3.920   2.747
 6030SOL    HW118422   2.407   3.915   2.847
 6030SOL    HW218423   2.414   4.016   2.718
 6031SOL     OW18424   2.870   5.180   2.339
 6031SOL    HW118425   2.824   5.252   2.287
 6031SOL    HW218426   2.866   5.200   2.437
 6032SOL     OW18427   3.657   4.790   2.735
 6032SOL    HW118428   3.595   4.775   2.659
 6032SOL    HW218429   3.605   4.801   2.820
 6033SOL     OW18430   3.089   5.274   3.368
 6033SOL    HW118431   3.095   5.197   3.432
 6033SOL    HW218432   3.037   5.248   3.288
 6034SOL     OW18433   2.183   4.667   2.104
 6034SOL    HW118434   2.265   4.706   2.062
 6034SOL    HW218435   2.156   4.585   2.055
 6035SOL     OW18436   3.320   4.459   2.590
 6035SOL    HW118437   3.315   4.394   2.665
 6035SOL    HW218438   3.400   4.518   2.603
 6036SOL     OW18439   2.323   4.990   3.589
 6036SOL    HW118440   2.273   4.991   3.503
 6036SOL    HW218441   2.260   4.972   3.665
 6037SOL     OW18442   2.973   5.500   2.099
 6037SOL    HW118443   2.913   5.438   2.149
 6037SOL    HW218444   3.004   5.456   2.014
 6038SOL     OW18445   2.064   4.009   3.360
 6038SOL    HW118446   1.984   4.069   3.347
 6038SOL    HW218447   2.054   3.960   3.446
 6039SOL     OW18448   3.494   5.101   1.943
 6039SOL    HW118449   3.462   5.195   1.933
 6039SOL    HW218450   3.418   5.038   1.931
 6040SOL     OW18451   3.262   3.831   2.288
 6040SOL    HW118452   3.238   3.794   2.198
 6040SOL    HW218453   3.361   3.847   2.292
 6041SOL     OW18454   2.244   4.424   2.342
 6041SOL    HW118455   2.289   4.334   2.339
 6041SOL    HW218456   2.150   4.413   2.375
 6042SOL     OW18457   3.409   3.946   3.591
 6042SOL    HW118458   3.404   3.983   3.683
 6042SOL    HW218459   3.337   3.877   3.579
 6043SOL     OW18460   2.476   3.846   1.979
 6043SOL    HW118461   2.574   3.824   1.986
 6043SOL    HW218462   2.445   3.829   1.886
 6044SOL     OW18463   2.643   3.988   3.611
 6044SOL    HW118464   2.710   3.927   3.654
 6044SOL    HW218465   2.570   4.007   3.676
 6045SOL     OW18466   3.213   4.314   3.295
 6045SOL    HW118467   3.241   4.271   3.380
 6045SOL    HW218468   3.238   4.410   3.296
 6046SOL     OW18469   2.665   5.126   2.786
 6046SOL    HW118470   2.755   5.140   2.744
 6046SOL    HW218471   2.594   5.128   2.715
 6047SOL     OW18472   2.784   4.227   2.761
 6047SOL    HW118473   2.759   4.218   2.665
 6047SOL    HW218474   2.832   4.145   2.792
 6048SOL     OW18475   2.401   3.788   2.374
 6048SOL    HW118476   2.320   3.789   2.432
 6048SOL    HW218477   2.404   3.871   2.319
 6049SOL     OW18478   3.296   4.912   1.903
 6049SOL    HW118479   3.328   4.836   1.960
 6049SOL    HW218480   3.204   4.939   1.933
 6050SOL     OW18481   2.159   3.759   2.033
 6050SOL    HW118482   2.208   3.843   2.012
 6050SOL    HW218483   2.221   3.694   2.078
 6051SOL     OW18484   2.797   3.960   2.342
 6051SOL    HW118485   2.749   4.001   2.264
 6051SOL    HW218486   2.896   3.958   2.323
 6052SOL     OW18487   2.938   4.407   3.326
 6052SOL    HW118488   2.858   4.346   3.329
 6052SOL    HW218489   3.019   4.354   3.302
 6053SOL     OW18490   3.089   5.294   2.655
 6053SOL    HW118491   3.110   5.368   2.590
 6053SOL    HW218492   3.157   5.294   2.728
 6054SOL     OW18493   2.321   4.876   2.603
 6054SOL    HW118494   2.250   4.849   2.668
 6054SOL    HW218495   2.295   4.848   2.510
 6055SOL     OW18496   2.894   4.273   1.878
 6055SOL    HW118497   2.853   4.355   1.839
 6055SOL    HW218498   2.958   4.299   1.951
 6056SOL     OW18499   1.940   4.280   3.248
 6056SOL    HW118500   2.032   4.279   3.207
 6056SOL    HW218501   1.934   4.354   3.315
 6057SOL     OW18502   2.423   3.946   3.009
 6057SOL    HW118503   2.461   3.862   3.046
 6057SOL    HW218504   2.335   3.965   3.053
 6058SOL     OW18505   2.728   4.178   2.504
 6058SOL    HW118506   2.696   4.250   2.442
 6058SOL    HW218507   2.752   4.097   2.451
 6059SOL     OW18508   2.879   3.763   2.615
 6059SOL    HW118509   2.807   3.768   2.546
 6059SOL    HW218510   2.855   3.694   2.684
 6060SOL     OW18511   3.291   4.897   2.729
 6060SOL    HW118512   3.236   4.813   2.722
 6060SOL    HW218513   3.317   4.926   2.637
 6061SOL     OW18514   3.328   4.314   2.854
 6061SOL    HW118515   3.298   4.219   2.861
 6061SOL    HW218516   3.401   4.330   2.920
 6062SOL     OW18517   3.719   4.557   2.239
 6062SOL    HW118518   3.761   4.493   2.303
 6062SOL    HW218519   3.681   4.506   2.161
 6063SOL     OW18520   2.350   5.109   2.036
 6063SOL    HW118521   2.263   5.094   2.083
 6063SOL    HW218522   2.333   5.135   1.941
 6064SOL     OW18523   3.526   5.004   2.519
 6064SOL    HW118524   3.625   5.012   2.533
 6064SOL    HW218525   3.481   5.088   2.550
 6065SOL     OW18526   3.252   4.299   1.940
 6065SOL    HW118527   3.198   4.278   2.021
 6065SOL    HW218528   3.343   4.258   1.949
 6066SOL     OW18529   2.389   3.980   2.190
 6066SOL    HW118530   2.416   3.921   2.115
 6066SOL    HW218531   2.389   4.075   2.159
 6067SOL     OW18532   3.616   4.947   3.450
 6067SOL    HW118533   3.707   4.908   3.437
 6067SOL    HW218534   3.624   5.043   3.474
 6068SOL     OW18535   2.926   5.071   3.202
 6068SOL    HW118536   2.846   5.048   3.257
 6068SOL    HW218537   3.009   5.045   3.251
 6069SOL     OW18538   2.973   4.919   2.962
 6069SOL    HW118539   2.933   4.963   3.043
 6069SOL    HW218540   2.932   4.956   2.879
 6070SOL     OW18541   3.500   4.823   2.941
 6070SOL    HW118542   3.505   4.904   3.000
 6070SOL    HW218543   3.414   4.825   2.890
 6071SOL     OW18544   2.777   3.813   3.264
 6071SOL    HW118545   2.802   3.793   3.169
 6071SOL    HW218546   2.849   3.869   3.306
 6072SOL     OW18547   2.842   4.840   3.581
 6072SOL    HW118548   2.743   4.846   3.591
 6072SOL    HW218549   2.865   4.760   3.525
 6073SOL     OW18550   2.567   4.774   2.230
 6073SOL    HW118551   2.553   4.781   2.329
 6073SOL    HW218552   2.651   4.723   2.212
 6074SOL     OW18553   2.272   4.537   3.113
 6074SOL    HW118554   2.358   4.549   3.163
 6074SOL    HW218555   2.230   4.450   3.140
 6075SOL     OW18556   3.136   4.110   3.124
 6075SOL    HW118557   3.157   4.184   3.188
 6075SOL    HW218558   3.047   4.127   3.081
 6076SOL     OW18559   2.229   4.824   2.363
 6076SOL    HW118560   2.222   4.907   2.307
 6076SOL    HW218561   2.233   4.744   2.303
 6077SOL     OW18562   2.428   4.261   2.727
 6077SOL    HW118563   2.440   4.327   2.653
 6077SOL    HW218564   2.474   4.295   2.810
 6078SOL     OW18565   3.114   5.072   2.250
 6078SOL    HW118566   3.164   5.149   2.290
 6078SOL    HW218567   3.019   5.074   2.282
 6079SOL     OW18568   3.134   5.169   3.004
 6079SOL    HW118569   3.181   5.182   3.091
 6079SOL    HW218570   3.068   5.095   3.013
 6080SOL     OW18571   3.444   4.363   2.334
 6080SOL    HW118572   3.413   4.424   2.407
 6080SOL    HW218573   3.494   4.415   2.265
 6081SOL     OW18574   2.216   5.234   3.191
 6081SOL    HW118575   2.195   5.190   3.104
 6081SOL    HW218576   2.313   5.260   3.194
 6082SOL     OW18577   2.264   4.475   3.460
 6082SOL    HW118578   2.332   4.530   3.413
 6082SOL    HW218579   2.304   4.387   3.487
 6083SOL     OW18580   3.449   4.503   3.532
 6083SOL    HW118581   3.357   4.541   3.527
 6083SOL    HW218582   3.509   4.550   3.467
 6084SOL     OW18583   2.875   3.829   3.632
 6084SOL    HW118584   2.881   3.914   3.580
 6084SOL    HW218585   2.907   3.753   3.575
 6085SOL     OW18586   2.366   3.774   3.602
 6085SOL    HW118587   2.324   3.717   3.532
 6085SOL    HW218588   2.300   3.843   3.634
 6086SOL     OW18589   2.435   4.594   2.891
 6086SOL    HW118590   2.479   4.683   2.882
 6086SOL    HW218591   2.372   4.594   2.968
 6087SOL     OW18592   3.222   4.586   2.907
 6087SOL    HW118593   3.147   4.586   2.841
 6087SOL    HW218594   3.259   4.494   2.916
 6088SOL     OW18595   3.071   4.249   2.137
 6088SOL    HW118596   3.084   4.165   2.191
 6088SOL    HW218597   3.042   4.323   2.197
 6089SOL     OW18598   2.169   3.937   3.093
 6089SOL    HW118599   2.146   3.974   3.183
 6089SOL    HW218600   2.139   3.842   3.087
 6090SOL     OW18601   1.899   5.034   3.144
 6090SOL    HW118602   1.952   4.985   3.212
 6090SOL    HW218603   1.921   5.132   3.149
 6091SOL     OW18604   2.594   4.358   2.926
 6091SOL    HW118605   2.653   4.332   2.850
 6091SOL    HW218606   2.566   4.454   2.915
 6092SOL     OW18607   3.590   4.659   3.716
 6092SOL    HW118608   3.544   4.652   3.627
 6092SOL    HW218609   3.528   4.703   3.782
 6093SOL     OW18610   2.169   3.787   2.480
 6093SOL    HW118611   2.158   3.881   2.513
 6093SOL    HW218612   2.164   3.724   2.557
 6094SOL     OW18613   3.484   4.091   2.236
 6094SOL    HW118614   3.486   4.015   2.300
 6094SOL    HW218615   3.436   4.168   2.276
 6095SOL     OW18616   2.885   4.490   2.828
 6095SOL    HW118617   2.900   4.511   2.924
 6095SOL    HW218618   2.855   4.395   2.819
 6096SOL     OW18619   3.721   5.242   3.467
 6096SOL    HW118620   3.735   5.269   3.372
 6096SOL    HW218621   3.804   5.264   3.520
 6097SOL     OW18622   2.212   4.622   3.666
 6097SOL    HW118623   2.288   4.666   3.714
 6097SOL    HW218624   2.247   4.575   3.584
 6098SOL     OW18625   3.402   3.998   1.987
 6098SOL    HW118626   3.341   3.923   2.010
 6098SOL    HW218627   3.424   4.050   2.070
 6099SOL     OW18628   3.165   4.562   1.904
 6099SOL    HW118629   3.199   4.469   1.919
 6099SOL    HW218630   3.183   4.589   1.809
 6100SOL     OW18631   2.930   5.057   2.711
 6100SOL    HW118632   2.937   4.973   2.656
 6100SOL    HW218633   2.992   5.126   2.675
 6101SOL     OW18634   2.181   4.534   2.811
 6101SOL    HW118635   2.274   4.570   2.816
 6101SOL    HW218636   2.175   4.449   2.863
 6102SOL     OW18637   2.201   4.233   2.868
 6102SOL    HW118638   2.149   4.150   2.851
 6102SOL    HW218639   2.278   4.238   2.804
 6103SOL     OW18640   3.000   4.104   3.540
 6103SOL    HW118641   2.955   4.167   3.604
 6103SOL    HW218642   3.093   4.135   3.523
 6104SOL     OW18643   3.022   3.931   3.339
 6104SOL    HW118644   3.022   3.995   3.416
 6104SOL    HW218645   3.050   3.979   3.256
 6105SOL     OW18646   1.870   5.050   2.062
 6105SOL    HW118647   1.777   5.071   2.031
 6105SOL    HW218648   1.880   4.951   2.075
 6106SOL     OW18649   2.864   4.520   3.100
 6106SOL    HW118650   2.905   4.488   3.186
 6106SOL    HW218651   2.768   4.493   3.097
 6107SOL     OW18652   1.902   4.268   2.976
 6107SOL    HW118653   1.987   4.235   2.935
 6107SOL    HW218654   1.915   4.283   3.074
 6108SOL     OW18655   2.051   4.244   3.584
 6108SOL    HW118656   2.110   4.204   3.514
 6108SOL    HW218657   1.993   4.315   3.543
 6109SOL     OW18658   3.231   4.674   3.522
 6109SOL    HW118659   3.270   4.763   3.542
 6109SOL    HW218660   3.241   4.654   3.425
 6110SOL     OW18661   2.677   4.296   2.187
 6110SOL    HW118662   2.684   4.207   2.141
 6110SOL    HW218663   2.583   4.330   2.179
 6111SOL     OW18664   3.519   4.328   3.068
 6111SOL    HW118665   3.481   4.259   3.130
 6111SOL    HW218666   3.601   4.292   3.024
 6112SOL     OW18667   2.114   5.288   3.606
 6112SOL    HW118668   2.084   5.345   3.682
 6112SOL    HW218669   2.107   5.191   3.632
 6113SOL     OW18670   2.533   4.188   3.131
 6113SOL    HW118671   2.499   4.099   3.101
 6113SOL    HW218672   2.559   4.242   3.051
 6114SOL     OW18673   2.335   4.224   2.053
 6114SOL    HW118674   2.396   4.304   2.057
 6114SOL    HW218675   2.240   4.255   2.060
 6115SOL     OW18676   2.021   4.861   3.328
 6115SOL    HW118677   2.043   4.800   3.404
 6115SOL    HW218678   2.031   4.812   3.242
 6116SOL     OW18679   3.209   4.783   3.096
 6116SOL    HW118680   3.233   4.720   3.022
 6116SOL    HW218681   3.119   4.823   3.078
 6117SOL     OW18682   3.164   4.579   2.171
 6117SOL    HW118683   3.078   4.548   2.213
 6117SOL    HW218684   3.160   4.565   2.072
 6118SOL     OW18685   1.945   4.982   2.884
 6118SOL    HW118686   1.940   4.981   2.984
 6118SOL    HW218687   1.862   4.941   2.846
 6119SOL     OW18688   2.550   5.386   3.578
 6119SOL    HW118689   2.494   5.467   3.587
 6119SOL    HW218690   2.602   5.390   3.492
 6120SOL     OW18691   3.588   3.859   2.385
 6120SOL    HW118692   3.661   3.842   2.318
 6120SOL    HW218693   3.557   3.772   2.423
 6121SOL     OW18694   3.142   4.651   2.534
 6121SOL    HW118695   3.202   4.570   2.536
 6121SOL    HW218696   3.182   4.720   2.474
 6122SOL     OW18697   2.692   4.997   3.284
 6122SOL    HW118698   2.687   5.030   3.379
 6122SOL    HW218699   2.606   5.016   3.238
 6123SOL     OW18700   3.703   3.899   2.825
 6123SOL    HW118701   3.742   3.814   2.789
 6123SOL    HW218702   3.605   3.901   2.806
 6124SOL     OW18703   2.125   4.050   2.582
 6124SOL    HW118704   2.046   4.101   2.548
 6124SOL    HW218705   2.116   4.035   2.680
 6125SOL     OW18706   2.684   4.726   3.234
 6125SOL    HW118707   2.724   4.725   3.142
 6125SOL    HW218708   2.694   4.818   3.274
 6126SOL     OW18709   2.778   4.634   2.153
 6126SOL    HW118710   2.841   4.672   2.085
 6126SOL    HW218711   2.818   4.551   2.192
 6127SOL     OW18712   2.234   5.012   3.352
 6127SOL    HW118713   2.221   5.105   3.318
 6127SOL    HW218714   2.150   4.960   3.339
 6128SOL     OW18715   3.476   5.016   3.151
 6128SOL    HW118716   3.536   5.019   3.231
 6128SOL    HW218717   3.401   5.080   3.164
 6129SOL     OW18718   2.901   4.822   2.558
 6129SOL    HW118719   2.831   4.775   2.612
 6129SOL    HW218720   2.960   4.754   2.515
 6130SOL     OW18721   2.876   3.960   2.833
 6130SOL    HW118722   2.868   3.924   2.740
 6130SOL    HW218723   2.874   3.884   2.898
 6131SOL     OW18724   3.571   4.109   3.243
 6131SOL    HW118725   3.644   4.178   3.247
 6131SOL    HW218726   3.599   4.034   3.184
 6132SOL     OW18727   2.117   5.072   2.152
 6132SOL    HW118728   2.021   5.073   2.125
 6132SOL    HW218729   2.129   5.125   2.236
 6133SOL     OW18730   1.967   4.737   3.588
 6133SOL    HW118731   1.890   4.704   3.642
 6133SOL    HW218732   2.052   4.707   3.630
 6134SOL     OW18733   2.534   3.927   3.351
 6134SOL    HW118734   2.624   3.911   3.311
 6134SOL    HW218735   2.542   3.932   3.450
 6135SOL     OW18736   1.937   4.069   1.895
 6135SOL    HW118737   1.845   4.041   1.866
 6135SOL    HW218738   1.968   4.146   1.839
 6136SOL     OW18739   3.302   4.580   3.260
 6136SOL    HW118740   3.245   4.632   3.197
 6136SOL    HW218741   3.398   4.592   3.236
 6137SOL     OW18742   1.934   3.890   2.180
 6137SOL    HW118743   1.917   3.973   2.126
 6137SOL    HW218744   2.024   3.853   2.158
 6138SOL     OW18745   3.045   5.059   1.981
 6138SOL    HW118746   2.946   5.048   1.983
 6138SOL    HW218747   3.079   5.074   2.074
 6139SOL     OW18748   2.475   4.566   3.293
 6139SOL    HW118749   2.531   4.647   3.276
 6139SOL    HW218750   2.534   4.486   3.296
 6140SOL     OW18751   2.578   4.289   3.570
 6140SOL    HW118752   2.597   4.354   3.644
 6140SOL    HW218753   2.638   4.209   3.579
 6141SOL     OW18754   3.312   4.944   3.495
 6141SOL    HW118755   3.303   4.934   3.594
 6141SOL    HW218756   3.408   4.937   3.469
 6142SOL     OW18757   3.536   4.607   3.116
 6142SOL    HW118758   3.509   4.518   3.079
 6142SOL    HW218759   3.537   4.675   3.043
 6143SOL     OW18760   3.087   4.049   2.311
 6143SOL    HW118761   3.152   3.975   2.300
 6143SOL    HW218762   3.107   4.099   2.395
 6144SOL     OW18763   2.456   4.469   2.514
 6144SOL    HW118764   2.506   4.554   2.495
 6144SOL    HW218765   2.368   4.471   2.466
 6145SOL     OW18766   3.639   4.066   3.504
 6145SOL    HW118767   3.622   4.097   3.410
 6145SOL    HW218768   3.555   4.029   3.542
 6146SOL     OW18769   3.592   4.658   3.379
 6146SOL    HW118770   3.630   4.749   3.394
 6146SOL    HW218771   3.584   4.641   3.280
 6147SOL     OW18772   2.721   5.098   1.878
 6147SOL    HW118773   2.675   5.113   1.966
 6147SOL    HW218774   2.765   5.183   1.848
 6148SOL     OW18775   2.721   4.680   2.723
 6148SOL    HW118776   2.775   4.611   2.771
 6148SOL    HW218777   2.689   4.749   2.789
 6149SOL     OW18778   2.945   4.708   1.949
 6149SOL    HW118779   2.922   4.761   1.867
 6149SOL    HW218780   3.026   4.652   1.930
 6150SOL     OW18781   2.083   5.038   3.706
 6150SOL    HW118782   2.018   4.965   3.685
 6150SOL    HW218783   2.087   5.052   3.804
 6151SOL     OW18784   1.941   4.964   2.515
 6151SOL    HW118785   1.940   4.917   2.603
 6151SOL    HW218786   2.023   4.936   2.464
 6152SOL     OW18787   2.534   5.115   3.486
 6152SOL    HW118788   2.456   5.065   3.524
 6152SOL    HW218789   2.531   5.210   3.517
 6153SOL     OW18790   3.686   3.916   3.089
 6153SOL    HW118791   3.682   3.826   3.133
 6153SOL    HW218792   3.689   3.905   2.990
 6154SOL     OW18793   2.290   4.148   2.382
 6154SOL    HW118794   2.320   4.076   2.320
 6154SOL    HW218795   2.251   4.108   2.465
 6155SOL     OW18796   3.567   5.211   2.966
 6155SOL    HW118797   3.474   5.186   2.939
 6155SOL    HW218798   3.593   5.161   3.048
 6156SOL     OW18799   2.179   4.271   3.142
 6156SOL    HW118800   2.217   4.212   3.214
 6156SOL    HW218801   2.219   4.245   3.054
 6157SOL     OW18802   3.286   3.938   2.974
 6157SOL    HW118803   3.338   3.873   3.029
 6157SOL    HW218804   3.237   4.001   3.035
 6158SOL     OW18805   2.863   3.758   3.016
 6158SOL    HW118806   2.800   3.686   2.985
 6158SOL    HW218807   2.956   3.722   3.016
 6159SOL     OW18808   2.632   5.054   2.163
 6159SOL    HW118809   2.586   4.967   2.180
 6159SOL    HW218810   2.723   5.051   2.204
 6160SOL     OW18811   2.480   5.291   3.146
 6160SOL    HW118812   2.475   5.373   3.203
 6160SOL    HW218813   2.569   5.288   3.101
 6161SOL     OW18814   3.214   3.776   2.030
 6161SOL    HW118815   3.249   3.735   1.946
 6161SOL    HW218816   3.124   3.738   2.050
 6162SOL     OW18817   3.162   4.177   2.553
 6162SOL    HW118818   3.103   4.257   2.557
 6162SOL    HW218819   3.177   4.142   2.646
 6163SOL     OW18820   3.455   3.945   2.744
 6163SOL    HW118821   3.371   3.944   2.798
 6163SOL    HW218822   3.457   4.028   2.688
 6164SOL     OW18823   1.901   4.801   2.162
 6164SOL    HW118824   2.000   4.790   2.153
 6164SOL    HW218825   1.861   4.715   2.194
 6165SOL     OW18826   2.092   4.352   3.837
 6165SOL    HW118827   1.999   4.350   3.874
 6165SOL    HW218828   2.093   4.313   3.745
 6166SOL     OW18829   2.087   3.999   4.720
 6166SOL    HW118830   2.122   3.982   4.812
 6166SOL    HW218831   1.999   3.954   4.708
 6167SOL     OW18832   1.881   4.092   4.371
 6167SOL    HW118833   1.799   4.135   4.410
 6167SOL    HW218834   1.853   4.019   4.308
 6168SOL     OW18835   2.431   4.999   4.889
 6168SOL    HW118836   2.338   4.992   4.852
 6168SOL    HW218837   2.442   5.088   4.933
 6169SOL     OW18838   3.417   5.235   4.427
 6169SOL    HW118839   3.360   5.219   4.508
 6169SOL    HW218840   3.358   5.245   4.347
 6170SOL     OW18841   2.997   4.427   4.441
 6170SOL    HW118842   3.054   4.505   4.416
 6170SOL    HW218843   2.937   4.453   4.517
 6171SOL     OW18844   3.617   4.331   3.955
 6171SOL    HW118845   3.605   4.318   3.856
 6171SOL    HW218846   3.587   4.250   4.004
 6172SOL     OW18847   2.630   4.868   4.747
 6172SOL    HW118848   2.552   4.885   4.807
 6172SOL    HW218849   2.664   4.955   4.711
 6173SOL     OW18850   2.712   4.522   5.547
 6173SOL    HW118851   2.708   4.598   5.612
 6173SOL    HW218852   2.734   4.558   5.456
 6174SOL     OW18853   2.547   4.736   4.389
 6174SOL    HW118854   2.616   4.720   4.459
 6174SOL    HW218855   2.474   4.793   4.427
 6175SOL     OW18856   2.548   4.885   5.527
 6175SOL    HW118857   2.608   4.964   5.541
 6175SOL    HW218858   2.462   4.916   5.486
 6176SOL     OW18859   2.197   5.159   4.785
 6176SOL    HW118860   2.119   5.128   4.732
 6176SOL    HW218861   2.255   5.217   4.728
 6177SOL     OW18862   3.322   5.229   5.063
 6177SOL    HW118863   3.346   5.323   5.089
 6177SOL    HW218864   3.306   5.175   5.145
 6178SOL     OW18865   2.300   4.116   5.223
 6178SOL    HW118866   2.382   4.060   5.232
 6178SOL    HW218867   2.219   4.058   5.227
 6179SOL     OW18868   3.465   4.171   4.461
 6179SOL    HW118869   3.391   4.217   4.411
 6179SOL    HW218870   3.516   4.239   4.514
 6180SOL     OW18871   2.989   5.065   5.414
 6180SOL    HW118872   3.036   5.065   5.502
 6180SOL    HW218873   2.941   4.978   5.403
 6181SOL     OW18874   2.092   5.158   4.262
 6181SOL    HW118875   2.066   5.254   4.262
 6181SOL    HW218876   2.021   5.104   4.307
 6182SOL     OW18877   2.102   4.815   4.610
 6182SOL    HW118878   2.116   4.731   4.662
 6182SOL    HW218879   2.047   4.879   4.665
 6183SOL     OW18880   2.468   4.688   3.847
 6183SOL    HW118881   2.475   4.772   3.793
 6183SOL    HW218882   2.514   4.701   3.935
 6184SOL     OW18883   3.456   3.838   5.204
 6184SOL    HW118884   3.438   3.905   5.132
 6184SOL    HW218885   3.453   3.884   5.293
 6185SOL     OW18886   1.984   4.367   4.287
 6185SOL    HW118887   1.939   4.279   4.304
 6185SOL    HW218888   1.983   4.421   4.371
 6186SOL     OW18889   1.889   5.320   3.841
 6186SOL    HW118890   1.870   5.224   3.862
 6186SOL    HW218891   1.856   5.378   3.916
 6187SOL     OW18892   3.551   4.646   4.336
 6187SOL    HW118893   3.646   4.617   4.344
 6187SOL    HW218894   3.543   4.711   4.261
 6188SOL     OW18895   3.503   4.832   4.156
 6188SOL    HW118896   3.589   4.834   4.104
 6188SOL    HW218897   3.517   4.879   4.244
 6189SOL     OW18898   1.975   4.461   5.321
 6189SOL    HW118899   2.063   4.448   5.366
 6189SOL    HW218900   1.962   4.558   5.299
 6190SOL     OW18901   2.475   5.089   4.450
 6190SOL    HW118902   2.426   5.002   4.459
 6190SOL    HW218903   2.452   5.132   4.363
 6191SOL     OW18904   3.155   4.952   5.147
 6191SOL    HW118905   3.192   4.879   5.089
 6191SOL    HW218906   3.207   4.957   5.232
 6192SOL     OW18907   2.671   3.728   4.226
 6192SOL    HW118908   2.711   3.819   4.217
 6192SOL    HW218909   2.571   3.736   4.232
 6193SOL     OW18910   2.059   4.700   4.988
 6193SOL    HW118911   2.148   4.655   4.974
 6193SOL    HW218912   1.986   4.635   4.969
 6194SOL     OW18913   3.387   4.723   3.914
 6194SOL    HW118914   3.324   4.647   3.927
 6194SOL    HW218915   3.435   4.741   4.000
 6195SOL     OW18916   2.179   3.975   5.525
 6195SOL    HW118917   2.250   4.046   5.531
 6195SOL    HW218918   2.091   4.014   5.553
 6196SOL     OW18919   3.328   5.141   4.677
 6196SOL    HW118920   3.269   5.147   4.757
 6196SOL    HW218921   3.313   5.053   4.631
 6197SOL     OW18922   2.460   4.453   3.994
 6197SOL    HW118923   2.484   4.522   3.926
 6197SOL    HW218924   2.382   4.486   4.048
 6198SOL     OW18925   3.143   4.069   4.668
 6198SOL    HW118926   3.057   4.019   4.655
 6198SOL    HW218927   3.205   4.015   4.724
 6199SOL     OW18928   2.669   4.329   5.189
 6199SOL    HW118929   2.622   4.326   5.278
 6199SOL    HW218930   2.618   4.274   5.123
 6200SOL     OW18931   3.256   4.193   5.398
 6200SOL    HW118932   3.236   4.236   5.486
 6200SOL    HW218933   3.334   4.131   5.407
 6201SOL     OW18934   2.835   4.614   5.296
 6201SOL    HW118935   2.881   4.530   5.267
 6201SOL    HW218936   2.779   4.648   5.221
 6202SOL     OW18937   2.853   4.134   4.966
 6202SOL    HW118938   2.776   4.168   5.020
 6202SOL    HW218939   2.819   4.083   4.887
 6203SOL     OW18940   2.903   4.425   4.153
 6203SOL    HW118941   2.929   4.421   4.249
 6203SOL    HW218942   2.818   4.374   4.139
 6204SOL     OW18943   1.938   4.535   4.513
 6204SOL    HW118944   2.037   4.523   4.522
 6204SOL    HW218945   1.914   4.630   4.534
 6205SOL     OW18946   2.727   4.072   3.919
 6205SOL    HW118947   2.786   4.135   3.870
 6205SOL    HW218948   2.746   3.978   3.890
 6206SOL     OW18949   3.581   4.309   5.555
 6206SOL    HW118950   3.555   4.398   5.519
 6206SOL    HW218951   3.579   4.241   5.482
 6207SOL     OW18952   3.224   4.868   4.269
 6207SOL    HW118953   3.307   4.839   4.221
 6207SOL    HW218954   3.175   4.935   4.213
 6208SOL     OW18955   2.412   3.920   4.609
 6208SOL    HW118956   2.407   3.915   4.709
 6208SOL    HW218957   2.414   4.016   4.580
 6209SOL     OW18958   2.870   5.180   4.201
 6209SOL    HW118959   2.824   5.252   4.149
 6209SOL    HW218960   2.866   5.200   4.299
 6210SOL     OW18961   3.657   4.790   4.597
 6210SOL    HW118962   3.595   4.775   4.521
 6210SOL    HW218963   3.605   4.801   4.682
 6211SOL     OW18964   3.089   5.274   5.230
 6211SOL    HW118965   3.095   5.197   5.294
 6211SOL    HW218966   3.037   5.248   5.150
 6212SOL     OW18967   2.183   4.667   3.966
 6212SOL    HW118968   2.265   4.706   3.924
 6212SOL    HW218969   2.156   4.585   3.917
 6213SOL     OW18970   3.320   4.459   4.452
 6213SOL    HW118971   3.315   4.394   4.527
 6213SOL    HW218972   3.400   4.518   4.465
 6214SOL     OW18973   2.323   4.990   5.451
 6214SOL    HW118974   2.273   4.991   5.365
 6214SOL    HW218975   2.260   4.972   5.527
 6215SOL     OW18976   2.973   5.500   3.961
 6215SOL    HW118977   2.913   5.438   4.011
 6215SOL    HW218978   3.004   5.456   3.876
 6216SOL     OW18979   2.064   4.009   5.222
 6216SOL    HW118980   1.984   4.069   5.209
 6216SOL    HW218981   2.054   3.960   5.308
 6217SOL     OW18982   3.494   5.101   3.805
 6217SOL    HW118983   3.462   5.195   3.795
 6217SOL    HW218984   3.418   5.038   3.793
 6218SOL     OW18985   3.262   3.831   4.150
 6218SOL    HW118986   3.238   3.794   4.060
 6218SOL    HW218987   3.361   3.847   4.154
 6219SOL     OW18988   2.244   4.424   4.204
 6219SOL    HW118989   2.289   4.334   4.201
 6219SOL    HW218990   2.150   4.413   4.237
 6220SOL     OW18991   3.409   3.946   5.453
 6220SOL    HW118992   3.404   3.983   5.545
 6220SOL    HW218993   3.337   3.877   5.441
 6221SOL     OW18994   2.476   3.846   3.841
 6221SOL    HW118995   2.574   3.824   3.848
 6221SOL    HW218996   2.445   3.829   3.748
 6222SOL     OW18997   2.643   3.988   5.473
 6222SOL    HW118998   2.710   3.927   5.516
 6222SOL    HW218999   2.570   4.007   5.538
 6223SOL     OW19000   3.213   4.314   5.157
 6223SOL    HW119001   3.241   4.271   5.242
 6223SOL    HW219002   3.238   4.410   5.158
 6224SOL     OW19003   2.665   5.126   4.648
 6224SOL    HW119004   2.755   5.140   4.606
 6224SOL    HW219005   2.594   5.128   4.577
 6225SOL     OW19006   2.784   4.227   4.623
 6225SOL    HW119007   2.759   4.218   4.527
 6225SOL    HW219008   2.832   4.145   4.654
 6226SOL     OW19009   2.401   3.788   4.236
 6226SOL    HW119010   2.320   3.789   4.294
 6226SOL    HW219011   2.404   3.871   4.181
 6227SOL     OW19012   3.296   4.912   3.765
 6227SOL    HW119013   3.328   4.836   3.822
 6227SOL    HW219014   3.204   4.939   3.795
 6228SOL     OW19015   2.159   3.759   3.895
 6228SOL    HW119016   2.208   3.843   3.874
 6228SOL    HW219017   2.221   3.694   3.940
 6229SOL     OW19018   2.797   3.960   4.204
 6229SOL    HW119019   2.749   4.001   4.126
 6229SOL    HW219020   2.896   3.958   4.185
 6230SOL     OW19021   2.938   4.407   5.188
 6230SOL    HW119022   2.858   4.346   5.191
 6230SOL    HW219023   3.019   4.354   5.164
 6231SOL     OW19024   3.089   5.294   4.517
 6231SOL    HW119025   3.110   5.368   4.452
 6231SOL    HW219026   3.157   5.294   4.590
 6232SOL     OW19027   2.321   4.876   4.465
 6232SOL    HW119028   2.250   4.849   4.530
 6232SOL    HW219029   2.295   4.848   4.372
 6233SOL     OW19030   2.894   4.273   3.740
 6233SOL    HW119031   2.853   4.355   3.701
 6233SOL    HW219032   2.958   4.299   3.813
 6234SOL     OW19033   1.940   4.280   5.110
 6234SOL    HW119034   2.032   4.279   5.069
 6234SOL    HW219035   1.934   4.354   5.177
 6235SOL     OW19036   2.423   3.946   4.871
 6235SOL    HW119037   2.461   3.862   4.908
 6235SOL    HW219038   2.335   3.965   4.915
 6236SOL     OW19039   2.728   4.178   4.366
 6236SOL    HW119040   2.696   4.250   4.304
 6236SOL    HW219041   2.752   4.097   4.313
 6237SOL     OW19042   2.879   3.763   4.477
 6237SOL    HW119043   2.807   3.768   4.408
 6237SOL    HW219044   2.855   3.694   4.546
 6238SOL     OW19045   3.291   4.897   4.591
 6238SOL    HW119046   3.236   4.813   4.584
 6238SOL    HW219047   3.317   4.926   4.499
 6239SOL     OW19048   3.328   4.314   4.716
 6239SOL    HW119049   3.298   4.219   4.723
 6239SOL    HW219050   3.401   4.330   4.782
 6240SOL     OW19051   3.719   4.557   4.101
 6240SOL    HW119052   3.761   4.493   4.165
 6240SOL    HW219053   3.681   4.506   4.023
 6241SOL     OW19054   2.350   5.109   3.898
 6241SOL    HW119055   2.263   5.094   3.945
 6241SOL    HW219056   2.333   5.135   3.803
 6242SOL     OW19057   3.526   5.004   4.381
 6242SOL    HW119058   3.625   5.012   4.395
 6242SOL    HW219059   3.481   5.088   4.412
 6243SOL     OW19060   3.252   4.299   3.802
 6243SOL    HW119061   3.198   4.278   3.883
 6243SOL    HW219062   3.343   4.258   3.811
 6244SOL     OW19063   2.389   3.980   4.052
 6244SOL    HW119064   2.416   3.921   3.977
 6244SOL    HW219065   2.389   4.075   4.021
 6245SOL     OW19066   3.616   4.947   5.312
 6245SOL    HW119067   3.707   4.908   5.299
 6245SOL    HW219068   3.624   5.043   5.336
 6246SOL     OW19069   2.926   5.071   5.064
 6246SOL    HW119070   2.846   5.048   5.119
 6246SOL    HW219071   3.009   5.045   5.113
 6247SOL     OW19072   2.973   4.919   4.824
 6247SOL    HW119073   2.933   4.963   4.905
 6247SOL    HW219074   2.932   4.956   4.741
 6248SOL     OW19075   3.500   4.823   4.803
 6248SOL    HW119076   3.505   4.904   4.862
 6248SOL    HW219077   3.414   4.825   4.752
 6249SOL     OW19078   2.777   3.813   5.126
 6249SOL    HW119079   2.802   3.793   5.031
 6249SOL    HW219080   2.849   3.869   5.168
 6250SOL     OW19081   2.842   4.840   5.443
 6250SOL    HW119082   2.743   4.846   5.453
 6250SOL    HW219083   2.865   4.760   5.387
 6251SOL     OW19084   2.567   4.774   4.092
 6251SOL    HW119085   2.553   4.781   4.191
 6251SOL    HW219086   2.651   4.723   4.074
 6252SOL     OW19087   2.272   4.537   4.975
 6252SOL    HW119088   2.358   4.549   5.025
 6252SOL    HW219089   2.230   4.450   5.002
 6253SOL     OW19090   3.136   4.110   4.986
 6253SOL    HW119091   3.157   4.184   5.050
 6253SOL    HW219092   3.047   4.127   4.943
 6254SOL     OW19093   2.229   4.824   4.225
 6254SOL    HW119094   2.222   4.907   4.169
 6254SOL    HW219095   2.233   4.744   4.165
 6255SOL     OW19096   2.428   4.261   4.589
 6255SOL    HW119097   2.440   4.327   4.515
 6255SOL    HW219098   2.474   4.295   4.672
 6256SOL     OW19099   3.114   5.072   4.112
 6256SOL    HW119100   3.164   5.149   4.152
 6256SOL    HW219101   3.019   5.074   4.144
 6257SOL     OW19102   3.134   5.169   4.866
 6257SOL    HW119103   3.181   5.182   4.953
 6257SOL    HW219104   3.068   5.095   4.875
 6258SOL     OW19105   3.444   4.363   4.196
 6258SOL    HW119106   3.413   4.424   4.269
 6258SOL    HW219107   3.494   4.415   4.127
 6259SOL     OW19108   2.216   5.234   5.053
 6259SOL    HW119109   2.195   5.190   4.966
 6259SOL    HW219110   2.313   5.260   5.056
 6260SOL     OW19111   2.264   4.475   5.322
 6260SOL    HW119112   2.332   4.530   5.275
 6260SOL    HW219113   2.304   4.387   5.349
 6261SOL     OW19114   3.449   4.503   5.394
 6261SOL    HW119115   3.357   4.541   5.389
 6261SOL    HW219116   3.509   4.550   5.329
 6262SOL     OW19117   2.875   3.829   5.494
 6262SOL    HW119118   2.881   3.914   5.442
 6262SOL    HW219119   2.907   3.753   5.437
 6263SOL     OW19120   2.366   3.774   5.464
 6263SOL    HW119121   2.324   3.717   5.394
 6263SOL    HW219122   2.300   3.843   5.496
 6264SOL     OW19123   2.435   4.594   4.753
 6264SOL    HW119124   2.479   4.683   4.744
 6264SOL    HW219125   2.372   4.594   4.830
 6265SOL     OW19126   3.222   4.586   4.769
 6265SOL    HW119127   3.147   4.586   4.703
 6265SOL    HW219128   3.259   4.494   4.778
 6266SOL     OW19129   3.071   4.249   3.999
 6266SOL    HW119130   3.084   4.165   4.053
 6266SOL    HW219131   3.042   4.323   4.059
 6267SOL     OW19132   2.169   3.937   4.955
 6267SOL    HW119133   2.146   3.974   5.045
 6267SOL    HW219134   2.139   3.842   4.949
 6268SOL     OW19135   1.899   5.034   5.006
 6268SOL    HW119136   1.952   4.985   5.074
 6268SOL    HW219137   1.921   5.132   5.011
 6269SOL     OW19138   2.594   4.358   4.788
 6269SOL    HW119139   2.653   4.332   4.712
 6269SOL    HW219140   2.566   4.454   4.777
 6270SOL     OW19141   3.590   4.659   5.578
 6270SOL    HW119142   3.544   4.652   5.489
 6270SOL    HW219143   3.528   4.703   5.644
 6271SOL     OW19144   2.169   3.787   4.342
 6271SOL    HW119145   2.158   3.881   4.375
 6271SOL    HW219146   2.164   3.724   4.419
 6272SOL     OW19147   3.484   4.091   4.098
 6272SOL    HW119148   3.486   4.015   4.162
 6272SOL    HW219149   3.436   4.168   4.138
 6273SOL     OW19150   2.885   4.490   4.690
 6273SOL    HW119151   2.900   4.511   4.786
 6273SOL    HW219152   2.855   4.395   4.681
 6274SOL     OW19153   3.721   5.242   5.329
 6274SOL    HW119154   3.735   5.269   5.234
 6274SOL    HW219155   3.804   5.264   5.382
 6275SOL     OW19156   2.212   4.622   5.528
 6275SOL    HW119157   2.288   4.666   5.576
 6275SOL    HW219158   2.247   4.575   5.446
 6276SOL     OW19159   3.402   3.998   3.849
 6276SOL    HW119160   3.341   3.923   3.872
 6276SOL    HW219161   3.424   4.050   3.932
 6277SOL     OW19162   3.165   4.562   3.766
 6277SOL    HW119163   3.199   4.469   3.781
 6277SOL    HW219164   3.183   4.589   3.671
 6278SOL     OW19165   2.930   5.057   4.573
 6278SOL    HW119166   2.937   4.973   4.518
 6278SOL    HW219167   2.992   5.126   4.537
 6279SOL     OW19168   2.181   4.534   4.673
 6279SOL    HW119169   2.274   4.570   4.678
 6279SOL    HW219170   2.175   4.449   4.725
 6280SOL     OW19171   2.201   4.233   4.730
 6280SOL    HW119172   2.149   4.150   4.713
 6280SOL    HW219173   2.278   4.238   4.666
 6281SOL     OW19174   3.000   4.104   5.402
 6281SOL    HW119175   2.955   4.167   5.466
 6281SOL    HW219176   3.093   4.135   5.385
 6282SOL     OW19177   3.022   3.931   5.201
 6282SOL    HW119178   3.022   3.995   5.278
 6282SOL    HW219179   3.050   3.979   5.118
 6283SOL     OW19180   1.870   5.050   3.924
 6283SOL    HW119181   1.777   5.071   3.893
 6283SOL    HW219182   1.880   4.951   3.937
 6284SOL     OW19183   2.864   4.520   4.962
 6284SOL    HW119184   2.905   4.488   5.048
 6284SOL    HW219185   2.768   4.493   4.959
 6285SOL     OW19186   1.902   4.268   4.838
 6285SOL    HW119187   1.987   4.235   4.797
 6285SOL    HW219188   1.915   4.283   4.936
 6286SOL     OW19189   2.051   4.244   5.446
 6286SOL    HW119190   2.110   4.204   5.376
 6286SOL    HW219191   1.993   4.315   5.405
 6287SOL     OW19192   3.231   4.674   5.384
 6287SOL    HW119193   3.270   4.763   5.404
 6287SOL    HW219194   3.241   4.654   5.287
 6288SOL     OW19195   2.677   4.296   4.049
 6288SOL    HW119196   2.684   4.207   4.003
 6288SOL    HW219197   2.583   4.330   4.041
 6289SOL     OW19198   3.519   4.328   4.930
 6289SOL    HW119199   3.481   4.259   4.992
 6289SOL    HW219200   3.601   4.292   4.886
 6290SOL     OW19201   2.114   5.288   5.468
 6290SOL    HW119202   2.084   5.345   5.544
 6290SOL    HW219203   2.107   5.191   5.494
 6291SOL     OW19204   2.533   4.188   4.993
 6291SOL    HW119205   2.499   4.099   4.963
 6291SOL    HW219206   2.559   4.242   4.913
 6292SOL     OW19207   2.335   4.224   3.915
 6292SOL    HW119208   2.396   4.304   3.919
 6292SOL    HW219209   2.240   4.255   3.922
 6293SOL     OW19210   2.021   4.861   5.190
 6293SOL    HW119211   2.043   4.800   5.266
 6293SOL    HW219212   2.031   4.812   5.104
 6294SOL     OW19213   3.209   4.783   4.958
 6294SOL    HW119214   3.233   4.720   4.884
 6294SOL    HW219215   3.119   4.823   4.940
 6295SOL     OW19216   3.164   4.579   4.033
 6295SOL    HW119217   3.078   4.548   4.075
 6295SOL    HW219218   3.160   4.565   3.934
 6296SOL     OW19219   1.945   4.982   4.746
 6296SOL    HW119220   1.940   4.981   4.846
 6296SOL    HW219221   1.862   4.941   4.708
 6297SOL     OW19222   2.550   5.386   5.440
 6297SOL    HW119223   2.494   5.467   5.449
 6297SOL    HW219224   2.602   5.390   5.354
 6298SOL     OW19225   3.588   3.859   4.247
 6298SOL    HW119226   3.661   3.842   4.180
 6298SOL    HW219227   3.557   3.772   4.285
 6299SOL     OW19228   3.142   4.651   4.396
 6299SOL    HW119229   3.202   4.570   4.398
 6299SOL    HW219230   3.182   4.720   4.336
 6300SOL     OW19231   2.692   4.997   5.146
 6300SOL    HW119232   2.687   5.030   5.241
 6300SOL    HW219233   2.606   5.016   5.100
 6301SOL     OW19234   3.703   3.899   4.687
 6301SOL    HW119235   3.742   3.814   4.651
 6301SOL    HW219236   3.605   3.901   4.668
 6302SOL     OW19237   2.125   4.050   4.444
 6302SOL    HW119238   2.046   4.101   4.410
 6302SOL    HW219239   2.116   4.035   4.542
 6303SOL     OW19240   2.684   4.726   5.096
 6303SOL    HW119241   2.724   4.725   5.004
 6303SOL    HW219242   2.694   4.818   5.136
 6304SOL     OW19243   2.778   4.634   4.015
 6304SOL    HW119244   2.841   4.672   3.947
 6304SOL    HW219245   2.818   4.551   4.054
 6305SOL     OW19246   2.234   5.012   5.214
 6305SOL    HW119247   2.221   5.105   5.180
 6305SOL    HW219248   2.150   4.960   5.201
 6306SOL     OW19249   3.476   5.016   5.013
 6306SOL    HW119250   3.536   5.019   5.093
 6306SOL    HW219251   3.401   5.080   5.026
 6307SOL     OW19252   2.901   4.822   4.420
 6307SOL    HW119253   2.831   4.775   4.474
 6307SOL    HW219254   2.960   4.754   4.377
 6308SOL     OW19255   2.876   3.960   4.695
 6308SOL    HW119256   2.868   3.924   4.602
 6308SOL    HW219257   2.874   3.884   4.760
 6309SOL     OW19258   3.571   4.109   5.105
 6309SOL    HW119259   3.644   4.178   5.109
 6309SOL    HW219260   3.599   4.034   5.046
 6310SOL     OW19261   2.117   5.072   4.014
 6310SOL    HW119262   2.021   5.073   3.987
 6310SOL    HW219263   2.129   5.125   4.098
 6311SOL     OW19264   1.967   4.737   5.450
 6311SOL    HW119265   1.890   4.704   5.504
 6311SOL    HW219266   2.052   4.707   5.492
 6312SOL     OW19267   2.534   3.927   5.213
 6312SOL    HW119268   2.624   3.911   5.173
 6312SOL    HW219269   2.542   3.932   5.312
 6313SOL     OW19270   1.937   4.069   3.757
 6313SOL    HW119271   1.845   4.041   3.728
 6313SOL    HW219272   1.968   4.146   3.701
 6314SOL     OW19273   3.302   4.580   5.122
 6314SOL    HW119274   3.245   4.632   5.059
 6314SOL    HW219275   3.398   4.592   5.098
 6315SOL     OW19276   1.934   3.890   4.042
 6315SOL    HW119277   1.917   3.973   3.988
 6315SOL    HW219278   2.024   3.853   4.020
 6316SOL     OW19279   3.045   5.059   3.843
 6316SOL    HW119280   2.946   5.048   3.845
 6316SOL    HW219281   3.079   5.074   3.936
 6317SOL     OW19282   2.475   4.566   5.155
 6317SOL    HW119283   2.531   4.647   5.138
 6317SOL    HW219284   2.534   4.486   5.158
 6318SOL     OW19285   2.578   4.289   5.432
 6318SOL    HW119286   2.597   4.354   5.506
 6318SOL    HW219287   2.638   4.209   5.441
 6319SOL     OW19288   3.312   4.944   5.357
 6319SOL    HW119289   3.303   4.934   5.456
 6319SOL    HW219290   3.408   4.937   5.331
 6320SOL     OW19291   3.536   4.607   4.978
 6320SOL    HW119292   3.509   4.518   4.941
 6320SOL    HW219293   3.537   4.675   4.905
 6321SOL     OW19294   3.087   4.049   4.173
 6321SOL    HW119295   3.152   3.975   4.162
 6321SOL    HW219296   3.107   4.099   4.257
 6322SOL     OW19297   2.456   4.469   4.376
 6322SOL    HW119298   2.506   4.554   4.357
 6322SOL    HW219299   2.368   4.471   4.328
 6323SOL     OW19300   3.639   4.066   5.366
 6323SOL    HW119301   3.622   4.097   5.272
 6323SOL    HW219302   3.555   4.029   5.404
 6324SOL     OW19303   3.592   4.658   5.241
 6324SOL    HW119304   3.630   4.749   5.256
 6324SOL    HW219305   3.584   4.641   5.142
 6325SOL     OW19306   2.721   5.098   3.740
 6325SOL    HW119307   2.675   5.113   3.828
 6325SOL    HW219308   2.765   5.183   3.710
 6326SOL     OW19309   2.721   4.680   4.585
 6326SOL    HW119310   2.775   4.611   4.633
 6326SOL    HW219311   2.689   4.749   4.651
 6327SOL     OW19312   2.945   4.708   3.811
 6327SOL    HW119313   2.922   4.761   3.729
 6327SOL    HW219314   3.026   4.652   3.792
 6328SOL     OW19315   2.083   5.038   5.568
 6328SOL    HW119316   2.018   4.965   5.547
 6328SOL    HW219317   2.087   5.052   5.666
 6329SOL     OW19318   1.941   4.964   4.377
 6329SOL    HW119319   1.940   4.917   4.465
 6329SOL    HW219320   2.023   4.936   4.326
 6330SOL     OW19321   2.534   5.115   5.348
 6330SOL    HW119322   2.456   5.065   5.386
 6330SOL    HW219323   2.531   5.210   5.379
 6331SOL     OW19324   3.686   3.916   4.951
 6331SOL    HW119325   3.682   3.826   4.995
 6331SOL    HW219326   3.689   3.905   4.852
 6332SOL     OW19327   2.290   4.148   4.244
 6332SOL    HW119328   2.320   4.076   4.182
 6332SOL    HW219329   2.251   4.108   4.327
 6333SOL     OW19330   3.567   5.211   4.828
 6333SOL    HW119331   3.474   5.186   4.801
 6333SOL    HW219332   3.593   5.161   4.910
 6334SOL     OW19333   2.179   4.271   5.004
 6334SOL    HW119334   2.217   4.212   5.076
 6334SOL    HW219335   2.219   4.245   4.916
 6335SOL     OW19336   3.286   3.938   4.836
 6335SOL    HW119337   3.338   3.873   4.891
 6335SOL    HW219338   3.237   4.001   4.897
 6336SOL     OW19339   2.863   3.758   4.878
 6336SOL    HW119340   2.800   3.686   4.847
 6336SOL    HW219341   2.956   3.722   4.878
 6337SOL     OW19342   2.632   5.054   4.025
 6337SOL    HW119343   2.586   4.967   4.042
 6337SOL    HW219344   2.723   5.051   4.066
 6338SOL     OW19345   2.480   5.291   5.008
 6338SOL    HW119346   2.475   5.373   5.065
 6338SOL    HW219347   2.569   5.288   4.963
 6339SOL     OW19348   3.214   3.776   3.892
 6339SOL    HW119349   3.249   3.735   3.808
 6339SOL    HW219350   3.124   3.738   3.912
 6340SOL     OW19351   3.162   4.177   4.415
 6340SOL    HW119352   3.103   4.257   4.419
 6340SOL    HW219353   3.177   4.142   4.508
 6341SOL     OW19354   3.455   3.945   4.606
 6341SOL    HW119355   3.371   3.944   4.660
 6341SOL    HW219356   3.457   4.028   4.550
 6342SOL     OW19357   1.901   4.801   4.024
 6342SOL    HW119358   2.000   4.790   4.015
 6342SOL    HW219359   1.861   4.715   4.056
 6343SOL     OW19360   2.092   4.352   5.699
 6343SOL    HW119361   1.999   4.350   5.736
 6343SOL    HW219362   2.093   4.313   5.607
 6344SOL     OW19363   2.087   3.999   6.582
 6344SOL    HW119364   2.122   3.982   6.674
 6344SOL    HW219365   1.999   3.954   6.570
 6345SOL     OW19366   1.881   4.092   6.233
 6345SOL    HW119367   1.799   4.135   6.272
 6345SOL    HW219368   1.853   4.019   6.170
 6346SOL     OW19369   2.431   4.999   6.751
 6346SOL    HW119370   2.338   4.992   6.714
 6346SOL    HW219371   2.442   5.088   6.795
 6347SOL     OW19372   3.417   5.235   6.289
 6347SOL    HW119373   3.360   5.219   6.370
 6347SOL    HW219374   3.358   5.245   6.209
 6348SOL     OW19375   2.997   4.427   6.303
 6348SOL    HW119376   3.054   4.505   6.278
 6348SOL    HW219377   2.937   4.453   6.379
 6349SOL     OW19378   3.617   4.331   5.817
 6349SOL    HW119379   3.605   4.318   5.718
 6349SOL    HW219380   3.587   4.250   5.866
 6350SOL     OW19381   2.630   4.868   6.609
 6350SOL    HW119382   2.552   4.885   6.669
 6350SOL    HW219383   2.664   4.955   6.573
 6351SOL     OW19384   2.712   4.522   7.409
 6351SOL    HW119385   2.708   4.598   7.474
 6351SOL    HW219386   2.734   4.558   7.318
 6352SOL     OW19387   2.547   4.736   6.251
 6352SOL    HW119388   2.616   4.720   6.321
 6352SOL    HW219389   2.474   4.793   6.289
 6353SOL     OW19390   2.548   4.885   7.389
 6353SOL    HW119391   2.608   4.964   7.403
 6353SOL    HW219392   2.462   4.916   7.348
 6354SOL     OW19393   2.197   5.159   6.647
 6354SOL    HW119394   2.119   5.128   6.594
 6354SOL    HW219395   2.255   5.217   6.590
 6355SOL     OW19396   3.322   5.229   6.925
 6355SOL    HW119397   3.346   5.323   6.951
 6355SOL    HW219398   3.306   5.175   7.007
 6356SOL     OW19399   2.300   4.116   7.085
 6356SOL    HW119400   2.382   4.060   7.094
 6356SOL    HW219401   2.219   4.058   7.089
 6357SOL     OW19402   3.465   4.171   6.323
 6357SOL    HW119403   3.391   4.217   6.273
 6357SOL    HW219404   3.516   4.239   6.376
 6358SOL     OW19405   2.989   5.065   7.276
 6358SOL    HW119406   3.036   5.065   7.364
 6358SOL    HW219407   2.941   4.978   7.265
 6359SOL     OW19408   2.092   5.158   6.124
 6359SOL    HW119409   2.066   5.254   6.124
 6359SOL    HW219410   2.021   5.104   6.169
 6360SOL     OW19411   2.102   4.815   6.472
 6360SOL    HW119412   2.116   4.731   6.524
 6360SOL    HW219413   2.047   4.879   6.527
 6361SOL     OW19414   2.468   4.688   5.709
 6361SOL    HW119415   2.475   4.772   5.655
 6361SOL    HW219416   2.514   4.701   5.797
 6362SOL     OW19417   3.456   3.838   7.066
 6362SOL    HW119418   3.438   3.905   6.994
 6362SOL    HW219419   3.453   3.884   7.155
 6363SOL     OW19420   1.984   4.367   6.149
 6363SOL    HW119421   1.939   4.279   6.166
 6363SOL    HW219422   1.983   4.421   6.233
 6364SOL     OW19423   1.889   5.320   5.703
 6364SOL    HW119424   1.870   5.224   5.724
 6364SOL    HW219425   1.856   5.378   5.778
 6365SOL     OW19426   3.551   4.646   6.198
 6365SOL    HW119427   3.646   4.617   6.206
 6365SOL    HW219428   3.543   4.711   6.123
 6366SOL     OW19429   3.503   4.832   6.018
 6366SOL    HW119430   3.589   4.834   5.966
 6366SOL    HW219431   3.517   4.879   6.106
 6367SOL     OW19432   1.975   4.461   7.183
 6367SOL    HW119433   2.063   4.448   7.228
 6367SOL    HW219434   1.962   4.558   7.161
 6368SOL     OW19435   2.475   5.089   6.312
 6368SOL    HW119436   2.426   5.002   6.321
 6368SOL    HW219437   2.452   5.132   6.225
 6369SOL     OW19438   3.155   4.952   7.009
 6369SOL    HW119439   3.192   4.879   6.951
 6369SOL    HW219440   3.207   4.957   7.094
 6370SOL     OW19441   2.671   3.728   6.088
 6370SOL    HW119442   2.711   3.819   6.079
 6370SOL    HW219443   2.571   3.736   6.094
 6371SOL     OW19444   2.059   4.700   6.850
 6371SOL    HW119445   2.148   4.655   6.836
 6371SOL    HW219446   1.986   4.635   6.831
 6372SOL     OW19447   3.387   4.723   5.776
 6372SOL    HW119448   3.324   4.647   5.789
 6372SOL    HW219449   3.435   4.741   5.862
 6373SOL     OW19450   2.179   3.975   7.387
 6373SOL    HW119451   2.250   4.046   7.393
 6373SOL    HW219452   2.091   4.014   7.415
 6374SOL     OW19453   3.328   5.141   6.539
 6374SOL    HW119454   3.269   5.147   6.619
 6374SOL    HW219455   3.313   5.053   6.493
 6375SOL     OW19456   2.460   4.453   5.856
 6375SOL    HW119457   2.484   4.522   5.788
 6375SOL    HW219458   2.382   4.486   5.910
 6376SOL     OW19459   3.143   4.069   6.530
 6376SOL    HW119460   3.057   4.019   6.517
 6376SOL    HW219461   3.205   4.015   6.586
 6377SOL     OW19462   2.669   4.329   7.051
 6377SOL    HW119463   2.622   4.326   7.140
 6377SOL    HW219464   2.618   4.274   6.985
 6378SOL     OW19465   3.256   4.193   7.260
 6378SOL    HW119466   3.236   4.236   7.348
 6378SOL    HW219467   3.334   4.131   7.269
 6379SOL     OW19468   2.835   4.614   7.158
 6379SOL    HW119469   2.881   4.530   7.129
 6379SOL    HW219470   2.779   4.648   7.083
 6380SOL     OW19471   2.853   4.134   6.828
 6380SOL    HW119472   2.776   4.168   6.882
 6380SOL    HW219473   2.819   4.083   6.749
 6381SOL     OW19474   2.903   4.425   6.015
 6381SOL    HW119475   2.929   4.421   6.111
 6381SOL    HW219476   2.818   4.374   6.001
 6382SOL     OW19477   1.938   4.535   6.375
 6382SOL    HW119478   2.037   4.523   6.384
 6382SOL    HW219479   1.914   4.630   6.396
 6383SOL     OW19480   2.727   4.072   5.781
 6383SOL    HW119481   2.786   4.135   5.732
 6383SOL    HW219482   2.746   3.978   5.752
 6384SOL     OW19483   3.581   4.309   7.417
 6384SOL    HW119484   3.555   4.398   7.381
 6384SOL    HW219485   3.579   4.241   7.344
 6385SOL     OW19486   3.224   4.868   6.131
 6385SOL    HW119487   3.307   4.839   6.083
 6385SOL    HW219488   3.175   4.935   6.075
 6386SOL     OW19489   2.412   3.920   6.471
 6386SOL    HW119490   2.407   3.915   6.571
 6386SOL    HW219491   2.414   4.016   6.442
 6387SOL     OW19492   2.870   5.180   6.063
 6387SOL    HW119493   2.824   5.252   6.011
 6387SOL    HW219494   2.866   5.200   6.161
 6388SOL     OW19495   3.657   4.790   6.459
 6388SOL    HW119496   3.595   4.775   6.383
 6388SOL    HW219497   3.605   4.801   6.544
 6389SOL     OW19498   3.089   5.274   7.092
 6389SOL    HW119499   3.095   5.197   7.156
 6389SOL    HW219500   3.037   5.248   7.012
 6390SOL     OW19501   2.183   4.667   5.828
 6390SOL    HW119502   2.265   4.706   5.786
 6390SOL    HW219503   2.156   4.585   5.779
 6391SOL     OW19504   3.320   4.459   6.314
 6391SOL    HW119505   3.315   4.394   6.389
 6391SOL    HW219506   3.400   4.518   6.327
 6392SOL     OW19507   2.323   4.990   7.313
 6392SOL    HW119508   2.273   4.991   7.227
 6392SOL    HW219509   2.260   4.972   7.389
 6393SOL     OW19510   2.973   5.500   5.823
 6393SOL    HW119511   2.913   5.438   5.873
 6393SOL    HW219512   3.004   5.456   5.738
 6394SOL     OW19513   2.064   4.009   7.084
 6394SOL    HW119514   1.984   4.069   7.071
 6394SOL    HW219515   2.054   3.960   7.170
 6395SOL     OW19516   3.494   5.101   5.667
 6395SOL    HW119517   3.462   5.195   5.657
 6395SOL    HW219518   3.418   5.038   5.655
 6396SOL     OW19519   3.262   3.831   6.012
 6396SOL    HW119520   3.238   3.794   5.922
 6396SOL    HW219521   3.361   3.847   6.016
 6397SOL     OW19522   2.244   4.424   6.066
 6397SOL    HW119523   2.289   4.334   6.063
 6397SOL    HW219524   2.150   4.413   6.099
 6398SOL     OW19525   3.409   3.946   7.315
 6398SOL    HW119526   3.404   3.983   7.407
 6398SOL    HW219527   3.337   3.877   7.303
 6399SOL     OW19528   2.476   3.846   5.703
 6399SOL    HW119529   2.574   3.824   5.710
 6399SOL    HW219530   2.445   3.829   5.610
 6400SOL     OW19531   2.643   3.988   7.335
 6400SOL    HW119532   2.710   3.927   7.378
 6400SOL    HW219533   2.570   4.007   7.400
 6401SOL     OW19534   3.213   4.314   7.019
 6401SOL    HW119535   3.241   4.271   7.104
 6401SOL    HW219536   3.238   4.410   7.020
 6402SOL     OW19537   2.665   5.126   6.510
 6402SOL    HW119538   2.755   5.140   6.468
 6402SOL    HW219539   2.594   5.128   6.439
 6403SOL     OW19540   2.784   4.227   6.485
 6403SOL    HW119541   2.759   4.218   6.389
 6403SOL    HW219542   2.832   4.145   6.516
 6404SOL     OW19543   2.401   3.788   6.098
 6404SOL    HW119544   2.320   3.789   6.156
 6404SOL    HW219545   2.404   3.871   6.043
 6405SOL     OW19546   3.296   4.912   5.627
 6405SOL    HW119547   3.328   4.836   5.684
 6405SOL    HW219548   3.204   4.939   5.657
 6406SOL     OW19549   2.159   3.759   5.757
 6406SOL    HW119550   2.208   3.843   5.736
 6406SOL    HW219551   2.221   3.694   5.802
 6407SOL     OW19552   2.797   3.960   6.066
 6407SOL    HW119553   2.749   4.001   5.988
 6407SOL    HW219554   2.896   3.958   6.047
 6408SOL     OW19555   2.938   4.407   7.050
 6408SOL    HW119556   2.858   4.346   7.053
 6408SOL    HW219557   3.019   4.354   7.026
 6409SOL     OW19558   3.089   5.294   6.379
 6409SOL    HW119559   3.110   5.368   6.314
 6409SOL    HW219560   3.157   5.294   6.452
 6410SOL     OW19561   2.321   4.876   6.327
 6410SOL    HW119562   2.250   4.849   6.392
 6410SOL    HW219563   2.295   4.848   6.234
 6411SOL     OW19564   2.894   4.273   5.602
 6411SOL    HW119565   2.853   4.355   5.563
 6411SOL    HW219566   2.958   4.299   5.675
 6412SOL     OW19567   1.940   4.280   6.972
 6412SOL    HW119568   2.032   4.279   6.931
 6412SOL    HW219569   1.934   4.354   7.039
 6413SOL     OW19570   2.423   3.946   6.733
 6413SOL    HW119571   2.461   3.862   6.770
 6413SOL    HW219572   2.335   3.965   6.777
 6414SOL     OW19573   2.728   4.178   6.228
 6414SOL    HW119574   2.696   4.250   6.166
 6414SOL    HW219575   2.752   4.097   6.175
 6415SOL     OW19576   2.879   3.763   6.339
 6415SOL    HW119577   2.807   3.768   6.270
 6415SOL    HW219578   2.855   3.694   6.408
 6416SOL     OW19579   3.291   4.897   6.453
 6416SOL    HW119580   3.236   4.813   6.446
 6416SOL    HW219581   3.317   4.926   6.361
 6417SOL     OW19582   3.328   4.314   6.578
 6417SOL    HW119583   3.298   4.219   6.585
 6417SOL    HW219584   3.401   4.330   6.644
 6418SOL     OW19585   3.719   4.557   5.963
 6418SOL    HW119586   3.761   4.493   6.027
 6418SOL    HW219587   3.681   4.506   5.885
 6419SOL     OW19588   2.350   5.109   5.760
 6419SOL    HW119589   2.263   5.094   5.807
 6419SOL    HW219590   2.333   5.135   5.665
 6420SOL     OW19591   3.526   5.004   6.243
 6420SOL    HW119592   3.625   5.012   6.257
 6420SOL    HW219593   3.481   5.088   6.274
 6421SOL     OW19594   3.252   4.299   5.664
 6421SOL    HW119595   3.198   4.278   5.745
 6421SOL    HW219596   3.343   4.258   5.673
 6422SOL     OW19597   2.389   3.980   5.914
 6422SOL    HW119598   2.416   3.921   5.839
 6422SOL    HW219599   2.389   4.075   5.883
 6423SOL     OW19600   3.616   4.947   7.174
 6423SOL    HW119601   3.707   4.908   7.161
 6423SOL    HW219602   3.624   5.043   7.198
 6424SOL     OW19603   2.926   5.071   6.926
 6424SOL    HW119604   2.846   5.048   6.981
 6424SOL    HW219605   3.009   5.045   6.975
 6425SOL     OW19606   2.973   4.919   6.686
 6425SOL    HW119607   2.933   4.963   6.767
 6425SOL    HW219608   2.932   4.956   6.603
 6426SOL     OW19609   3.500   4.823   6.665
 6426SOL    HW119610   3.505   4.904   6.724
 6426SOL    HW219611   3.414   4.825   6.614
 6427SOL     OW19612   2.777   3.813   6.988
 6427SOL    HW119613   2.802   3.793   6.893
 6427SOL    HW219614   2.849   3.869   7.030
 6428SOL     OW19615   2.842   4.840   7.305
 6428SOL    HW119616   2.743   4.846   7.315
 6428SOL    HW219617   2.865   4.760   7.249
 6429SOL     OW19618   2.567   4.774   5.954
 6429SOL    HW119619   2.553   4.781   6.053
 6429SOL    HW219620   2.651   4.723   5.936
 6430SOL     OW19621   2.272   4.537   6.837
 6430SOL    HW119622   2.358   4.549   6.887
 6430SOL    HW219623   2.230   4.450   6.864
 6431SOL     OW19624   3.136   4.110   6.848
 6431SOL    HW119625   3.157   4.184   6.912
 6431SOL    HW219626   3.047   4.127   6.805
 6432SOL     OW19627   2.229   4.824   6.087
 6432SOL    HW119628   2.222   4.907   6.031
 6432SOL    HW219629   2.233   4.744   6.027
 6433SOL     OW19630   2.428   4.261   6.451
 6433SOL    HW119631   2.440   4.327   6.377
 6433SOL    HW219632   2.474   4.295   6.534
 6434SOL     OW19633   3.114   5.072   5.974
 6434SOL    HW119634   3.164   5.149   6.014
 6434SOL    HW219635   3.019   5.074   6.006
 6435SOL     OW19636   3.134   5.169   6.728
 6435SOL    HW119637   3.181   5.182   6.815
 6435SOL    HW219638   3.068   5.095   6.737
 6436SOL     OW19639   3.444   4.363   6.058
 6436SOL    HW119640   3.413   4.424   6.131
 6436SOL    HW219641   3.494   4.415   5.989
 6437SOL     OW19642   2.216   5.234   6.915
 6437SOL    HW119643   2.195   5.190   6.828
 6437SOL    HW219644   2.313   5.260   6.918
 6438SOL     OW19645   2.264   4.475   7.184
 6438SOL    HW119646   2.332   4.530   7.137
 6438SOL    HW219647   2.304   4.387   7.211
 6439SOL     OW19648   3.449   4.503   7.256
 6439SOL    HW119649   3.357   4.541   7.251
 6439SOL    HW219650   3.509   4.550   7.191
 6440SOL     OW19651   2.875   3.829   7.356
 6440SOL    HW119652   2.881   3.914   7.304
 6440SOL    HW219653   2.907   3.753   7.299
 6441SOL     OW19654   2.366   3.774   7.326
 6441SOL    HW119655   2.324   3.717   7.256
 6441SOL    HW219656   2.300   3.843   7.358
 6442SOL     OW19657   2.435   4.594   6.615
 6442SOL    HW119658   2.479   4.683   6.606
 6442SOL    HW219659   2.372   4.594   6.692
 6443SOL     OW19660   3.222   4.586   6.631
 6443SOL    HW119661   3.147   4.586   6.565
 6443SOL    HW219662   3.259   4.494   6.640
 6444SOL     OW19663   3.071   4.249   5.861
 6444SOL    HW119664   3.084   4.165   5.915
 6444SOL    HW219665   3.042   4.323   5.921
 6445SOL     OW19666   2.169   3.937   6.817
 6445SOL    HW119667   2.146   3.974   6.907
 6445SOL    HW219668   2.139   3.842   6.811
 6446SOL     OW19669   1.899   5.034   6.868
 6446SOL    HW119670   1.952   4.985   6.936
 6446SOL    HW219671   1.921   5.132   6.873
 6447SOL     OW19672   2.594   4.358   6.650
 6447SOL    HW119673   2.653   4.332   6.574
 6447SOL    HW219674   2.566   4.454   6.639
 6448SOL     OW19675   3.590   4.659   7.440
 6448SOL    HW119676   3.544   4.652   7.351
 6448SOL    HW219677   3.528   4.703   7.506
 6449SOL     OW19678   2.169   3.787   6.204
 6449SOL    HW119679   2.158   3.881   6.237
 6449SOL    HW219680   2.164   3.724   6.281
 6450SOL     OW19681   3.484   4.091   5.960
 6450SOL    HW119682   3.486   4.015   6.024
 6450SOL    HW219683   3.436   4.168   6.000
 6451SOL     OW19684   2.885   4.490   6.552
 6451SOL    HW119685   2.900   4.511   6.648
 6451SOL    HW219686   2.855   4.395   6.543
 6452SOL     OW19687   3.721   5.242   7.191
 6452SOL    HW119688   3.735   5.269   7.096
 6452SOL    HW219689   3.804   5.264   7.244
 6453SOL     OW19690   2.212   4.622   7.390
 6453SOL    HW119691   2.288   4.666   7.438
 6453SOL    HW219692   2.247   4.575   7.308
 6454SOL     OW19693   3.402   3.998   5.711
 6454SOL    HW119694   3.341   3.923   5.734
 6454SOL    HW219695   3.424   4.050   5.794
 6455SOL     OW19696   3.165   4.562   5.628
 6455SOL    HW119697   3.199   4.469   5.643
 6455SOL    HW219698   3.183   4.589   5.533
 6456SOL     OW19699   2.930   5.057   6.435
 6456SOL    HW119700   2.937   4.973   6.380
 6456SOL    HW219701   2.992   5.126   6.399
 6457SOL     OW19702   2.181   4.534   6.535
 6457SOL    HW119703   2.274   4.570   6.540
 6457SOL    HW219704   2.175   4.449   6.587
 6458SOL     OW19705   2.201   4.233   6.592
 6458SOL    HW119706   2.149   4.150   6.575
 6458SOL    HW219707   2.278   4.238   6.528
 6459SOL     OW19708   3.000   4.104   7.264
 6459SOL    HW119709   2.955   4.167   7.328
 6459SOL    HW219710   3.093   4.135   7.247
 6460SOL     OW19711   3.022   3.931   7.063
 6460SOL    HW119712   3.022   3.995   7.140
 6460SOL    HW219713   3.050   3.979   6.980
 6461SOL     OW19714   1.870   5.050   5.786
 6461SOL    HW119715   1.777   5.071   5.755
 6461SOL    HW219716   1.880   4.951   5.799
 6462SOL     OW19717   2.864   4.520   6.824
 6462SOL    HW119718   2.905   4.488   6.910
 6462SOL    HW219719   2.768   4.493   6.821
 6463SOL     OW19720   1.902   4.268   6.700
 6463SOL    HW119721   1.987   4.235   6.659
 6463SOL    HW219722   1.915   4.283   6.798
 6464SOL     OW19723   2.051   4.244   7.308
 6464SOL    HW119724   2.110   4.204   7.238
 6464SOL    HW219725   1.993   4.315   7.267
 6465SOL     OW19726   3.231   4.674   7.246
 6465SOL    HW119727   3.270   4.763   7.266
 6465SOL    HW219728   3.241   4.654   7.149
 6466SOL     OW19729   2.677   4.296   5.911
 6466SOL    HW119730   2.684   4.207   5.865
 6466SOL    HW219731   2.583   4.330   5.903
 6467SOL     OW19732   3.519   4.328   6.792
 6467SOL    HW119733   3.481   4.259   6.854
 6467SOL    HW219734   3.601   4.292   6.748
 6468SOL     OW19735   2.114   5.288   7.330
 6468SOL    HW119736   2.084   5.345   7.406
 6468SOL    HW219737   2.107   5.191   7.356
 6469SOL     OW19738   2.533   4.188   6.855
 6469SOL    HW119739   2.499   4.099   6.825
 6469SOL    HW219740   2.559   4.242   6.775
 6470SOL     OW19741   2.335   4.224   5.777
 6470SOL    HW119742   2.396   4.304   5.781
 6470SOL    HW219743   2.240   4.255   5.784
 6471SOL     OW19744   2.021   4.861   7.052
 6471SOL    HW119745   2.043   4.800   7.128
 6471SOL    HW219746   2.031   4.812   6.966
 6472SOL     OW19747   3.209   4.783   6.820
 6472SOL    HW119748   3.233   4.720   6.746
 6472SOL    HW219749   3.119   4.823   6.802
 6473SOL     OW19750   3.164   4.579   5.895
 6473SOL    HW119751   3.078   4.548   5.937
 6473SOL    HW219752   3.160   4.565   5.796
 6474SOL     OW19753   1.945   4.982   6.608
 6474SOL    HW119754   1.940   4.981   6.708
 6474SOL    HW219755   1.862   4.941   6.570
 6475SOL     OW19756   2.550   5.386   7.302
 6475SOL    HW119757   2.494   5.467   7.311
 6475SOL    HW219758   2.602   5.390   7.216
 6476SOL     OW19759   3.588   3.859   6.109
 6476SOL    HW119760   3.661   3.842   6.042
 6476SOL    HW219761   3.557   3.772   6.147
 6477SOL     OW19762   3.142   4.651   6.258
 6477SOL    HW119763   3.202   4.570   6.260
 6477SOL    HW219764   3.182   4.720   6.198
 6478SOL     OW19765   2.692   4.997   7.008
 6478SOL    HW119766   2.687   5.030   7.103
 6478SOL    HW219767   2.606   5.016   6.962
 6479SOL     OW19768   3.703   3.899   6.549
 6479SOL    HW119769   3.742   3.814   6.513
 6479SOL    HW219770   3.605   3.901   6.530
 6480SOL     OW19771   2.125   4.050   6.306
 6480SOL    HW119772   2.046   4.101   6.272
 6480SOL    HW219773   2.116   4.035   6.404
 6481SOL     OW19774   2.684   4.726   6.958
 6481SOL    HW119775   2.724   4.725   6.866
 6481SOL    HW219776   2.694   4.818   6.998
 6482SOL     OW19777   2.778   4.634   5.877
 6482SOL    HW119778   2.841   4.672   5.809
 6482SOL    HW219779   2.818   4.551   5.916
 6483SOL     OW19780   2.234   5.012   7.076
 6483SOL    HW119781   2.221   5.105   7.042
 6483SOL    HW219782   2.150   4.960   7.063
 6484SOL     OW19783   3.476   5.016   6.875
 6484SOL    HW119784   3.536   5.019   6.955
 6484SOL    HW219785   3.401   5.080   6.888
 6485SOL     OW19786   2.901   4.822   6.282
 6485SOL    HW119787   2.831   4.775   6.336
 6485SOL    HW219788   2.960   4.754   6.239
 6486SOL     OW19789   2.876   3.960   6.557
 6486SOL    HW119790   2.868   3.924   6.464
 6486SOL    HW219791   2.874   3.884   6.622
 6487SOL     OW19792   3.571   4.109   6.967
 6487SOL    HW119793   3.644   4.178   6.971
 6487SOL    HW219794   3.599   4.034   6.908
 6488SOL     OW19795   2.117   5.072   5.876
 6488SOL    HW119796   2.021   5.073   5.849
 6488SOL    HW219797   2.129   5.125   5.960
 6489SOL     OW19798   1.967   4.737   7.312
 6489SOL    HW119799   1.890   4.704   7.366
 6489SOL    HW219800   2.052   4.707   7.354
 6490SOL     OW19801   2.534   3.927   7.075
 6490SOL    HW119802   2.624   3.911   7.035
 6490SOL    HW219803   2.542   3.932   7.174
 6491SOL     OW19804   1.937   4.069   5.619
 6491SOL    HW119805   1.845   4.041   5.590
 6491SOL    HW219806   1.968   4.146   5.563
 6492SOL     OW19807   3.302   4.580   6.984
 6492SOL    HW119808   3.245   4.632   6.921
 6492SOL    HW219809   3.398   4.592   6.960
 6493SOL     OW19810   1.934   3.890   5.904
 6493SOL    HW119811   1.917   3.973   5.850
 6493SOL    HW219812   2.024   3.853   5.882
 6494SOL     OW19813   3.045   5.059   5.705
 6494SOL    HW119814   2.946   5.048   5.707
 6494SOL    HW219815   3.079   5.074   5.798
 6495SOL     OW19816   2.475   4.566   7.017
 6495SOL    HW119817   2.531   4.647   7.000
 6495SOL    HW219818   2.534   4.486   7.020
 6496SOL     OW19819   2.578   4.289   7.294
 6496SOL    HW119820   2.597   4.354   7.368
 6496SOL    HW219821   2.638   4.209   7.303
 6497SOL     OW19822   3.312   4.944   7.219
 6497SOL    HW119823   3.303   4.934   7.318
 6497SOL    HW219824   3.408   4.937   7.193
 6498SOL     OW19825   3.536   4.607   6.840
 6498SOL    HW119826   3.509   4.518   6.803
 6498SOL    HW219827   3.537   4.675   6.767
 6499SOL     OW19828   3.087   4.049   6.035
 6499SOL    HW119829   3.152   3.975   6.024
 6499SOL    HW219830   3.107   4.099   6.119
 6500SOL     OW19831   2.456   4.469   6.238
 6500SOL    HW119832   2.506   4.554   6.219
 6500SOL    HW219833   2.368   4.471   6.190
 6501SOL     OW19834   3.639   4.066   7.228
 6501SOL    HW119835   3.622   4.097   7.134
 6501SOL    HW219836   3.555   4.029   7.266
 6502SOL     OW19837   3.592   4.658   7.103
 6502SOL    HW119838   3.630   4.749   7.118
 6502SOL    HW219839   3.584   4.641   7.004
 6503SOL     OW19840   2.721   5.098   5.602
 6503SOL    HW119841   2.675   5.113   5.690
 6503SOL    HW219842   2.765   5.183   5.572
 6504SOL     OW19843   2.721   4.680   6.447
 6504SOL    HW119844   2.775   4.611   6.495
 6504SOL    HW219845   2.689   4.749   6.513
 6505SOL     OW19846   2.945   4.708   5.673
 6505SOL    HW119847   2.922   4.761   5.591
 6505SOL    HW219848   3.026   4.652   5.654
 6506SOL     OW19849   2.083   5.038   7.430
 6506SOL    HW119850   2.018   4.965   7.409
 6506SOL    HW219851   2.087   5.052   7.528
 6507SOL     OW19852   1.941   4.964   6.239
 6507SOL    HW119853   1.940   4.917   6.327
 6507SOL    HW219854   2.023   4.936   6.188
 6508SOL     OW19855   2.534   5.115   7.210
 6508SOL    HW119856   2.456   5.065   7.248
 6508SOL    HW219857   2.531   5.210   7.241
 6509SOL     OW19858   3.686   3.916   6.813
 6509SOL    HW119859   3.682   3.826   6.857
 6509SOL    HW219860   3.689   3.905   6.714
 6510SOL     OW19861   2.290   4.148   6.106
 6510SOL    HW119862   2.320   4.076   6.044
 6510SOL    HW219863   2.251   4.108   6.189
 6511SOL     OW19864   3.567   5.211   6.690
 6511SOL    HW119865   3.474   5.186   6.663
 6511SOL    HW219866   3.593   5.161   6.772
 6512SOL     OW19867   2.179   4.271   6.866
 6512SOL    HW119868   2.217   4.212   6.938
 6512SOL    HW219869   2.219   4.245   6.778
 6513SOL     OW19870   3.286   3.938   6.698
 6513SOL    HW119871   3.338   3.873   6.753
 6513SOL    HW219872   3.237   4.001   6.759
 6514SOL     OW19873   2.863   3.758   6.740
 6514SOL    HW119874   2.800   3.686   6.709
 6514SOL    HW219875   2.956   3.722   6.740
 6515SOL     OW19876   2.632   5.054   5.887
 6515SOL    HW119877   2.586   4.967   5.904
 6515SOL    HW219878   2.723   5.051   5.928
 6516SOL     OW19879   2.480   5.291   6.870
 6516SOL    HW119880   2.475   5.373   6.927
 6516SOL    HW219881   2.569   5.288   6.825
 6517SOL     OW19882   3.214   3.776   5.754
 6517SOL    HW119883   3.249   3.735   5.670
 6517SOL    HW219884   3.124   3.738   5.774
 6518SOL     OW19885   3.162   4.177   6.277
 6518SOL    HW119886   3.103   4.257   6.281
 6518SOL    HW219887   3.177   4.142   6.370
 6519SOL     OW19888   3.455   3.945   6.468
 6519SOL    HW119889   3.371   3.944   6.522
 6519SOL    HW219890   3.457   4.028   6.412
 6520SOL     OW19891   1.901   4.801   5.886
 6520SOL    HW119892   2.000   4.790   5.877
 6520SOL    HW219893   1.861   4.715   5.918
 6521SOL     OW19894   2.092   4.352   7.561
 6521SOL    HW119895   1.999   4.350   7.598
 6521SOL    HW219896   2.093   4.313   7.469
 6522SOL     OW19897   2.087   3.999   8.444
 6522SOL    HW119898   2.122   3.982   8.536
 6522SOL    HW219899   1.999   3.954   8.432
 6523SOL     OW19900   1.881   4.092   8.095
 6523SOL    HW119901   1.799   4.135   8.134
 6523SOL    HW219902   1.853   4.019   8.032
 6524SOL     OW19903   2.431   4.999   8.613
 6524SOL    HW119904   2.338   4.992   8.576
 6524SOL    HW219905   2.442   5.088   8.657
 6525SOL     OW19906   3.417   5.235   8.151
 6525SOL    HW119907   3.360   5.219   8.232
 6525SOL    HW219908   3.358   5.245   8.071
 6526SOL     OW19909   2.997   4.427   8.165
 6526SOL    HW119910   3.054   4.505   8.140
 6526SOL    HW219911   2.937   4.453   8.241
 6527SOL     OW19912   3.617   4.331   7.679
 6527SOL    HW119913   3.605   4.318   7.580
 6527SOL    HW219914   3.587   4.250   7.728
 6528SOL     OW19915   2.630   4.868   8.471
 6528SOL    HW119916   2.552   4.885   8.531
 6528SOL    HW219917   2.664   4.955   8.435
 6529SOL     OW19918   2.712   4.522   9.271
 6529SOL    HW119919   2.708   4.598   9.336
 6529SOL    HW219920   2.734   4.558   9.180
 6530SOL     OW19921   2.547   4.736   8.113
 6530SOL    HW119922   2.616   4.720   8.183
 6530SOL    HW219923   2.474   4.793   8.151
 6531SOL     OW19924   2.548   4.885   9.251
 6531SOL    HW119925   2.608   4.964   9.265
 6531SOL    HW219926   2.462   4.916   9.210
 6532SOL     OW19927   2.197   5.159   8.509
 6532SOL    HW119928   2.119   5.128   8.456
 6532SOL    HW219929   2.255   5.217   8.452
 6533SOL     OW19930   3.322   5.229   8.787
 6533SOL    HW119931   3.346   5.323   8.813
 6533SOL    HW219932   3.306   5.175   8.869
 6534SOL     OW19933   2.300   4.116   8.947
 6534SOL    HW119934   2.382   4.060   8.956
 6534SOL    HW219935   2.219   4.058   8.951
 6535SOL     OW19936   3.465   4.171   8.185
 6535SOL    HW119937   3.391   4.217   8.135
 6535SOL    HW219938   3.516   4.239   8.238
 6536SOL     OW19939   2.989   5.065   9.138
 6536SOL    HW119940   3.036   5.065   9.226
 6536SOL    HW219941   2.941   4.978   9.127
 6537SOL     OW19942   2.092   5.158   7.986
 6537SOL    HW119943   2.066   5.254   7.986
 6537SOL    HW219944   2.021   5.104   8.031
 6538SOL     OW19945   2.102   4.815   8.334
 6538SOL    HW119946   2.116   4.731   8.386
 6538SOL    HW219947   2.047   4.879   8.389
 6539SOL     OW19948   2.468   4.688   7.571
 6539SOL    HW119949   2.475   4.772   7.517
 6539SOL    HW219950   2.514   4.701   7.659
 6540SOL     OW19951   3.456   3.838   8.928
 6540SOL    HW119952   3.438   3.905   8.856
 6540SOL    HW219953   3.453   3.884   9.017
 6541SOL     OW19954   1.984   4.367   8.011
 6541SOL    HW119955   1.939   4.279   8.028
 6541SOL    HW219956   1.983   4.421   8.095
 6542SOL     OW19957   1.889   5.320   7.565
 6542SOL    HW119958   1.870   5.224   7.586
 6542SOL    HW219959   1.856   5.378   7.640
 6543SOL     OW19960   3.551   4.646   8.060
 6543SOL    HW119961   3.646   4.617   8.068
 6543SOL    HW219962   3.543   4.711   7.985
 6544SOL     OW19963   3.503   4.832   7.880
 6544SOL    HW119964   3.589   4.834   7.828
 6544SOL    HW219965   3.517   4.879   7.968
 6545SOL     OW19966   1.975   4.461   9.045
 6545SOL    HW119967   2.063   4.448   9.090
 6545SOL    HW219968   1.962   4.558   9.023
 6546SOL     OW19969   2.475   5.089   8.174
 6546SOL    HW119970   2.426   5.002   8.183
 6546SOL    HW219971   2.452   5.132   8.087
 6547SOL     OW19972   3.155   4.952   8.871
 6547SOL    HW119973   3.192   4.879   8.813
 6547SOL    HW219974   3.207   4.957   8.956
 6548SOL     OW19975   2.671   3.728   7.950
 6548SOL    HW119976   2.711   3.819   7.941
 6548SOL    HW219977   2.571   3.736   7.956
 6549SOL     OW19978   2.059   4.700   8.712
 6549SOL    HW119979   2.148   4.655   8.698
 6549SOL    HW219980   1.986   4.635   8.693
 6550SOL     OW19981   3.387   4.723   7.638
 6550SOL    HW119982   3.324   4.647   7.651
 6550SOL    HW219983   3.435   4.741   7.724
 6551SOL     OW19984   2.179   3.975   9.249
 6551SOL    HW119985   2.250   4.046   9.255
 6551SOL    HW219986   2.091   4.014   9.277
 6552SOL     OW19987   3.328   5.141   8.401
 6552SOL    HW119988   3.269   5.147   8.481
 6552SOL    HW219989   3.313   5.053   8.355
 6553SOL     OW19990   2.460   4.453   7.718
 6553SOL    HW119991   2.484   4.522   7.650
 6553SOL    HW219992   2.382   4.486   7.772
 6554SOL     OW19993   3.143   4.069   8.392
 6554SOL    HW119994   3.057   4.019   8.379
 6554SOL    HW219995   3.205   4.015   8.448
 6555SOL     OW19996   2.669   4.329   8.913
 6555SOL    HW119997   2.622   4.326   9.002
 6555SOL    HW219998   2.618   4.274   8.847
 6556SOL     OW19999   3.256   4.193   9.122
 6556SOL    HW120000   3.236   4.236   9.210
 6556SOL    HW220001   3.334   4.131   9.131
 6557SOL     OW20002   2.835   4.614   9.020
 6557SOL    HW120003   2.881   4.530   8.991
 6557SOL    HW220004   2.779   4.648   8.945
 6558SOL     OW20005   2.853   4.134   8.690
 6558SOL    HW120006   2.776   4.168   8.744
 6558SOL    HW220007   2.819   4.083   8.611
 6559SOL     OW20008   2.903   4.425   7.877
 6559SOL    HW120009   2.929   4.421   7.973
 6559SOL    HW220010   2.818   4.374   7.863
 6560SOL     OW20011   1.938   4.535   8.237
 6560SOL    HW120012   2.037   4.523   8.246
 6560SOL    HW220013   1.914   4.630   8.258
 6561SOL     OW20014   2.727   4.072   7.643
 6561SOL    HW120015   2.786   4.135   7.594
 6561SOL    HW220016   2.746   3.978   7.614
 6562SOL     OW20017   3.581   4.309   9.279
 6562SOL    HW120018   3.555   4.398   9.243
 6562SOL    HW220019   3.579   4.241   9.206
 6563SOL     OW20020   3.224   4.868   7.993
 6563SOL    HW120021   3.307   4.839   7.945
 6563SOL    HW220022   3.175   4.935   7.937
 6564SOL     OW20023   2.412   3.920   8.333
 6564SOL    HW120024   2.407   3.915   8.433
 6564SOL    HW220025   2.414   4.016   8.304
 6565SOL     OW20026   2.870   5.180   7.925
 6565SOL    HW120027   2.824   5.252   7.873
 6565SOL    HW220028   2.866   5.200   8.023
 6566SOL     OW20029   3.657   4.790   8.321
 6566SOL    HW120030   3.595   4.775   8.245
 6566SOL    HW220031   3.605   4.801   8.406
 6567SOL     OW20032   3.089   5.274   8.954
 6567SOL    HW120033   3.095   5.197   9.018
 6567SOL    HW220034   3.037   5.248   8.874
 6568SOL     OW20035   2.183   4.667   7.690
 6568SOL    HW120036   2.265   4.706   7.648
 6568SOL    HW220037   2.156   4.585   7.641
 6569SOL     OW20038   3.320   4.459   8.176
 6569SOL    HW120039   3.315   4.394   8.251
 6569SOL    HW220040   3.400   4.518   8.189
 6570SOL     OW20041   2.323   4.990   9.175
 6570SOL    HW120042   2.273   4.991   9.089
 6570SOL    HW220043   2.260   4.972   9.251
 6571SOL     OW20044   2.973   5.500   7.685
 6571SOL    HW120045   2.913   5.438   7.735
 6571SOL    HW220046   3.004   5.456   7.600
 6572SOL     OW20047   2.064   4.009   8.946
 6572SOL    HW120048   1.984   4.069   8.933
 6572SOL    HW220049   2.054   3.960   9.032
 6573SOL     OW20050   3.494   5.101   7.529
 6573SOL    HW120051   3.462   5.195   7.519
 6573SOL    HW220052   3.418   5.038   7.517
 6574SOL     OW20053   3.262   3.831   7.874
 6574SOL    HW120054   3.238   3.794   7.784
 6574SOL    HW220055   3.361   3.847   7.878
 6575SOL     OW20056   2.244   4.424   7.928
 6575SOL    HW120057   2.289   4.334   7.925
 6575SOL    HW220058   2.150   4.413   7.961
 6576SOL     OW20059   3.409   3.946   9.177
 6576SOL    HW120060   3.404   3.983   9.269
 6576SOL    HW220061   3.337   3.877   9.165
 6577SOL     OW20062   2.476   3.846   7.565
 6577SOL    HW120063   2.574   3.824   7.572
 6577SOL    HW220064   2.445   3.829   7.472
 6578SOL     OW20065   2.643   3.988   9.197
 6578SOL    HW120066   2.710   3.927   9.240
 6578SOL    HW220067   2.570   4.007   9.262
 6579SOL     OW20068   3.213   4.314   8.881
 6579SOL    HW120069   3.241   4.271   8.966
 6579SOL    HW220070   3.238   4.410   8.882
 6580SOL     OW20071   2.665   5.126   8.372
 6580SOL    HW120072   2.755   5.140   8.330
 6580SOL    HW220073   2.594   5.128   8.301
 6581SOL     OW20074   2.784   4.227   8.347
 6581SOL    HW120075   2.759   4.218   8.251
 6581SOL    HW220076   2.832   4.145   8.378
 6582SOL     OW20077   2.401   3.788   7.960
 6582SOL    HW120078   2.320   3.789   8.018
 6582SOL    HW220079   2.404   3.871   7.905
 6583SOL     OW20080   3.296   4.912   7.489
 6583SOL    HW120081   3.328   4.836   7.546
 6583SOL    HW220082   3.204   4.939   7.519
 6584SOL     OW20083   2.159   3.759   7.619
 6584SOL    HW120084   2.208   3.843   7.598
 6584SOL    HW220085   2.221   3.694   7.664
 6585SOL     OW20086   2.797   3.960   7.928
 6585SOL    HW120087   2.749   4.001   7.850
 6585SOL    HW220088   2.896   3.958   7.909
 6586SOL     OW20089   2.938   4.407   8.912
 6586SOL    HW120090   2.858   4.346   8.915
 6586SOL    HW220091   3.019   4.354   8.888
 6587SOL     OW20092   3.089   5.294   8.241
 6587SOL    HW120093   3.110   5.368   8.176
 6587SOL    HW220094   3.157   5.294   8.314
 6588SOL     OW20095   2.321   4.876   8.189
 6588SOL    HW120096   2.250   4.849   8.254
 6588SOL    HW220097   2.295   4.848   8.096
 6589SOL     OW20098   2.894   4.273   7.464
 6589SOL    HW120099   2.853   4.355   7.425
 6589SOL    HW220100   2.958   4.299   7.537
 6590SOL     OW20101   1.940   4.280   8.834
 6590SOL    HW120102   2.032   4.279   8.793
 6590SOL    HW220103   1.934   4.354   8.901
 6591SOL     OW20104   2.423   3.946   8.595
 6591SOL    HW120105   2.461   3.862   8.632
 6591SOL    HW220106   2.335   3.965   8.639
 6592SOL     OW20107   2.728   4.178   8.090
 6592SOL    HW120108   2.696   4.250   8.028
 6592SOL    HW220109   2.752   4.097   8.037
 6593SOL     OW20110   2.879   3.763   8.201
 6593SOL    HW120111   2.807   3.768   8.132
 6593SOL    HW220112   2.855   3.694   8.270
 6594SOL     OW20113   3.291   4.897   8.315
 6594SOL    HW120114   3.236   4.813   8.308
 6594SOL    HW220115   3.317   4.926   8.223
 6595SOL     OW20116   3.328   4.314   8.440
 6595SOL    HW120117   3.298   4.219   8.447
 6595SOL    HW220118   3.401   4.330   8.506
 6596SOL     OW20119   3.719   4.557   7.825
 6596SOL    HW120120   3.761   4.493   7.889
 6596SOL    HW220121   3.681   4.506   7.747
 6597SOL     OW20122   2.350   5.109   7.622
 6597SOL    HW120123   2.263   5.094   7.669
 6597SOL    HW220124   2.333   5.135   7.527
 6598SOL     OW20125   3.526   5.004   8.105
 6598SOL    HW120126   3.625   5.012   8.119
 6598SOL    HW220127   3.481   5.088   8.136
 6599SOL     OW20128   3.252   4.299   7.526
 6599SOL    HW120129   3.198   4.278   7.607
 6599SOL    HW220130   3.343   4.258   7.535
 6600SOL     OW20131   2.389   3.980   7.776
 6600SOL    HW120132   2.416   3.921   7.701
 6600SOL    HW220133   2.389   4.075   7.745
 6601SOL     OW20134   3.616   4.947   9.036
 6601SOL    HW120135   3.707   4.908   9.023
 6601SOL    HW220136   3.624   5.043   9.060
 6602SOL     OW20137   2.926   5.071   8.788
 6602SOL    HW120138   2.846   5.048   8.843
 6602SOL    HW220139   3.009   5.045   8.837
 6603SOL     OW20140   2.973   4.919   8.548
 6603SOL    HW120141   2.933   4.963   8.629
 6603SOL    HW220142   2.932   4.956   8.465
 6604SOL     OW20143   3.500   4.823   8.527
 6604SOL    HW120144   3.505   4.904   8.586
 6604SOL    HW220145   3.414   4.825   8.476
 6605SOL     OW20146   2.777   3.813   8.850
 6605SOL    HW120147   2.802   3.793   8.755
 6605SOL    HW220148   2.849   3.869   8.892
 6606SOL     OW20149   2.842   4.840   9.167
 6606SOL    HW120150   2.743   4.846   9.177
 6606SOL    HW220151   2.865   4.760   9.111
 6607SOL     OW20152   2.567   4.774   7.816
 6607SOL    HW120153   2.553   4.781   7.915
 6607SOL    HW220154   2.651   4.723   7.798
 6608SOL     OW20155   2.272   4.537   8.699
 6608SOL    HW120156   2.358   4.549   8.749
 6608SOL    HW220157   2.230   4.450   8.726
 6609SOL     OW20158   3.136   4.110   8.710
 6609SOL    HW120159   3.157   4.184   8.774
 6609SOL    HW220160   3.047   4.127   8.667
 6610SOL     OW20161   2.229   4.824   7.949
 6610SOL    HW120162   2.222   4.907   7.893
 6610SOL    HW220163   2.233   4.744   7.889
 6611SOL     OW20164   2.428   4.261   8.313
 6611SOL    HW120165   2.440   4.327   8.239
 6611SOL    HW220166   2.474   4.295   8.396
 6612SOL     OW20167   3.114   5.072   7.836
 6612SOL    HW120168   3.164   5.149   7.876
 6612SOL    HW220169   3.019   5.074   7.868
 6613SOL     OW20170   3.134   5.169   8.590
 6613SOL    HW120171   3.181   5.182   8.677
 6613SOL    HW220172   3.068   5.095   8.599
 6614SOL     OW20173   3.444   4.363   7.920
 6614SOL    HW120174   3.413   4.424   7.993
 6614SOL    HW220175   3.494   4.415   7.851
 6615SOL     OW20176   2.216   5.234   8.777
 6615SOL    HW120177   2.195   5.190   8.690
 6615SOL    HW220178   2.313   5.260   8.780
 6616SOL     OW20179   2.264   4.475   9.046
 6616SOL    HW120180   2.332   4.530   8.999
 6616SOL    HW220181   2.304   4.387   9.073
 6617SOL     OW20182   3.449   4.503   9.118
 6617SOL    HW120183   3.357   4.541   9.113
 6617SOL    HW220184   3.509   4.550   9.053
 6618SOL     OW20185   2.875   3.829   9.218
 6618SOL    HW120186   2.881   3.914   9.166
 6618SOL    HW220187   2.907   3.753   9.161
 6619SOL     OW20188   2.366   3.774   9.188
 6619SOL    HW120189   2.324   3.717   9.118
 6619SOL    HW220190   2.300   3.843   9.220
 6620SOL     OW20191   2.435   4.594   8.477
 6620SOL    HW120192   2.479   4.683   8.468
 6620SOL    HW220193   2.372   4.594   8.554
 6621SOL     OW20194   3.222   4.586   8.493
 6621SOL    HW120195   3.147   4.586   8.427
 6621SOL    HW220196   3.259   4.494   8.502
 6622SOL     OW20197   3.071   4.249   7.723
 6622SOL    HW120198   3.084   4.165   7.777
 6622SOL    HW220199   3.042   4.323   7.783
 6623SOL     OW20200   2.169   3.937   8.679
 6623SOL    HW120201   2.146   3.974   8.769
 6623SOL    HW220202   2.139   3.842   8.673
 6624SOL     OW20203   1.899   5.034   8.730
 6624SOL    HW120204   1.952   4.985   8.798
 6624SOL    HW220205   1.921   5.132   8.735
 6625SOL     OW20206   2.594   4.358   8.512
 6625SOL    HW120207   2.653   4.332   8.436
 6625SOL    HW220208   2.566   4.454   8.501
 6626SOL     OW20209   3.590   4.659   9.302
 6626SOL    HW120210   3.544   4.652   9.213
 6626SOL    HW220211   3.528   4.703   9.368
 6627SOL     OW20212   2.169   3.787   8.066
 6627SOL    HW120213   2.158   3.881   8.099
 6627SOL    HW220214   2.164   3.724   8.143
 6628SOL     OW20215   3.484   4.091   7.822
 6628SOL    HW120216   3.486   4.015   7.886
 6628SOL    HW220217   3.436   4.168   7.862
 6629SOL     OW20218   2.885   4.490   8.414
 6629SOL    HW120219   2.900   4.511   8.510
 6629SOL    HW220220   2.855   4.395   8.405
 6630SOL     OW20221   3.721   5.242   9.053
 6630SOL    HW120222   3.735   5.269   8.958
 6630SOL    HW220223   3.804   5.264   9.106
 6631SOL     OW20224   2.212   4.622   9.252
 6631SOL    HW120225   2.288   4.666   9.300
 6631SOL    HW220226   2.247   4.575   9.170
 6632SOL     OW20227   3.402   3.998   7.573
 6632SOL    HW120228   3.341   3.923   7.596
 6632SOL    HW220229   3.424   4.050   7.656
 6633SOL     OW20230   3.165   4.562   7.490
 6633SOL    HW120231   3.199   4.469   7.505
 6633SOL    HW220232   3.183   4.589   7.395
 6634SOL     OW20233   2.930   5.057   8.297
 6634SOL    HW120234   2.937   4.973   8.242
 6634SOL    HW220235   2.992   5.126   8.261
 6635SOL     OW20236   2.181   4.534   8.397
 6635SOL    HW120237   2.274   4.570   8.402
 6635SOL    HW220238   2.175   4.449   8.449
 6636SOL     OW20239   2.201   4.233   8.454
 6636SOL    HW120240   2.149   4.150   8.437
 6636SOL    HW220241   2.278   4.238   8.390
 6637SOL     OW20242   3.000   4.104   9.126
 6637SOL    HW120243   2.955   4.167   9.190
 6637SOL    HW220244   3.093   4.135   9.109
 6638SOL     OW20245   3.022   3.931   8.925
 6638SOL    HW120246   3.022   3.995   9.002
 6638SOL    HW220247   3.050   3.979   8.842
 6639SOL     OW20248   1.870   5.050   7.648
 6639SOL    HW120249   1.777   5.071   7.617
 6639SOL    HW220250   1.880   4.951   7.661
 6640SOL     OW20251   2.864   4.520   8.686
 6640SOL    HW120252   2.905   4.488   8.772
 6640SOL    HW220253   2.768   4.493   8.683
 6641SOL     OW20254   1.902   4.268   8.562
 6641SOL    HW120255   1.987   4.235   8.521
 6641SOL    HW220256   1.915   4.283   8.660
 6642SOL     OW20257   2.051   4.244   9.170
 6642SOL    HW120258   2.110   4.204   9.100
 6642SOL    HW220259   1.993   4.315   9.129
 6643SOL     OW20260   3.231   4.674   9.108
 6643SOL    HW120261   3.270   4.763   9.128
 6643SOL    HW220262   3.241   4.654   9.011
 6644SOL     OW20263   2.677   4.296   7.773
 6644SOL    HW120264   2.684   4.207   7.727
 6644SOL    HW220265   2.583   4.330   7.765
 6645SOL     OW20266   3.519   4.328   8.654
 6645SOL    HW120267   3.481   4.259   8.716
 6645SOL    HW220268   3.601   4.292   8.610
 6646SOL     OW20269   2.114   5.288   9.192
 6646SOL    HW120270   2.084   5.345   9.268
 6646SOL    HW220271   2.107   5.191   9.218
 6647SOL     OW20272   2.533   4.188   8.717
 6647SOL    HW120273   2.499   4.099   8.687
 6647SOL    HW220274   2.559   4.242   8.637
 6648SOL     OW20275   2.335   4.224   7.639
 6648SOL    HW120276   2.396   4.304   7.643
 6648SOL    HW220277   2.240   4.255   7.646
 6649SOL     OW20278   2.021   4.861   8.914
 6649SOL    HW120279   2.043   4.800   8.990
 6649SOL    HW220280   2.031   4.812   8.828
 6650SOL     OW20281   3.209   4.783   8.682
 6650SOL    HW120282   3.233   4.720   8.608
 6650SOL    HW220283   3.119   4.823   8.664
 6651SOL     OW20284   3.164   4.579   7.757
 6651SOL    HW120285   3.078   4.548   7.799
 6651SOL    HW220286   3.160   4.565   7.658
 6652SOL     OW20287   1.945   4.982   8.470
 6652SOL    HW120288   1.940   4.981   8.570
 6652SOL    HW220289   1.862   4.941   8.432
 6653SOL     OW20290   2.550   5.386   9.164
 6653SOL    HW120291   2.494   5.467   9.173
 6653SOL    HW220292   2.602   5.390   9.078
 6654SOL     OW20293   3.588   3.859   7.971
 6654SOL    HW120294   3.661   3.842   7.904
 6654SOL    HW220295   3.557   3.772   8.009
 6655SOL     OW20296   3.142   4.651   8.120
 6655SOL    HW120297   3.202   4.570   8.122
 6655SOL    HW220298   3.182   4.720   8.060
 6656SOL     OW20299   2.692   4.997   8.870
 6656SOL    HW120300   2.687   5.030   8.965
 6656SOL    HW220301   2.606   5.016   8.824
 6657SOL     OW20302   3.703   3.899   8.411
 6657SOL    HW120303   3.742   3.814   8.375
 6657SOL    HW220304   3.605   3.901   8.392
 6658SOL     OW20305   2.125   4.050   8.168
 6658SOL    HW120306   2.046   4.101   8.134
 6658SOL    HW220307   2.116   4.035   8.266
 6659SOL     OW20308   2.684   4.726   8.820
 6659SOL    HW120309   2.724   4.725   8.728
 6659SOL    HW220310   2.694   4.818   8.860
 6660SOL     OW20311   2.778   4.634   7.739
 6660SOL    HW120312   2.841   4.672   7.671
 6660SOL    HW220313   2.818   4.551   7.778
 6661SOL     OW20314   2.234   5.012   8.938
 6661SOL    HW120315   2.221   5.105   8.904
 6661SOL    HW220316   2.150   4.960   8.925
 6662SOL     OW20317   3.476   5.016   8.737
 6662SOL    HW120318   3.536   5.019   8.817
 6662SOL    HW220319   3.401   5.080   8.750
 6663SOL     OW20320   2.901   4.822   8.144
 6663SOL    HW120321   2.831   4.775   8.198
 6663SOL    HW220322   2.960   4.754   8.101
 6664SOL     OW20323   2.876   3.960   8.419
 6664SOL    HW120324   2.868   3.924   8.326
 6664SOL    HW220325   2.874   3.884   8.484
 6665SOL     OW20326   3.571   4.109   8.829
 6665SOL    HW120327   3.644   4.178   8.833
 6665SOL    HW220328   3.599   4.034   8.770
 6666SOL     OW20329   2.117   5.072   7.738
 6666SOL    HW120330   2.021   5.073   7.711
 6666SOL    HW220331   2.129   5.125   7.822
 6667SOL     OW20332   1.967   4.737   9.174
 6667SOL    HW120333   1.890   4.704   9.228
 6667SOL    HW220334   2.052   4.707   9.216
 6668SOL     OW20335   2.534   3.927   8.937
 6668SOL    HW120336   2.624   3.911   8.897
 6668SOL    HW220337   2.542   3.932   9.036
 6669SOL     OW20338   1.937   4.069   7.481
 6669SOL    HW120339   1.845   4.041   7.452
 6669SOL    HW220340   1.968   4.146   7.425
 6670SOL     OW20341   3.302   4.580   8.846
 6670SOL    HW120342   3.245   4.632   8.783
 6670SOL    HW220343   3.398   4.592   8.822
 6671SOL     OW20344   1.934   3.890   7.766
 6671SOL    HW120345   1.917   3.973   7.712
 6671SOL    HW220346   2.024   3.853   7.744
 6672SOL     OW20347   3.045   5.059   7.567
 6672SOL    HW120348   2.946   5.048   7.569
 6672SOL    HW220349   3.079   5.074   7.660
 6673SOL     OW20350   2.475   4.566   8.879
 6673SOL    HW120351   2.531   4.647   8.862
 6673SOL    HW220352   2.534   4.486   8.882
 6674SOL     OW20353   2.578   4.289   9.156
 6674SOL    HW120354   2.597   4.354   9.230
 6674SOL    HW220355   2.638   4.209   9.165
 6675SOL     OW20356   3.312   4.944   9.081
 6675SOL    HW120357   3.303   4.934   9.180
 6675SOL    HW220358   3.408   4.937   9.055
 6676SOL     OW20359   3.536   4.607   8.702
 6676SOL    HW120360   3.509   4.518   8.665
 6676SOL    HW220361   3.537   4.675   8.629
 6677SOL     OW20362   3.087   4.049   7.897
 6677SOL    HW120363   3.152   3.975   7.886
 6677SOL    HW220364   3.107   4.099   7.981
 6678SOL     OW20365   2.456   4.469   8.100
 6678SOL    HW120366   2.506   4.554   8.081
 6678SOL    HW220367   2.368   4.471   8.052
 6679SOL     OW20368   3.639   4.066   9.090
 6679SOL    HW120369   3.622   4.097   8.996
 6679SOL    HW220370   3.555   4.029   9.128
 6680SOL     OW20371   3.592   4.658   8.965
 6680SOL    HW120372   3.630   4.749   8.980
 6680SOL    HW220373   3.584   4.641   8.866
 6681SOL     OW20374   2.721   5.098   7.464
 6681SOL    HW120375   2.675   5.113   7.552
 6681SOL    HW220376   2.765   5.183   7.434
 6682SOL     OW20377   2.721   4.680   8.309
 6682SOL    HW120378   2.775   4.611   8.357
 6682SOL    HW220379   2.689   4.749   8.375
 6683SOL     OW20380   2.945   4.708   7.535
 6683SOL    HW120381   2.922   4.761   7.453
 6683SOL    HW220382   3.026   4.652   7.516
 6684SOL     OW20383   2.083   5.038   9.292
 6684SOL    HW120384   2.018   4.965   9.271
 6684SOL    HW220385   2.087   5.052   9.390
 6685SOL     OW20386   1.941   4.964   8.101
 6685SOL    HW120387   1.940   4.917   8.189
 6685SOL    HW220388   2.023   4.936   8.050
 6686SOL     OW20389   2.534   5.115   9.072
 6686SOL    HW120390   2.456   5.065   9.110
 6686SOL    HW220391   2.531   5.210   9.103
 6687SOL     OW20392   3.686   3.916   8.675
 6687SOL    HW120393   3.682   3.826   8.719
 6687SOL    HW220394   3.689   3.905   8.576
 6688SOL     OW20395   2.290   4.148   7.968
 6688SOL    HW120396   2.320   4.076   7.906
 6688SOL    HW220397   2.251   4.108   8.051
 6689SOL     OW20398   3.567   5.211   8.552
 6689SOL    HW120399   3.474   5.186   8.525
 6689SOL    HW220400   3.593   5.161   8.634
 6690SOL     OW20401   2.179   4.271   8.728
 6690SOL    HW120402   2.217   4.212   8.800
 6690SOL    HW220403   2.219   4.245   8.640
 6691SOL     OW20404   3.286   3.938   8.560
 6691SOL    HW120405   3.338   3.873   8.615
 6691SOL    HW220406   3.237   4.001   8.621
 6692SOL     OW20407   2.863   3.758   8.602
 6692SOL    HW120408   2.800   3.686   8.571
 6692SOL    HW220409   2.956   3.722   8.602
 6693SOL     OW20410   2.632   5.054   7.749
 6693SOL    HW120411   2.586   4.967   7.766
 6693SOL    HW220412   2.723   5.051   7.790
 6694SOL     OW20413   2.480   5.291   8.732
 6694SOL    HW120414   2.475   5.373   8.789
 6694SOL    HW220415   2.569   5.288   8.687
 6695SOL     OW20416   3.214   3.776   7.616
 6695SOL    HW120417   3.249   3.735   7.532
 6695SOL    HW220418   3.124   3.738   7.636
 6696SOL     OW20419   3.162   4.177   8.139
 6696SOL    HW120420   3.103   4.257   8.143
 6696SOL    HW220421   3.177   4.142   8.232
 6697SOL     OW20422   3.455   3.945   8.330
 6697SOL    HW120423   3.371   3.944   8.384
 6697SOL    HW220424   3.457   4.028   8.274
 6698SOL     OW20425   1.901   4.801   7.748
 6698SOL    HW120426   2.000   4.790   7.739
 6698SOL    HW220427   1.861   4.715   7.780
 6699SOL     OW20428   2.092   4.352   9.423
 6699SOL    HW120429   1.999   4.350   9.460
 6699SOL    HW220430   2.093   4.313   9.331
 6700SOL     OW20431   2.087   3.999  10.306
 6700SOL    HW120432   2.122   3.982  10.398
 6700SOL    HW220433   1.999   3.954  10.294
 6701SOL     OW20434   1.881   4.092   9.957
 6701SOL    HW120435   1.799   4.135   9.996
 6701SOL    HW220436   1.853   4.019   9.894
 6702SOL     OW20437   2.431   4.999  10.475
 6702SOL    HW120438   2.338   4.992  10.438
 6702SOL    HW220439   2.442   5.088  10.519
 6703SOL     OW20440   3.417   5.235  10.013
 6703SOL    HW120441   3.360   5.219  10.094
 6703SOL    HW220442   3.358   5.245   9.933
 6704SOL     OW20443   2.997   4.427  10.027
 6704SOL    HW120444   3.054   4.505  10.002
 6704SOL    HW220445   2.937   4.453  10.103
 6705SOL     OW20446   3.617   4.331   9.541
 6705SOL    HW120447   3.605   4.318   9.442
 6705SOL    HW220448   3.587   4.250   9.590
 6706SOL     OW20449   2.630   4.868  10.333
 6706SOL    HW120450   2.552   4.885  10.393
 6706SOL    HW220451   2.664   4.955  10.297
 6707SOL     OW20452   2.547   4.736   9.975
 6707SOL    HW120453   2.616   4.720  10.045
 6707SOL    HW220454   2.474   4.793  10.013
 6708SOL     OW20455   2.197   5.159  10.371
 6708SOL    HW120456   2.119   5.128  10.318
 6708SOL    HW220457   2.255   5.217  10.314
 6709SOL     OW20458   3.322   5.229  10.649
 6709SOL    HW120459   3.346   5.323  10.675
 6709SOL    HW220460   3.306   5.175  10.731
 6710SOL     OW20461   2.300   4.116  10.809
 6710SOL    HW120462   2.382   4.060  10.818
 6710SOL    HW220463   2.219   4.058  10.813
 6711SOL     OW20464   3.465   4.171  10.047
 6711SOL    HW120465   3.391   4.217   9.997
 6711SOL    HW220466   3.516   4.239  10.100
 6712SOL     OW20467   2.092   5.158   9.848
 6712SOL    HW120468   2.066   5.254   9.848
 6712SOL    HW220469   2.021   5.104   9.893
 6713SOL     OW20470   2.102   4.815  10.196
 6713SOL    HW120471   2.116   4.731  10.248
 6713SOL    HW220472   2.047   4.879  10.251
 6714SOL     OW20473   2.468   4.688   9.433
 6714SOL    HW120474   2.475   4.772   9.379
 6714SOL    HW220475   2.514   4.701   9.521
 6715SOL     OW20476   1.984   4.367   9.873
 6715SOL    HW120477   1.939   4.279   9.890
 6715SOL    HW220478   1.983   4.421   9.957
 6716SOL     OW20479   1.889   5.320   9.427
 6716SOL    HW120480   1.870   5.224   9.448
 6716SOL    HW220481   1.856   5.378   9.502
 6717SOL     OW20482   3.551   4.646   9.922
 6717SOL    HW120483   3.646   4.617   9.930
 6717SOL    HW220484   3.543   4.711   9.847
 6718SOL     OW20485   3.503   4.832   9.742
 6718SOL    HW120486   3.589   4.834   9.690
 6718SOL    HW220487   3.517   4.879   9.830
 6719SOL     OW20488   2.475   5.089  10.036
 6719SOL    HW120489   2.426   5.002  10.045
 6719SOL    HW220490   2.452   5.132   9.949
 6720SOL     OW20491   2.671   3.728   9.812
 6720SOL    HW120492   2.711   3.819   9.803
 6720SOL    HW220493   2.571   3.736   9.818
 6721SOL     OW20494   2.059   4.700  10.574
 6721SOL    HW120495   2.148   4.655  10.560
 6721SOL    HW220496   1.986   4.635  10.555
 6722SOL     OW20497   3.387   4.723   9.500
 6722SOL    HW120498   3.324   4.647   9.513
 6722SOL    HW220499   3.435   4.741   9.586
 6723SOL     OW20500   3.328   5.141  10.263
 6723SOL    HW120501   3.269   5.147  10.343
 6723SOL    HW220502   3.313   5.053  10.217
 6724SOL     OW20503   2.460   4.453   9.580
 6724SOL    HW120504   2.484   4.522   9.512
 6724SOL    HW220505   2.382   4.486   9.634
 6725SOL     OW20506   3.143   4.069  10.254
 6725SOL    HW120507   3.057   4.019  10.241
 6725SOL    HW220508   3.205   4.015  10.310
 6726SOL     OW20509   2.669   4.329  10.775
 6726SOL    HW120510   2.622   4.326  10.864
 6726SOL    HW220511   2.618   4.274  10.709
 6727SOL     OW20512   2.853   4.134  10.552
 6727SOL    HW120513   2.776   4.168  10.606
 6727SOL    HW220514   2.819   4.083  10.473
 6728SOL     OW20515   2.903   4.425   9.739
 6728SOL    HW120516   2.929   4.421   9.835
 6728SOL    HW220517   2.818   4.374   9.725
 6729SOL     OW20518   1.938   4.535  10.099
 6729SOL    HW120519   2.037   4.523  10.108
 6729SOL    HW220520   1.914   4.630  10.120
 6730SOL     OW20521   2.727   4.072   9.505
 6730SOL    HW120522   2.786   4.135   9.456
 6730SOL    HW220523   2.746   3.978   9.476
 6731SOL     OW20524   3.224   4.868   9.855
 6731SOL    HW120525   3.307   4.839   9.807
 6731SOL    HW220526   3.175   4.935   9.799
 6732SOL     OW20527   2.412   3.920  10.195
 6732SOL    HW120528   2.407   3.915  10.295
 6732SOL    HW220529   2.414   4.016  10.166
 6733SOL     OW20530   2.870   5.180   9.787
 6733SOL    HW120531   2.824   5.252   9.735
 6733SOL    HW220532   2.866   5.200   9.885
 6734SOL     OW20533   3.657   4.790  10.183
 6734SOL    HW120534   3.595   4.775  10.107
 6734SOL    HW220535   3.605   4.801  10.268
 6735SOL     OW20536   2.183   4.667   9.552
 6735SOL    HW120537   2.265   4.706   9.510
 6735SOL    HW220538   2.156   4.585   9.503
 6736SOL     OW20539   3.320   4.459  10.038
 6736SOL    HW120540   3.315   4.394  10.113
 6736SOL    HW220541   3.400   4.518  10.051
 6737SOL     OW20542   2.973   5.500   9.547
 6737SOL    HW120543   2.913   5.438   9.597
 6737SOL    HW220544   3.004   5.456   9.462
 6738SOL     OW20545   3.494   5.101   9.391
 6738SOL    HW120546   3.462   5.195   9.381
 6738SOL    HW220547   3.418   5.038   9.379
 6739SOL     OW20548   3.262   3.831   9.736
 6739SOL    HW120549   3.238   3.794   9.646
 6739SOL    HW220550   3.361   3.847   9.740
 6740SOL     OW20551   2.244   4.424   9.790
 6740SOL    HW120552   2.289   4.334   9.787
 6740SOL    HW220553   2.150   4.413   9.823
 6741SOL     OW20554   2.476   3.846   9.427
 6741SOL    HW120555   2.574   3.824   9.434
 6741SOL    HW220556   2.445   3.829   9.334
 6742SOL     OW20557   2.665   5.126  10.234
 6742SOL    HW120558   2.755   5.140  10.192
 6742SOL    HW220559   2.594   5.128  10.163
 6743SOL     OW20560   2.784   4.227  10.209
 6743SOL    HW120561   2.759   4.218  10.113
 6743SOL    HW220562   2.832   4.145  10.240
 6744SOL     OW20563   2.401   3.788   9.822
 6744SOL    HW120564   2.320   3.789   9.880
 6744SOL    HW220565   2.404   3.871   9.767
 6745SOL     OW20566   3.296   4.912   9.351
 6745SOL    HW120567   3.328   4.836   9.408
 6745SOL    HW220568   3.204   4.939   9.381
 6746SOL     OW20569   2.159   3.759   9.481
 6746SOL    HW120570   2.208   3.843   9.460
 6746SOL    HW220571   2.221   3.694   9.526
 6747SOL     OW20572   2.797   3.960   9.790
 6747SOL    HW120573   2.749   4.001   9.712
 6747SOL    HW220574   2.896   3.958   9.771
 6748SOL     OW20575   3.089   5.294  10.103
 6748SOL    HW120576   3.110   5.368  10.038
 6748SOL    HW220577   3.157   5.294  10.176
 6749SOL     OW20578   2.321   4.876  10.051
 6749SOL    HW120579   2.250   4.849  10.116
 6749SOL    HW220580   2.295   4.848   9.958
 6750SOL     OW20581   2.894   4.273   9.326
 6750SOL    HW120582   2.853   4.355   9.287
 6750SOL    HW220583   2.958   4.299   9.399
 6751SOL     OW20584   2.423   3.946  10.457
 6751SOL    HW120585   2.461   3.862  10.494
 6751SOL    HW220586   2.335   3.965  10.501
 6752SOL     OW20587   2.728   4.178   9.952
 6752SOL    HW120588   2.696   4.250   9.890
 6752SOL    HW220589   2.752   4.097   9.899
 6753SOL     OW20590   2.879   3.763  10.063
 6753SOL    HW120591   2.807   3.768   9.994
 6753SOL    HW220592   2.855   3.694  10.132
 6754SOL     OW20593   3.291   4.897  10.177
 6754SOL    HW120594   3.236   4.813  10.170
 6754SOL    HW220595   3.317   4.926  10.085
 6755SOL     OW20596   3.328   4.314  10.302
 6755SOL    HW120597   3.298   4.219  10.309
 6755SOL    HW220598   3.401   4.330  10.368
 6756SOL     OW20599   3.719   4.557   9.687
 6756SOL    HW120600   3.761   4.493   9.751
 6756SOL    HW220601   3.681   4.506   9.609
 6757SOL     OW20602   2.350   5.109   9.484
 6757SOL    HW120603   2.263   5.094   9.531
 6757SOL    HW220604   2.333   5.135   9.389
 6758SOL     OW20605   3.526   5.004   9.967
 6758SOL    HW120606   3.625   5.012   9.981
 6758SOL    HW220607   3.481   5.088   9.998
 6759SOL     OW20608   3.252   4.299   9.388
 6759SOL    HW120609   3.198   4.278   9.469
 6759SOL    HW220610   3.343   4.258   9.397
 6760SOL     OW20611   2.389   3.980   9.638
 6760SOL    HW120612   2.416   3.921   9.563
 6760SOL    HW220613   2.389   4.075   9.607
 6761SOL     OW20614   2.926   5.071  10.650
 6761SOL    HW120615   2.846   5.048  10.705
 6761SOL    HW220616   3.009   5.045  10.699
 6762SOL     OW20617   3.454   5.353  10.935
 6762SOL    HW120618   3.481   5.387  10.845
 6762SOL    HW220619   3.533   5.315  10.981
 6763SOL     OW20620   2.973   4.919  10.410
 6763SOL    HW120621   2.933   4.963  10.491
 6763SOL    HW220622   2.932   4.956  10.327
 6764SOL     OW20623   3.500   4.823  10.389
 6764SOL    HW120624   3.505   4.904  10.448
 6764SOL    HW220625   3.414   4.825  10.338
 6765SOL     OW20626   2.567   4.774   9.678
 6765SOL    HW120627   2.553   4.781   9.777
 6765SOL    HW220628   2.651   4.723   9.660
 6766SOL     OW20629   2.272   4.537  10.561
 6766SOL    HW120630   2.358   4.549  10.611
 6766SOL    HW220631   2.230   4.450  10.588
 6767SOL     OW20632   3.136   4.110  10.572
 6767SOL    HW120633   3.157   4.184  10.636
 6767SOL    HW220634   3.047   4.127  10.529
 6768SOL     OW20635   2.229   4.824   9.811
 6768SOL    HW120636   2.222   4.907   9.755
 6768SOL    HW220637   2.233   4.744   9.751
 6769SOL     OW20638   2.428   4.261  10.175
 6769SOL    HW120639   2.440   4.327  10.101
 6769SOL    HW220640   2.474   4.295  10.258
 6770SOL     OW20641   3.114   5.072   9.698
 6770SOL    HW120642   3.164   5.149   9.738
 6770SOL    HW220643   3.019   5.074   9.730
 6771SOL     OW20644   3.134   5.169  10.452
 6771SOL    HW120645   3.181   5.182  10.539
 6771SOL    HW220646   3.068   5.095  10.461
 6772SOL     OW20647   3.444   4.363   9.782
 6772SOL    HW120648   3.413   4.424   9.855
 6772SOL    HW220649   3.494   4.415   9.713
 6773SOL     OW20650   2.216   5.234  10.639
 6773SOL    HW120651   2.195   5.190  10.552
 6773SOL    HW220652   2.313   5.260  10.642
 6774SOL     OW20653   2.366   3.774  11.050
 6774SOL    HW120654   2.324   3.717  10.980
 6774SOL    HW220655   2.300   3.843  11.082
 6775SOL     OW20656   2.435   4.594  10.339
 6775SOL    HW120657   2.479   4.683  10.330
 6775SOL    HW220658   2.372   4.594  10.416
 6776SOL     OW20659   3.222   4.586  10.355
 6776SOL    HW120660   3.147   4.586  10.289
 6776SOL    HW220661   3.259   4.494  10.364
 6777SOL     OW20662   3.071   4.249   9.585
 6777SOL    HW120663   3.084   4.165   9.639
 6777SOL    HW220664   3.042   4.323   9.645
 6778SOL     OW20665   2.169   3.937  10.541
 6778SOL    HW120666   2.146   3.974  10.631
 6778SOL    HW220667   2.139   3.842  10.535
 6779SOL     OW20668   1.899   5.034  10.592
 6779SOL    HW120669   1.952   4.985  10.660
 6779SOL    HW220670   1.921   5.132  10.597
 6780SOL     OW20671   2.594   4.358  10.374
 6780SOL    HW120672   2.653   4.332  10.298
 6780SOL    HW220673   2.566   4.454  10.363
 6781SOL     OW20674   2.169   3.787   9.928
 6781SOL    HW120675   2.158   3.881   9.961
 6781SOL    HW220676   2.164   3.724  10.005
 6782SOL     OW20677   3.484   4.091   9.684
 6782SOL    HW120678   3.486   4.015   9.748
 6782SOL    HW220679   3.436   4.168   9.724
 6783SOL     OW20680   2.885   4.490  10.276
 6783SOL    HW120681   2.900   4.511  10.372
 6783SOL    HW220682   2.855   4.395  10.267
 6784SOL     OW20683   3.402   3.998   9.435
 6784SOL    HW120684   3.341   3.923   9.458
 6784SOL    HW220685   3.424   4.050   9.518
 6785SOL     OW20686   3.165   4.562   9.352
 6785SOL    HW120687   3.199   4.469   9.367
 6785SOL    HW220688   3.183   4.589   9.257
 6786SOL     OW20689   2.930   5.057  10.159
 6786SOL    HW120690   2.937   4.973  10.104
 6786SOL    HW220691   2.992   5.126  10.123
 6787SOL     OW20692   2.181   4.534  10.259
 6787SOL    HW120693   2.274   4.570  10.264
 6787SOL    HW220694   2.175   4.449  10.311
 6788SOL     OW20695   2.201   4.233  10.316
 6788SOL    HW120696   2.149   4.150  10.299
 6788SOL    HW220697   2.278   4.238  10.252
 6789SOL     OW20698   3.022   3.931  10.787
 6789SOL    HW120699   3.022   3.995  10.864
 6789SOL    HW220700   3.050   3.979  10.704
 6790SOL     OW20701   1.870   5.050   9.510
 6790SOL    HW120702   1.777   5.071   9.479
 6790SOL    HW220703   1.880   4.951   9.523
 6791SOL     OW20704   2.864   4.520  10.548
 6791SOL    HW120705   2.905   4.488  10.634
 6791SOL    HW220706   2.768   4.493  10.545
 6792SOL     OW20707   1.902   4.268  10.424
 6792SOL    HW120708   1.987   4.235  10.383
 6792SOL    HW220709   1.915   4.283  10.522
 6793SOL     OW20710   2.677   4.296   9.635
 6793SOL    HW120711   2.684   4.207   9.589
 6793SOL    HW220712   2.583   4.330   9.627
 6794SOL     OW20713   3.519   4.328  10.516
 6794SOL    HW120714   3.481   4.259  10.578
 6794SOL    HW220715   3.601   4.292  10.472
 6795SOL     OW20716   2.533   4.188  10.579
 6795SOL    HW120717   2.499   4.099  10.549
 6795SOL    HW220718   2.559   4.242  10.499
 6796SOL     OW20719   2.335   4.224   9.501
 6796SOL    HW120720   2.396   4.304   9.505
 6796SOL    HW220721   2.240   4.255   9.508
 6797SOL     OW20722   2.021   4.861  10.776
 6797SOL    HW120723   2.043   4.800  10.852
 6797SOL    HW220724   2.031   4.812  10.690
 6798SOL     OW20725   3.209   4.783  10.544
 6798SOL    HW120726   3.233   4.720  10.470
 6798SOL    HW220727   3.119   4.823  10.526
 6799SOL     OW20728   3.164   4.579   9.619
 6799SOL    HW120729   3.078   4.548   9.661
 6799SOL    HW220730   3.160   4.565   9.520
 6800SOL     OW20731   1.945   4.982  10.332
 6800SOL    HW120732   1.940   4.981  10.432
 6800SOL    HW220733   1.862   4.941  10.294
 6801SOL     OW20734   3.588   3.859   9.833
 6801SOL    HW120735   3.661   3.842   9.766
 6801SOL    HW220736   3.557   3.772   9.871
 6802SOL     OW20737   3.142   4.651   9.982
 6802SOL    HW120738   3.202   4.570   9.984
 6802SOL    HW220739   3.182   4.720   9.922
 6803SOL     OW20740   3.703   3.899  10.273
 6803SOL    HW120741   3.742   3.814  10.237
 6803SOL    HW220742   3.605   3.901  10.254
 6804SOL     OW20743   2.125   4.050  10.030
 6804SOL    HW120744   2.046   4.101   9.996
 6804SOL    HW220745   2.116   4.035  10.128
 6805SOL     OW20746   2.684   4.726  10.682
 6805SOL    HW120747   2.724   4.725  10.590
 6805SOL    HW220748   2.694   4.818  10.722
 6806SOL     OW20749   2.778   4.634   9.601
 6806SOL    HW120750   2.841   4.672   9.533
 6806SOL    HW220751   2.818   4.551   9.640
 6807SOL     OW20752   2.234   5.012  10.800
 6807SOL    HW120753   2.221   5.105  10.766
 6807SOL    HW220754   2.150   4.960  10.787
 6808SOL     OW20755   3.476   5.016  10.599
 6808SOL    HW120756   3.536   5.019  10.679
 6808SOL    HW220757   3.401   5.080  10.612
 6809SOL     OW20758   2.901   4.822  10.006
 6809SOL    HW120759   2.831   4.775  10.060
 6809SOL    HW220760   2.960   4.754   9.963
 6810SOL     OW20761   2.876   3.960  10.281
 6810SOL    HW120762   2.868   3.924  10.188
 6810SOL    HW220763   2.874   3.884  10.346
 6811SOL     OW20764   3.571   4.109  10.691
 6811SOL    HW120765   3.644   4.178  10.695
 6811SOL    HW220766   3.599   4.034  10.632
 6812SOL     OW20767   2.117   5.072   9.600
 6812SOL    HW120768   2.021   5.073   9.573
 6812SOL    HW220769   2.129   5.125   9.684
 6813SOL     OW20770   2.534   3.927  10.799
 6813SOL    HW120771   2.624   3.911  10.759
 6813SOL    HW220772   2.542   3.932  10.898
 6814SOL     OW20773   1.937   4.069   9.343
 6814SOL    HW120774   1.845   4.041   9.314
 6814SOL    HW220775   1.968   4.146   9.287
 6815SOL     OW20776   1.934   3.890   9.628
 6815SOL    HW120777   1.917   3.973   9.574
 6815SOL    HW220778   2.024   3.853   9.606
 6816SOL     OW20779   3.045   5.059   9.429
 6816SOL    HW120780   2.946   5.048   9.431
 6816SOL    HW220781   3.079   5.074   9.522
 6817SOL     OW20782   2.475   4.566  10.741
 6817SOL    HW120783   2.531   4.647  10.724
 6817SOL    HW220784   2.534   4.486  10.744
 6818SOL     OW20785   3.536   4.607  10.564
 6818SOL    HW120786   3.509   4.518  10.527
 6818SOL    HW220787   3.537   4.675  10.491
 6819SOL     OW20788   3.087   4.049   9.759
 6819SOL    HW120789   3.152   3.975   9.748
 6819SOL    HW220790   3.107   4.099   9.843
 6820SOL     OW20791   2.456   4.469   9.962
 6820SOL    HW120792   2.506   4.554   9.943
 6820SOL    HW220793   2.368   4.471   9.914
 6821SOL     OW20794   3.592   4.658  10.827
 6821SOL    HW120795   3.630   4.749  10.842
 6821SOL    HW220796   3.584   4.641  10.728
 6822SOL     OW20797   2.721   5.098   9.326
 6822SOL    HW120798   2.675   5.113   9.414
 6822SOL    HW220799   2.765   5.183   9.296
 6823SOL     OW20800   2.721   4.680  10.171
 6823SOL    HW120801   2.775   4.611  10.219
 6823SOL    HW220802   2.689   4.749  10.237
 6824SOL     OW20803   2.945   4.708   9.397
 6824SOL    HW120804   2.922   4.761   9.315
 6824SOL    HW220805   3.026   4.652   9.378
 6825SOL     OW20806   1.941   4.964   9.963
 6825SOL    HW120807   1.940   4.917  10.051
 6825SOL    HW220808   2.023   4.936   9.912
 6826SOL     OW20809   3.686   3.916  10.537
 6826SOL    HW120810   3.682   3.826  10.581
 6826SOL    HW220811   3.689   3.905  10.438
 6827SOL     OW20812   2.290   4.148   9.830
 6827SOL    HW120813   2.320   4.076   9.768
 6827SOL    HW220814   2.251   4.108   9.913
 6828SOL     OW20815   3.567   5.211  10.414
 6828SOL    HW120816   3.474   5.186  10.387
 6828SOL    HW220817   3.593   5.161  10.496
 6829SOL     OW20818   2.179   4.271  10.590
 6829SOL    HW120819   2.217   4.212  10.662
 6829SOL    HW220820   2.219   4.245  10.502
 6830SOL     OW20821   3.286   3.938  10.422
 6830SOL    HW120822   3.338   3.873  10.477
 6830SOL    HW220823   3.237   4.001  10.483
 6831SOL     OW20824   2.863   3.758  10.464
 6831SOL    HW120825   2.800   3.686  10.433
 6831SOL    HW220826   2.956   3.722  10.464
 6832SOL     OW20827   2.632   5.054   9.611
 6832SOL    HW120828   2.586   4.967   9.628
 6832SOL    HW220829   2.723   5.051   9.652
 6833SOL     OW20830   2.480   5.291  10.594
 6833SOL    HW120831   2.475   5.373  10.651
 6833SOL    HW220832   2.569   5.288  10.549
 6834SOL     OW20833   3.214   3.776   9.478
 6834SOL    HW120834   3.249   3.735   9.394
 6834SOL    HW220835   3.124   3.738   9.498
 6835SOL     OW20836   3.162   4.177  10.001
 6835SOL    HW120837   3.103   4.257  10.005
 6835SOL    HW220838   3.177   4.142  10.094
 6836SOL     OW20839   3.455   3.945  10.192
 6836SOL    HW120840   3.371   3.944  10.246
 6836SOL    HW220841   3.457   4.028  10.136
 6837SOL     OW20842   1.901   4.801   9.610
 6837SOL    HW120843   2.000   4.790   9.601
 6837SOL    HW220844   1.861   4.715   9.642
 6838SOL     OW20845   3.954   0.628   0.113
 6838SOL    HW120846   3.861   0.626   0.150
 6838SOL    HW220847   3.955   0.589   0.021
 6839SOL     OW20848   3.949   0.275   0.996
 6839SOL    HW120849   3.984   0.258   1.088
 6839SOL    HW220850   3.861   0.230   0.984
 6840SOL     OW20851   3.743   0.368   0.647
 6840SOL    HW120852   3.661   0.411   0.686
 6840SOL    HW220853   3.715   0.295   0.584
 6841SOL     OW20854   4.293   1.275   1.165
 6841SOL    HW120855   4.200   1.268   1.128
 6841SOL    HW220856   4.304   1.364   1.209
 6842SOL     OW20857   5.279   1.511   0.703
 6842SOL    HW120858   5.222   1.495   0.784
 6842SOL    HW220859   5.220   1.521   0.623
 6843SOL     OW20860   4.859   0.703   0.717
 6843SOL    HW120861   4.916   0.781   0.692
 6843SOL    HW220862   4.799   0.729   0.793
 6844SOL     OW20863   4.492   1.144   1.023
 6844SOL    HW120864   4.414   1.161   1.083
 6844SOL    HW220865   4.526   1.231   0.987
 6845SOL     OW20866   4.574   0.798   1.823
 6845SOL    HW120867   4.570   0.874   1.888
 6845SOL    HW220868   4.596   0.834   1.732
 6846SOL     OW20869   4.409   1.012   0.665
 6846SOL    HW120870   4.478   0.996   0.735
 6846SOL    HW220871   4.336   1.069   0.703
 6847SOL     OW20872   4.410   1.161   1.803
 6847SOL    HW120873   4.470   1.240   1.817
 6847SOL    HW220874   4.324   1.192   1.762
 6848SOL     OW20875   4.059   1.435   1.061
 6848SOL    HW120876   3.981   1.404   1.008
 6848SOL    HW220877   4.117   1.493   1.004
 6849SOL     OW20878   5.184   1.505   1.339
 6849SOL    HW120879   5.208   1.599   1.365
 6849SOL    HW220880   5.168   1.451   1.421
 6850SOL     OW20881   4.162   0.392   1.499
 6850SOL    HW120882   4.244   0.336   1.508
 6850SOL    HW220883   4.081   0.334   1.503
 6851SOL     OW20884   3.955   1.713   0.483
 6851SOL    HW120885   3.989   1.790   0.537
 6851SOL    HW220886   3.999   1.713   0.393
 6852SOL     OW20887   4.851   1.341   1.690
 6852SOL    HW120888   4.898   1.341   1.778
 6852SOL    HW220889   4.803   1.254   1.679
 6853SOL     OW20890   3.954   1.434   0.538
 6853SOL    HW120891   3.928   1.530   0.538
 6853SOL    HW220892   3.883   1.380   0.583
 6854SOL     OW20893   3.964   1.091   0.886
 6854SOL    HW120894   3.978   1.007   0.938
 6854SOL    HW220895   3.909   1.155   0.941
 6855SOL     OW20896   4.344   1.786   1.439
 6855SOL    HW120897   4.252   1.769   1.474
 6855SOL    HW220898   4.372   1.878   1.465
 6856SOL     OW20899   4.330   0.964   0.123
 6856SOL    HW120900   4.337   1.048   0.069
 6856SOL    HW220901   4.376   0.977   0.211
 6857SOL     OW20902   5.318   0.114   1.480
 6857SOL    HW120903   5.300   0.181   1.408
 6857SOL    HW220904   5.315   0.160   1.569
 6858SOL     OW20905   3.846   0.643   0.563
 6858SOL    HW120906   3.801   0.555   0.580
 6858SOL    HW220907   3.845   0.697   0.647
 6859SOL     OW20908   3.751   1.596   0.117
 6859SOL    HW120909   3.732   1.500   0.138
 6859SOL    HW220910   3.718   1.654   0.192
 6860SOL     OW20911   5.413   0.922   0.612
 6860SOL    HW120912   5.508   0.893   0.620
 6860SOL    HW220913   5.405   0.987   0.537
 6861SOL     OW20914   3.837   0.737   1.597
 6861SOL    HW120915   3.925   0.724   1.642
 6861SOL    HW220916   3.824   0.834   1.575
 6862SOL     OW20917   4.337   1.365   0.726
 6862SOL    HW120918   4.288   1.278   0.735
 6862SOL    HW220919   4.314   1.408   0.639
 6863SOL     OW20920   5.017   1.228   1.423
 6863SOL    HW120921   5.054   1.155   1.365
 6863SOL    HW220922   5.069   1.233   1.508
 6864SOL     OW20923   4.533   0.004   0.502
 6864SOL    HW120924   4.573   0.095   0.493
 6864SOL    HW220925   4.433   0.012   0.508
 6865SOL     OW20926   3.921   0.976   1.264
 6865SOL    HW120927   4.010   0.931   1.250
 6865SOL    HW220928   3.848   0.911   1.245
 6866SOL     OW20929   4.911   1.792   1.616
 6866SOL    HW120930   4.935   1.852   1.540
 6866SOL    HW220931   4.918   1.697   1.586
 6867SOL     OW20932   4.041   0.251   1.801
 6867SOL    HW120933   4.112   0.322   1.807
 6867SOL    HW220934   3.953   0.290   1.829
 6868SOL     OW20935   5.190   1.417   0.953
 6868SOL    HW120936   5.131   1.423   1.033
 6868SOL    HW220937   5.175   1.329   0.907
 6869SOL     OW20938   4.322   0.729   0.270
 6869SOL    HW120939   4.346   0.798   0.202
 6869SOL    HW220940   4.244   0.762   0.324
 6870SOL     OW20941   5.005   0.345   0.944
 6870SOL    HW120942   4.919   0.295   0.931
 6870SOL    HW220943   5.067   0.291   1.000
 6871SOL     OW20944   4.531   0.605   1.465
 6871SOL    HW120945   4.484   0.602   1.554
 6871SOL    HW220946   4.480   0.550   1.399
 6872SOL     OW20947   5.118   0.469   1.674
 6872SOL    HW120948   5.098   0.512   1.762
 6872SOL    HW220949   5.196   0.407   1.683
 6873SOL     OW20950   4.697   0.890   1.572
 6873SOL    HW120951   4.743   0.806   1.543
 6873SOL    HW220952   4.641   0.924   1.497
 6874SOL     OW20953   4.715   0.410   1.242
 6874SOL    HW120954   4.638   0.444   1.296
 6874SOL    HW220955   4.681   0.359   1.163
 6875SOL     OW20956   4.765   0.701   0.429
 6875SOL    HW120957   4.791   0.697   0.525
 6875SOL    HW220958   4.680   0.650   0.415
 6876SOL     OW20959   3.800   0.811   0.789
 6876SOL    HW120960   3.899   0.799   0.798
 6876SOL    HW220961   3.776   0.906   0.810
 6877SOL     OW20962   3.854   1.821   1.571
 6877SOL    HW120963   3.844   1.806   1.670
 6877SOL    HW220964   3.768   1.857   1.535
 6878SOL     OW20965   4.589   0.348   0.195
 6878SOL    HW120966   4.648   0.411   0.146
 6878SOL    HW220967   4.608   0.254   0.166
 6879SOL     OW20968   5.086   1.144   0.545
 6879SOL    HW120969   5.169   1.115   0.497
 6879SOL    HW220970   5.037   1.211   0.489
 6880SOL     OW20971   4.274   0.196   0.885
 6880SOL    HW120972   4.269   0.191   0.985
 6880SOL    HW220973   4.276   0.292   0.856
 6881SOL     OW20974   4.732   1.456   0.477
 6881SOL    HW120975   4.686   1.528   0.425
 6881SOL    HW220976   4.728   1.476   0.575
 6882SOL     OW20977   4.075   1.801   0.853
 6882SOL    HW120978   4.125   1.715   0.859
 6882SOL    HW220979   4.140   1.878   0.850
 6883SOL     OW20980   4.951   1.550   1.506
 6883SOL    HW120981   4.957   1.473   1.570
 6883SOL    HW220982   4.899   1.524   1.426
 6884SOL     OW20983   4.045   0.943   0.242
 6884SOL    HW120984   4.127   0.982   0.200
 6884SOL    HW220985   4.018   0.861   0.193
 6885SOL     OW20986   4.185   1.266   1.727
 6885SOL    HW120987   4.135   1.267   1.641
 6885SOL    HW220988   4.122   1.248   1.803
 6886SOL     OW20989   4.835   1.776   0.237
 6886SOL    HW120990   4.775   1.714   0.287
 6886SOL    HW220991   4.866   1.732   0.152
 6887SOL     OW20992   3.926   0.285   1.498
 6887SOL    HW120993   3.846   0.345   1.485
 6887SOL    HW220994   3.916   0.236   1.584
 6888SOL     OW20995   4.188   1.743   0.323
 6888SOL    HW120996   4.221   1.782   0.409
 6888SOL    HW220997   4.264   1.736   0.258
 6889SOL     OW20998   5.124   0.107   0.426
 6889SOL    HW120999   5.100   0.070   0.336
 6889SOL    HW221000   5.223   0.123   0.430
 6890SOL     OW21001   3.973   1.785   1.241
 6890SOL    HW121002   4.030   1.720   1.291
 6890SOL    HW221003   3.957   1.752   1.148
 6891SOL     OW21004   4.664   1.698   0.904
 6891SOL    HW121005   4.744   1.641   0.925
 6891SOL    HW221006   4.615   1.658   0.827
 6892SOL     OW21007   4.106   0.700   0.480
 6892SOL    HW121008   4.151   0.610   0.477
 6892SOL    HW221009   4.012   0.689   0.513
 6893SOL     OW21010   4.338   0.122   0.117
 6893SOL    HW121011   4.436   0.100   0.124
 6893SOL    HW221012   4.307   0.105   0.024
 6894SOL     OW21013   4.505   0.264   1.749
 6894SOL    HW121014   4.572   0.203   1.792
 6894SOL    HW221015   4.432   0.283   1.814
 6895SOL     OW21016   4.612   1.514   1.195
 6895SOL    HW121017   4.589   1.489   1.101
 6895SOL    HW221018   4.673   1.445   1.234
 6896SOL     OW21019   5.075   0.590   1.433
 6896SOL    HW121020   5.103   0.547   1.518
 6896SOL    HW221021   5.100   0.686   1.434
 6897SOL     OW21022   4.527   1.402   0.924
 6897SOL    HW121023   4.617   1.416   0.882
 6897SOL    HW221024   4.456   1.404   0.853
 6898SOL     OW21025   4.646   0.503   0.899
 6898SOL    HW121026   4.621   0.494   0.803
 6898SOL    HW221027   4.694   0.421   0.930
 6899SOL     OW21028   4.263   0.064   0.512
 6899SOL    HW121029   4.182   0.065   0.570
 6899SOL    HW221030   4.266   0.147   0.457
 6900SOL     OW21031   5.158   1.188   0.041
 6900SOL    HW121032   5.190   1.112   0.098
 6900SOL    HW221033   5.066   1.215   0.071
 6901SOL     OW21034   4.021   0.035   0.171
 6901SOL    HW121035   4.070   0.119   0.150
 6901SOL    HW221036   4.083  -0.030   0.216
 6902SOL     OW21037   4.659   0.236   0.480
 6902SOL    HW121038   4.611   0.277   0.402
 6902SOL    HW221039   4.758   0.234   0.461
 6903SOL     OW21040   4.800   0.683   1.464
 6903SOL    HW121041   4.720   0.622   1.467
 6903SOL    HW221042   4.881   0.630   1.440
 6904SOL     OW21043   4.951   1.570   0.793
 6904SOL    HW121044   4.972   1.644   0.728
 6904SOL    HW221045   5.019   1.570   0.866
 6905SOL     OW21046   4.183   1.152   0.741
 6905SOL    HW121047   4.112   1.125   0.806
 6905SOL    HW221048   4.157   1.124   0.648
 6906SOL     OW21049   4.995   1.797   0.591
 6906SOL    HW121050   5.039   1.861   0.527
 6906SOL    HW221051   4.945   1.849   0.661
 6907SOL     OW21052   4.756   0.549   0.016
 6907SOL    HW121053   4.715   0.631  -0.023
 6907SOL    HW221054   4.820   0.575   0.089
 6908SOL     OW21055   3.802   0.556   1.386
 6908SOL    HW121056   3.894   0.555   1.345
 6908SOL    HW221057   3.796   0.630   1.453
 6909SOL     OW21058   4.285   0.222   1.147
 6909SOL    HW121059   4.323   0.138   1.184
 6909SOL    HW221060   4.197   0.241   1.191
 6910SOL     OW21061   4.590   0.454   0.642
 6910SOL    HW121062   4.558   0.526   0.580
 6910SOL    HW221063   4.614   0.373   0.589
 6911SOL     OW21064   4.741   0.039   0.753
 6911SOL    HW121065   4.669   0.044   0.684
 6911SOL    HW221066   4.717  -0.030   0.822
 6912SOL     OW21067   5.153   1.173   0.867
 6912SOL    HW121068   5.098   1.089   0.860
 6912SOL    HW221069   5.179   1.202   0.775
 6913SOL     OW21070   4.212   1.385   0.174
 6913SOL    HW121071   4.125   1.370   0.221
 6913SOL    HW221072   4.195   1.411   0.079
 6914SOL     OW21073   5.114   0.575   0.078
 6914SOL    HW121074   5.060   0.554   0.159
 6914SOL    HW221075   5.205   0.534   0.087
 6915SOL     OW21076   4.251   0.256   0.328
 6915SOL    HW121077   4.278   0.197   0.253
 6915SOL    HW221078   4.251   0.351   0.297
 6916SOL     OW21079   4.788   1.347   1.340
 6916SOL    HW121080   4.708   1.324   1.395
 6916SOL    HW221081   4.871   1.321   1.389
 6917SOL     OW21082   5.316   1.629   1.625
 6917SOL    HW121083   5.343   1.663   1.535
 6917SOL    HW221084   5.395   1.591   1.671
 6918SOL     OW21085   4.835   1.195   1.100
 6918SOL    HW121086   4.795   1.239   1.181
 6918SOL    HW221087   4.794   1.232   1.017
 6919SOL     OW21088   4.639   0.089   1.402
 6919SOL    HW121089   4.664   0.069   1.307
 6919SOL    HW221090   4.711   0.145   1.444
 6920SOL     OW21091   4.704   1.116   1.719
 6920SOL    HW121092   4.605   1.122   1.729
 6920SOL    HW221093   4.727   1.036   1.663
 6921SOL     OW21094   4.429   1.050   0.368
 6921SOL    HW121095   4.415   1.057   0.467
 6921SOL    HW221096   4.513   0.999   0.350
 6922SOL     OW21097   4.134   0.813   1.251
 6922SOL    HW121098   4.220   0.825   1.301
 6922SOL    HW221099   4.092   0.726   1.278
 6923SOL     OW21100   4.998   0.386   1.262
 6923SOL    HW121101   5.019   0.460   1.326
 6923SOL    HW221102   4.909   0.403   1.219
 6924SOL     OW21103   3.788   1.564   1.331
 6924SOL    HW121104   3.742   1.646   1.297
 6924SOL    HW221105   3.886   1.583   1.340
 6925SOL     OW21106   4.091   1.100   0.501
 6925SOL    HW121107   4.084   1.183   0.445
 6925SOL    HW221108   4.095   1.020   0.441
 6926SOL     OW21109   4.290   0.537   0.865
 6926SOL    HW121110   4.302   0.603   0.791
 6926SOL    HW221111   4.336   0.571   0.948
 6927SOL     OW21112   4.976   1.348   0.388
 6927SOL    HW121113   5.026   1.425   0.428
 6927SOL    HW221114   4.881   1.350   0.420
 6928SOL     OW21115   4.996   1.445   1.142
 6928SOL    HW121116   5.043   1.458   1.229
 6928SOL    HW221117   4.930   1.371   1.151
 6929SOL     OW21118   4.078   1.510   1.329
 6929SOL    HW121119   4.057   1.466   1.242
 6929SOL    HW221120   4.175   1.536   1.332
 6930SOL     OW21121   4.126   0.751   1.598
 6930SOL    HW121122   4.194   0.806   1.551
 6930SOL    HW221123   4.166   0.663   1.625
 6931SOL     OW21124   4.737   0.105   1.770
 6931SOL    HW121125   4.743   0.190   1.718
 6931SOL    HW221126   4.769   0.029   1.713
 6932SOL     OW21127   4.228   0.050   1.740
 6932SOL    HW121128   4.186  -0.007   1.670
 6932SOL    HW221129   4.162   0.119   1.772
 6933SOL     OW21130   4.297   0.870   1.029
 6933SOL    HW121131   4.341   0.959   1.020
 6933SOL    HW221132   4.234   0.870   1.106
 6934SOL     OW21133   5.084   0.862   1.045
 6934SOL    HW121134   5.009   0.862   0.979
 6934SOL    HW221135   5.121   0.770   1.054
 6935SOL     OW21136   4.933   0.525   0.275
 6935SOL    HW121137   4.946   0.441   0.329
 6935SOL    HW221138   4.904   0.599   0.335
 6936SOL     OW21139   4.031   0.213   1.231
 6936SOL    HW121140   4.008   0.250   1.321
 6936SOL    HW221141   4.001   0.118   1.225
 6937SOL     OW21142   3.761   1.310   1.282
 6937SOL    HW121143   3.814   1.261   1.350
 6937SOL    HW221144   3.783   1.408   1.287
 6938SOL     OW21145   4.456   0.634   1.064
 6938SOL    HW121146   4.515   0.608   0.988
 6938SOL    HW221147   4.428   0.730   1.053
 6939SOL     OW21148   4.031   0.063   0.618
 6939SOL    HW121149   4.020   0.157   0.651
 6939SOL    HW221150   4.026   0.000   0.695
 6940SOL     OW21151   5.346   0.367   0.374
 6940SOL    HW121152   5.348   0.291   0.438
 6940SOL    HW221153   5.298   0.444   0.414
 6941SOL     OW21154   4.747   0.766   0.966
 6941SOL    HW121155   4.762   0.787   1.062
 6941SOL    HW221156   4.717   0.671   0.957
 6942SOL     OW21157   4.704   1.573   1.700
 6942SOL    HW121158   4.684   1.617   1.612
 6942SOL    HW221159   4.743   1.482   1.684
 6943SOL     OW21160   4.074   0.898   1.804
 6943SOL    HW121161   4.150   0.942   1.852
 6943SOL    HW221162   4.109   0.851   1.722
 6944SOL     OW21163   5.027   0.838   0.042
 6944SOL    HW121164   5.061   0.745   0.057
 6944SOL    HW221165   5.045   0.865  -0.053
 6945SOL     OW21166   4.792   1.333   0.849
 6945SOL    HW121167   4.799   1.249   0.794
 6945SOL    HW221168   4.854   1.402   0.813
 6946SOL     OW21169   4.043   0.810   0.949
 6946SOL    HW121170   4.136   0.846   0.954
 6946SOL    HW221171   4.037   0.725   1.001
 6947SOL     OW21172   4.063   0.509   1.006
 6947SOL    HW121173   4.011   0.426   0.989
 6947SOL    HW221174   4.140   0.514   0.942
 6948SOL     OW21175   4.862   0.380   1.678
 6948SOL    HW121176   4.817   0.443   1.742
 6948SOL    HW221177   4.955   0.411   1.661
 6949SOL     OW21178   4.884   0.207   1.477
 6949SOL    HW121179   4.884   0.271   1.554
 6949SOL    HW221180   4.912   0.255   1.394
 6950SOL     OW21181   3.732   1.326   0.200
 6950SOL    HW121182   3.639   1.347   0.169
 6950SOL    HW221183   3.742   1.227   0.213
 6951SOL     OW21184   3.812   1.801   0.927
 6951SOL    HW121185   3.770   1.715   0.900
 6951SOL    HW221186   3.906   1.804   0.893
 6952SOL     OW21187   4.228   1.568   0.910
 6952SOL    HW121188   4.294   1.642   0.919
 6952SOL    HW221189   4.272   1.489   0.868
 6953SOL     OW21190   4.726   0.796   1.238
 6953SOL    HW121191   4.767   0.764   1.324
 6953SOL    HW221192   4.630   0.769   1.235
 6954SOL     OW21193   3.764   0.544   1.114
 6954SOL    HW121194   3.849   0.511   1.073
 6954SOL    HW221195   3.777   0.559   1.212
 6955SOL     OW21196   3.913   0.520   1.722
 6955SOL    HW121197   3.972   0.480   1.652
 6955SOL    HW221198   3.855   0.591   1.681
 6956SOL     OW21199   5.093   0.950   1.660
 6956SOL    HW121200   5.132   1.039   1.680
 6956SOL    HW221201   5.103   0.930   1.563
 6957SOL     OW21202   4.539   0.572   0.325
 6957SOL    HW121203   4.546   0.483   0.279
 6957SOL    HW221204   4.445   0.606   0.317
 6958SOL     OW21205   3.976   1.564   1.744
 6958SOL    HW121206   3.946   1.621   1.820
 6958SOL    HW221207   3.969   1.467   1.770
 6959SOL     OW21208   4.395   0.464   1.269
 6959SOL    HW121209   4.361   0.375   1.239
 6959SOL    HW221210   4.421   0.518   1.189
 6960SOL     OW21211   4.654   1.678   1.465
 6960SOL    HW121212   4.630   1.660   1.370
 6960SOL    HW221213   4.684   1.772   1.475
 6961SOL     OW21214   4.197   0.500   0.191
 6961SOL    HW121215   4.258   0.580   0.195
 6961SOL    HW221216   4.102   0.531   0.198
 6962SOL     OW21217   3.883   1.137   1.466
 6962SOL    HW121218   3.905   1.076   1.542
 6962SOL    HW221219   3.893   1.088   1.380
 6963SOL     OW21220   5.071   1.059   1.234
 6963SOL    HW121221   5.095   0.996   1.160
 6963SOL    HW221222   4.981   1.099   1.216
 6964SOL     OW21223   5.026   0.855   0.309
 6964SOL    HW121224   4.940   0.824   0.351
 6964SOL    HW221225   5.022   0.841   0.210
 6965SOL     OW21226   4.976   1.731   1.128
 6965SOL    HW121227   5.060   1.736   1.074
 6965SOL    HW221228   4.953   1.635   1.146
 6966SOL     OW21229   3.807   1.258   1.022
 6966SOL    HW121230   3.802   1.257   1.122
 6966SOL    HW221231   3.724   1.217   0.984
 6967SOL     OW21232   4.412   1.662   1.716
 6967SOL    HW121233   4.356   1.743   1.725
 6967SOL    HW221234   4.464   1.666   1.630
 6968SOL     OW21235   4.627   0.086   0.133
 6968SOL    HW121236   4.678   0.087   0.047
 6968SOL    HW221237   4.683   0.044   0.204
 6969SOL     OW21238   5.112   1.573   0.477
 6969SOL    HW121239   5.179   1.585   0.403
 6969SOL    HW221240   5.072   1.662   0.500
 6970SOL     OW21241   3.854   1.794   1.851
 6970SOL    HW121242   3.813   1.720   1.904
 6970SOL    HW221243   3.918   1.845   1.909
 6971SOL     OW21244   5.004   0.927   0.672
 6971SOL    HW121245   5.064   0.846   0.674
 6971SOL    HW221246   5.044   0.996   0.612
 6972SOL     OW21247   4.554   1.273   1.422
 6972SOL    HW121248   4.549   1.306   1.517
 6972SOL    HW221249   4.468   1.292   1.376
 6973SOL     OW21250   4.396   1.616   0.154
 6973SOL    HW121251   4.405   1.626   0.055
 6973SOL    HW221252   4.356   1.527   0.175
 6974SOL     OW21253   3.987   0.326   0.720
 6974SOL    HW121254   3.908   0.377   0.686
 6974SOL    HW221255   3.978   0.311   0.818
 6975SOL     OW21256   4.918   1.612   0.031
 6975SOL    HW121257   4.924   1.519   0.068
 6975SOL    HW221258   4.859   1.612  -0.049
 6976SOL     OW21259   4.546   1.002   1.372
 6976SOL    HW121260   4.586   1.001   1.280
 6976SOL    HW221261   4.556   1.094   1.412
 6977SOL     OW21262   4.640   0.910   0.291
 6977SOL    HW121263   4.703   0.948   0.223
 6977SOL    HW221264   4.680   0.827   0.330
 6978SOL     OW21265   4.096   1.288   1.490
 6978SOL    HW121266   4.083   1.381   1.456
 6978SOL    HW221267   4.012   1.236   1.477
 6979SOL     OW21268   4.763   1.098   0.696
 6979SOL    HW121269   4.693   1.051   0.750
 6979SOL    HW221270   4.822   1.030   0.653
 6980SOL     OW21271   4.738   0.236   0.971
 6980SOL    HW121272   4.730   0.200   0.878
 6980SOL    HW221273   4.736   0.160   1.036
 6981SOL     OW21274   4.314   1.487   0.491
 6981SOL    HW121275   4.356   1.429   0.421
 6981SOL    HW221276   4.270   1.566   0.447
 6982SOL     OW21277   3.979   1.348   0.290
 6982SOL    HW121278   3.883   1.349   0.263
 6982SOL    HW221279   3.991   1.401   0.374
 6983SOL     OW21280   3.829   1.013   1.726
 6983SOL    HW121281   3.752   0.980   1.780
 6983SOL    HW221282   3.914   0.983   1.768
 6984SOL     OW21283   4.396   0.203   1.489
 6984SOL    HW121284   4.486   0.187   1.449
 6984SOL    HW221285   4.404   0.208   1.588
 6985SOL     OW21286   3.799   0.345   0.033
 6985SOL    HW121287   3.707   0.317   0.004
 6985SOL    HW221288   3.830   0.422  -0.023
 6986SOL     OW21289   5.164   0.856   1.398
 6986SOL    HW121290   5.107   0.908   1.335
 6986SOL    HW221291   5.260   0.868   1.374
 6987SOL     OW21292   3.796   0.166   0.318
 6987SOL    HW121293   3.779   0.249   0.264
 6987SOL    HW221294   3.886   0.129   0.296
 6988SOL     OW21295   4.907   1.335   0.119
 6988SOL    HW121296   4.808   1.324   0.121
 6988SOL    HW221297   4.941   1.350   0.212
 6989SOL     OW21298   4.337   0.842   1.431
 6989SOL    HW121299   4.393   0.923   1.414
 6989SOL    HW221300   4.396   0.762   1.434
 6990SOL     OW21301   4.440   0.565   1.708
 6990SOL    HW121302   4.459   0.630   1.782
 6990SOL    HW221303   4.500   0.485   1.717
 6991SOL     OW21304   5.174   1.220   1.633
 6991SOL    HW121305   5.165   1.210   1.732
 6991SOL    HW221306   5.270   1.213   1.607
 6992SOL     OW21307   4.114   1.741   1.560
 6992SOL    HW121308   4.023   1.782   1.558
 6992SOL    HW221309   4.107   1.647   1.592
 6993SOL     OW21310   4.949   0.325   0.449
 6993SOL    HW121311   5.014   0.251   0.438
 6993SOL    HW221312   4.969   0.375   0.533
 6994SOL     OW21313   4.318   0.745   0.652
 6994SOL    HW121314   4.368   0.830   0.633
 6994SOL    HW221315   4.230   0.747   0.604
 6995SOL     OW21316   4.583   1.374   0.016
 6995SOL    HW121317   4.537   1.389   0.104
 6995SOL    HW221318   4.627   1.459  -0.014
 6996SOL     OW21319   4.385   1.790   0.953
 6996SOL    HW121320   4.339   1.878   0.940
 6996SOL    HW221321   4.484   1.802   0.946
 6997SOL     OW21322   4.583   0.956   0.861
 6997SOL    HW121323   4.637   0.887   0.909
 6997SOL    HW221324   4.551   1.025   0.927
 6998SOL     OW21325   4.807   0.984   0.087
 6998SOL    HW121326   4.784   1.037   0.005
 6998SOL    HW221327   4.888   0.928   0.068
 6999SOL     OW21328   3.945   1.314   1.844
 6999SOL    HW121329   3.880   1.241   1.823
 6999SOL    HW221330   3.949   1.328   1.942
 7000SOL     OW21331   3.803   1.240   0.653
 7000SOL    HW121332   3.802   1.193   0.741
 7000SOL    HW221333   3.885   1.212   0.602
 7001SOL     OW21334   4.396   1.391   1.624
 7001SOL    HW121335   4.318   1.341   1.662
 7001SOL    HW221336   4.393   1.486   1.655
 7002SOL     OW21337   4.152   0.424   0.520
 7002SOL    HW121338   4.182   0.352   0.458
 7002SOL    HW221339   4.113   0.384   0.603
 7003SOL     OW21340   5.429   1.487   1.104
 7003SOL    HW121341   5.336   1.462   1.077
 7003SOL    HW221342   5.455   1.437   1.186
 7004SOL     OW21343   4.041   0.547   1.280
 7004SOL    HW121344   4.079   0.488   1.352
 7004SOL    HW221345   4.081   0.521   1.192
 7005SOL     OW21346   4.536   1.586   0.687
 7005SOL    HW121347   4.568   1.596   0.593
 7005SOL    HW221348   4.457   1.524   0.689
 7006SOL     OW21349   5.148   0.214   1.112
 7006SOL    HW121350   5.200   0.149   1.167
 7006SOL    HW221351   5.099   0.277   1.173
 7007SOL     OW21352   4.725   0.034   1.154
 7007SOL    HW121353   4.662  -0.038   1.123
 7007SOL    HW221354   4.818  -0.002   1.154
 7008SOL     OW21355   4.494   1.330   0.301
 7008SOL    HW121356   4.448   1.243   0.318
 7008SOL    HW221357   4.585   1.327   0.342
 7009SOL     OW21358   4.342   1.567   1.284
 7009SOL    HW121359   4.337   1.649   1.341
 7009SOL    HW221360   4.431   1.564   1.239
 7010SOL     OW21361   5.076   0.052   0.168
 7010SOL    HW121362   5.111   0.011   0.084
 7010SOL    HW221363   4.986   0.014   0.188
 7011SOL     OW21364   5.024   0.453   0.691
 7011SOL    HW121365   4.965   0.533   0.695
 7011SOL    HW221366   5.039   0.418   0.784
 7012SOL     OW21367   5.317   0.221   0.882
 7012SOL    HW121368   5.233   0.220   0.936
 7012SOL    HW221369   5.319   0.304   0.826
 7013SOL     OW21370   3.763   1.077   0.300
 7013SOL    HW121371   3.862   1.066   0.291
 7013SOL    HW221372   3.723   0.991   0.332
 7014SOL     OW21373   4.599   1.646   0.337
 7014SOL    HW121374   4.522   1.611   0.283
 7014SOL    HW221375   4.567   1.717   0.399
 7015SOL     OW21376   3.954   0.628   1.975
 7015SOL    HW121377   3.861   0.626   2.012
 7015SOL    HW221378   3.955   0.589   1.883
 7016SOL     OW21379   3.949   0.275   2.858
 7016SOL    HW121380   3.984   0.258   2.950
 7016SOL    HW221381   3.861   0.230   2.846
 7017SOL     OW21382   3.743   0.368   2.509
 7017SOL    HW121383   3.661   0.411   2.548
 7017SOL    HW221384   3.715   0.295   2.446
 7018SOL     OW21385   4.293   1.275   3.027
 7018SOL    HW121386   4.200   1.268   2.990
 7018SOL    HW221387   4.304   1.364   3.071
 7019SOL     OW21388   5.279   1.511   2.565
 7019SOL    HW121389   5.222   1.495   2.646
 7019SOL    HW221390   5.220   1.521   2.485
 7020SOL     OW21391   4.859   0.703   2.579
 7020SOL    HW121392   4.916   0.781   2.554
 7020SOL    HW221393   4.799   0.729   2.655
 7021SOL     OW21394   4.492   1.144   2.885
 7021SOL    HW121395   4.414   1.161   2.945
 7021SOL    HW221396   4.526   1.231   2.849
 7022SOL     OW21397   4.574   0.798   3.685
 7022SOL    HW121398   4.570   0.874   3.750
 7022SOL    HW221399   4.596   0.834   3.594
 7023SOL     OW21400   4.409   1.012   2.527
 7023SOL    HW121401   4.478   0.996   2.597
 7023SOL    HW221402   4.336   1.069   2.565
 7024SOL     OW21403   4.410   1.161   3.665
 7024SOL    HW121404   4.470   1.240   3.679
 7024SOL    HW221405   4.324   1.192   3.624
 7025SOL     OW21406   4.059   1.435   2.923
 7025SOL    HW121407   3.981   1.404   2.870
 7025SOL    HW221408   4.117   1.493   2.866
 7026SOL     OW21409   5.184   1.505   3.201
 7026SOL    HW121410   5.208   1.599   3.227
 7026SOL    HW221411   5.168   1.451   3.283
 7027SOL     OW21412   4.162   0.392   3.361
 7027SOL    HW121413   4.244   0.336   3.370
 7027SOL    HW221414   4.081   0.334   3.365
 7028SOL     OW21415   3.955   1.713   2.345
 7028SOL    HW121416   3.989   1.790   2.399
 7028SOL    HW221417   3.999   1.713   2.255
 7029SOL     OW21418   4.851   1.341   3.552
 7029SOL    HW121419   4.898   1.341   3.640
 7029SOL    HW221420   4.803   1.254   3.541
 7030SOL     OW21421   3.954   1.434   2.400
 7030SOL    HW121422   3.928   1.530   2.400
 7030SOL    HW221423   3.883   1.380   2.445
 7031SOL     OW21424   3.964   1.091   2.748
 7031SOL    HW121425   3.978   1.007   2.800
 7031SOL    HW221426   3.909   1.155   2.803
 7032SOL     OW21427   4.344   1.786   3.301
 7032SOL    HW121428   4.252   1.769   3.336
 7032SOL    HW221429   4.372   1.878   3.327
 7033SOL     OW21430   4.330   0.964   1.985
 7033SOL    HW121431   4.337   1.048   1.931
 7033SOL    HW221432   4.376   0.977   2.073
 7034SOL     OW21433   5.318   0.114   3.342
 7034SOL    HW121434   5.300   0.181   3.270
 7034SOL    HW221435   5.315   0.160   3.431
 7035SOL     OW21436   3.846   0.643   2.425
 7035SOL    HW121437   3.801   0.555   2.442
 7035SOL    HW221438   3.845   0.697   2.509
 7036SOL     OW21439   3.751   1.596   1.979
 7036SOL    HW121440   3.732   1.500   2.000
 7036SOL    HW221441   3.718   1.654   2.054
 7037SOL     OW21442   5.413   0.922   2.474
 7037SOL    HW121443   5.508   0.893   2.482
 7037SOL    HW221444   5.405   0.987   2.399
 7038SOL     OW21445   3.837   0.737   3.459
 7038SOL    HW121446   3.925   0.724   3.504
 7038SOL    HW221447   3.824   0.834   3.437
 7039SOL     OW21448   4.337   1.365   2.588
 7039SOL    HW121449   4.288   1.278   2.597
 7039SOL    HW221450   4.314   1.408   2.501
 7040SOL     OW21451   5.017   1.228   3.285
 7040SOL    HW121452   5.054   1.155   3.227
 7040SOL    HW221453   5.069   1.233   3.370
 7041SOL     OW21454   4.533   0.004   2.364
 7041SOL    HW121455   4.573   0.095   2.355
 7041SOL    HW221456   4.433   0.012   2.370
 7042SOL     OW21457   3.921   0.976   3.126
 7042SOL    HW121458   4.010   0.931   3.112
 7042SOL    HW221459   3.848   0.911   3.107
 7043SOL     OW21460   4.911   1.792   3.478
 7043SOL    HW121461   4.935   1.852   3.402
 7043SOL    HW221462   4.918   1.697   3.448
 7044SOL     OW21463   4.041   0.251   3.663
 7044SOL    HW121464   4.112   0.322   3.669
 7044SOL    HW221465   3.953   0.290   3.691
 7045SOL     OW21466   5.190   1.417   2.815
 7045SOL    HW121467   5.131   1.423   2.895
 7045SOL    HW221468   5.175   1.329   2.769
 7046SOL     OW21469   4.322   0.729   2.132
 7046SOL    HW121470   4.346   0.798   2.064
 7046SOL    HW221471   4.244   0.762   2.186
 7047SOL     OW21472   5.005   0.345   2.806
 7047SOL    HW121473   4.919   0.295   2.793
 7047SOL    HW221474   5.067   0.291   2.862
 7048SOL     OW21475   4.531   0.605   3.327
 7048SOL    HW121476   4.484   0.602   3.416
 7048SOL    HW221477   4.480   0.550   3.261
 7049SOL     OW21478   5.118   0.469   3.536
 7049SOL    HW121479   5.098   0.512   3.624
 7049SOL    HW221480   5.196   0.407   3.545
 7050SOL     OW21481   4.697   0.890   3.434
 7050SOL    HW121482   4.743   0.806   3.405
 7050SOL    HW221483   4.641   0.924   3.359
 7051SOL     OW21484   4.715   0.410   3.104
 7051SOL    HW121485   4.638   0.444   3.158
 7051SOL    HW221486   4.681   0.359   3.025
 7052SOL     OW21487   4.765   0.701   2.291
 7052SOL    HW121488   4.791   0.697   2.387
 7052SOL    HW221489   4.680   0.650   2.277
 7053SOL     OW21490   3.800   0.811   2.651
 7053SOL    HW121491   3.899   0.799   2.660
 7053SOL    HW221492   3.776   0.906   2.672
 7054SOL     OW21493   3.854   1.821   3.433
 7054SOL    HW121494   3.844   1.806   3.532
 7054SOL    HW221495   3.768   1.857   3.397
 7055SOL     OW21496   4.589   0.348   2.057
 7055SOL    HW121497   4.648   0.411   2.008
 7055SOL    HW221498   4.608   0.254   2.028
 7056SOL     OW21499   5.086   1.144   2.407
 7056SOL    HW121500   5.169   1.115   2.359
 7056SOL    HW221501   5.037   1.211   2.351
 7057SOL     OW21502   4.274   0.196   2.747
 7057SOL    HW121503   4.269   0.191   2.847
 7057SOL    HW221504   4.276   0.292   2.718
 7058SOL     OW21505   4.732   1.456   2.339
 7058SOL    HW121506   4.686   1.528   2.287
 7058SOL    HW221507   4.728   1.476   2.437
 7059SOL     OW21508   4.075   1.801   2.715
 7059SOL    HW121509   4.125   1.715   2.721
 7059SOL    HW221510   4.140   1.878   2.712
 7060SOL     OW21511   4.951   1.550   3.368
 7060SOL    HW121512   4.957   1.473   3.432
 7060SOL    HW221513   4.899   1.524   3.288
 7061SOL     OW21514   4.045   0.943   2.104
 7061SOL    HW121515   4.127   0.982   2.062
 7061SOL    HW221516   4.018   0.861   2.055
 7062SOL     OW21517   4.185   1.266   3.589
 7062SOL    HW121518   4.135   1.267   3.503
 7062SOL    HW221519   4.122   1.248   3.665
 7063SOL     OW21520   4.835   1.776   2.099
 7063SOL    HW121521   4.775   1.714   2.149
 7063SOL    HW221522   4.866   1.732   2.014
 7064SOL     OW21523   3.926   0.285   3.360
 7064SOL    HW121524   3.846   0.345   3.347
 7064SOL    HW221525   3.916   0.236   3.446
 7065SOL     OW21526   4.188   1.743   2.185
 7065SOL    HW121527   4.221   1.782   2.271
 7065SOL    HW221528   4.264   1.736   2.120
 7066SOL     OW21529   5.124   0.107   2.288
 7066SOL    HW121530   5.100   0.070   2.198
 7066SOL    HW221531   5.223   0.123   2.292
 7067SOL     OW21532   3.973   1.785   3.103
 7067SOL    HW121533   4.030   1.720   3.153
 7067SOL    HW221534   3.957   1.752   3.010
 7068SOL     OW21535   4.664   1.698   2.766
 7068SOL    HW121536   4.744   1.641   2.787
 7068SOL    HW221537   4.615   1.658   2.689
 7069SOL     OW21538   4.106   0.700   2.342
 7069SOL    HW121539   4.151   0.610   2.339
 7069SOL    HW221540   4.012   0.689   2.375
 7070SOL     OW21541   4.338   0.122   1.979
 7070SOL    HW121542   4.436   0.100   1.986
 7070SOL    HW221543   4.307   0.105   1.886
 7071SOL     OW21544   4.505   0.264   3.611
 7071SOL    HW121545   4.572   0.203   3.654
 7071SOL    HW221546   4.432   0.283   3.676
 7072SOL     OW21547   4.612   1.514   3.057
 7072SOL    HW121548   4.589   1.489   2.963
 7072SOL    HW221549   4.673   1.445   3.096
 7073SOL     OW21550   5.075   0.590   3.295
 7073SOL    HW121551   5.103   0.547   3.380
 7073SOL    HW221552   5.100   0.686   3.296
 7074SOL     OW21553   4.527   1.402   2.786
 7074SOL    HW121554   4.617   1.416   2.744
 7074SOL    HW221555   4.456   1.404   2.715
 7075SOL     OW21556   4.646   0.503   2.761
 7075SOL    HW121557   4.621   0.494   2.665
 7075SOL    HW221558   4.694   0.421   2.792
 7076SOL     OW21559   4.263   0.064   2.374
 7076SOL    HW121560   4.182   0.065   2.432
 7076SOL    HW221561   4.266   0.147   2.319
 7077SOL     OW21562   5.158   1.188   1.903
 7077SOL    HW121563   5.190   1.112   1.960
 7077SOL    HW221564   5.066   1.215   1.933
 7078SOL     OW21565   4.021   0.035   2.033
 7078SOL    HW121566   4.070   0.119   2.012
 7078SOL    HW221567   4.083  -0.030   2.078
 7079SOL     OW21568   4.659   0.236   2.342
 7079SOL    HW121569   4.611   0.277   2.264
 7079SOL    HW221570   4.758   0.234   2.323
 7080SOL     OW21571   4.800   0.683   3.326
 7080SOL    HW121572   4.720   0.622   3.329
 7080SOL    HW221573   4.881   0.630   3.302
 7081SOL     OW21574   4.951   1.570   2.655
 7081SOL    HW121575   4.972   1.644   2.590
 7081SOL    HW221576   5.019   1.570   2.728
 7082SOL     OW21577   4.183   1.152   2.603
 7082SOL    HW121578   4.112   1.125   2.668
 7082SOL    HW221579   4.157   1.124   2.510
 7083SOL     OW21580   4.995   1.797   2.453
 7083SOL    HW121581   5.039   1.861   2.389
 7083SOL    HW221582   4.945   1.849   2.523
 7084SOL     OW21583   4.756   0.549   1.878
 7084SOL    HW121584   4.715   0.631   1.839
 7084SOL    HW221585   4.820   0.575   1.951
 7085SOL     OW21586   3.802   0.556   3.248
 7085SOL    HW121587   3.894   0.555   3.207
 7085SOL    HW221588   3.796   0.630   3.315
 7086SOL     OW21589   4.285   0.222   3.009
 7086SOL    HW121590   4.323   0.138   3.046
 7086SOL    HW221591   4.197   0.241   3.053
 7087SOL     OW21592   4.590   0.454   2.504
 7087SOL    HW121593   4.558   0.526   2.442
 7087SOL    HW221594   4.614   0.373   2.451
 7088SOL     OW21595   4.741   0.039   2.615
 7088SOL    HW121596   4.669   0.044   2.546
 7088SOL    HW221597   4.717  -0.030   2.684
 7089SOL     OW21598   5.153   1.173   2.729
 7089SOL    HW121599   5.098   1.089   2.722
 7089SOL    HW221600   5.179   1.202   2.637
 7090SOL     OW21601   4.212   1.385   2.036
 7090SOL    HW121602   4.125   1.370   2.083
 7090SOL    HW221603   4.195   1.411   1.941
 7091SOL     OW21604   5.114   0.575   1.940
 7091SOL    HW121605   5.060   0.554   2.021
 7091SOL    HW221606   5.205   0.534   1.949
 7092SOL     OW21607   4.251   0.256   2.190
 7092SOL    HW121608   4.278   0.197   2.115
 7092SOL    HW221609   4.251   0.351   2.159
 7093SOL     OW21610   4.788   1.347   3.202
 7093SOL    HW121611   4.708   1.324   3.257
 7093SOL    HW221612   4.871   1.321   3.251
 7094SOL     OW21613   5.316   1.629   3.487
 7094SOL    HW121614   5.343   1.663   3.397
 7094SOL    HW221615   5.395   1.591   3.533
 7095SOL     OW21616   4.835   1.195   2.962
 7095SOL    HW121617   4.795   1.239   3.043
 7095SOL    HW221618   4.794   1.232   2.879
 7096SOL     OW21619   4.639   0.089   3.264
 7096SOL    HW121620   4.664   0.069   3.169
 7096SOL    HW221621   4.711   0.145   3.306
 7097SOL     OW21622   4.704   1.116   3.581
 7097SOL    HW121623   4.605   1.122   3.591
 7097SOL    HW221624   4.727   1.036   3.525
 7098SOL     OW21625   4.429   1.050   2.230
 7098SOL    HW121626   4.415   1.057   2.329
 7098SOL    HW221627   4.513   0.999   2.212
 7099SOL     OW21628   4.134   0.813   3.113
 7099SOL    HW121629   4.220   0.825   3.163
 7099SOL    HW221630   4.092   0.726   3.140
 7100SOL     OW21631   4.998   0.386   3.124
 7100SOL    HW121632   5.019   0.460   3.188
 7100SOL    HW221633   4.909   0.403   3.081
 7101SOL     OW21634   3.788   1.564   3.193
 7101SOL    HW121635   3.742   1.646   3.159
 7101SOL    HW221636   3.886   1.583   3.202
 7102SOL     OW21637   4.091   1.100   2.363
 7102SOL    HW121638   4.084   1.183   2.307
 7102SOL    HW221639   4.095   1.020   2.303
 7103SOL     OW21640   4.290   0.537   2.727
 7103SOL    HW121641   4.302   0.603   2.653
 7103SOL    HW221642   4.336   0.571   2.810
 7104SOL     OW21643   4.976   1.348   2.250
 7104SOL    HW121644   5.026   1.425   2.290
 7104SOL    HW221645   4.881   1.350   2.282
 7105SOL     OW21646   4.996   1.445   3.004
 7105SOL    HW121647   5.043   1.458   3.091
 7105SOL    HW221648   4.930   1.371   3.013
 7106SOL     OW21649   4.078   1.510   3.191
 7106SOL    HW121650   4.057   1.466   3.104
 7106SOL    HW221651   4.175   1.536   3.194
 7107SOL     OW21652   4.126   0.751   3.460
 7107SOL    HW121653   4.194   0.806   3.413
 7107SOL    HW221654   4.166   0.663   3.487
 7108SOL     OW21655   4.737   0.105   3.632
 7108SOL    HW121656   4.743   0.190   3.580
 7108SOL    HW221657   4.769   0.029   3.575
 7109SOL     OW21658   4.228   0.050   3.602
 7109SOL    HW121659   4.186  -0.007   3.532
 7109SOL    HW221660   4.162   0.119   3.634
 7110SOL     OW21661   4.297   0.870   2.891
 7110SOL    HW121662   4.341   0.959   2.882
 7110SOL    HW221663   4.234   0.870   2.968
 7111SOL     OW21664   5.084   0.862   2.907
 7111SOL    HW121665   5.009   0.862   2.841
 7111SOL    HW221666   5.121   0.770   2.916
 7112SOL     OW21667   4.933   0.525   2.137
 7112SOL    HW121668   4.946   0.441   2.191
 7112SOL    HW221669   4.904   0.599   2.197
 7113SOL     OW21670   4.031   0.213   3.093
 7113SOL    HW121671   4.008   0.250   3.183
 7113SOL    HW221672   4.001   0.118   3.087
 7114SOL     OW21673   3.761   1.310   3.144
 7114SOL    HW121674   3.814   1.261   3.212
 7114SOL    HW221675   3.783   1.408   3.149
 7115SOL     OW21676   4.456   0.634   2.926
 7115SOL    HW121677   4.515   0.608   2.850
 7115SOL    HW221678   4.428   0.730   2.915
 7116SOL     OW21679   4.031   0.063   2.480
 7116SOL    HW121680   4.020   0.157   2.513
 7116SOL    HW221681   4.026   0.000   2.557
 7117SOL     OW21682   5.346   0.367   2.236
 7117SOL    HW121683   5.348   0.291   2.300
 7117SOL    HW221684   5.298   0.444   2.276
 7118SOL     OW21685   4.747   0.766   2.828
 7118SOL    HW121686   4.762   0.787   2.924
 7118SOL    HW221687   4.717   0.671   2.819
 7119SOL     OW21688   4.704   1.573   3.562
 7119SOL    HW121689   4.684   1.617   3.474
 7119SOL    HW221690   4.743   1.482   3.546
 7120SOL     OW21691   4.074   0.898   3.666
 7120SOL    HW121692   4.150   0.942   3.714
 7120SOL    HW221693   4.109   0.851   3.584
 7121SOL     OW21694   5.027   0.838   1.904
 7121SOL    HW121695   5.061   0.745   1.919
 7121SOL    HW221696   5.045   0.865   1.809
 7122SOL     OW21697   4.792   1.333   2.711
 7122SOL    HW121698   4.799   1.249   2.656
 7122SOL    HW221699   4.854   1.402   2.675
 7123SOL     OW21700   4.043   0.810   2.811
 7123SOL    HW121701   4.136   0.846   2.816
 7123SOL    HW221702   4.037   0.725   2.863
 7124SOL     OW21703   4.063   0.509   2.868
 7124SOL    HW121704   4.011   0.426   2.851
 7124SOL    HW221705   4.140   0.514   2.804
 7125SOL     OW21706   4.862   0.380   3.540
 7125SOL    HW121707   4.817   0.443   3.604
 7125SOL    HW221708   4.955   0.411   3.523
 7126SOL     OW21709   4.884   0.207   3.339
 7126SOL    HW121710   4.884   0.271   3.416
 7126SOL    HW221711   4.912   0.255   3.256
 7127SOL     OW21712   3.732   1.326   2.062
 7127SOL    HW121713   3.639   1.347   2.031
 7127SOL    HW221714   3.742   1.227   2.075
 7128SOL     OW21715   3.812   1.801   2.789
 7128SOL    HW121716   3.770   1.715   2.762
 7128SOL    HW221717   3.906   1.804   2.755
 7129SOL     OW21718   4.228   1.568   2.772
 7129SOL    HW121719   4.294   1.642   2.781
 7129SOL    HW221720   4.272   1.489   2.730
 7130SOL     OW21721   4.726   0.796   3.100
 7130SOL    HW121722   4.767   0.764   3.186
 7130SOL    HW221723   4.630   0.769   3.097
 7131SOL     OW21724   3.764   0.544   2.976
 7131SOL    HW121725   3.849   0.511   2.935
 7131SOL    HW221726   3.777   0.559   3.074
 7132SOL     OW21727   3.913   0.520   3.584
 7132SOL    HW121728   3.972   0.480   3.514
 7132SOL    HW221729   3.855   0.591   3.543
 7133SOL     OW21730   5.093   0.950   3.522
 7133SOL    HW121731   5.132   1.039   3.542
 7133SOL    HW221732   5.103   0.930   3.425
 7134SOL     OW21733   4.539   0.572   2.187
 7134SOL    HW121734   4.546   0.483   2.141
 7134SOL    HW221735   4.445   0.606   2.179
 7135SOL     OW21736   3.976   1.564   3.606
 7135SOL    HW121737   3.946   1.621   3.682
 7135SOL    HW221738   3.969   1.467   3.632
 7136SOL     OW21739   4.395   0.464   3.131
 7136SOL    HW121740   4.361   0.375   3.101
 7136SOL    HW221741   4.421   0.518   3.051
 7137SOL     OW21742   4.654   1.678   3.327
 7137SOL    HW121743   4.630   1.660   3.232
 7137SOL    HW221744   4.684   1.772   3.337
 7138SOL     OW21745   4.197   0.500   2.053
 7138SOL    HW121746   4.258   0.580   2.057
 7138SOL    HW221747   4.102   0.531   2.060
 7139SOL     OW21748   3.883   1.137   3.328
 7139SOL    HW121749   3.905   1.076   3.404
 7139SOL    HW221750   3.893   1.088   3.242
 7140SOL     OW21751   5.071   1.059   3.096
 7140SOL    HW121752   5.095   0.996   3.022
 7140SOL    HW221753   4.981   1.099   3.078
 7141SOL     OW21754   5.026   0.855   2.171
 7141SOL    HW121755   4.940   0.824   2.213
 7141SOL    HW221756   5.022   0.841   2.072
 7142SOL     OW21757   4.976   1.731   2.990
 7142SOL    HW121758   5.060   1.736   2.936
 7142SOL    HW221759   4.953   1.635   3.008
 7143SOL     OW21760   3.807   1.258   2.884
 7143SOL    HW121761   3.802   1.257   2.984
 7143SOL    HW221762   3.724   1.217   2.846
 7144SOL     OW21763   4.412   1.662   3.578
 7144SOL    HW121764   4.356   1.743   3.587
 7144SOL    HW221765   4.464   1.666   3.492
 7145SOL     OW21766   5.112   1.573   2.339
 7145SOL    HW121767   5.179   1.585   2.265
 7145SOL    HW221768   5.072   1.662   2.362
 7146SOL     OW21769   3.854   1.794   3.713
 7146SOL    HW121770   3.813   1.720   3.766
 7146SOL    HW221771   3.918   1.845   3.771
 7147SOL     OW21772   5.004   0.927   2.534
 7147SOL    HW121773   5.064   0.846   2.536
 7147SOL    HW221774   5.044   0.996   2.474
 7148SOL     OW21775   4.554   1.273   3.284
 7148SOL    HW121776   4.549   1.306   3.379
 7148SOL    HW221777   4.468   1.292   3.238
 7149SOL     OW21778   4.396   1.616   2.016
 7149SOL    HW121779   4.405   1.626   1.917
 7149SOL    HW221780   4.356   1.527   2.037
 7150SOL     OW21781   3.987   0.326   2.582
 7150SOL    HW121782   3.908   0.377   2.548
 7150SOL    HW221783   3.978   0.311   2.680
 7151SOL     OW21784   4.918   1.612   1.893
 7151SOL    HW121785   4.924   1.519   1.930
 7151SOL    HW221786   4.859   1.612   1.813
 7152SOL     OW21787   4.546   1.002   3.234
 7152SOL    HW121788   4.586   1.001   3.142
 7152SOL    HW221789   4.556   1.094   3.274
 7153SOL     OW21790   4.640   0.910   2.153
 7153SOL    HW121791   4.703   0.948   2.085
 7153SOL    HW221792   4.680   0.827   2.192
 7154SOL     OW21793   4.096   1.288   3.352
 7154SOL    HW121794   4.083   1.381   3.318
 7154SOL    HW221795   4.012   1.236   3.339
 7155SOL     OW21796   4.763   1.098   2.558
 7155SOL    HW121797   4.693   1.051   2.612
 7155SOL    HW221798   4.822   1.030   2.515
 7156SOL     OW21799   4.738   0.236   2.833
 7156SOL    HW121800   4.730   0.200   2.740
 7156SOL    HW221801   4.736   0.160   2.898
 7157SOL     OW21802   4.314   1.487   2.353
 7157SOL    HW121803   4.356   1.429   2.283
 7157SOL    HW221804   4.270   1.566   2.309
 7158SOL     OW21805   3.979   1.348   2.152
 7158SOL    HW121806   3.883   1.349   2.125
 7158SOL    HW221807   3.991   1.401   2.236
 7159SOL     OW21808   3.829   1.013   3.588
 7159SOL    HW121809   3.752   0.980   3.642
 7159SOL    HW221810   3.914   0.983   3.630
 7160SOL     OW21811   4.396   0.203   3.351
 7160SOL    HW121812   4.486   0.187   3.311
 7160SOL    HW221813   4.404   0.208   3.450
 7161SOL     OW21814   3.799   0.345   1.895
 7161SOL    HW121815   3.707   0.317   1.866
 7161SOL    HW221816   3.830   0.422   1.839
 7162SOL     OW21817   5.164   0.856   3.260
 7162SOL    HW121818   5.107   0.908   3.197
 7162SOL    HW221819   5.260   0.868   3.236
 7163SOL     OW21820   3.796   0.166   2.180
 7163SOL    HW121821   3.779   0.249   2.126
 7163SOL    HW221822   3.886   0.129   2.158
 7164SOL     OW21823   4.907   1.335   1.981
 7164SOL    HW121824   4.808   1.324   1.983
 7164SOL    HW221825   4.941   1.350   2.074
 7165SOL     OW21826   4.337   0.842   3.293
 7165SOL    HW121827   4.393   0.923   3.276
 7165SOL    HW221828   4.396   0.762   3.296
 7166SOL     OW21829   4.440   0.565   3.570
 7166SOL    HW121830   4.459   0.630   3.644
 7166SOL    HW221831   4.500   0.485   3.579
 7167SOL     OW21832   5.174   1.220   3.495
 7167SOL    HW121833   5.165   1.210   3.594
 7167SOL    HW221834   5.270   1.213   3.469
 7168SOL     OW21835   4.114   1.741   3.422
 7168SOL    HW121836   4.023   1.782   3.420
 7168SOL    HW221837   4.107   1.647   3.454
 7169SOL     OW21838   4.949   0.325   2.311
 7169SOL    HW121839   5.014   0.251   2.300
 7169SOL    HW221840   4.969   0.375   2.395
 7170SOL     OW21841   4.318   0.745   2.514
 7170SOL    HW121842   4.368   0.830   2.495
 7170SOL    HW221843   4.230   0.747   2.466
 7171SOL     OW21844   4.583   1.374   1.878
 7171SOL    HW121845   4.537   1.389   1.966
 7171SOL    HW221846   4.627   1.459   1.848
 7172SOL     OW21847   4.385   1.790   2.815
 7172SOL    HW121848   4.339   1.878   2.802
 7172SOL    HW221849   4.484   1.802   2.808
 7173SOL     OW21850   4.583   0.956   2.723
 7173SOL    HW121851   4.637   0.887   2.771
 7173SOL    HW221852   4.551   1.025   2.789
 7174SOL     OW21853   4.807   0.984   1.949
 7174SOL    HW121854   4.784   1.037   1.867
 7174SOL    HW221855   4.888   0.928   1.930
 7175SOL     OW21856   3.945   1.314   3.706
 7175SOL    HW121857   3.880   1.241   3.685
 7175SOL    HW221858   3.949   1.328   3.804
 7176SOL     OW21859   3.803   1.240   2.515
 7176SOL    HW121860   3.802   1.193   2.603
 7176SOL    HW221861   3.885   1.212   2.464
 7177SOL     OW21862   4.396   1.391   3.486
 7177SOL    HW121863   4.318   1.341   3.524
 7177SOL    HW221864   4.393   1.486   3.517
 7178SOL     OW21865   4.152   0.424   2.382
 7178SOL    HW121866   4.182   0.352   2.320
 7178SOL    HW221867   4.113   0.384   2.465
 7179SOL     OW21868   5.429   1.487   2.966
 7179SOL    HW121869   5.336   1.462   2.939
 7179SOL    HW221870   5.455   1.437   3.048
 7180SOL     OW21871   4.041   0.547   3.142
 7180SOL    HW121872   4.079   0.488   3.214
 7180SOL    HW221873   4.081   0.521   3.054
 7181SOL     OW21874   4.536   1.586   2.549
 7181SOL    HW121875   4.568   1.596   2.455
 7181SOL    HW221876   4.457   1.524   2.551
 7182SOL     OW21877   5.148   0.214   2.974
 7182SOL    HW121878   5.200   0.149   3.029
 7182SOL    HW221879   5.099   0.277   3.035
 7183SOL     OW21880   4.725   0.034   3.016
 7183SOL    HW121881   4.662  -0.038   2.985
 7183SOL    HW221882   4.818  -0.002   3.016
 7184SOL     OW21883   4.494   1.330   2.163
 7184SOL    HW121884   4.448   1.243   2.180
 7184SOL    HW221885   4.585   1.327   2.204
 7185SOL     OW21886   4.342   1.567   3.146
 7185SOL    HW121887   4.337   1.649   3.203
 7185SOL    HW221888   4.431   1.564   3.101
 7186SOL     OW21889   5.076   0.052   2.030
 7186SOL    HW121890   5.111   0.011   1.946
 7186SOL    HW221891   4.986   0.014   2.050
 7187SOL     OW21892   5.024   0.453   2.553
 7187SOL    HW121893   4.965   0.533   2.557
 7187SOL    HW221894   5.039   0.418   2.646
 7188SOL     OW21895   5.317   0.221   2.744
 7188SOL    HW121896   5.233   0.220   2.798
 7188SOL    HW221897   5.319   0.304   2.688
 7189SOL     OW21898   3.763   1.077   2.162
 7189SOL    HW121899   3.862   1.066   2.153
 7189SOL    HW221900   3.723   0.991   2.194
 7190SOL     OW21901   4.599   1.646   2.199
 7190SOL    HW121902   4.522   1.611   2.145
 7190SOL    HW221903   4.567   1.717   2.261
 7191SOL     OW21904   3.954   0.628   3.837
 7191SOL    HW121905   3.861   0.626   3.874
 7191SOL    HW221906   3.955   0.589   3.745
 7192SOL     OW21907   3.949   0.275   4.720
 7192SOL    HW121908   3.984   0.258   4.812
 7192SOL    HW221909   3.861   0.230   4.708
 7193SOL     OW21910   3.743   0.368   4.371
 7193SOL    HW121911   3.661   0.411   4.410
 7193SOL    HW221912   3.715   0.295   4.308
 7194SOL     OW21913   4.293   1.275   4.889
 7194SOL    HW121914   4.200   1.268   4.852
 7194SOL    HW221915   4.304   1.364   4.933
 7195SOL     OW21916   5.279   1.511   4.427
 7195SOL    HW121917   5.222   1.495   4.508
 7195SOL    HW221918   5.220   1.521   4.347
 7196SOL     OW21919   4.859   0.703   4.441
 7196SOL    HW121920   4.916   0.781   4.416
 7196SOL    HW221921   4.799   0.729   4.517
 7197SOL     OW21922   4.492   1.144   4.747
 7197SOL    HW121923   4.414   1.161   4.807
 7197SOL    HW221924   4.526   1.231   4.711
 7198SOL     OW21925   4.574   0.798   5.547
 7198SOL    HW121926   4.570   0.874   5.612
 7198SOL    HW221927   4.596   0.834   5.456
 7199SOL     OW21928   4.409   1.012   4.389
 7199SOL    HW121929   4.478   0.996   4.459
 7199SOL    HW221930   4.336   1.069   4.427
 7200SOL     OW21931   4.410   1.161   5.527
 7200SOL    HW121932   4.470   1.240   5.541
 7200SOL    HW221933   4.324   1.192   5.486
 7201SOL     OW21934   4.059   1.435   4.785
 7201SOL    HW121935   3.981   1.404   4.732
 7201SOL    HW221936   4.117   1.493   4.728
 7202SOL     OW21937   5.184   1.505   5.063
 7202SOL    HW121938   5.208   1.599   5.089
 7202SOL    HW221939   5.168   1.451   5.145
 7203SOL     OW21940   4.162   0.392   5.223
 7203SOL    HW121941   4.244   0.336   5.232
 7203SOL    HW221942   4.081   0.334   5.227
 7204SOL     OW21943   3.955   1.713   4.207
 7204SOL    HW121944   3.989   1.790   4.261
 7204SOL    HW221945   3.999   1.713   4.117
 7205SOL     OW21946   4.851   1.341   5.414
 7205SOL    HW121947   4.898   1.341   5.502
 7205SOL    HW221948   4.803   1.254   5.403
 7206SOL     OW21949   3.954   1.434   4.262
 7206SOL    HW121950   3.928   1.530   4.262
 7206SOL    HW221951   3.883   1.380   4.307
 7207SOL     OW21952   3.964   1.091   4.610
 7207SOL    HW121953   3.978   1.007   4.662
 7207SOL    HW221954   3.909   1.155   4.665
 7208SOL     OW21955   4.344   1.786   5.163
 7208SOL    HW121956   4.252   1.769   5.198
 7208SOL    HW221957   4.372   1.878   5.189
 7209SOL     OW21958   4.330   0.964   3.847
 7209SOL    HW121959   4.337   1.048   3.793
 7209SOL    HW221960   4.376   0.977   3.935
 7210SOL     OW21961   5.318   0.114   5.204
 7210SOL    HW121962   5.300   0.181   5.132
 7210SOL    HW221963   5.315   0.160   5.293
 7211SOL     OW21964   3.846   0.643   4.287
 7211SOL    HW121965   3.801   0.555   4.304
 7211SOL    HW221966   3.845   0.697   4.371
 7212SOL     OW21967   3.751   1.596   3.841
 7212SOL    HW121968   3.732   1.500   3.862
 7212SOL    HW221969   3.718   1.654   3.916
 7213SOL     OW21970   5.413   0.922   4.336
 7213SOL    HW121971   5.508   0.893   4.344
 7213SOL    HW221972   5.405   0.987   4.261
 7214SOL     OW21973   3.837   0.737   5.321
 7214SOL    HW121974   3.925   0.724   5.366
 7214SOL    HW221975   3.824   0.834   5.299
 7215SOL     OW21976   4.337   1.365   4.450
 7215SOL    HW121977   4.288   1.278   4.459
 7215SOL    HW221978   4.314   1.408   4.363
 7216SOL     OW21979   5.017   1.228   5.147
 7216SOL    HW121980   5.054   1.155   5.089
 7216SOL    HW221981   5.069   1.233   5.232
 7217SOL     OW21982   4.533   0.004   4.226
 7217SOL    HW121983   4.573   0.095   4.217
 7217SOL    HW221984   4.433   0.012   4.232
 7218SOL     OW21985   3.921   0.976   4.988
 7218SOL    HW121986   4.010   0.931   4.974
 7218SOL    HW221987   3.848   0.911   4.969
 7219SOL     OW21988   4.911   1.792   5.340
 7219SOL    HW121989   4.935   1.852   5.264
 7219SOL    HW221990   4.918   1.697   5.310
 7220SOL     OW21991   4.041   0.251   5.525
 7220SOL    HW121992   4.112   0.322   5.531
 7220SOL    HW221993   3.953   0.290   5.553
 7221SOL     OW21994   5.190   1.417   4.677
 7221SOL    HW121995   5.131   1.423   4.757
 7221SOL    HW221996   5.175   1.329   4.631
 7222SOL     OW21997   4.322   0.729   3.994
 7222SOL    HW121998   4.346   0.798   3.926
 7222SOL    HW221999   4.244   0.762   4.048
 7223SOL     OW22000   5.005   0.345   4.668
 7223SOL    HW122001   4.919   0.295   4.655
 7223SOL    HW222002   5.067   0.291   4.724
 7224SOL     OW22003   4.531   0.605   5.189
 7224SOL    HW122004   4.484   0.602   5.278
 7224SOL    HW222005   4.480   0.550   5.123
 7225SOL     OW22006   5.118   0.469   5.398
 7225SOL    HW122007   5.098   0.512   5.486
 7225SOL    HW222008   5.196   0.407   5.407
 7226SOL     OW22009   4.697   0.890   5.296
 7226SOL    HW122010   4.743   0.806   5.267
 7226SOL    HW222011   4.641   0.924   5.221
 7227SOL     OW22012   4.715   0.410   4.966
 7227SOL    HW122013   4.638   0.444   5.020
 7227SOL    HW222014   4.681   0.359   4.887
 7228SOL     OW22015   4.765   0.701   4.153
 7228SOL    HW122016   4.791   0.697   4.249
 7228SOL    HW222017   4.680   0.650   4.139
 7229SOL     OW22018   3.800   0.811   4.513
 7229SOL    HW122019   3.899   0.799   4.522
 7229SOL    HW222020   3.776   0.906   4.534
 7230SOL     OW22021   3.854   1.821   5.295
 7230SOL    HW122022   3.844   1.806   5.394
 7230SOL    HW222023   3.768   1.857   5.259
 7231SOL     OW22024   4.589   0.348   3.919
 7231SOL    HW122025   4.648   0.411   3.870
 7231SOL    HW222026   4.608   0.254   3.890
 7232SOL     OW22027   5.086   1.144   4.269
 7232SOL    HW122028   5.169   1.115   4.221
 7232SOL    HW222029   5.037   1.211   4.213
 7233SOL     OW22030   4.274   0.196   4.609
 7233SOL    HW122031   4.269   0.191   4.709
 7233SOL    HW222032   4.276   0.292   4.580
 7234SOL     OW22033   4.732   1.456   4.201
 7234SOL    HW122034   4.686   1.528   4.149
 7234SOL    HW222035   4.728   1.476   4.299
 7235SOL     OW22036   4.075   1.801   4.577
 7235SOL    HW122037   4.125   1.715   4.583
 7235SOL    HW222038   4.140   1.878   4.574
 7236SOL     OW22039   4.951   1.550   5.230
 7236SOL    HW122040   4.957   1.473   5.294
 7236SOL    HW222041   4.899   1.524   5.150
 7237SOL     OW22042   4.045   0.943   3.966
 7237SOL    HW122043   4.127   0.982   3.924
 7237SOL    HW222044   4.018   0.861   3.917
 7238SOL     OW22045   4.185   1.266   5.451
 7238SOL    HW122046   4.135   1.267   5.365
 7238SOL    HW222047   4.122   1.248   5.527
 7239SOL     OW22048   4.835   1.776   3.961
 7239SOL    HW122049   4.775   1.714   4.011
 7239SOL    HW222050   4.866   1.732   3.876
 7240SOL     OW22051   3.926   0.285   5.222
 7240SOL    HW122052   3.846   0.345   5.209
 7240SOL    HW222053   3.916   0.236   5.308
 7241SOL     OW22054   4.188   1.743   4.047
 7241SOL    HW122055   4.221   1.782   4.133
 7241SOL    HW222056   4.264   1.736   3.982
 7242SOL     OW22057   5.124   0.107   4.150
 7242SOL    HW122058   5.100   0.070   4.060
 7242SOL    HW222059   5.223   0.123   4.154
 7243SOL     OW22060   3.973   1.785   4.965
 7243SOL    HW122061   4.030   1.720   5.015
 7243SOL    HW222062   3.957   1.752   4.872
 7244SOL     OW22063   4.664   1.698   4.628
 7244SOL    HW122064   4.744   1.641   4.649
 7244SOL    HW222065   4.615   1.658   4.551
 7245SOL     OW22066   4.106   0.700   4.204
 7245SOL    HW122067   4.151   0.610   4.201
 7245SOL    HW222068   4.012   0.689   4.237
 7246SOL     OW22069   4.338   0.122   3.841
 7246SOL    HW122070   4.436   0.100   3.848
 7246SOL    HW222071   4.307   0.105   3.748
 7247SOL     OW22072   4.505   0.264   5.473
 7247SOL    HW122073   4.572   0.203   5.516
 7247SOL    HW222074   4.432   0.283   5.538
 7248SOL     OW22075   4.612   1.514   4.919
 7248SOL    HW122076   4.589   1.489   4.825
 7248SOL    HW222077   4.673   1.445   4.958
 7249SOL     OW22078   5.075   0.590   5.157
 7249SOL    HW122079   5.103   0.547   5.242
 7249SOL    HW222080   5.100   0.686   5.158
 7250SOL     OW22081   4.527   1.402   4.648
 7250SOL    HW122082   4.617   1.416   4.606
 7250SOL    HW222083   4.456   1.404   4.577
 7251SOL     OW22084   4.646   0.503   4.623
 7251SOL    HW122085   4.621   0.494   4.527
 7251SOL    HW222086   4.694   0.421   4.654
 7252SOL     OW22087   4.263   0.064   4.236
 7252SOL    HW122088   4.182   0.065   4.294
 7252SOL    HW222089   4.266   0.147   4.181
 7253SOL     OW22090   5.158   1.188   3.765
 7253SOL    HW122091   5.190   1.112   3.822
 7253SOL    HW222092   5.066   1.215   3.795
 7254SOL     OW22093   4.021   0.035   3.895
 7254SOL    HW122094   4.070   0.119   3.874
 7254SOL    HW222095   4.083  -0.030   3.940
 7255SOL     OW22096   4.659   0.236   4.204
 7255SOL    HW122097   4.611   0.277   4.126
 7255SOL    HW222098   4.758   0.234   4.185
 7256SOL     OW22099   4.800   0.683   5.188
 7256SOL    HW122100   4.720   0.622   5.191
 7256SOL    HW222101   4.881   0.630   5.164
 7257SOL     OW22102   4.951   1.570   4.517
 7257SOL    HW122103   4.972   1.644   4.452
 7257SOL    HW222104   5.019   1.570   4.590
 7258SOL     OW22105   4.183   1.152   4.465
 7258SOL    HW122106   4.112   1.125   4.530
 7258SOL    HW222107   4.157   1.124   4.372
 7259SOL     OW22108   4.995   1.797   4.315
 7259SOL    HW122109   5.039   1.861   4.251
 7259SOL    HW222110   4.945   1.849   4.385
 7260SOL     OW22111   4.756   0.549   3.740
 7260SOL    HW122112   4.715   0.631   3.701
 7260SOL    HW222113   4.820   0.575   3.813
 7261SOL     OW22114   3.802   0.556   5.110
 7261SOL    HW122115   3.894   0.555   5.069
 7261SOL    HW222116   3.796   0.630   5.177
 7262SOL     OW22117   4.285   0.222   4.871
 7262SOL    HW122118   4.323   0.138   4.908
 7262SOL    HW222119   4.197   0.241   4.915
 7263SOL     OW22120   4.590   0.454   4.366
 7263SOL    HW122121   4.558   0.526   4.304
 7263SOL    HW222122   4.614   0.373   4.313
 7264SOL     OW22123   4.741   0.039   4.477
 7264SOL    HW122124   4.669   0.044   4.408
 7264SOL    HW222125   4.717  -0.030   4.546
 7265SOL     OW22126   5.153   1.173   4.591
 7265SOL    HW122127   5.098   1.089   4.584
 7265SOL    HW222128   5.179   1.202   4.499
 7266SOL     OW22129   4.212   1.385   3.898
 7266SOL    HW122130   4.125   1.370   3.945
 7266SOL    HW222131   4.195   1.411   3.803
 7267SOL     OW22132   5.114   0.575   3.802
 7267SOL    HW122133   5.060   0.554   3.883
 7267SOL    HW222134   5.205   0.534   3.811
 7268SOL     OW22135   4.251   0.256   4.052
 7268SOL    HW122136   4.278   0.197   3.977
 7268SOL    HW222137   4.251   0.351   4.021
 7269SOL     OW22138   4.788   1.347   5.064
 7269SOL    HW122139   4.708   1.324   5.119
 7269SOL    HW222140   4.871   1.321   5.113
 7270SOL     OW22141   5.316   1.629   5.349
 7270SOL    HW122142   5.343   1.663   5.259
 7270SOL    HW222143   5.395   1.591   5.395
 7271SOL     OW22144   4.835   1.195   4.824
 7271SOL    HW122145   4.795   1.239   4.905
 7271SOL    HW222146   4.794   1.232   4.741
 7272SOL     OW22147   4.639   0.089   5.126
 7272SOL    HW122148   4.664   0.069   5.031
 7272SOL    HW222149   4.711   0.145   5.168
 7273SOL     OW22150   4.704   1.116   5.443
 7273SOL    HW122151   4.605   1.122   5.453
 7273SOL    HW222152   4.727   1.036   5.387
 7274SOL     OW22153   4.429   1.050   4.092
 7274SOL    HW122154   4.415   1.057   4.191
 7274SOL    HW222155   4.513   0.999   4.074
 7275SOL     OW22156   4.134   0.813   4.975
 7275SOL    HW122157   4.220   0.825   5.025
 7275SOL    HW222158   4.092   0.726   5.002
 7276SOL     OW22159   4.998   0.386   4.986
 7276SOL    HW122160   5.019   0.460   5.050
 7276SOL    HW222161   4.909   0.403   4.943
 7277SOL     OW22162   3.788   1.564   5.055
 7277SOL    HW122163   3.742   1.646   5.021
 7277SOL    HW222164   3.886   1.583   5.064
 7278SOL     OW22165   4.091   1.100   4.225
 7278SOL    HW122166   4.084   1.183   4.169
 7278SOL    HW222167   4.095   1.020   4.165
 7279SOL     OW22168   4.290   0.537   4.589
 7279SOL    HW122169   4.302   0.603   4.515
 7279SOL    HW222170   4.336   0.571   4.672
 7280SOL     OW22171   4.976   1.348   4.112
 7280SOL    HW122172   5.026   1.425   4.152
 7280SOL    HW222173   4.881   1.350   4.144
 7281SOL     OW22174   4.996   1.445   4.866
 7281SOL    HW122175   5.043   1.458   4.953
 7281SOL    HW222176   4.930   1.371   4.875
 7282SOL     OW22177   4.078   1.510   5.053
 7282SOL    HW122178   4.057   1.466   4.966
 7282SOL    HW222179   4.175   1.536   5.056
 7283SOL     OW22180   4.126   0.751   5.322
 7283SOL    HW122181   4.194   0.806   5.275
 7283SOL    HW222182   4.166   0.663   5.349
 7284SOL     OW22183   4.737   0.105   5.494
 7284SOL    HW122184   4.743   0.190   5.442
 7284SOL    HW222185   4.769   0.029   5.437
 7285SOL     OW22186   4.228   0.050   5.464
 7285SOL    HW122187   4.186  -0.007   5.394
 7285SOL    HW222188   4.162   0.119   5.496
 7286SOL     OW22189   4.297   0.870   4.753
 7286SOL    HW122190   4.341   0.959   4.744
 7286SOL    HW222191   4.234   0.870   4.830
 7287SOL     OW22192   5.084   0.862   4.769
 7287SOL    HW122193   5.009   0.862   4.703
 7287SOL    HW222194   5.121   0.770   4.778
 7288SOL     OW22195   4.933   0.525   3.999
 7288SOL    HW122196   4.946   0.441   4.053
 7288SOL    HW222197   4.904   0.599   4.059
 7289SOL     OW22198   4.031   0.213   4.955
 7289SOL    HW122199   4.008   0.250   5.045
 7289SOL    HW222200   4.001   0.118   4.949
 7290SOL     OW22201   3.761   1.310   5.006
 7290SOL    HW122202   3.814   1.261   5.074
 7290SOL    HW222203   3.783   1.408   5.011
 7291SOL     OW22204   4.456   0.634   4.788
 7291SOL    HW122205   4.515   0.608   4.712
 7291SOL    HW222206   4.428   0.730   4.777
 7292SOL     OW22207   4.031   0.063   4.342
 7292SOL    HW122208   4.020   0.157   4.375
 7292SOL    HW222209   4.026   0.000   4.419
 7293SOL     OW22210   5.346   0.367   4.098
 7293SOL    HW122211   5.348   0.291   4.162
 7293SOL    HW222212   5.298   0.444   4.138
 7294SOL     OW22213   4.747   0.766   4.690
 7294SOL    HW122214   4.762   0.787   4.786
 7294SOL    HW222215   4.717   0.671   4.681
 7295SOL     OW22216   4.704   1.573   5.424
 7295SOL    HW122217   4.684   1.617   5.336
 7295SOL    HW222218   4.743   1.482   5.408
 7296SOL     OW22219   4.074   0.898   5.528
 7296SOL    HW122220   4.150   0.942   5.576
 7296SOL    HW222221   4.109   0.851   5.446
 7297SOL     OW22222   5.027   0.838   3.766
 7297SOL    HW122223   5.061   0.745   3.781
 7297SOL    HW222224   5.045   0.865   3.671
 7298SOL     OW22225   4.792   1.333   4.573
 7298SOL    HW122226   4.799   1.249   4.518
 7298SOL    HW222227   4.854   1.402   4.537
 7299SOL     OW22228   4.043   0.810   4.673
 7299SOL    HW122229   4.136   0.846   4.678
 7299SOL    HW222230   4.037   0.725   4.725
 7300SOL     OW22231   4.063   0.509   4.730
 7300SOL    HW122232   4.011   0.426   4.713
 7300SOL    HW222233   4.140   0.514   4.666
 7301SOL     OW22234   4.862   0.380   5.402
 7301SOL    HW122235   4.817   0.443   5.466
 7301SOL    HW222236   4.955   0.411   5.385
 7302SOL     OW22237   4.884   0.207   5.201
 7302SOL    HW122238   4.884   0.271   5.278
 7302SOL    HW222239   4.912   0.255   5.118
 7303SOL     OW22240   3.732   1.326   3.924
 7303SOL    HW122241   3.639   1.347   3.893
 7303SOL    HW222242   3.742   1.227   3.937
 7304SOL     OW22243   3.812   1.801   4.651
 7304SOL    HW122244   3.770   1.715   4.624
 7304SOL    HW222245   3.906   1.804   4.617
 7305SOL     OW22246   4.228   1.568   4.634
 7305SOL    HW122247   4.294   1.642   4.643
 7305SOL    HW222248   4.272   1.489   4.592
 7306SOL     OW22249   4.726   0.796   4.962
 7306SOL    HW122250   4.767   0.764   5.048
 7306SOL    HW222251   4.630   0.769   4.959
 7307SOL     OW22252   3.764   0.544   4.838
 7307SOL    HW122253   3.849   0.511   4.797
 7307SOL    HW222254   3.777   0.559   4.936
 7308SOL     OW22255   3.913   0.520   5.446
 7308SOL    HW122256   3.972   0.480   5.376
 7308SOL    HW222257   3.855   0.591   5.405
 7309SOL     OW22258   5.093   0.950   5.384
 7309SOL    HW122259   5.132   1.039   5.404
 7309SOL    HW222260   5.103   0.930   5.287
 7310SOL     OW22261   4.539   0.572   4.049
 7310SOL    HW122262   4.546   0.483   4.003
 7310SOL    HW222263   4.445   0.606   4.041
 7311SOL     OW22264   3.976   1.564   5.468
 7311SOL    HW122265   3.946   1.621   5.544
 7311SOL    HW222266   3.969   1.467   5.494
 7312SOL     OW22267   4.395   0.464   4.993
 7312SOL    HW122268   4.361   0.375   4.963
 7312SOL    HW222269   4.421   0.518   4.913
 7313SOL     OW22270   4.654   1.678   5.189
 7313SOL    HW122271   4.630   1.660   5.094
 7313SOL    HW222272   4.684   1.772   5.199
 7314SOL     OW22273   4.197   0.500   3.915
 7314SOL    HW122274   4.258   0.580   3.919
 7314SOL    HW222275   4.102   0.531   3.922
 7315SOL     OW22276   3.883   1.137   5.190
 7315SOL    HW122277   3.905   1.076   5.266
 7315SOL    HW222278   3.893   1.088   5.104
 7316SOL     OW22279   5.071   1.059   4.958
 7316SOL    HW122280   5.095   0.996   4.884
 7316SOL    HW222281   4.981   1.099   4.940
 7317SOL     OW22282   5.026   0.855   4.033
 7317SOL    HW122283   4.940   0.824   4.075
 7317SOL    HW222284   5.022   0.841   3.934
 7318SOL     OW22285   4.976   1.731   4.852
 7318SOL    HW122286   5.060   1.736   4.798
 7318SOL    HW222287   4.953   1.635   4.870
 7319SOL     OW22288   3.807   1.258   4.746
 7319SOL    HW122289   3.802   1.257   4.846
 7319SOL    HW222290   3.724   1.217   4.708
 7320SOL     OW22291   4.412   1.662   5.440
 7320SOL    HW122292   4.356   1.743   5.449
 7320SOL    HW222293   4.464   1.666   5.354
 7321SOL     OW22294   5.112   1.573   4.201
 7321SOL    HW122295   5.179   1.585   4.127
 7321SOL    HW222296   5.072   1.662   4.224
 7322SOL     OW22297   3.854   1.794   5.575
 7322SOL    HW122298   3.813   1.720   5.628
 7322SOL    HW222299   3.918   1.845   5.633
 7323SOL     OW22300   5.004   0.927   4.396
 7323SOL    HW122301   5.064   0.846   4.398
 7323SOL    HW222302   5.044   0.996   4.336
 7324SOL     OW22303   4.554   1.273   5.146
 7324SOL    HW122304   4.549   1.306   5.241
 7324SOL    HW222305   4.468   1.292   5.100
 7325SOL     OW22306   4.396   1.616   3.878
 7325SOL    HW122307   4.405   1.626   3.779
 7325SOL    HW222308   4.356   1.527   3.899
 7326SOL     OW22309   3.987   0.326   4.444
 7326SOL    HW122310   3.908   0.377   4.410
 7326SOL    HW222311   3.978   0.311   4.542
 7327SOL     OW22312   4.918   1.612   3.755
 7327SOL    HW122313   4.924   1.519   3.792
 7327SOL    HW222314   4.859   1.612   3.675
 7328SOL     OW22315   4.546   1.002   5.096
 7328SOL    HW122316   4.586   1.001   5.004
 7328SOL    HW222317   4.556   1.094   5.136
 7329SOL     OW22318   4.640   0.910   4.015
 7329SOL    HW122319   4.703   0.948   3.947
 7329SOL    HW222320   4.680   0.827   4.054
 7330SOL     OW22321   4.096   1.288   5.214
 7330SOL    HW122322   4.083   1.381   5.180
 7330SOL    HW222323   4.012   1.236   5.201
 7331SOL     OW22324   4.763   1.098   4.420
 7331SOL    HW122325   4.693   1.051   4.474
 7331SOL    HW222326   4.822   1.030   4.377
 7332SOL     OW22327   4.738   0.236   4.695
 7332SOL    HW122328   4.730   0.200   4.602
 7332SOL    HW222329   4.736   0.160   4.760
 7333SOL     OW22330   4.314   1.487   4.215
 7333SOL    HW122331   4.356   1.429   4.145
 7333SOL    HW222332   4.270   1.566   4.171
 7334SOL     OW22333   3.979   1.348   4.014
 7334SOL    HW122334   3.883   1.349   3.987
 7334SOL    HW222335   3.991   1.401   4.098
 7335SOL     OW22336   3.829   1.013   5.450
 7335SOL    HW122337   3.752   0.980   5.504
 7335SOL    HW222338   3.914   0.983   5.492
 7336SOL     OW22339   4.396   0.203   5.213
 7336SOL    HW122340   4.486   0.187   5.173
 7336SOL    HW222341   4.404   0.208   5.312
 7337SOL     OW22342   3.799   0.345   3.757
 7337SOL    HW122343   3.707   0.317   3.728
 7337SOL    HW222344   3.830   0.422   3.701
 7338SOL     OW22345   5.164   0.856   5.122
 7338SOL    HW122346   5.107   0.908   5.059
 7338SOL    HW222347   5.260   0.868   5.098
 7339SOL     OW22348   3.796   0.166   4.042
 7339SOL    HW122349   3.779   0.249   3.988
 7339SOL    HW222350   3.886   0.129   4.020
 7340SOL     OW22351   4.907   1.335   3.843
 7340SOL    HW122352   4.808   1.324   3.845
 7340SOL    HW222353   4.941   1.350   3.936
 7341SOL     OW22354   4.337   0.842   5.155
 7341SOL    HW122355   4.393   0.923   5.138
 7341SOL    HW222356   4.396   0.762   5.158
 7342SOL     OW22357   4.440   0.565   5.432
 7342SOL    HW122358   4.459   0.630   5.506
 7342SOL    HW222359   4.500   0.485   5.441
 7343SOL     OW22360   5.174   1.220   5.357
 7343SOL    HW122361   5.165   1.210   5.456
 7343SOL    HW222362   5.270   1.213   5.331
 7344SOL     OW22363   4.114   1.741   5.284
 7344SOL    HW122364   4.023   1.782   5.282
 7344SOL    HW222365   4.107   1.647   5.316
 7345SOL     OW22366   4.949   0.325   4.173
 7345SOL    HW122367   5.014   0.251   4.162
 7345SOL    HW222368   4.969   0.375   4.257
 7346SOL     OW22369   4.318   0.745   4.376
 7346SOL    HW122370   4.368   0.830   4.357
 7346SOL    HW222371   4.230   0.747   4.328
 7347SOL     OW22372   4.583   1.374   3.740
 7347SOL    HW122373   4.537   1.389   3.828
 7347SOL    HW222374   4.627   1.459   3.710
 7348SOL     OW22375   4.385   1.790   4.677
 7348SOL    HW122376   4.339   1.878   4.664
 7348SOL    HW222377   4.484   1.802   4.670
 7349SOL     OW22378   4.583   0.956   4.585
 7349SOL    HW122379   4.637   0.887   4.633
 7349SOL    HW222380   4.551   1.025   4.651
 7350SOL     OW22381   4.807   0.984   3.811
 7350SOL    HW122382   4.784   1.037   3.729
 7350SOL    HW222383   4.888   0.928   3.792
 7351SOL     OW22384   3.945   1.314   5.568
 7351SOL    HW122385   3.880   1.241   5.547
 7351SOL    HW222386   3.949   1.328   5.666
 7352SOL     OW22387   3.803   1.240   4.377
 7352SOL    HW122388   3.802   1.193   4.465
 7352SOL    HW222389   3.885   1.212   4.326
 7353SOL     OW22390   4.396   1.391   5.348
 7353SOL    HW122391   4.318   1.341   5.386
 7353SOL    HW222392   4.393   1.486   5.379
 7354SOL     OW22393   4.152   0.424   4.244
 7354SOL    HW122394   4.182   0.352   4.182
 7354SOL    HW222395   4.113   0.384   4.327
 7355SOL     OW22396   5.429   1.487   4.828
 7355SOL    HW122397   5.336   1.462   4.801
 7355SOL    HW222398   5.455   1.437   4.910
 7356SOL     OW22399   4.041   0.547   5.004
 7356SOL    HW122400   4.079   0.488   5.076
 7356SOL    HW222401   4.081   0.521   4.916
 7357SOL     OW22402   4.536   1.586   4.411
 7357SOL    HW122403   4.568   1.596   4.317
 7357SOL    HW222404   4.457   1.524   4.413
 7358SOL     OW22405   5.148   0.214   4.836
 7358SOL    HW122406   5.200   0.149   4.891
 7358SOL    HW222407   5.099   0.277   4.897
 7359SOL     OW22408   4.725   0.034   4.878
 7359SOL    HW122409   4.662  -0.038   4.847
 7359SOL    HW222410   4.818  -0.002   4.878
 7360SOL     OW22411   4.494   1.330   4.025
 7360SOL    HW122412   4.448   1.243   4.042
 7360SOL    HW222413   4.585   1.327   4.066
 7361SOL     OW22414   4.342   1.567   5.008
 7361SOL    HW122415   4.337   1.649   5.065
 7361SOL    HW222416   4.431   1.564   4.963
 7362SOL     OW22417   5.076   0.052   3.892
 7362SOL    HW122418   5.111   0.011   3.808
 7362SOL    HW222419   4.986   0.014   3.912
 7363SOL     OW22420   5.024   0.453   4.415
 7363SOL    HW122421   4.965   0.533   4.419
 7363SOL    HW222422   5.039   0.418   4.508
 7364SOL     OW22423   5.317   0.221   4.606
 7364SOL    HW122424   5.233   0.220   4.660
 7364SOL    HW222425   5.319   0.304   4.550
 7365SOL     OW22426   3.763   1.077   4.024
 7365SOL    HW122427   3.862   1.066   4.015
 7365SOL    HW222428   3.723   0.991   4.056
 7366SOL     OW22429   4.599   1.646   4.061
 7366SOL    HW122430   4.522   1.611   4.007
 7366SOL    HW222431   4.567   1.717   4.123
 7367SOL     OW22432   3.954   0.628   5.699
 7367SOL    HW122433   3.861   0.626   5.736
 7367SOL    HW222434   3.955   0.589   5.607
 7368SOL     OW22435   3.949   0.275   6.582
 7368SOL    HW122436   3.984   0.258   6.674
 7368SOL    HW222437   3.861   0.230   6.570
 7369SOL     OW22438   3.743   0.368   6.233
 7369SOL    HW122439   3.661   0.411   6.272
 7369SOL    HW222440   3.715   0.295   6.170
 7370SOL     OW22441   4.293   1.275   6.751
 7370SOL    HW122442   4.200   1.268   6.714
 7370SOL    HW222443   4.304   1.364   6.795
 7371SOL     OW22444   5.279   1.511   6.289
 7371SOL    HW122445   5.222   1.495   6.370
 7371SOL    HW222446   5.220   1.521   6.209
 7372SOL     OW22447   4.859   0.703   6.303
 7372SOL    HW122448   4.916   0.781   6.278
 7372SOL    HW222449   4.799   0.729   6.379
 7373SOL     OW22450   4.492   1.144   6.609
 7373SOL    HW122451   4.414   1.161   6.669
 7373SOL    HW222452   4.526   1.231   6.573
 7374SOL     OW22453   4.574   0.798   7.409
 7374SOL    HW122454   4.570   0.874   7.474
 7374SOL    HW222455   4.596   0.834   7.318
 7375SOL     OW22456   4.409   1.012   6.251
 7375SOL    HW122457   4.478   0.996   6.321
 7375SOL    HW222458   4.336   1.069   6.289
 7376SOL     OW22459   4.410   1.161   7.389
 7376SOL    HW122460   4.470   1.240   7.403
 7376SOL    HW222461   4.324   1.192   7.348
 7377SOL     OW22462   4.059   1.435   6.647
 7377SOL    HW122463   3.981   1.404   6.594
 7377SOL    HW222464   4.117   1.493   6.590
 7378SOL     OW22465   5.184   1.505   6.925
 7378SOL    HW122466   5.208   1.599   6.951
 7378SOL    HW222467   5.168   1.451   7.007
 7379SOL     OW22468   4.162   0.392   7.085
 7379SOL    HW122469   4.244   0.336   7.094
 7379SOL    HW222470   4.081   0.334   7.089
 7380SOL     OW22471   3.955   1.713   6.069
 7380SOL    HW122472   3.989   1.790   6.123
 7380SOL    HW222473   3.999   1.713   5.979
 7381SOL     OW22474   4.851   1.341   7.276
 7381SOL    HW122475   4.898   1.341   7.364
 7381SOL    HW222476   4.803   1.254   7.265
 7382SOL     OW22477   3.954   1.434   6.124
 7382SOL    HW122478   3.928   1.530   6.124
 7382SOL    HW222479   3.883   1.380   6.169
 7383SOL     OW22480   3.964   1.091   6.472
 7383SOL    HW122481   3.978   1.007   6.524
 7383SOL    HW222482   3.909   1.155   6.527
 7384SOL     OW22483   4.344   1.786   7.025
 7384SOL    HW122484   4.252   1.769   7.060
 7384SOL    HW222485   4.372   1.878   7.051
 7385SOL     OW22486   4.330   0.964   5.709
 7385SOL    HW122487   4.337   1.048   5.655
 7385SOL    HW222488   4.376   0.977   5.797
 7386SOL     OW22489   5.318   0.114   7.066
 7386SOL    HW122490   5.300   0.181   6.994
 7386SOL    HW222491   5.315   0.160   7.155
 7387SOL     OW22492   3.846   0.643   6.149
 7387SOL    HW122493   3.801   0.555   6.166
 7387SOL    HW222494   3.845   0.697   6.233
 7388SOL     OW22495   3.751   1.596   5.703
 7388SOL    HW122496   3.732   1.500   5.724
 7388SOL    HW222497   3.718   1.654   5.778
 7389SOL     OW22498   5.413   0.922   6.198
 7389SOL    HW122499   5.508   0.893   6.206
 7389SOL    HW222500   5.405   0.987   6.123
 7390SOL     OW22501   3.837   0.737   7.183
 7390SOL    HW122502   3.925   0.724   7.228
 7390SOL    HW222503   3.824   0.834   7.161
 7391SOL     OW22504   4.337   1.365   6.312
 7391SOL    HW122505   4.288   1.278   6.321
 7391SOL    HW222506   4.314   1.408   6.225
 7392SOL     OW22507   5.017   1.228   7.009
 7392SOL    HW122508   5.054   1.155   6.951
 7392SOL    HW222509   5.069   1.233   7.094
 7393SOL     OW22510   4.533   0.004   6.088
 7393SOL    HW122511   4.573   0.095   6.079
 7393SOL    HW222512   4.433   0.012   6.094
 7394SOL     OW22513   3.921   0.976   6.850
 7394SOL    HW122514   4.010   0.931   6.836
 7394SOL    HW222515   3.848   0.911   6.831
 7395SOL     OW22516   4.911   1.792   7.202
 7395SOL    HW122517   4.935   1.852   7.126
 7395SOL    HW222518   4.918   1.697   7.172
 7396SOL     OW22519   4.041   0.251   7.387
 7396SOL    HW122520   4.112   0.322   7.393
 7396SOL    HW222521   3.953   0.290   7.415
 7397SOL     OW22522   5.190   1.417   6.539
 7397SOL    HW122523   5.131   1.423   6.619
 7397SOL    HW222524   5.175   1.329   6.493
 7398SOL     OW22525   4.322   0.729   5.856
 7398SOL    HW122526   4.346   0.798   5.788
 7398SOL    HW222527   4.244   0.762   5.910
 7399SOL     OW22528   5.005   0.345   6.530
 7399SOL    HW122529   4.919   0.295   6.517
 7399SOL    HW222530   5.067   0.291   6.586
 7400SOL     OW22531   4.531   0.605   7.051
 7400SOL    HW122532   4.484   0.602   7.140
 7400SOL    HW222533   4.480   0.550   6.985
 7401SOL     OW22534   5.118   0.469   7.260
 7401SOL    HW122535   5.098   0.512   7.348
 7401SOL    HW222536   5.196   0.407   7.269
 7402SOL     OW22537   4.697   0.890   7.158
 7402SOL    HW122538   4.743   0.806   7.129
 7402SOL    HW222539   4.641   0.924   7.083
 7403SOL     OW22540   4.715   0.410   6.828
 7403SOL    HW122541   4.638   0.444   6.882
 7403SOL    HW222542   4.681   0.359   6.749
 7404SOL     OW22543   4.765   0.701   6.015
 7404SOL    HW122544   4.791   0.697   6.111
 7404SOL    HW222545   4.680   0.650   6.001
 7405SOL     OW22546   3.800   0.811   6.375
 7405SOL    HW122547   3.899   0.799   6.384
 7405SOL    HW222548   3.776   0.906   6.396
 7406SOL     OW22549   3.854   1.821   7.157
 7406SOL    HW122550   3.844   1.806   7.256
 7406SOL    HW222551   3.768   1.857   7.121
 7407SOL     OW22552   4.589   0.348   5.781
 7407SOL    HW122553   4.648   0.411   5.732
 7407SOL    HW222554   4.608   0.254   5.752
 7408SOL     OW22555   5.086   1.144   6.131
 7408SOL    HW122556   5.169   1.115   6.083
 7408SOL    HW222557   5.037   1.211   6.075
 7409SOL     OW22558   4.274   0.196   6.471
 7409SOL    HW122559   4.269   0.191   6.571
 7409SOL    HW222560   4.276   0.292   6.442
 7410SOL     OW22561   4.732   1.456   6.063
 7410SOL    HW122562   4.686   1.528   6.011
 7410SOL    HW222563   4.728   1.476   6.161
 7411SOL     OW22564   4.075   1.801   6.439
 7411SOL    HW122565   4.125   1.715   6.445
 7411SOL    HW222566   4.140   1.878   6.436
 7412SOL     OW22567   4.951   1.550   7.092
 7412SOL    HW122568   4.957   1.473   7.156
 7412SOL    HW222569   4.899   1.524   7.012
 7413SOL     OW22570   4.045   0.943   5.828
 7413SOL    HW122571   4.127   0.982   5.786
 7413SOL    HW222572   4.018   0.861   5.779
 7414SOL     OW22573   4.185   1.266   7.313
 7414SOL    HW122574   4.135   1.267   7.227
 7414SOL    HW222575   4.122   1.248   7.389
 7415SOL     OW22576   4.835   1.776   5.823
 7415SOL    HW122577   4.775   1.714   5.873
 7415SOL    HW222578   4.866   1.732   5.738
 7416SOL     OW22579   3.926   0.285   7.084
 7416SOL    HW122580   3.846   0.345   7.071
 7416SOL    HW222581   3.916   0.236   7.170
 7417SOL     OW22582   4.188   1.743   5.909
 7417SOL    HW122583   4.221   1.782   5.995
 7417SOL    HW222584   4.264   1.736   5.844
 7418SOL     OW22585   5.124   0.107   6.012
 7418SOL    HW122586   5.100   0.070   5.922
 7418SOL    HW222587   5.223   0.123   6.016
 7419SOL     OW22588   3.973   1.785   6.827
 7419SOL    HW122589   4.030   1.720   6.877
 7419SOL    HW222590   3.957   1.752   6.734
 7420SOL     OW22591   4.664   1.698   6.490
 7420SOL    HW122592   4.744   1.641   6.511
 7420SOL    HW222593   4.615   1.658   6.413
 7421SOL     OW22594   4.106   0.700   6.066
 7421SOL    HW122595   4.151   0.610   6.063
 7421SOL    HW222596   4.012   0.689   6.099
 7422SOL     OW22597   4.338   0.122   5.703
 7422SOL    HW122598   4.436   0.100   5.710
 7422SOL    HW222599   4.307   0.105   5.610
 7423SOL     OW22600   4.505   0.264   7.335
 7423SOL    HW122601   4.572   0.203   7.378
 7423SOL    HW222602   4.432   0.283   7.400
 7424SOL     OW22603   4.612   1.514   6.781
 7424SOL    HW122604   4.589   1.489   6.687
 7424SOL    HW222605   4.673   1.445   6.820
 7425SOL     OW22606   5.075   0.590   7.019
 7425SOL    HW122607   5.103   0.547   7.104
 7425SOL    HW222608   5.100   0.686   7.020
 7426SOL     OW22609   4.527   1.402   6.510
 7426SOL    HW122610   4.617   1.416   6.468
 7426SOL    HW222611   4.456   1.404   6.439
 7427SOL     OW22612   4.646   0.503   6.485
 7427SOL    HW122613   4.621   0.494   6.389
 7427SOL    HW222614   4.694   0.421   6.516
 7428SOL     OW22615   4.263   0.064   6.098
 7428SOL    HW122616   4.182   0.065   6.156
 7428SOL    HW222617   4.266   0.147   6.043
 7429SOL     OW22618   5.158   1.188   5.627
 7429SOL    HW122619   5.190   1.112   5.684
 7429SOL    HW222620   5.066   1.215   5.657
 7430SOL     OW22621   4.021   0.035   5.757
 7430SOL    HW122622   4.070   0.119   5.736
 7430SOL    HW222623   4.083  -0.030   5.802
 7431SOL     OW22624   4.659   0.236   6.066
 7431SOL    HW122625   4.611   0.277   5.988
 7431SOL    HW222626   4.758   0.234   6.047
 7432SOL     OW22627   4.800   0.683   7.050
 7432SOL    HW122628   4.720   0.622   7.053
 7432SOL    HW222629   4.881   0.630   7.026
 7433SOL     OW22630   4.951   1.570   6.379
 7433SOL    HW122631   4.972   1.644   6.314
 7433SOL    HW222632   5.019   1.570   6.452
 7434SOL     OW22633   4.183   1.152   6.327
 7434SOL    HW122634   4.112   1.125   6.392
 7434SOL    HW222635   4.157   1.124   6.234
 7435SOL     OW22636   4.995   1.797   6.177
 7435SOL    HW122637   5.039   1.861   6.113
 7435SOL    HW222638   4.945   1.849   6.247
 7436SOL     OW22639   4.756   0.549   5.602
 7436SOL    HW122640   4.715   0.631   5.563
 7436SOL    HW222641   4.820   0.575   5.675
 7437SOL     OW22642   3.802   0.556   6.972
 7437SOL    HW122643   3.894   0.555   6.931
 7437SOL    HW222644   3.796   0.630   7.039
 7438SOL     OW22645   4.285   0.222   6.733
 7438SOL    HW122646   4.323   0.138   6.770
 7438SOL    HW222647   4.197   0.241   6.777
 7439SOL     OW22648   4.590   0.454   6.228
 7439SOL    HW122649   4.558   0.526   6.166
 7439SOL    HW222650   4.614   0.373   6.175
 7440SOL     OW22651   4.741   0.039   6.339
 7440SOL    HW122652   4.669   0.044   6.270
 7440SOL    HW222653   4.717  -0.030   6.408
 7441SOL     OW22654   5.153   1.173   6.453
 7441SOL    HW122655   5.098   1.089   6.446
 7441SOL    HW222656   5.179   1.202   6.361
 7442SOL     OW22657   4.212   1.385   5.760
 7442SOL    HW122658   4.125   1.370   5.807
 7442SOL    HW222659   4.195   1.411   5.665
 7443SOL     OW22660   5.114   0.575   5.664
 7443SOL    HW122661   5.060   0.554   5.745
 7443SOL    HW222662   5.205   0.534   5.673
 7444SOL     OW22663   4.251   0.256   5.914
 7444SOL    HW122664   4.278   0.197   5.839
 7444SOL    HW222665   4.251   0.351   5.883
 7445SOL     OW22666   4.788   1.347   6.926
 7445SOL    HW122667   4.708   1.324   6.981
 7445SOL    HW222668   4.871   1.321   6.975
 7446SOL     OW22669   5.316   1.629   7.211
 7446SOL    HW122670   5.343   1.663   7.121
 7446SOL    HW222671   5.395   1.591   7.257
 7447SOL     OW22672   4.835   1.195   6.686
 7447SOL    HW122673   4.795   1.239   6.767
 7447SOL    HW222674   4.794   1.232   6.603
 7448SOL     OW22675   4.639   0.089   6.988
 7448SOL    HW122676   4.664   0.069   6.893
 7448SOL    HW222677   4.711   0.145   7.030
 7449SOL     OW22678   4.704   1.116   7.305
 7449SOL    HW122679   4.605   1.122   7.315
 7449SOL    HW222680   4.727   1.036   7.249
 7450SOL     OW22681   4.429   1.050   5.954
 7450SOL    HW122682   4.415   1.057   6.053
 7450SOL    HW222683   4.513   0.999   5.936
 7451SOL     OW22684   4.134   0.813   6.837
 7451SOL    HW122685   4.220   0.825   6.887
 7451SOL    HW222686   4.092   0.726   6.864
 7452SOL     OW22687   4.998   0.386   6.848
 7452SOL    HW122688   5.019   0.460   6.912
 7452SOL    HW222689   4.909   0.403   6.805
 7453SOL     OW22690   3.788   1.564   6.917
 7453SOL    HW122691   3.742   1.646   6.883
 7453SOL    HW222692   3.886   1.583   6.926
 7454SOL     OW22693   4.091   1.100   6.087
 7454SOL    HW122694   4.084   1.183   6.031
 7454SOL    HW222695   4.095   1.020   6.027
 7455SOL     OW22696   4.290   0.537   6.451
 7455SOL    HW122697   4.302   0.603   6.377
 7455SOL    HW222698   4.336   0.571   6.534
 7456SOL     OW22699   4.976   1.348   5.974
 7456SOL    HW122700   5.026   1.425   6.014
 7456SOL    HW222701   4.881   1.350   6.006
 7457SOL     OW22702   4.996   1.445   6.728
 7457SOL    HW122703   5.043   1.458   6.815
 7457SOL    HW222704   4.930   1.371   6.737
 7458SOL     OW22705   4.078   1.510   6.915
 7458SOL    HW122706   4.057   1.466   6.828
 7458SOL    HW222707   4.175   1.536   6.918
 7459SOL     OW22708   4.126   0.751   7.184
 7459SOL    HW122709   4.194   0.806   7.137
 7459SOL    HW222710   4.166   0.663   7.211
 7460SOL     OW22711   4.737   0.105   7.356
 7460SOL    HW122712   4.743   0.190   7.304
 7460SOL    HW222713   4.769   0.029   7.299
 7461SOL     OW22714   4.228   0.050   7.326
 7461SOL    HW122715   4.186  -0.007   7.256
 7461SOL    HW222716   4.162   0.119   7.358
 7462SOL     OW22717   4.297   0.870   6.615
 7462SOL    HW122718   4.341   0.959   6.606
 7462SOL    HW222719   4.234   0.870   6.692
 7463SOL     OW22720   5.084   0.862   6.631
 7463SOL    HW122721   5.009   0.862   6.565
 7463SOL    HW222722   5.121   0.770   6.640
 7464SOL     OW22723   4.933   0.525   5.861
 7464SOL    HW122724   4.946   0.441   5.915
 7464SOL    HW222725   4.904   0.599   5.921
 7465SOL     OW22726   4.031   0.213   6.817
 7465SOL    HW122727   4.008   0.250   6.907
 7465SOL    HW222728   4.001   0.118   6.811
 7466SOL     OW22729   3.761   1.310   6.868
 7466SOL    HW122730   3.814   1.261   6.936
 7466SOL    HW222731   3.783   1.408   6.873
 7467SOL     OW22732   4.456   0.634   6.650
 7467SOL    HW122733   4.515   0.608   6.574
 7467SOL    HW222734   4.428   0.730   6.639
 7468SOL     OW22735   4.031   0.063   6.204
 7468SOL    HW122736   4.020   0.157   6.237
 7468SOL    HW222737   4.026   0.000   6.281
 7469SOL     OW22738   5.346   0.367   5.960
 7469SOL    HW122739   5.348   0.291   6.024
 7469SOL    HW222740   5.298   0.444   6.000
 7470SOL     OW22741   4.747   0.766   6.552
 7470SOL    HW122742   4.762   0.787   6.648
 7470SOL    HW222743   4.717   0.671   6.543
 7471SOL     OW22744   4.704   1.573   7.286
 7471SOL    HW122745   4.684   1.617   7.198
 7471SOL    HW222746   4.743   1.482   7.270
 7472SOL     OW22747   4.074   0.898   7.390
 7472SOL    HW122748   4.150   0.942   7.438
 7472SOL    HW222749   4.109   0.851   7.308
 7473SOL     OW22750   5.027   0.838   5.628
 7473SOL    HW122751   5.061   0.745   5.643
 7473SOL    HW222752   5.045   0.865   5.533
 7474SOL     OW22753   4.792   1.333   6.435
 7474SOL    HW122754   4.799   1.249   6.380
 7474SOL    HW222755   4.854   1.402   6.399
 7475SOL     OW22756   4.043   0.810   6.535
 7475SOL    HW122757   4.136   0.846   6.540
 7475SOL    HW222758   4.037   0.725   6.587
 7476SOL     OW22759   4.063   0.509   6.592
 7476SOL    HW122760   4.011   0.426   6.575
 7476SOL    HW222761   4.140   0.514   6.528
 7477SOL     OW22762   4.862   0.380   7.264
 7477SOL    HW122763   4.817   0.443   7.328
 7477SOL    HW222764   4.955   0.411   7.247
 7478SOL     OW22765   4.884   0.207   7.063
 7478SOL    HW122766   4.884   0.271   7.140
 7478SOL    HW222767   4.912   0.255   6.980
 7479SOL     OW22768   3.732   1.326   5.786
 7479SOL    HW122769   3.639   1.347   5.755
 7479SOL    HW222770   3.742   1.227   5.799
 7480SOL     OW22771   3.812   1.801   6.513
 7480SOL    HW122772   3.770   1.715   6.486
 7480SOL    HW222773   3.906   1.804   6.479
 7481SOL     OW22774   4.228   1.568   6.496
 7481SOL    HW122775   4.294   1.642   6.505
 7481SOL    HW222776   4.272   1.489   6.454
 7482SOL     OW22777   4.726   0.796   6.824
 7482SOL    HW122778   4.767   0.764   6.910
 7482SOL    HW222779   4.630   0.769   6.821
 7483SOL     OW22780   3.764   0.544   6.700
 7483SOL    HW122781   3.849   0.511   6.659
 7483SOL    HW222782   3.777   0.559   6.798
 7484SOL     OW22783   3.913   0.520   7.308
 7484SOL    HW122784   3.972   0.480   7.238
 7484SOL    HW222785   3.855   0.591   7.267
 7485SOL     OW22786   5.093   0.950   7.246
 7485SOL    HW122787   5.132   1.039   7.266
 7485SOL    HW222788   5.103   0.930   7.149
 7486SOL     OW22789   4.539   0.572   5.911
 7486SOL    HW122790   4.546   0.483   5.865
 7486SOL    HW222791   4.445   0.606   5.903
 7487SOL     OW22792   3.976   1.564   7.330
 7487SOL    HW122793   3.946   1.621   7.406
 7487SOL    HW222794   3.969   1.467   7.356
 7488SOL     OW22795   4.395   0.464   6.855
 7488SOL    HW122796   4.361   0.375   6.825
 7488SOL    HW222797   4.421   0.518   6.775
 7489SOL     OW22798   4.654   1.678   7.051
 7489SOL    HW122799   4.630   1.660   6.956
 7489SOL    HW222800   4.684   1.772   7.061
 7490SOL     OW22801   4.197   0.500   5.777
 7490SOL    HW122802   4.258   0.580   5.781
 7490SOL    HW222803   4.102   0.531   5.784
 7491SOL     OW22804   3.883   1.137   7.052
 7491SOL    HW122805   3.905   1.076   7.128
 7491SOL    HW222806   3.893   1.088   6.966
 7492SOL     OW22807   5.071   1.059   6.820
 7492SOL    HW122808   5.095   0.996   6.746
 7492SOL    HW222809   4.981   1.099   6.802
 7493SOL     OW22810   5.026   0.855   5.895
 7493SOL    HW122811   4.940   0.824   5.937
 7493SOL    HW222812   5.022   0.841   5.796
 7494SOL     OW22813   4.976   1.731   6.714
 7494SOL    HW122814   5.060   1.736   6.660
 7494SOL    HW222815   4.953   1.635   6.732
 7495SOL     OW22816   3.807   1.258   6.608
 7495SOL    HW122817   3.802   1.257   6.708
 7495SOL    HW222818   3.724   1.217   6.570
 7496SOL     OW22819   4.412   1.662   7.302
 7496SOL    HW122820   4.356   1.743   7.311
 7496SOL    HW222821   4.464   1.666   7.216
 7497SOL     OW22822   5.112   1.573   6.063
 7497SOL    HW122823   5.179   1.585   5.989
 7497SOL    HW222824   5.072   1.662   6.086
 7498SOL     OW22825   3.854   1.794   7.437
 7498SOL    HW122826   3.813   1.720   7.490
 7498SOL    HW222827   3.918   1.845   7.495
 7499SOL     OW22828   5.004   0.927   6.258
 7499SOL    HW122829   5.064   0.846   6.260
 7499SOL    HW222830   5.044   0.996   6.198
 7500SOL     OW22831   4.554   1.273   7.008
 7500SOL    HW122832   4.549   1.306   7.103
 7500SOL    HW222833   4.468   1.292   6.962
 7501SOL     OW22834   4.396   1.616   5.740
 7501SOL    HW122835   4.405   1.626   5.641
 7501SOL    HW222836   4.356   1.527   5.761
 7502SOL     OW22837   3.987   0.326   6.306
 7502SOL    HW122838   3.908   0.377   6.272
 7502SOL    HW222839   3.978   0.311   6.404
 7503SOL     OW22840   4.918   1.612   5.617
 7503SOL    HW122841   4.924   1.519   5.654
 7503SOL    HW222842   4.859   1.612   5.537
 7504SOL     OW22843   4.546   1.002   6.958
 7504SOL    HW122844   4.586   1.001   6.866
 7504SOL    HW222845   4.556   1.094   6.998
 7505SOL     OW22846   4.640   0.910   5.877
 7505SOL    HW122847   4.703   0.948   5.809
 7505SOL    HW222848   4.680   0.827   5.916
 7506SOL     OW22849   4.096   1.288   7.076
 7506SOL    HW122850   4.083   1.381   7.042
 7506SOL    HW222851   4.012   1.236   7.063
 7507SOL     OW22852   4.763   1.098   6.282
 7507SOL    HW122853   4.693   1.051   6.336
 7507SOL    HW222854   4.822   1.030   6.239
 7508SOL     OW22855   4.738   0.236   6.557
 7508SOL    HW122856   4.730   0.200   6.464
 7508SOL    HW222857   4.736   0.160   6.622
 7509SOL     OW22858   4.314   1.487   6.077
 7509SOL    HW122859   4.356   1.429   6.007
 7509SOL    HW222860   4.270   1.566   6.033
 7510SOL     OW22861   3.979   1.348   5.876
 7510SOL    HW122862   3.883   1.349   5.849
 7510SOL    HW222863   3.991   1.401   5.960
 7511SOL     OW22864   3.829   1.013   7.312
 7511SOL    HW122865   3.752   0.980   7.366
 7511SOL    HW222866   3.914   0.983   7.354
 7512SOL     OW22867   4.396   0.203   7.075
 7512SOL    HW122868   4.486   0.187   7.035
 7512SOL    HW222869   4.404   0.208   7.174
 7513SOL     OW22870   3.799   0.345   5.619
 7513SOL    HW122871   3.707   0.317   5.590
 7513SOL    HW222872   3.830   0.422   5.563
 7514SOL     OW22873   5.164   0.856   6.984
 7514SOL    HW122874   5.107   0.908   6.921
 7514SOL    HW222875   5.260   0.868   6.960
 7515SOL     OW22876   3.796   0.166   5.904
 7515SOL    HW122877   3.779   0.249   5.850
 7515SOL    HW222878   3.886   0.129   5.882
 7516SOL     OW22879   4.907   1.335   5.705
 7516SOL    HW122880   4.808   1.324   5.707
 7516SOL    HW222881   4.941   1.350   5.798
 7517SOL     OW22882   4.337   0.842   7.017
 7517SOL    HW122883   4.393   0.923   7.000
 7517SOL    HW222884   4.396   0.762   7.020
 7518SOL     OW22885   4.440   0.565   7.294
 7518SOL    HW122886   4.459   0.630   7.368
 7518SOL    HW222887   4.500   0.485   7.303
 7519SOL     OW22888   5.174   1.220   7.219
 7519SOL    HW122889   5.165   1.210   7.318
 7519SOL    HW222890   5.270   1.213   7.193
 7520SOL     OW22891   4.114   1.741   7.146
 7520SOL    HW122892   4.023   1.782   7.144
 7520SOL    HW222893   4.107   1.647   7.178
 7521SOL     OW22894   4.949   0.325   6.035
 7521SOL    HW122895   5.014   0.251   6.024
 7521SOL    HW222896   4.969   0.375   6.119
 7522SOL     OW22897   4.318   0.745   6.238
 7522SOL    HW122898   4.368   0.830   6.219
 7522SOL    HW222899   4.230   0.747   6.190
 7523SOL     OW22900   4.583   1.374   5.602
 7523SOL    HW122901   4.537   1.389   5.690
 7523SOL    HW222902   4.627   1.459   5.572
 7524SOL     OW22903   4.385   1.790   6.539
 7524SOL    HW122904   4.339   1.878   6.526
 7524SOL    HW222905   4.484   1.802   6.532
 7525SOL     OW22906   4.583   0.956   6.447
 7525SOL    HW122907   4.637   0.887   6.495
 7525SOL    HW222908   4.551   1.025   6.513
 7526SOL     OW22909   4.807   0.984   5.673
 7526SOL    HW122910   4.784   1.037   5.591
 7526SOL    HW222911   4.888   0.928   5.654
 7527SOL     OW22912   3.945   1.314   7.430
 7527SOL    HW122913   3.880   1.241   7.409
 7527SOL    HW222914   3.949   1.328   7.528
 7528SOL     OW22915   3.803   1.240   6.239
 7528SOL    HW122916   3.802   1.193   6.327
 7528SOL    HW222917   3.885   1.212   6.188
 7529SOL     OW22918   4.396   1.391   7.210
 7529SOL    HW122919   4.318   1.341   7.248
 7529SOL    HW222920   4.393   1.486   7.241
 7530SOL     OW22921   4.152   0.424   6.106
 7530SOL    HW122922   4.182   0.352   6.044
 7530SOL    HW222923   4.113   0.384   6.189
 7531SOL     OW22924   5.429   1.487   6.690
 7531SOL    HW122925   5.336   1.462   6.663
 7531SOL    HW222926   5.455   1.437   6.772
 7532SOL     OW22927   4.041   0.547   6.866
 7532SOL    HW122928   4.079   0.488   6.938
 7532SOL    HW222929   4.081   0.521   6.778
 7533SOL     OW22930   4.536   1.586   6.273
 7533SOL    HW122931   4.568   1.596   6.179
 7533SOL    HW222932   4.457   1.524   6.275
 7534SOL     OW22933   5.148   0.214   6.698
 7534SOL    HW122934   5.200   0.149   6.753
 7534SOL    HW222935   5.099   0.277   6.759
 7535SOL     OW22936   4.725   0.034   6.740
 7535SOL    HW122937   4.662  -0.038   6.709
 7535SOL    HW222938   4.818  -0.002   6.740
 7536SOL     OW22939   4.494   1.330   5.887
 7536SOL    HW122940   4.448   1.243   5.904
 7536SOL    HW222941   4.585   1.327   5.928
 7537SOL     OW22942   4.342   1.567   6.870
 7537SOL    HW122943   4.337   1.649   6.927
 7537SOL    HW222944   4.431   1.564   6.825
 7538SOL     OW22945   5.076   0.052   5.754
 7538SOL    HW122946   5.111   0.011   5.670
 7538SOL    HW222947   4.986   0.014   5.774
 7539SOL     OW22948   5.024   0.453   6.277
 7539SOL    HW122949   4.965   0.533   6.281
 7539SOL    HW222950   5.039   0.418   6.370
 7540SOL     OW22951   5.317   0.221   6.468
 7540SOL    HW122952   5.233   0.220   6.522
 7540SOL    HW222953   5.319   0.304   6.412
 7541SOL     OW22954   3.763   1.077   5.886
 7541SOL    HW122955   3.862   1.066   5.877
 7541SOL    HW222956   3.723   0.991   5.918
 7542SOL     OW22957   4.599   1.646   5.923
 7542SOL    HW122958   4.522   1.611   5.869
 7542SOL    HW222959   4.567   1.717   5.985
 7543SOL     OW22960   3.954   0.628   7.561
 7543SOL    HW122961   3.861   0.626   7.598
 7543SOL    HW222962   3.955   0.589   7.469
 7544SOL     OW22963   3.949   0.275   8.444
 7544SOL    HW122964   3.984   0.258   8.536
 7544SOL    HW222965   3.861   0.230   8.432
 7545SOL     OW22966   3.743   0.368   8.095
 7545SOL    HW122967   3.661   0.411   8.134
 7545SOL    HW222968   3.715   0.295   8.032
 7546SOL     OW22969   4.293   1.275   8.613
 7546SOL    HW122970   4.200   1.268   8.576
 7546SOL    HW222971   4.304   1.364   8.657
 7547SOL     OW22972   5.279   1.511   8.151
 7547SOL    HW122973   5.222   1.495   8.232
 7547SOL    HW222974   5.220   1.521   8.071
 7548SOL     OW22975   4.859   0.703   8.165
 7548SOL    HW122976   4.916   0.781   8.140
 7548SOL    HW222977   4.799   0.729   8.241
 7549SOL     OW22978   4.492   1.144   8.471
 7549SOL    HW122979   4.414   1.161   8.531
 7549SOL    HW222980   4.526   1.231   8.435
 7550SOL     OW22981   4.574   0.798   9.271
 7550SOL    HW122982   4.570   0.874   9.336
 7550SOL    HW222983   4.596   0.834   9.180
 7551SOL     OW22984   4.409   1.012   8.113
 7551SOL    HW122985   4.478   0.996   8.183
 7551SOL    HW222986   4.336   1.069   8.151
 7552SOL     OW22987   4.410   1.161   9.251
 7552SOL    HW122988   4.470   1.240   9.265
 7552SOL    HW222989   4.324   1.192   9.210
 7553SOL     OW22990   4.059   1.435   8.509
 7553SOL    HW122991   3.981   1.404   8.456
 7553SOL    HW222992   4.117   1.493   8.452
 7554SOL     OW22993   5.184   1.505   8.787
 7554SOL    HW122994   5.208   1.599   8.813
 7554SOL    HW222995   5.168   1.451   8.869
 7555SOL     OW22996   4.162   0.392   8.947
 7555SOL    HW122997   4.244   0.336   8.956
 7555SOL    HW222998   4.081   0.334   8.951
 7556SOL     OW22999   3.955   1.713   7.931
 7556SOL    HW123000   3.989   1.790   7.985
 7556SOL    HW223001   3.999   1.713   7.841
 7557SOL     OW23002   4.851   1.341   9.138
 7557SOL    HW123003   4.898   1.341   9.226
 7557SOL    HW223004   4.803   1.254   9.127
 7558SOL     OW23005   3.954   1.434   7.986
 7558SOL    HW123006   3.928   1.530   7.986
 7558SOL    HW223007   3.883   1.380   8.031
 7559SOL     OW23008   3.964   1.091   8.334
 7559SOL    HW123009   3.978   1.007   8.386
 7559SOL    HW223010   3.909   1.155   8.389
 7560SOL     OW23011   4.344   1.786   8.887
 7560SOL    HW123012   4.252   1.769   8.922
 7560SOL    HW223013   4.372   1.878   8.913
 7561SOL     OW23014   4.330   0.964   7.571
 7561SOL    HW123015   4.337   1.048   7.517
 7561SOL    HW223016   4.376   0.977   7.659
 7562SOL     OW23017   5.318   0.114   8.928
 7562SOL    HW123018   5.300   0.181   8.856
 7562SOL    HW223019   5.315   0.160   9.017
 7563SOL     OW23020   3.846   0.643   8.011
 7563SOL    HW123021   3.801   0.555   8.028
 7563SOL    HW223022   3.845   0.697   8.095
 7564SOL     OW23023   3.751   1.596   7.565
 7564SOL    HW123024   3.732   1.500   7.586
 7564SOL    HW223025   3.718   1.654   7.640
 7565SOL     OW23026   5.413   0.922   8.060
 7565SOL    HW123027   5.508   0.893   8.068
 7565SOL    HW223028   5.405   0.987   7.985
 7566SOL     OW23029   3.837   0.737   9.045
 7566SOL    HW123030   3.925   0.724   9.090
 7566SOL    HW223031   3.824   0.834   9.023
 7567SOL     OW23032   4.337   1.365   8.174
 7567SOL    HW123033   4.288   1.278   8.183
 7567SOL    HW223034   4.314   1.408   8.087
 7568SOL     OW23035   5.017   1.228   8.871
 7568SOL    HW123036   5.054   1.155   8.813
 7568SOL    HW223037   5.069   1.233   8.956
 7569SOL     OW23038   4.533   0.004   7.950
 7569SOL    HW123039   4.573   0.095   7.941
 7569SOL    HW223040   4.433   0.012   7.956
 7570SOL     OW23041   3.921   0.976   8.712
 7570SOL    HW123042   4.010   0.931   8.698
 7570SOL    HW223043   3.848   0.911   8.693
 7571SOL     OW23044   4.911   1.792   9.064
 7571SOL    HW123045   4.935   1.852   8.988
 7571SOL    HW223046   4.918   1.697   9.034
 7572SOL     OW23047   4.041   0.251   9.249
 7572SOL    HW123048   4.112   0.322   9.255
 7572SOL    HW223049   3.953   0.290   9.277
 7573SOL     OW23050   5.190   1.417   8.401
 7573SOL    HW123051   5.131   1.423   8.481
 7573SOL    HW223052   5.175   1.329   8.355
 7574SOL     OW23053   4.322   0.729   7.718
 7574SOL    HW123054   4.346   0.798   7.650
 7574SOL    HW223055   4.244   0.762   7.772
 7575SOL     OW23056   5.005   0.345   8.392
 7575SOL    HW123057   4.919   0.295   8.379
 7575SOL    HW223058   5.067   0.291   8.448
 7576SOL     OW23059   4.531   0.605   8.913
 7576SOL    HW123060   4.484   0.602   9.002
 7576SOL    HW223061   4.480   0.550   8.847
 7577SOL     OW23062   5.118   0.469   9.122
 7577SOL    HW123063   5.098   0.512   9.210
 7577SOL    HW223064   5.196   0.407   9.131
 7578SOL     OW23065   4.697   0.890   9.020
 7578SOL    HW123066   4.743   0.806   8.991
 7578SOL    HW223067   4.641   0.924   8.945
 7579SOL     OW23068   4.715   0.410   8.690
 7579SOL    HW123069   4.638   0.444   8.744
 7579SOL    HW223070   4.681   0.359   8.611
 7580SOL     OW23071   4.765   0.701   7.877
 7580SOL    HW123072   4.791   0.697   7.973
 7580SOL    HW223073   4.680   0.650   7.863
 7581SOL     OW23074   3.800   0.811   8.237
 7581SOL    HW123075   3.899   0.799   8.246
 7581SOL    HW223076   3.776   0.906   8.258
 7582SOL     OW23077   3.854   1.821   9.019
 7582SOL    HW123078   3.844   1.806   9.118
 7582SOL    HW223079   3.768   1.857   8.983
 7583SOL     OW23080   4.589   0.348   7.643
 7583SOL    HW123081   4.648   0.411   7.594
 7583SOL    HW223082   4.608   0.254   7.614
 7584SOL     OW23083   5.086   1.144   7.993
 7584SOL    HW123084   5.169   1.115   7.945
 7584SOL    HW223085   5.037   1.211   7.937
 7585SOL     OW23086   4.274   0.196   8.333
 7585SOL    HW123087   4.269   0.191   8.433
 7585SOL    HW223088   4.276   0.292   8.304
 7586SOL     OW23089   4.732   1.456   7.925
 7586SOL    HW123090   4.686   1.528   7.873
 7586SOL    HW223091   4.728   1.476   8.023
 7587SOL     OW23092   4.075   1.801   8.301
 7587SOL    HW123093   4.125   1.715   8.307
 7587SOL    HW223094   4.140   1.878   8.298
 7588SOL     OW23095   4.951   1.550   8.954
 7588SOL    HW123096   4.957   1.473   9.018
 7588SOL    HW223097   4.899   1.524   8.874
 7589SOL     OW23098   4.045   0.943   7.690
 7589SOL    HW123099   4.127   0.982   7.648
 7589SOL    HW223100   4.018   0.861   7.641
 7590SOL     OW23101   4.185   1.266   9.175
 7590SOL    HW123102   4.135   1.267   9.089
 7590SOL    HW223103   4.122   1.248   9.251
 7591SOL     OW23104   4.835   1.776   7.685
 7591SOL    HW123105   4.775   1.714   7.735
 7591SOL    HW223106   4.866   1.732   7.600
 7592SOL     OW23107   3.926   0.285   8.946
 7592SOL    HW123108   3.846   0.345   8.933
 7592SOL    HW223109   3.916   0.236   9.032
 7593SOL     OW23110   4.188   1.743   7.771
 7593SOL    HW123111   4.221   1.782   7.857
 7593SOL    HW223112   4.264   1.736   7.706
 7594SOL     OW23113   5.124   0.107   7.874
 7594SOL    HW123114   5.100   0.070   7.784
 7594SOL    HW223115   5.223   0.123   7.878
 7595SOL     OW23116   3.973   1.785   8.689
 7595SOL    HW123117   4.030   1.720   8.739
 7595SOL    HW223118   3.957   1.752   8.596
 7596SOL     OW23119   4.664   1.698   8.352
 7596SOL    HW123120   4.744   1.641   8.373
 7596SOL    HW223121   4.615   1.658   8.275
 7597SOL     OW23122   4.106   0.700   7.928
 7597SOL    HW123123   4.151   0.610   7.925
 7597SOL    HW223124   4.012   0.689   7.961
 7598SOL     OW23125   4.338   0.122   7.565
 7598SOL    HW123126   4.436   0.100   7.572
 7598SOL    HW223127   4.307   0.105   7.472
 7599SOL     OW23128   4.505   0.264   9.197
 7599SOL    HW123129   4.572   0.203   9.240
 7599SOL    HW223130   4.432   0.283   9.262
 7600SOL     OW23131   4.612   1.514   8.643
 7600SOL    HW123132   4.589   1.489   8.549
 7600SOL    HW223133   4.673   1.445   8.682
 7601SOL     OW23134   5.075   0.590   8.881
 7601SOL    HW123135   5.103   0.547   8.966
 7601SOL    HW223136   5.100   0.686   8.882
 7602SOL     OW23137   4.527   1.402   8.372
 7602SOL    HW123138   4.617   1.416   8.330
 7602SOL    HW223139   4.456   1.404   8.301
 7603SOL     OW23140   4.646   0.503   8.347
 7603SOL    HW123141   4.621   0.494   8.251
 7603SOL    HW223142   4.694   0.421   8.378
 7604SOL     OW23143   4.263   0.064   7.960
 7604SOL    HW123144   4.182   0.065   8.018
 7604SOL    HW223145   4.266   0.147   7.905
 7605SOL     OW23146   5.158   1.188   7.489
 7605SOL    HW123147   5.190   1.112   7.546
 7605SOL    HW223148   5.066   1.215   7.519
 7606SOL     OW23149   4.021   0.035   7.619
 7606SOL    HW123150   4.070   0.119   7.598
 7606SOL    HW223151   4.083  -0.030   7.664
 7607SOL     OW23152   4.659   0.236   7.928
 7607SOL    HW123153   4.611   0.277   7.850
 7607SOL    HW223154   4.758   0.234   7.909
 7608SOL     OW23155   4.800   0.683   8.912
 7608SOL    HW123156   4.720   0.622   8.915
 7608SOL    HW223157   4.881   0.630   8.888
 7609SOL     OW23158   4.951   1.570   8.241
 7609SOL    HW123159   4.972   1.644   8.176
 7609SOL    HW223160   5.019   1.570   8.314
 7610SOL     OW23161   4.183   1.152   8.189
 7610SOL    HW123162   4.112   1.125   8.254
 7610SOL    HW223163   4.157   1.124   8.096
 7611SOL     OW23164   4.995   1.797   8.039
 7611SOL    HW123165   5.039   1.861   7.975
 7611SOL    HW223166   4.945   1.849   8.109
 7612SOL     OW23167   4.756   0.549   7.464
 7612SOL    HW123168   4.715   0.631   7.425
 7612SOL    HW223169   4.820   0.575   7.537
 7613SOL     OW23170   3.802   0.556   8.834
 7613SOL    HW123171   3.894   0.555   8.793
 7613SOL    HW223172   3.796   0.630   8.901
 7614SOL     OW23173   4.285   0.222   8.595
 7614SOL    HW123174   4.323   0.138   8.632
 7614SOL    HW223175   4.197   0.241   8.639
 7615SOL     OW23176   4.590   0.454   8.090
 7615SOL    HW123177   4.558   0.526   8.028
 7615SOL    HW223178   4.614   0.373   8.037
 7616SOL     OW23179   4.741   0.039   8.201
 7616SOL    HW123180   4.669   0.044   8.132
 7616SOL    HW223181   4.717  -0.030   8.270
 7617SOL     OW23182   5.153   1.173   8.315
 7617SOL    HW123183   5.098   1.089   8.308
 7617SOL    HW223184   5.179   1.202   8.223
 7618SOL     OW23185   4.212   1.385   7.622
 7618SOL    HW123186   4.125   1.370   7.669
 7618SOL    HW223187   4.195   1.411   7.527
 7619SOL     OW23188   5.114   0.575   7.526
 7619SOL    HW123189   5.060   0.554   7.607
 7619SOL    HW223190   5.205   0.534   7.535
 7620SOL     OW23191   4.251   0.256   7.776
 7620SOL    HW123192   4.278   0.197   7.701
 7620SOL    HW223193   4.251   0.351   7.745
 7621SOL     OW23194   4.788   1.347   8.788
 7621SOL    HW123195   4.708   1.324   8.843
 7621SOL    HW223196   4.871   1.321   8.837
 7622SOL     OW23197   5.316   1.629   9.073
 7622SOL    HW123198   5.343   1.663   8.983
 7622SOL    HW223199   5.395   1.591   9.119
 7623SOL     OW23200   4.835   1.195   8.548
 7623SOL    HW123201   4.795   1.239   8.629
 7623SOL    HW223202   4.794   1.232   8.465
 7624SOL     OW23203   4.639   0.089   8.850
 7624SOL    HW123204   4.664   0.069   8.755
 7624SOL    HW223205   4.711   0.145   8.892
 7625SOL     OW23206   4.704   1.116   9.167
 7625SOL    HW123207   4.605   1.122   9.177
 7625SOL    HW223208   4.727   1.036   9.111
 7626SOL     OW23209   4.429   1.050   7.816
 7626SOL    HW123210   4.415   1.057   7.915
 7626SOL    HW223211   4.513   0.999   7.798
 7627SOL     OW23212   4.134   0.813   8.699
 7627SOL    HW123213   4.220   0.825   8.749
 7627SOL    HW223214   4.092   0.726   8.726
 7628SOL     OW23215   4.998   0.386   8.710
 7628SOL    HW123216   5.019   0.460   8.774
 7628SOL    HW223217   4.909   0.403   8.667
 7629SOL     OW23218   3.788   1.564   8.779
 7629SOL    HW123219   3.742   1.646   8.745
 7629SOL    HW223220   3.886   1.583   8.788
 7630SOL     OW23221   4.091   1.100   7.949
 7630SOL    HW123222   4.084   1.183   7.893
 7630SOL    HW223223   4.095   1.020   7.889
 7631SOL     OW23224   4.290   0.537   8.313
 7631SOL    HW123225   4.302   0.603   8.239
 7631SOL    HW223226   4.336   0.571   8.396
 7632SOL     OW23227   4.976   1.348   7.836
 7632SOL    HW123228   5.026   1.425   7.876
 7632SOL    HW223229   4.881   1.350   7.868
 7633SOL     OW23230   4.996   1.445   8.590
 7633SOL    HW123231   5.043   1.458   8.677
 7633SOL    HW223232   4.930   1.371   8.599
 7634SOL     OW23233   4.078   1.510   8.777
 7634SOL    HW123234   4.057   1.466   8.690
 7634SOL    HW223235   4.175   1.536   8.780
 7635SOL     OW23236   4.126   0.751   9.046
 7635SOL    HW123237   4.194   0.806   8.999
 7635SOL    HW223238   4.166   0.663   9.073
 7636SOL     OW23239   4.737   0.105   9.218
 7636SOL    HW123240   4.743   0.190   9.166
 7636SOL    HW223241   4.769   0.029   9.161
 7637SOL     OW23242   4.228   0.050   9.188
 7637SOL    HW123243   4.186  -0.007   9.118
 7637SOL    HW223244   4.162   0.119   9.220
 7638SOL     OW23245   4.297   0.870   8.477
 7638SOL    HW123246   4.341   0.959   8.468
 7638SOL    HW223247   4.234   0.870   8.554
 7639SOL     OW23248   5.084   0.862   8.493
 7639SOL    HW123249   5.009   0.862   8.427
 7639SOL    HW223250   5.121   0.770   8.502
 7640SOL     OW23251   4.933   0.525   7.723
 7640SOL    HW123252   4.946   0.441   7.777
 7640SOL    HW223253   4.904   0.599   7.783
 7641SOL     OW23254   4.031   0.213   8.679
 7641SOL    HW123255   4.008   0.250   8.769
 7641SOL    HW223256   4.001   0.118   8.673
 7642SOL     OW23257   3.761   1.310   8.730
 7642SOL    HW123258   3.814   1.261   8.798
 7642SOL    HW223259   3.783   1.408   8.735
 7643SOL     OW23260   4.456   0.634   8.512
 7643SOL    HW123261   4.515   0.608   8.436
 7643SOL    HW223262   4.428   0.730   8.501
 7644SOL     OW23263   4.031   0.063   8.066
 7644SOL    HW123264   4.020   0.157   8.099
 7644SOL    HW223265   4.026   0.000   8.143
 7645SOL     OW23266   5.346   0.367   7.822
 7645SOL    HW123267   5.348   0.291   7.886
 7645SOL    HW223268   5.298   0.444   7.862
 7646SOL     OW23269   4.747   0.766   8.414
 7646SOL    HW123270   4.762   0.787   8.510
 7646SOL    HW223271   4.717   0.671   8.405
 7647SOL     OW23272   4.704   1.573   9.148
 7647SOL    HW123273   4.684   1.617   9.060
 7647SOL    HW223274   4.743   1.482   9.132
 7648SOL     OW23275   4.074   0.898   9.252
 7648SOL    HW123276   4.150   0.942   9.300
 7648SOL    HW223277   4.109   0.851   9.170
 7649SOL     OW23278   5.027   0.838   7.490
 7649SOL    HW123279   5.061   0.745   7.505
 7649SOL    HW223280   5.045   0.865   7.395
 7650SOL     OW23281   4.792   1.333   8.297
 7650SOL    HW123282   4.799   1.249   8.242
 7650SOL    HW223283   4.854   1.402   8.261
 7651SOL     OW23284   4.043   0.810   8.397
 7651SOL    HW123285   4.136   0.846   8.402
 7651SOL    HW223286   4.037   0.725   8.449
 7652SOL     OW23287   4.063   0.509   8.454
 7652SOL    HW123288   4.011   0.426   8.437
 7652SOL    HW223289   4.140   0.514   8.390
 7653SOL     OW23290   4.862   0.380   9.126
 7653SOL    HW123291   4.817   0.443   9.190
 7653SOL    HW223292   4.955   0.411   9.109
 7654SOL     OW23293   4.884   0.207   8.925
 7654SOL    HW123294   4.884   0.271   9.002
 7654SOL    HW223295   4.912   0.255   8.842
 7655SOL     OW23296   3.732   1.326   7.648
 7655SOL    HW123297   3.639   1.347   7.617
 7655SOL    HW223298   3.742   1.227   7.661
 7656SOL     OW23299   3.812   1.801   8.375
 7656SOL    HW123300   3.770   1.715   8.348
 7656SOL    HW223301   3.906   1.804   8.341
 7657SOL     OW23302   4.228   1.568   8.358
 7657SOL    HW123303   4.294   1.642   8.367
 7657SOL    HW223304   4.272   1.489   8.316
 7658SOL     OW23305   4.726   0.796   8.686
 7658SOL    HW123306   4.767   0.764   8.772
 7658SOL    HW223307   4.630   0.769   8.683
 7659SOL     OW23308   3.764   0.544   8.562
 7659SOL    HW123309   3.849   0.511   8.521
 7659SOL    HW223310   3.777   0.559   8.660
 7660SOL     OW23311   3.913   0.520   9.170
 7660SOL    HW123312   3.972   0.480   9.100
 7660SOL    HW223313   3.855   0.591   9.129
 7661SOL     OW23314   5.093   0.950   9.108
 7661SOL    HW123315   5.132   1.039   9.128
 7661SOL    HW223316   5.103   0.930   9.011
 7662SOL     OW23317   4.539   0.572   7.773
 7662SOL    HW123318   4.546   0.483   7.727
 7662SOL    HW223319   4.445   0.606   7.765
 7663SOL     OW23320   3.976   1.564   9.192
 7663SOL    HW123321   3.946   1.621   9.268
 7663SOL    HW223322   3.969   1.467   9.218
 7664SOL     OW23323   4.395   0.464   8.717
 7664SOL    HW123324   4.361   0.375   8.687
 7664SOL    HW223325   4.421   0.518   8.637
 7665SOL     OW23326   4.654   1.678   8.913
 7665SOL    HW123327   4.630   1.660   8.818
 7665SOL    HW223328   4.684   1.772   8.923
 7666SOL     OW23329   4.197   0.500   7.639
 7666SOL    HW123330   4.258   0.580   7.643
 7666SOL    HW223331   4.102   0.531   7.646
 7667SOL     OW23332   3.883   1.137   8.914
 7667SOL    HW123333   3.905   1.076   8.990
 7667SOL    HW223334   3.893   1.088   8.828
 7668SOL     OW23335   5.071   1.059   8.682
 7668SOL    HW123336   5.095   0.996   8.608
 7668SOL    HW223337   4.981   1.099   8.664
 7669SOL     OW23338   5.026   0.855   7.757
 7669SOL    HW123339   4.940   0.824   7.799
 7669SOL    HW223340   5.022   0.841   7.658
 7670SOL     OW23341   4.976   1.731   8.576
 7670SOL    HW123342   5.060   1.736   8.522
 7670SOL    HW223343   4.953   1.635   8.594
 7671SOL     OW23344   3.807   1.258   8.470
 7671SOL    HW123345   3.802   1.257   8.570
 7671SOL    HW223346   3.724   1.217   8.432
 7672SOL     OW23347   4.412   1.662   9.164
 7672SOL    HW123348   4.356   1.743   9.173
 7672SOL    HW223349   4.464   1.666   9.078
 7673SOL     OW23350   5.112   1.573   7.925
 7673SOL    HW123351   5.179   1.585   7.851
 7673SOL    HW223352   5.072   1.662   7.948
 7674SOL     OW23353   3.854   1.794   9.299
 7674SOL    HW123354   3.813   1.720   9.352
 7674SOL    HW223355   3.918   1.845   9.357
 7675SOL     OW23356   5.004   0.927   8.120
 7675SOL    HW123357   5.064   0.846   8.122
 7675SOL    HW223358   5.044   0.996   8.060
 7676SOL     OW23359   4.554   1.273   8.870
 7676SOL    HW123360   4.549   1.306   8.965
 7676SOL    HW223361   4.468   1.292   8.824
 7677SOL     OW23362   4.396   1.616   7.602
 7677SOL    HW123363   4.405   1.626   7.503
 7677SOL    HW223364   4.356   1.527   7.623
 7678SOL     OW23365   3.987   0.326   8.168
 7678SOL    HW123366   3.908   0.377   8.134
 7678SOL    HW223367   3.978   0.311   8.266
 7679SOL     OW23368   4.918   1.612   7.479
 7679SOL    HW123369   4.924   1.519   7.516
 7679SOL    HW223370   4.859   1.612   7.399
 7680SOL     OW23371   4.546   1.002   8.820
 7680SOL    HW123372   4.586   1.001   8.728
 7680SOL    HW223373   4.556   1.094   8.860
 7681SOL     OW23374   4.640   0.910   7.739
 7681SOL    HW123375   4.703   0.948   7.671
 7681SOL    HW223376   4.680   0.827   7.778
 7682SOL     OW23377   4.096   1.288   8.938
 7682SOL    HW123378   4.083   1.381   8.904
 7682SOL    HW223379   4.012   1.236   8.925
 7683SOL     OW23380   4.763   1.098   8.144
 7683SOL    HW123381   4.693   1.051   8.198
 7683SOL    HW223382   4.822   1.030   8.101
 7684SOL     OW23383   4.738   0.236   8.419
 7684SOL    HW123384   4.730   0.200   8.326
 7684SOL    HW223385   4.736   0.160   8.484
 7685SOL     OW23386   4.314   1.487   7.939
 7685SOL    HW123387   4.356   1.429   7.869
 7685SOL    HW223388   4.270   1.566   7.895
 7686SOL     OW23389   3.979   1.348   7.738
 7686SOL    HW123390   3.883   1.349   7.711
 7686SOL    HW223391   3.991   1.401   7.822
 7687SOL     OW23392   3.829   1.013   9.174
 7687SOL    HW123393   3.752   0.980   9.228
 7687SOL    HW223394   3.914   0.983   9.216
 7688SOL     OW23395   4.396   0.203   8.937
 7688SOL    HW123396   4.486   0.187   8.897
 7688SOL    HW223397   4.404   0.208   9.036
 7689SOL     OW23398   3.799   0.345   7.481
 7689SOL    HW123399   3.707   0.317   7.452
 7689SOL    HW223400   3.830   0.422   7.425
 7690SOL     OW23401   5.164   0.856   8.846
 7690SOL    HW123402   5.107   0.908   8.783
 7690SOL    HW223403   5.260   0.868   8.822
 7691SOL     OW23404   3.796   0.166   7.766
 7691SOL    HW123405   3.779   0.249   7.712
 7691SOL    HW223406   3.886   0.129   7.744
 7692SOL     OW23407   4.907   1.335   7.567
 7692SOL    HW123408   4.808   1.324   7.569
 7692SOL    HW223409   4.941   1.350   7.660
 7693SOL     OW23410   4.337   0.842   8.879
 7693SOL    HW123411   4.393   0.923   8.862
 7693SOL    HW223412   4.396   0.762   8.882
 7694SOL     OW23413   4.440   0.565   9.156
 7694SOL    HW123414   4.459   0.630   9.230
 7694SOL    HW223415   4.500   0.485   9.165
 7695SOL     OW23416   5.174   1.220   9.081
 7695SOL    HW123417   5.165   1.210   9.180
 7695SOL    HW223418   5.270   1.213   9.055
 7696SOL     OW23419   4.114   1.741   9.008
 7696SOL    HW123420   4.023   1.782   9.006
 7696SOL    HW223421   4.107   1.647   9.040
 7697SOL     OW23422   4.949   0.325   7.897
 7697SOL    HW123423   5.014   0.251   7.886
 7697SOL    HW223424   4.969   0.375   7.981
 7698SOL     OW23425   4.318   0.745   8.100
 7698SOL    HW123426   4.368   0.830   8.081
 7698SOL    HW223427   4.230   0.747   8.052
 7699SOL     OW23428   4.583   1.374   7.464
 7699SOL    HW123429   4.537   1.389   7.552
 7699SOL    HW223430   4.627   1.459   7.434
 7700SOL     OW23431   4.385   1.790   8.401
 7700SOL    HW123432   4.339   1.878   8.388
 7700SOL    HW223433   4.484   1.802   8.394
 7701SOL     OW23434   4.583   0.956   8.309
 7701SOL    HW123435   4.637   0.887   8.357
 7701SOL    HW223436   4.551   1.025   8.375
 7702SOL     OW23437   4.807   0.984   7.535
 7702SOL    HW123438   4.784   1.037   7.453
 7702SOL    HW223439   4.888   0.928   7.516
 7703SOL     OW23440   3.945   1.314   9.292
 7703SOL    HW123441   3.880   1.241   9.271
 7703SOL    HW223442   3.949   1.328   9.390
 7704SOL     OW23443   3.803   1.240   8.101
 7704SOL    HW123444   3.802   1.193   8.189
 7704SOL    HW223445   3.885   1.212   8.050
 7705SOL     OW23446   4.396   1.391   9.072
 7705SOL    HW123447   4.318   1.341   9.110
 7705SOL    HW223448   4.393   1.486   9.103
 7706SOL     OW23449   4.152   0.424   7.968
 7706SOL    HW123450   4.182   0.352   7.906
 7706SOL    HW223451   4.113   0.384   8.051
 7707SOL     OW23452   5.429   1.487   8.552
 7707SOL    HW123453   5.336   1.462   8.525
 7707SOL    HW223454   5.455   1.437   8.634
 7708SOL     OW23455   4.041   0.547   8.728
 7708SOL    HW123456   4.079   0.488   8.800
 7708SOL    HW223457   4.081   0.521   8.640
 7709SOL     OW23458   4.536   1.586   8.135
 7709SOL    HW123459   4.568   1.596   8.041
 7709SOL    HW223460   4.457   1.524   8.137
 7710SOL     OW23461   5.148   0.214   8.560
 7710SOL    HW123462   5.200   0.149   8.615
 7710SOL    HW223463   5.099   0.277   8.621
 7711SOL     OW23464   4.725   0.034   8.602
 7711SOL    HW123465   4.662  -0.038   8.571
 7711SOL    HW223466   4.818  -0.002   8.602
 7712SOL     OW23467   4.494   1.330   7.749
 7712SOL    HW123468   4.448   1.243   7.766
 7712SOL    HW223469   4.585   1.327   7.790
 7713SOL     OW23470   4.342   1.567   8.732
 7713SOL    HW123471   4.337   1.649   8.789
 7713SOL    HW223472   4.431   1.564   8.687
 7714SOL     OW23473   5.076   0.052   7.616
 7714SOL    HW123474   5.111   0.011   7.532
 7714SOL    HW223475   4.986   0.014   7.636
 7715SOL     OW23476   5.024   0.453   8.139
 7715SOL    HW123477   4.965   0.533   8.143
 7715SOL    HW223478   5.039   0.418   8.232
 7716SOL     OW23479   5.317   0.221   8.330
 7716SOL    HW123480   5.233   0.220   8.384
 7716SOL    HW223481   5.319   0.304   8.274
 7717SOL     OW23482   3.763   1.077   7.748
 7717SOL    HW123483   3.862   1.066   7.739
 7717SOL    HW223484   3.723   0.991   7.780
 7718SOL     OW23485   4.599   1.646   7.785
 7718SOL    HW123486   4.522   1.611   7.731
 7718SOL    HW223487   4.567   1.717   7.847
 7719SOL     OW23488   3.954   0.628   9.423
 7719SOL    HW123489   3.861   0.626   9.460
 7719SOL    HW223490   3.955   0.589   9.331
 7720SOL     OW23491   3.949   0.275  10.306
 7720SOL    HW123492   3.984   0.258  10.398
 7720SOL    HW223493   3.861   0.230  10.294
 7721SOL     OW23494   3.743   0.368   9.957
 7721SOL    HW123495   3.661   0.411   9.996
 7721SOL    HW223496   3.715   0.295   9.894
 7722SOL     OW23497   4.293   1.275  10.475
 7722SOL    HW123498   4.200   1.268  10.438
 7722SOL    HW223499   4.304   1.364  10.519
 7723SOL     OW23500   5.279   1.511  10.013
 7723SOL    HW123501   5.222   1.495  10.094
 7723SOL    HW223502   5.220   1.521   9.933
 7724SOL     OW23503   4.859   0.703  10.027
 7724SOL    HW123504   4.916   0.781  10.002
 7724SOL    HW223505   4.799   0.729  10.103
 7725SOL     OW23506   4.492   1.144  10.333
 7725SOL    HW123507   4.414   1.161  10.393
 7725SOL    HW223508   4.526   1.231  10.297
 7726SOL     OW23509   4.409   1.012   9.975
 7726SOL    HW123510   4.478   0.996  10.045
 7726SOL    HW223511   4.336   1.069  10.013
 7727SOL     OW23512   4.059   1.435  10.371
 7727SOL    HW123513   3.981   1.404  10.318
 7727SOL    HW223514   4.117   1.493  10.314
 7728SOL     OW23515   5.184   1.505  10.649
 7728SOL    HW123516   5.208   1.599  10.675
 7728SOL    HW223517   5.168   1.451  10.731
 7729SOL     OW23518   4.162   0.392  10.809
 7729SOL    HW123519   4.244   0.336  10.818
 7729SOL    HW223520   4.081   0.334  10.813
 7730SOL     OW23521   3.955   1.713   9.793
 7730SOL    HW123522   3.989   1.790   9.847
 7730SOL    HW223523   3.999   1.713   9.703
 7731SOL     OW23524   3.954   1.434   9.848
 7731SOL    HW123525   3.928   1.530   9.848
 7731SOL    HW223526   3.883   1.380   9.893
 7732SOL     OW23527   3.964   1.091  10.196
 7732SOL    HW123528   3.978   1.007  10.248
 7732SOL    HW223529   3.909   1.155  10.251
 7733SOL     OW23530   4.344   1.786  10.749
 7733SOL    HW123531   4.252   1.769  10.784
 7733SOL    HW223532   4.372   1.878  10.775
 7734SOL     OW23533   4.330   0.964   9.433
 7734SOL    HW123534   4.337   1.048   9.379
 7734SOL    HW223535   4.376   0.977   9.521
 7735SOL     OW23536   3.846   0.643   9.873
 7735SOL    HW123537   3.801   0.555   9.890
 7735SOL    HW223538   3.845   0.697   9.957
 7736SOL     OW23539   3.751   1.596   9.427
 7736SOL    HW123540   3.732   1.500   9.448
 7736SOL    HW223541   3.718   1.654   9.502
 7737SOL     OW23542   5.413   0.922   9.922
 7737SOL    HW123543   5.508   0.893   9.930
 7737SOL    HW223544   5.405   0.987   9.847
 7738SOL     OW23545   4.337   1.365  10.036
 7738SOL    HW123546   4.288   1.278  10.045
 7738SOL    HW223547   4.314   1.408   9.949
 7739SOL     OW23548   4.533   0.004   9.812
 7739SOL    HW123549   4.573   0.095   9.803
 7739SOL    HW223550   4.433   0.012   9.818
 7740SOL     OW23551   3.921   0.976  10.574
 7740SOL    HW123552   4.010   0.931  10.560
 7740SOL    HW223553   3.848   0.911  10.555
 7741SOL     OW23554   5.190   1.417  10.263
 7741SOL    HW123555   5.131   1.423  10.343
 7741SOL    HW223556   5.175   1.329  10.217
 7742SOL     OW23557   4.322   0.729   9.580
 7742SOL    HW123558   4.346   0.798   9.512
 7742SOL    HW223559   4.244   0.762   9.634
 7743SOL     OW23560   5.005   0.345  10.254
 7743SOL    HW123561   4.919   0.295  10.241
 7743SOL    HW223562   5.067   0.291  10.310
 7744SOL     OW23563   4.531   0.605  10.775
 7744SOL    HW123564   4.484   0.602  10.864
 7744SOL    HW223565   4.480   0.550  10.709
 7745SOL     OW23566   4.715   0.410  10.552
 7745SOL    HW123567   4.638   0.444  10.606
 7745SOL    HW223568   4.681   0.359  10.473
 7746SOL     OW23569   4.765   0.701   9.739
 7746SOL    HW123570   4.791   0.697   9.835
 7746SOL    HW223571   4.680   0.650   9.725
 7747SOL     OW23572   3.800   0.811  10.099
 7747SOL    HW123573   3.899   0.799  10.108
 7747SOL    HW223574   3.776   0.906  10.120
 7748SOL     OW23575   3.854   1.821  10.881
 7748SOL    HW123576   3.844   1.806  10.980
 7748SOL    HW223577   3.768   1.857  10.845
 7749SOL     OW23578   4.589   0.348   9.505
 7749SOL    HW123579   4.648   0.411   9.456
 7749SOL    HW223580   4.608   0.254   9.476
 7750SOL     OW23581   5.086   1.144   9.855
 7750SOL    HW123582   5.169   1.115   9.807
 7750SOL    HW223583   5.037   1.211   9.799
 7751SOL     OW23584   4.274   0.196  10.195
 7751SOL    HW123585   4.269   0.191  10.295
 7751SOL    HW223586   4.276   0.292  10.166
 7752SOL     OW23587   4.732   1.456   9.787
 7752SOL    HW123588   4.686   1.528   9.735
 7752SOL    HW223589   4.728   1.476   9.885
 7753SOL     OW23590   4.075   1.801  10.163
 7753SOL    HW123591   4.125   1.715  10.169
 7753SOL    HW223592   4.140   1.878  10.160
 7754SOL     OW23593   4.045   0.943   9.552
 7754SOL    HW123594   4.127   0.982   9.510
 7754SOL    HW223595   4.018   0.861   9.503
 7755SOL     OW23596   4.835   1.776   9.547
 7755SOL    HW123597   4.775   1.714   9.597
 7755SOL    HW223598   4.866   1.732   9.462
 7756SOL     OW23599   4.188   1.743   9.633
 7756SOL    HW123600   4.221   1.782   9.719
 7756SOL    HW223601   4.264   1.736   9.568
 7757SOL     OW23602   5.124   0.107   9.736
 7757SOL    HW123603   5.100   0.070   9.646
 7757SOL    HW223604   5.223   0.123   9.740
 7758SOL     OW23605   3.973   1.785  10.551
 7758SOL    HW123606   4.030   1.720  10.601
 7758SOL    HW223607   3.957   1.752  10.458
 7759SOL     OW23608   4.664   1.698  10.214
 7759SOL    HW123609   4.744   1.641  10.235
 7759SOL    HW223610   4.615   1.658  10.137
 7760SOL     OW23611   4.106   0.700   9.790
 7760SOL    HW123612   4.151   0.610   9.787
 7760SOL    HW223613   4.012   0.689   9.823
 7761SOL     OW23614   4.338   0.122   9.427
 7761SOL    HW123615   4.436   0.100   9.434
 7761SOL    HW223616   4.307   0.105   9.334
 7762SOL     OW23617   4.612   1.514  10.505
 7762SOL    HW123618   4.589   1.489  10.411
 7762SOL    HW223619   4.673   1.445  10.544
 7763SOL     OW23620   4.527   1.402  10.234
 7763SOL    HW123621   4.617   1.416  10.192
 7763SOL    HW223622   4.456   1.404  10.163
 7764SOL     OW23623   4.646   0.503  10.209
 7764SOL    HW123624   4.621   0.494  10.113
 7764SOL    HW223625   4.694   0.421  10.240
 7765SOL     OW23626   4.263   0.064   9.822
 7765SOL    HW123627   4.182   0.065   9.880
 7765SOL    HW223628   4.266   0.147   9.767
 7766SOL     OW23629   5.158   1.188   9.351
 7766SOL    HW123630   5.190   1.112   9.408
 7766SOL    HW223631   5.066   1.215   9.381
 7767SOL     OW23632   4.021   0.035   9.481
 7767SOL    HW123633   4.070   0.119   9.460
 7767SOL    HW223634   4.083  -0.030   9.526
 7768SOL     OW23635   4.659   0.236   9.790
 7768SOL    HW123636   4.611   0.277   9.712
 7768SOL    HW223637   4.758   0.234   9.771
 7769SOL     OW23638   4.951   1.570  10.103
 7769SOL    HW123639   4.972   1.644  10.038
 7769SOL    HW223640   5.019   1.570  10.176
 7770SOL     OW23641   4.183   1.152  10.051
 7770SOL    HW123642   4.112   1.125  10.116
 7770SOL    HW223643   4.157   1.124   9.958
 7771SOL     OW23644   4.995   1.797   9.901
 7771SOL    HW123645   5.039   1.861   9.837
 7771SOL    HW223646   4.945   1.849   9.971
 7772SOL     OW23647   4.756   0.549   9.326
 7772SOL    HW123648   4.715   0.631   9.287
 7772SOL    HW223649   4.820   0.575   9.399
 7773SOL     OW23650   4.285   0.222  10.457
 7773SOL    HW123651   4.323   0.138  10.494
 7773SOL    HW223652   4.197   0.241  10.501
 7774SOL     OW23653   4.590   0.454   9.952
 7774SOL    HW123654   4.558   0.526   9.890
 7774SOL    HW223655   4.614   0.373   9.899
 7775SOL     OW23656   4.741   0.039  10.063
 7775SOL    HW123657   4.669   0.044   9.994
 7775SOL    HW223658   4.717  -0.030  10.132
 7776SOL     OW23659   5.153   1.173  10.177
 7776SOL    HW123660   5.098   1.089  10.170
 7776SOL    HW223661   5.179   1.202  10.085
 7777SOL     OW23662   4.212   1.385   9.484
 7777SOL    HW123663   4.125   1.370   9.531
 7777SOL    HW223664   4.195   1.411   9.389
 7778SOL     OW23665   5.114   0.575   9.388
 7778SOL    HW123666   5.060   0.554   9.469
 7778SOL    HW223667   5.205   0.534   9.397
 7779SOL     OW23668   4.251   0.256   9.638
 7779SOL    HW123669   4.278   0.197   9.563
 7779SOL    HW223670   4.251   0.351   9.607
 7780SOL     OW23671   4.788   1.347  10.650
 7780SOL    HW123672   4.708   1.324  10.705
 7780SOL    HW223673   4.871   1.321  10.699
 7781SOL     OW23674   4.835   1.195  10.410
 7781SOL    HW123675   4.795   1.239  10.491
 7781SOL    HW223676   4.794   1.232  10.327
 7782SOL     OW23677   4.429   1.050   9.678
 7782SOL    HW123678   4.415   1.057   9.777
 7782SOL    HW223679   4.513   0.999   9.660
 7783SOL     OW23680   4.134   0.813  10.561
 7783SOL    HW123681   4.220   0.825  10.611
 7783SOL    HW223682   4.092   0.726  10.588
 7784SOL     OW23683   4.998   0.386  10.572
 7784SOL    HW123684   5.019   0.460  10.636
 7784SOL    HW223685   4.909   0.403  10.529
 7785SOL     OW23686   3.788   1.564  10.641
 7785SOL    HW123687   3.742   1.646  10.607
 7785SOL    HW223688   3.886   1.583  10.650
 7786SOL     OW23689   4.091   1.100   9.811
 7786SOL    HW123690   4.084   1.183   9.755
 7786SOL    HW223691   4.095   1.020   9.751
 7787SOL     OW23692   4.290   0.537  10.175
 7787SOL    HW123693   4.302   0.603  10.101
 7787SOL    HW223694   4.336   0.571  10.258
 7788SOL     OW23695   4.976   1.348   9.698
 7788SOL    HW123696   5.026   1.425   9.738
 7788SOL    HW223697   4.881   1.350   9.730
 7789SOL     OW23698   4.996   1.445  10.452
 7789SOL    HW123699   5.043   1.458  10.539
 7789SOL    HW223700   4.930   1.371  10.461
 7790SOL     OW23701   4.078   1.510  10.639
 7790SOL    HW123702   4.057   1.466  10.552
 7790SOL    HW223703   4.175   1.536  10.642
 7791SOL     OW23704   5.311   0.779  10.980
 7791SOL    HW123705   5.219   0.817  10.975
 7791SOL    HW223706   5.371   0.826  10.915
 7792SOL     OW23707   4.297   0.870  10.339
 7792SOL    HW123708   4.341   0.959  10.330
 7792SOL    HW223709   4.234   0.870  10.416
 7793SOL     OW23710   5.084   0.862  10.355
 7793SOL    HW123711   5.009   0.862  10.289
 7793SOL    HW223712   5.121   0.770  10.364
 7794SOL     OW23713   4.933   0.525   9.585
 7794SOL    HW123714   4.946   0.441   9.639
 7794SOL    HW223715   4.904   0.599   9.645
 7795SOL     OW23716   4.031   0.213  10.541
 7795SOL    HW123717   4.008   0.250  10.631
 7795SOL    HW223718   4.001   0.118  10.535
 7796SOL     OW23719   3.761   1.310  10.592
 7796SOL    HW123720   3.814   1.261  10.660
 7796SOL    HW223721   3.783   1.408  10.597
 7797SOL     OW23722   4.456   0.634  10.374
 7797SOL    HW123723   4.515   0.608  10.298
 7797SOL    HW223724   4.428   0.730  10.363
 7798SOL     OW23725   4.031   0.063   9.928
 7798SOL    HW123726   4.020   0.157   9.961
 7798SOL    HW223727   4.026   0.000  10.005
 7799SOL     OW23728   5.346   0.367   9.684
 7799SOL    HW123729   5.348   0.291   9.748
 7799SOL    HW223730   5.298   0.444   9.724
 7800SOL     OW23731   4.747   0.766  10.276
 7800SOL    HW123732   4.762   0.787  10.372
 7800SOL    HW223733   4.717   0.671  10.267
 7801SOL     OW23734   5.027   0.838   9.352
 7801SOL    HW123735   5.061   0.745   9.367
 7801SOL    HW223736   5.045   0.865   9.257
 7802SOL     OW23737   4.792   1.333  10.159
 7802SOL    HW123738   4.799   1.249  10.104
 7802SOL    HW223739   4.854   1.402  10.123
 7803SOL     OW23740   4.043   0.810  10.259
 7803SOL    HW123741   4.136   0.846  10.264
 7803SOL    HW223742   4.037   0.725  10.311
 7804SOL     OW23743   4.063   0.509  10.316
 7804SOL    HW123744   4.011   0.426  10.299
 7804SOL    HW223745   4.140   0.514  10.252
 7805SOL     OW23746   4.884   0.207  10.787
 7805SOL    HW123747   4.884   0.271  10.864
 7805SOL    HW223748   4.912   0.255  10.704
 7806SOL     OW23749   3.732   1.326   9.510
 7806SOL    HW123750   3.639   1.347   9.479
 7806SOL    HW223751   3.742   1.227   9.523
 7807SOL     OW23752   3.812   1.801  10.237
 7807SOL    HW123753   3.770   1.715  10.210
 7807SOL    HW223754   3.906   1.804  10.203
 7808SOL     OW23755   4.228   1.568  10.220
 7808SOL    HW123756   4.294   1.642  10.229
 7808SOL    HW223757   4.272   1.489  10.178
 7809SOL     OW23758   4.726   0.796  10.548
 7809SOL    HW123759   4.767   0.764  10.634
 7809SOL    HW223760   4.630   0.769  10.545
 7810SOL     OW23761   3.764   0.544  10.424
 7810SOL    HW123762   3.849   0.511  10.383
 7810SOL    HW223763   3.777   0.559  10.522
 7811SOL     OW23764   4.539   0.572   9.635
 7811SOL    HW123765   4.546   0.483   9.589
 7811SOL    HW223766   4.445   0.606   9.627
 7812SOL     OW23767   4.395   0.464  10.579
 7812SOL    HW123768   4.361   0.375  10.549
 7812SOL    HW223769   4.421   0.518  10.499
 7813SOL     OW23770   4.654   1.678  10.775
 7813SOL    HW123771   4.630   1.660  10.680
 7813SOL    HW223772   4.684   1.772  10.785
 7814SOL     OW23773   4.197   0.500   9.501
 7814SOL    HW123774   4.258   0.580   9.505
 7814SOL    HW223775   4.102   0.531   9.508
 7815SOL     OW23776   3.883   1.137  10.776
 7815SOL    HW123777   3.905   1.076  10.852
 7815SOL    HW223778   3.893   1.088  10.690
 7816SOL     OW23779   5.071   1.059  10.544
 7816SOL    HW123780   5.095   0.996  10.470
 7816SOL    HW223781   4.981   1.099  10.526
 7817SOL     OW23782   5.026   0.855   9.619
 7817SOL    HW123783   4.940   0.824   9.661
 7817SOL    HW223784   5.022   0.841   9.520
 7818SOL     OW23785   4.976   1.731  10.438
 7818SOL    HW123786   5.060   1.736  10.384
 7818SOL    HW223787   4.953   1.635  10.456
 7819SOL     OW23788   3.807   1.258  10.332
 7819SOL    HW123789   3.802   1.257  10.432
 7819SOL    HW223790   3.724   1.217  10.294
 7820SOL     OW23791   5.112   1.573   9.787
 7820SOL    HW123792   5.179   1.585   9.713
 7820SOL    HW223793   5.072   1.662   9.810
 7821SOL     OW23794   5.004   0.927   9.982
 7821SOL    HW123795   5.064   0.846   9.984
 7821SOL    HW223796   5.044   0.996   9.922
 7822SOL     OW23797   4.396   1.616   9.464
 7822SOL    HW123798   4.405   1.626   9.365
 7822SOL    HW223799   4.356   1.527   9.485
 7823SOL     OW23800   3.987   0.326  10.030
 7823SOL    HW123801   3.908   0.377   9.996
 7823SOL    HW223802   3.978   0.311  10.128
 7824SOL     OW23803   4.918   1.612   9.341
 7824SOL    HW123804   4.924   1.519   9.378
 7824SOL    HW223805   4.859   1.612   9.261
 7825SOL     OW23806   4.546   1.002  10.682
 7825SOL    HW123807   4.586   1.001  10.590
 7825SOL    HW223808   4.556   1.094  10.722
 7826SOL     OW23809   4.640   0.910   9.601
 7826SOL    HW123810   4.703   0.948   9.533
 7826SOL    HW223811   4.680   0.827   9.640
 7827SOL     OW23812   4.096   1.288  10.800
 7827SOL    HW123813   4.083   1.381  10.766
 7827SOL    HW223814   4.012   1.236  10.787
 7828SOL     OW23815   4.763   1.098  10.006
 7828SOL    HW123816   4.693   1.051  10.060
 7828SOL    HW223817   4.822   1.030   9.963
 7829SOL     OW23818   4.738   0.236  10.281
 7829SOL    HW123819   4.730   0.200  10.188
 7829SOL    HW223820   4.736   0.160  10.346
 7830SOL     OW23821   4.314   1.487   9.801
 7830SOL    HW123822   4.356   1.429   9.731
 7830SOL    HW223823   4.270   1.566   9.757
 7831SOL     OW23824   3.979   1.348   9.600
 7831SOL    HW123825   3.883   1.349   9.573
 7831SOL    HW223826   3.991   1.401   9.684
 7832SOL     OW23827   3.799   0.345   9.343
 7832SOL    HW123828   3.707   0.317   9.314
 7832SOL    HW223829   3.830   0.422   9.287
 7833SOL     OW23830   3.796   0.166   9.628
 7833SOL    HW123831   3.779   0.249   9.574
 7833SOL    HW223832   3.886   0.129   9.606
 7834SOL     OW23833   4.907   1.335   9.429
 7834SOL    HW123834   4.808   1.324   9.431
 7834SOL    HW223835   4.941   1.350   9.522
 7835SOL     OW23836   4.337   0.842  10.741
 7835SOL    HW123837   4.393   0.923  10.724
 7835SOL    HW223838   4.396   0.762  10.744
 7836SOL     OW23839   4.114   1.741  10.870
 7836SOL    HW123840   4.023   1.782  10.868
 7836SOL    HW223841   4.107   1.647  10.902
 7837SOL     OW23842   4.949   0.325   9.759
 7837SOL    HW123843   5.014   0.251   9.748
 7837SOL    HW223844   4.969   0.375   9.843
 7838SOL     OW23845   4.318   0.745   9.962
 7838SOL    HW123846   4.368   0.830   9.943
 7838SOL    HW223847   4.230   0.747   9.914
 7839SOL     OW23848   4.583   1.374   9.326
 7839SOL    HW123849   4.537   1.389   9.414
 7839SOL    HW223850   4.627   1.459   9.296
 7840SOL     OW23851   4.385   1.790  10.263
 7840SOL    HW123852   4.339   1.878  10.250
 7840SOL    HW223853   4.484   1.802  10.256
 7841SOL     OW23854   4.583   0.956  10.171
 7841SOL    HW123855   4.637   0.887  10.219
 7841SOL    HW223856   4.551   1.025  10.237
 7842SOL     OW23857   4.807   0.984   9.397
 7842SOL    HW123858   4.784   1.037   9.315
 7842SOL    HW223859   4.888   0.928   9.378
 7843SOL     OW23860   3.803   1.240   9.963
 7843SOL    HW123861   3.802   1.193  10.051
 7843SOL    HW223862   3.885   1.212   9.912
 7844SOL     OW23863   4.152   0.424   9.830
 7844SOL    HW123864   4.182   0.352   9.768
 7844SOL    HW223865   4.113   0.384   9.913
 7845SOL     OW23866   5.429   1.487  10.414
 7845SOL    HW123867   5.336   1.462  10.387
 7845SOL    HW223868   5.455   1.437  10.496
 7846SOL     OW23869   4.041   0.547  10.590
 7846SOL    HW123870   4.079   0.488  10.662
 7846SOL    HW223871   4.081   0.521  10.502
 7847SOL     OW23872   4.536   1.586   9.997
 7847SOL    HW123873   4.568   1.596   9.903
 7847SOL    HW223874   4.457   1.524   9.999
 7848SOL     OW23875   5.148   0.214  10.422
 7848SOL    HW123876   5.200   0.149  10.477
 7848SOL    HW223877   5.099   0.277  10.483
 7849SOL     OW23878   4.725   0.034  10.464
 7849SOL    HW123879   4.662  -0.038  10.433
 7849SOL    HW223880   4.818  -0.002  10.464
 7850SOL     OW23881   4.494   1.330   9.611
 7850SOL    HW123882   4.448   1.243   9.628
 7850SOL    HW223883   4.585   1.327   9.652
 7851SOL     OW23884   4.342   1.567  10.594
 7851SOL    HW123885   4.337   1.649  10.651
 7851SOL    HW223886   4.431   1.564  10.549
 7852SOL     OW23887   5.076   0.052   9.478
 7852SOL    HW123888   5.111   0.011   9.394
 7852SOL    HW223889   4.986   0.014   9.498
 7853SOL     OW23890   5.024   0.453  10.001
 7853SOL    HW123891   4.965   0.533  10.005
 7853SOL    HW223892   5.039   0.418  10.094
 7854SOL     OW23893   5.317   0.221  10.192
 7854SOL    HW123894   5.233   0.220  10.246
 7854SOL    HW223895   5.319   0.304  10.136
 7855SOL     OW23896   3.763   1.077   9.610
 7855SOL    HW123897   3.862   1.066   9.601
 7855SOL    HW223898   3.723   0.991   9.642
 7856SOL     OW23899   4.599   1.646   9.647
 7856SOL    HW123900   4.522   1.611   9.593
 7856SOL    HW223901   4.567   1.717   9.709
 7857SOL     OW23902   3.954   2.490   0.113
 7857SOL    HW123903   3.861   2.488   0.150
 7857SOL    HW223904   3.955   2.451   0.021
 7858SOL     OW23905   3.949   2.137   0.996
 7858SOL    HW123906   3.984   2.120   1.088
 7858SOL    HW223907   3.861   2.092   0.984
 7859SOL     OW23908   3.743   2.230   0.647
 7859SOL    HW123909   3.661   2.273   0.686
 7859SOL    HW223910   3.715   2.157   0.584
 7860SOL     OW23911   4.293   3.137   1.165
 7860SOL    HW123912   4.200   3.130   1.128
 7860SOL    HW223913   4.304   3.226   1.209
 7861SOL     OW23914   5.279   3.373   0.703
 7861SOL    HW123915   5.222   3.357   0.784
 7861SOL    HW223916   5.220   3.383   0.623
 7862SOL     OW23917   4.859   2.565   0.717
 7862SOL    HW123918   4.916   2.643   0.692
 7862SOL    HW223919   4.799   2.591   0.793
 7863SOL     OW23920   4.492   3.006   1.023
 7863SOL    HW123921   4.414   3.023   1.083
 7863SOL    HW223922   4.526   3.093   0.987
 7864SOL     OW23923   4.574   2.660   1.823
 7864SOL    HW123924   4.570   2.736   1.888
 7864SOL    HW223925   4.596   2.696   1.732
 7865SOL     OW23926   4.409   2.874   0.665
 7865SOL    HW123927   4.478   2.858   0.735
 7865SOL    HW223928   4.336   2.931   0.703
 7866SOL     OW23929   4.410   3.023   1.803
 7866SOL    HW123930   4.470   3.102   1.817
 7866SOL    HW223931   4.324   3.054   1.762
 7867SOL     OW23932   4.059   3.297   1.061
 7867SOL    HW123933   3.981   3.266   1.008
 7867SOL    HW223934   4.117   3.355   1.004
 7868SOL     OW23935   5.184   3.367   1.339
 7868SOL    HW123936   5.208   3.461   1.365
 7868SOL    HW223937   5.168   3.313   1.421
 7869SOL     OW23938   4.162   2.254   1.499
 7869SOL    HW123939   4.244   2.198   1.508
 7869SOL    HW223940   4.081   2.196   1.503
 7870SOL     OW23941   3.955   3.575   0.483
 7870SOL    HW123942   3.989   3.652   0.537
 7870SOL    HW223943   3.999   3.575   0.393
 7871SOL     OW23944   4.851   3.203   1.690
 7871SOL    HW123945   4.898   3.203   1.778
 7871SOL    HW223946   4.803   3.116   1.679
 7872SOL     OW23947   3.954   3.296   0.538
 7872SOL    HW123948   3.928   3.392   0.538
 7872SOL    HW223949   3.883   3.242   0.583
 7873SOL     OW23950   3.964   2.953   0.886
 7873SOL    HW123951   3.978   2.869   0.938
 7873SOL    HW223952   3.909   3.017   0.941
 7874SOL     OW23953   4.344   3.648   1.439
 7874SOL    HW123954   4.252   3.631   1.474
 7874SOL    HW223955   4.372   3.740   1.465
 7875SOL     OW23956   4.330   2.826   0.123
 7875SOL    HW123957   4.337   2.910   0.069
 7875SOL    HW223958   4.376   2.839   0.211
 7876SOL     OW23959   3.846   2.505   0.563
 7876SOL    HW123960   3.801   2.417   0.580
 7876SOL    HW223961   3.845   2.559   0.647
 7877SOL     OW23962   3.751   3.458   0.117
 7877SOL    HW123963   3.732   3.362   0.138
 7877SOL    HW223964   3.718   3.516   0.192
 7878SOL     OW23965   5.413   2.784   0.612
 7878SOL    HW123966   5.508   2.755   0.620
 7878SOL    HW223967   5.405   2.849   0.537
 7879SOL     OW23968   3.837   2.599   1.597
 7879SOL    HW123969   3.925   2.586   1.642
 7879SOL    HW223970   3.824   2.696   1.575
 7880SOL     OW23971   4.337   3.227   0.726
 7880SOL    HW123972   4.288   3.140   0.735
 7880SOL    HW223973   4.314   3.270   0.639
 7881SOL     OW23974   5.017   3.090   1.423
 7881SOL    HW123975   5.054   3.017   1.365
 7881SOL    HW223976   5.069   3.095   1.508
 7882SOL     OW23977   4.533   1.866   0.502
 7882SOL    HW123978   4.573   1.957   0.493
 7882SOL    HW223979   4.433   1.874   0.508
 7883SOL     OW23980   3.921   2.838   1.264
 7883SOL    HW123981   4.010   2.793   1.250
 7883SOL    HW223982   3.848   2.773   1.245
 7884SOL     OW23983   4.911   3.654   1.616
 7884SOL    HW123984   4.935   3.714   1.540
 7884SOL    HW223985   4.918   3.559   1.586
 7885SOL     OW23986   4.041   2.113   1.801
 7885SOL    HW123987   4.112   2.184   1.807
 7885SOL    HW223988   3.953   2.152   1.829
 7886SOL     OW23989   5.190   3.279   0.953
 7886SOL    HW123990   5.131   3.285   1.033
 7886SOL    HW223991   5.175   3.191   0.907
 7887SOL     OW23992   4.322   2.591   0.270
 7887SOL    HW123993   4.346   2.660   0.202
 7887SOL    HW223994   4.244   2.624   0.324
 7888SOL     OW23995   5.005   2.207   0.944
 7888SOL    HW123996   4.919   2.157   0.931
 7888SOL    HW223997   5.067   2.153   1.000
 7889SOL     OW23998   4.531   2.467   1.465
 7889SOL    HW123999   4.484   2.464   1.554
 7889SOL    HW224000   4.480   2.412   1.399
 7890SOL     OW24001   5.118   2.331   1.674
 7890SOL    HW124002   5.098   2.374   1.762
 7890SOL    HW224003   5.196   2.269   1.683
 7891SOL     OW24004   4.697   2.752   1.572
 7891SOL    HW124005   4.743   2.668   1.543
 7891SOL    HW224006   4.641   2.786   1.497
 7892SOL     OW24007   4.715   2.272   1.242
 7892SOL    HW124008   4.638   2.306   1.296
 7892SOL    HW224009   4.681   2.221   1.163
 7893SOL     OW24010   4.765   2.563   0.429
 7893SOL    HW124011   4.791   2.559   0.525
 7893SOL    HW224012   4.680   2.512   0.415
 7894SOL     OW24013   3.800   2.673   0.789
 7894SOL    HW124014   3.899   2.661   0.798
 7894SOL    HW224015   3.776   2.768   0.810
 7895SOL     OW24016   3.854   3.683   1.571
 7895SOL    HW124017   3.844   3.668   1.670
 7895SOL    HW224018   3.768   3.719   1.535
 7896SOL     OW24019   4.589   2.210   0.195
 7896SOL    HW124020   4.648   2.273   0.146
 7896SOL    HW224021   4.608   2.116   0.166
 7897SOL     OW24022   5.086   3.006   0.545
 7897SOL    HW124023   5.169   2.977   0.497
 7897SOL    HW224024   5.037   3.073   0.489
 7898SOL     OW24025   4.274   2.058   0.885
 7898SOL    HW124026   4.269   2.053   0.985
 7898SOL    HW224027   4.276   2.154   0.856
 7899SOL     OW24028   4.732   3.318   0.477
 7899SOL    HW124029   4.686   3.390   0.425
 7899SOL    HW224030   4.728   3.338   0.575
 7900SOL     OW24031   4.075   3.663   0.853
 7900SOL    HW124032   4.125   3.577   0.859
 7900SOL    HW224033   4.140   3.740   0.850
 7901SOL     OW24034   4.951   3.412   1.506
 7901SOL    HW124035   4.957   3.335   1.570
 7901SOL    HW224036   4.899   3.386   1.426
 7902SOL     OW24037   4.045   2.805   0.242
 7902SOL    HW124038   4.127   2.844   0.200
 7902SOL    HW224039   4.018   2.723   0.193
 7903SOL     OW24040   4.185   3.128   1.727
 7903SOL    HW124041   4.135   3.129   1.641
 7903SOL    HW224042   4.122   3.110   1.803
 7904SOL     OW24043   4.835   3.638   0.237
 7904SOL    HW124044   4.775   3.576   0.287
 7904SOL    HW224045   4.866   3.594   0.152
 7905SOL     OW24046   3.926   2.147   1.498
 7905SOL    HW124047   3.846   2.207   1.485
 7905SOL    HW224048   3.916   2.098   1.584
 7906SOL     OW24049   4.188   3.605   0.323
 7906SOL    HW124050   4.221   3.644   0.409
 7906SOL    HW224051   4.264   3.598   0.258
 7907SOL     OW24052   5.124   1.969   0.426
 7907SOL    HW124053   5.100   1.932   0.336
 7907SOL    HW224054   5.223   1.985   0.430
 7908SOL     OW24055   3.973   3.647   1.241
 7908SOL    HW124056   4.030   3.582   1.291
 7908SOL    HW224057   3.957   3.614   1.148
 7909SOL     OW24058   4.664   3.560   0.904
 7909SOL    HW124059   4.744   3.503   0.925
 7909SOL    HW224060   4.615   3.520   0.827
 7910SOL     OW24061   4.106   2.562   0.480
 7910SOL    HW124062   4.151   2.472   0.477
 7910SOL    HW224063   4.012   2.551   0.513
 7911SOL     OW24064   4.505   2.126   1.749
 7911SOL    HW124065   4.572   2.065   1.792
 7911SOL    HW224066   4.432   2.145   1.814
 7912SOL     OW24067   4.612   3.376   1.195
 7912SOL    HW124068   4.589   3.351   1.101
 7912SOL    HW224069   4.673   3.307   1.234
 7913SOL     OW24070   5.075   2.452   1.433
 7913SOL    HW124071   5.103   2.409   1.518
 7913SOL    HW224072   5.100   2.548   1.434
 7914SOL     OW24073   4.527   3.264   0.924
 7914SOL    HW124074   4.617   3.278   0.882
 7914SOL    HW224075   4.456   3.266   0.853
 7915SOL     OW24076   4.646   2.365   0.899
 7915SOL    HW124077   4.621   2.356   0.803
 7915SOL    HW224078   4.694   2.283   0.930
 7916SOL     OW24079   4.263   1.926   0.512
 7916SOL    HW124080   4.182   1.927   0.570
 7916SOL    HW224081   4.266   2.009   0.457
 7917SOL     OW24082   5.158   3.050   0.041
 7917SOL    HW124083   5.190   2.974   0.098
 7917SOL    HW224084   5.066   3.077   0.071
 7918SOL     OW24085   4.659   2.098   0.480
 7918SOL    HW124086   4.611   2.139   0.402
 7918SOL    HW224087   4.758   2.096   0.461
 7919SOL     OW24088   4.800   2.545   1.464
 7919SOL    HW124089   4.720   2.484   1.467
 7919SOL    HW224090   4.881   2.492   1.440
 7920SOL     OW24091   4.951   3.432   0.793
 7920SOL    HW124092   4.972   3.506   0.728
 7920SOL    HW224093   5.019   3.432   0.866
 7921SOL     OW24094   4.183   3.014   0.741
 7921SOL    HW124095   4.112   2.987   0.806
 7921SOL    HW224096   4.157   2.986   0.648
 7922SOL     OW24097   4.995   3.659   0.591
 7922SOL    HW124098   5.039   3.723   0.527
 7922SOL    HW224099   4.945   3.711   0.661
 7923SOL     OW24100   4.756   2.411   0.016
 7923SOL    HW124101   4.715   2.493  -0.023
 7923SOL    HW224102   4.820   2.437   0.089
 7924SOL     OW24103   3.802   2.418   1.386
 7924SOL    HW124104   3.894   2.417   1.345
 7924SOL    HW224105   3.796   2.492   1.453
 7925SOL     OW24106   4.285   2.084   1.147
 7925SOL    HW124107   4.323   2.000   1.184
 7925SOL    HW224108   4.197   2.103   1.191
 7926SOL     OW24109   4.590   2.316   0.642
 7926SOL    HW124110   4.558   2.388   0.580
 7926SOL    HW224111   4.614   2.235   0.589
 7927SOL     OW24112   4.741   1.901   0.753
 7927SOL    HW124113   4.669   1.906   0.684
 7927SOL    HW224114   4.717   1.832   0.822
 7928SOL     OW24115   5.153   3.035   0.867
 7928SOL    HW124116   5.098   2.951   0.860
 7928SOL    HW224117   5.179   3.064   0.775
 7929SOL     OW24118   4.212   3.247   0.174
 7929SOL    HW124119   4.125   3.232   0.221
 7929SOL    HW224120   4.195   3.273   0.079
 7930SOL     OW24121   5.114   2.437   0.078
 7930SOL    HW124122   5.060   2.416   0.159
 7930SOL    HW224123   5.205   2.396   0.087
 7931SOL     OW24124   4.251   2.118   0.328
 7931SOL    HW124125   4.278   2.059   0.253
 7931SOL    HW224126   4.251   2.213   0.297
 7932SOL     OW24127   4.788   3.209   1.340
 7932SOL    HW124128   4.708   3.186   1.395
 7932SOL    HW224129   4.871   3.183   1.389
 7933SOL     OW24130   5.316   3.491   1.625
 7933SOL    HW124131   5.343   3.525   1.535
 7933SOL    HW224132   5.395   3.453   1.671
 7934SOL     OW24133   4.835   3.057   1.100
 7934SOL    HW124134   4.795   3.101   1.181
 7934SOL    HW224135   4.794   3.094   1.017
 7935SOL     OW24136   4.639   1.951   1.402
 7935SOL    HW124137   4.664   1.931   1.307
 7935SOL    HW224138   4.711   2.007   1.444
 7936SOL     OW24139   4.704   2.978   1.719
 7936SOL    HW124140   4.605   2.984   1.729
 7936SOL    HW224141   4.727   2.898   1.663
 7937SOL     OW24142   4.429   2.912   0.368
 7937SOL    HW124143   4.415   2.919   0.467
 7937SOL    HW224144   4.513   2.861   0.350
 7938SOL     OW24145   4.134   2.675   1.251
 7938SOL    HW124146   4.220   2.687   1.301
 7938SOL    HW224147   4.092   2.588   1.278
 7939SOL     OW24148   4.998   2.248   1.262
 7939SOL    HW124149   5.019   2.322   1.326
 7939SOL    HW224150   4.909   2.265   1.219
 7940SOL     OW24151   3.788   3.426   1.331
 7940SOL    HW124152   3.742   3.508   1.297
 7940SOL    HW224153   3.886   3.445   1.340
 7941SOL     OW24154   4.091   2.962   0.501
 7941SOL    HW124155   4.084   3.045   0.445
 7941SOL    HW224156   4.095   2.882   0.441
 7942SOL     OW24157   4.290   2.399   0.865
 7942SOL    HW124158   4.302   2.465   0.791
 7942SOL    HW224159   4.336   2.433   0.948
 7943SOL     OW24160   4.976   3.210   0.388
 7943SOL    HW124161   5.026   3.287   0.428
 7943SOL    HW224162   4.881   3.212   0.420
 7944SOL     OW24163   4.996   3.307   1.142
 7944SOL    HW124164   5.043   3.320   1.229
 7944SOL    HW224165   4.930   3.233   1.151
 7945SOL     OW24166   4.078   3.372   1.329
 7945SOL    HW124167   4.057   3.328   1.242
 7945SOL    HW224168   4.175   3.398   1.332
 7946SOL     OW24169   4.126   2.613   1.598
 7946SOL    HW124170   4.194   2.668   1.551
 7946SOL    HW224171   4.166   2.525   1.625
 7947SOL     OW24172   4.737   1.967   1.770
 7947SOL    HW124173   4.743   2.052   1.718
 7947SOL    HW224174   4.769   1.891   1.713
 7948SOL     OW24175   4.228   1.912   1.740
 7948SOL    HW124176   4.186   1.855   1.670
 7948SOL    HW224177   4.162   1.981   1.772
 7949SOL     OW24178   4.297   2.732   1.029
 7949SOL    HW124179   4.341   2.821   1.020
 7949SOL    HW224180   4.234   2.732   1.106
 7950SOL     OW24181   5.084   2.724   1.045
 7950SOL    HW124182   5.009   2.724   0.979
 7950SOL    HW224183   5.121   2.632   1.054
 7951SOL     OW24184   4.933   2.387   0.275
 7951SOL    HW124185   4.946   2.303   0.329
 7951SOL    HW224186   4.904   2.461   0.335
 7952SOL     OW24187   4.031   2.075   1.231
 7952SOL    HW124188   4.008   2.112   1.321
 7952SOL    HW224189   4.001   1.980   1.225
 7953SOL     OW24190   3.761   3.172   1.282
 7953SOL    HW124191   3.814   3.123   1.350
 7953SOL    HW224192   3.783   3.270   1.287
 7954SOL     OW24193   4.456   2.496   1.064
 7954SOL    HW124194   4.515   2.470   0.988
 7954SOL    HW224195   4.428   2.592   1.053
 7955SOL     OW24196   4.031   1.925   0.618
 7955SOL    HW124197   4.020   2.019   0.651
 7955SOL    HW224198   4.026   1.862   0.695
 7956SOL     OW24199   5.346   2.229   0.374
 7956SOL    HW124200   5.348   2.153   0.438
 7956SOL    HW224201   5.298   2.306   0.414
 7957SOL     OW24202   4.747   2.628   0.966
 7957SOL    HW124203   4.762   2.649   1.062
 7957SOL    HW224204   4.717   2.533   0.957
 7958SOL     OW24205   4.704   3.435   1.700
 7958SOL    HW124206   4.684   3.479   1.612
 7958SOL    HW224207   4.743   3.344   1.684
 7959SOL     OW24208   4.074   2.760   1.804
 7959SOL    HW124209   4.150   2.804   1.852
 7959SOL    HW224210   4.109   2.713   1.722
 7960SOL     OW24211   5.027   2.700   0.042
 7960SOL    HW124212   5.061   2.607   0.057
 7960SOL    HW224213   5.045   2.727  -0.053
 7961SOL     OW24214   4.792   3.195   0.849
 7961SOL    HW124215   4.799   3.111   0.794
 7961SOL    HW224216   4.854   3.264   0.813
 7962SOL     OW24217   4.043   2.672   0.949
 7962SOL    HW124218   4.136   2.708   0.954
 7962SOL    HW224219   4.037   2.587   1.001
 7963SOL     OW24220   4.063   2.371   1.006
 7963SOL    HW124221   4.011   2.288   0.989
 7963SOL    HW224222   4.140   2.376   0.942
 7964SOL     OW24223   4.862   2.242   1.678
 7964SOL    HW124224   4.817   2.305   1.742
 7964SOL    HW224225   4.955   2.273   1.661
 7965SOL     OW24226   4.884   2.069   1.477
 7965SOL    HW124227   4.884   2.133   1.554
 7965SOL    HW224228   4.912   2.117   1.394
 7966SOL     OW24229   3.732   3.188   0.200
 7966SOL    HW124230   3.639   3.209   0.169
 7966SOL    HW224231   3.742   3.089   0.213
 7967SOL     OW24232   3.812   3.663   0.927
 7967SOL    HW124233   3.770   3.577   0.900
 7967SOL    HW224234   3.906   3.666   0.893
 7968SOL     OW24235   4.228   3.430   0.910
 7968SOL    HW124236   4.294   3.504   0.919
 7968SOL    HW224237   4.272   3.351   0.868
 7969SOL     OW24238   4.726   2.658   1.238
 7969SOL    HW124239   4.767   2.626   1.324
 7969SOL    HW224240   4.630   2.631   1.235
 7970SOL     OW24241   3.764   2.406   1.114
 7970SOL    HW124242   3.849   2.373   1.073
 7970SOL    HW224243   3.777   2.421   1.212
 7971SOL     OW24244   3.913   2.382   1.722
 7971SOL    HW124245   3.972   2.342   1.652
 7971SOL    HW224246   3.855   2.453   1.681
 7972SOL     OW24247   5.093   2.812   1.660
 7972SOL    HW124248   5.132   2.901   1.680
 7972SOL    HW224249   5.103   2.792   1.563
 7973SOL     OW24250   4.539   2.434   0.325
 7973SOL    HW124251   4.546   2.345   0.279
 7973SOL    HW224252   4.445   2.468   0.317
 7974SOL     OW24253   3.976   3.426   1.744
 7974SOL    HW124254   3.946   3.483   1.820
 7974SOL    HW224255   3.969   3.329   1.770
 7975SOL     OW24256   4.395   2.326   1.269
 7975SOL    HW124257   4.361   2.237   1.239
 7975SOL    HW224258   4.421   2.380   1.189
 7976SOL     OW24259   4.654   3.540   1.465
 7976SOL    HW124260   4.630   3.522   1.370
 7976SOL    HW224261   4.684   3.634   1.475
 7977SOL     OW24262   4.197   2.362   0.191
 7977SOL    HW124263   4.258   2.442   0.195
 7977SOL    HW224264   4.102   2.393   0.198
 7978SOL     OW24265   3.883   2.999   1.466
 7978SOL    HW124266   3.905   2.938   1.542
 7978SOL    HW224267   3.893   2.950   1.380
 7979SOL     OW24268   5.071   2.921   1.234
 7979SOL    HW124269   5.095   2.858   1.160
 7979SOL    HW224270   4.981   2.961   1.216
 7980SOL     OW24271   5.026   2.717   0.309
 7980SOL    HW124272   4.940   2.686   0.351
 7980SOL    HW224273   5.022   2.703   0.210
 7981SOL     OW24274   4.976   3.593   1.128
 7981SOL    HW124275   5.060   3.598   1.074
 7981SOL    HW224276   4.953   3.497   1.146
 7982SOL     OW24277   3.807   3.120   1.022
 7982SOL    HW124278   3.802   3.119   1.122
 7982SOL    HW224279   3.724   3.079   0.984
 7983SOL     OW24280   4.412   3.524   1.716
 7983SOL    HW124281   4.356   3.605   1.725
 7983SOL    HW224282   4.464   3.528   1.630
 7984SOL     OW24283   4.627   1.948   0.133
 7984SOL    HW124284   4.678   1.949   0.047
 7984SOL    HW224285   4.683   1.906   0.204
 7985SOL     OW24286   5.450   1.997   0.523
 7985SOL    HW124287   5.523   1.980   0.456
 7985SOL    HW224288   5.419   1.910   0.561
 7986SOL     OW24289   5.112   3.435   0.477
 7986SOL    HW124290   5.179   3.447   0.403
 7986SOL    HW224291   5.072   3.524   0.500
 7987SOL     OW24292   3.854   3.656   1.851
 7987SOL    HW124293   3.813   3.582   1.904
 7987SOL    HW224294   3.918   3.707   1.909
 7988SOL     OW24295   5.004   2.789   0.672
 7988SOL    HW124296   5.064   2.708   0.674
 7988SOL    HW224297   5.044   2.858   0.612
 7989SOL     OW24298   4.554   3.135   1.422
 7989SOL    HW124299   4.549   3.168   1.517
 7989SOL    HW224300   4.468   3.154   1.376
 7990SOL     OW24301   4.396   3.478   0.154
 7990SOL    HW124302   4.405   3.488   0.055
 7990SOL    HW224303   4.356   3.389   0.175
 7991SOL     OW24304   3.987   2.188   0.720
 7991SOL    HW124305   3.908   2.239   0.686
 7991SOL    HW224306   3.978   2.173   0.818
 7992SOL     OW24307   4.918   3.474   0.031
 7992SOL    HW124308   4.924   3.381   0.068
 7992SOL    HW224309   4.859   3.474  -0.049
 7993SOL     OW24310   4.546   2.864   1.372
 7993SOL    HW124311   4.586   2.863   1.280
 7993SOL    HW224312   4.556   2.956   1.412
 7994SOL     OW24313   4.640   2.772   0.291
 7994SOL    HW124314   4.703   2.810   0.223
 7994SOL    HW224315   4.680   2.689   0.330
 7995SOL     OW24316   4.096   3.150   1.490
 7995SOL    HW124317   4.083   3.243   1.456
 7995SOL    HW224318   4.012   3.098   1.477
 7996SOL     OW24319   4.763   2.960   0.696
 7996SOL    HW124320   4.693   2.913   0.750
 7996SOL    HW224321   4.822   2.892   0.653
 7997SOL     OW24322   4.738   2.098   0.971
 7997SOL    HW124323   4.730   2.062   0.878
 7997SOL    HW224324   4.736   2.022   1.036
 7998SOL     OW24325   4.314   3.349   0.491
 7998SOL    HW124326   4.356   3.291   0.421
 7998SOL    HW224327   4.270   3.428   0.447
 7999SOL     OW24328   3.979   3.210   0.290
 7999SOL    HW124329   3.883   3.211   0.263
 7999SOL    HW224330   3.991   3.263   0.374
 8000SOL     OW24331   3.829   2.875   1.726
 8000SOL    HW124332   3.752   2.842   1.780
 8000SOL    HW224333   3.914   2.845   1.768
 8001SOL     OW24334   4.396   2.065   1.489
 8001SOL    HW124335   4.486   2.049   1.449
 8001SOL    HW224336   4.404   2.070   1.588
 8002SOL     OW24337   3.799   2.207   0.033
 8002SOL    HW124338   3.707   2.179   0.004
 8002SOL    HW224339   3.830   2.284  -0.023
 8003SOL     OW24340   5.164   2.718   1.398
 8003SOL    HW124341   5.107   2.770   1.335
 8003SOL    HW224342   5.260   2.730   1.374
 8004SOL     OW24343   3.796   2.028   0.318
 8004SOL    HW124344   3.779   2.111   0.264
 8004SOL    HW224345   3.886   1.991   0.296
 8005SOL     OW24346   4.907   3.197   0.119
 8005SOL    HW124347   4.808   3.186   0.121
 8005SOL    HW224348   4.941   3.212   0.212
 8006SOL     OW24349   4.337   2.704   1.431
 8006SOL    HW124350   4.393   2.785   1.414
 8006SOL    HW224351   4.396   2.624   1.434
 8007SOL     OW24352   4.440   2.427   1.708
 8007SOL    HW124353   4.459   2.492   1.782
 8007SOL    HW224354   4.500   2.347   1.717
 8008SOL     OW24355   5.174   3.082   1.633
 8008SOL    HW124356   5.165   3.072   1.732
 8008SOL    HW224357   5.270   3.075   1.607
 8009SOL     OW24358   4.114   3.603   1.560
 8009SOL    HW124359   4.023   3.644   1.558
 8009SOL    HW224360   4.107   3.509   1.592
 8010SOL     OW24361   4.949   2.187   0.449
 8010SOL    HW124362   5.014   2.113   0.438
 8010SOL    HW224363   4.969   2.237   0.533
 8011SOL     OW24364   4.318   2.607   0.652
 8011SOL    HW124365   4.368   2.692   0.633
 8011SOL    HW224366   4.230   2.609   0.604
 8012SOL     OW24367   4.583   3.236   0.016
 8012SOL    HW124368   4.537   3.251   0.104
 8012SOL    HW224369   4.627   3.321  -0.014
 8013SOL     OW24370   4.385   3.652   0.953
 8013SOL    HW124371   4.339   3.740   0.940
 8013SOL    HW224372   4.484   3.664   0.946
 8014SOL     OW24373   4.583   2.818   0.861
 8014SOL    HW124374   4.637   2.749   0.909
 8014SOL    HW224375   4.551   2.887   0.927
 8015SOL     OW24376   4.807   2.846   0.087
 8015SOL    HW124377   4.784   2.899   0.005
 8015SOL    HW224378   4.888   2.790   0.068
 8016SOL     OW24379   3.945   3.176   1.844
 8016SOL    HW124380   3.880   3.103   1.823
 8016SOL    HW224381   3.949   3.190   1.942
 8017SOL     OW24382   3.803   3.102   0.653
 8017SOL    HW124383   3.802   3.055   0.741
 8017SOL    HW224384   3.885   3.074   0.602
 8018SOL     OW24385   4.396   3.253   1.624
 8018SOL    HW124386   4.318   3.203   1.662
 8018SOL    HW224387   4.393   3.348   1.655
 8019SOL     OW24388   4.152   2.286   0.520
 8019SOL    HW124389   4.182   2.214   0.458
 8019SOL    HW224390   4.113   2.246   0.603
 8020SOL     OW24391   5.429   3.349   1.104
 8020SOL    HW124392   5.336   3.324   1.077
 8020SOL    HW224393   5.455   3.299   1.186
 8021SOL     OW24394   4.041   2.409   1.280
 8021SOL    HW124395   4.079   2.350   1.352
 8021SOL    HW224396   4.081   2.383   1.192
 8022SOL     OW24397   4.536   3.448   0.687
 8022SOL    HW124398   4.568   3.458   0.593
 8022SOL    HW224399   4.457   3.386   0.689
 8023SOL     OW24400   5.148   2.076   1.112
 8023SOL    HW124401   5.200   2.011   1.167
 8023SOL    HW224402   5.099   2.139   1.173
 8024SOL     OW24403   4.725   1.896   1.154
 8024SOL    HW124404   4.662   1.824   1.123
 8024SOL    HW224405   4.818   1.860   1.154
 8025SOL     OW24406   4.494   3.192   0.301
 8025SOL    HW124407   4.448   3.105   0.318
 8025SOL    HW224408   4.585   3.189   0.342
 8026SOL     OW24409   4.342   3.429   1.284
 8026SOL    HW124410   4.337   3.511   1.341
 8026SOL    HW224411   4.431   3.426   1.239
 8027SOL     OW24412   5.076   1.914   0.168
 8027SOL    HW124413   5.111   1.873   0.084
 8027SOL    HW224414   4.986   1.876   0.188
 8028SOL     OW24415   5.024   2.315   0.691
 8028SOL    HW124416   4.965   2.395   0.695
 8028SOL    HW224417   5.039   2.280   0.784
 8029SOL     OW24418   5.317   2.083   0.882
 8029SOL    HW124419   5.233   2.082   0.936
 8029SOL    HW224420   5.319   2.166   0.826
 8030SOL     OW24421   3.763   2.939   0.300
 8030SOL    HW124422   3.862   2.928   0.291
 8030SOL    HW224423   3.723   2.853   0.332
 8031SOL     OW24424   4.599   3.508   0.337
 8031SOL    HW124425   4.522   3.473   0.283
 8031SOL    HW224426   4.567   3.579   0.399
 8032SOL     OW24427   3.954   2.490   1.975
 8032SOL    HW124428   3.861   2.488   2.012
 8032SOL    HW224429   3.955   2.451   1.883
 8033SOL     OW24430   3.949   2.137   2.858
 8033SOL    HW124431   3.984   2.120   2.950
 8033SOL    HW224432   3.861   2.092   2.846
 8034SOL     OW24433   3.743   2.230   2.509
 8034SOL    HW124434   3.661   2.273   2.548
 8034SOL    HW224435   3.715   2.157   2.446
 8035SOL     OW24436   4.293   3.137   3.027
 8035SOL    HW124437   4.200   3.130   2.990
 8035SOL    HW224438   4.304   3.226   3.071
 8036SOL     OW24439   5.279   3.373   2.565
 8036SOL    HW124440   5.222   3.357   2.646
 8036SOL    HW224441   5.220   3.383   2.485
 8037SOL     OW24442   4.859   2.565   2.579
 8037SOL    HW124443   4.916   2.643   2.554
 8037SOL    HW224444   4.799   2.591   2.655
 8038SOL     OW24445   4.492   3.006   2.885
 8038SOL    HW124446   4.414   3.023   2.945
 8038SOL    HW224447   4.526   3.093   2.849
 8039SOL     OW24448   4.574   2.660   3.685
 8039SOL    HW124449   4.570   2.736   3.750
 8039SOL    HW224450   4.596   2.696   3.594
 8040SOL     OW24451   4.409   2.874   2.527
 8040SOL    HW124452   4.478   2.858   2.597
 8040SOL    HW224453   4.336   2.931   2.565
 8041SOL     OW24454   4.410   3.023   3.665
 8041SOL    HW124455   4.470   3.102   3.679
 8041SOL    HW224456   4.324   3.054   3.624
 8042SOL     OW24457   4.059   3.297   2.923
 8042SOL    HW124458   3.981   3.266   2.870
 8042SOL    HW224459   4.117   3.355   2.866
 8043SOL     OW24460   5.184   3.367   3.201
 8043SOL    HW124461   5.208   3.461   3.227
 8043SOL    HW224462   5.168   3.313   3.283
 8044SOL     OW24463   4.162   2.254   3.361
 8044SOL    HW124464   4.244   2.198   3.370
 8044SOL    HW224465   4.081   2.196   3.365
 8045SOL     OW24466   3.955   3.575   2.345
 8045SOL    HW124467   3.989   3.652   2.399
 8045SOL    HW224468   3.999   3.575   2.255
 8046SOL     OW24469   4.851   3.203   3.552
 8046SOL    HW124470   4.898   3.203   3.640
 8046SOL    HW224471   4.803   3.116   3.541
 8047SOL     OW24472   3.954   3.296   2.400
 8047SOL    HW124473   3.928   3.392   2.400
 8047SOL    HW224474   3.883   3.242   2.445
 8048SOL     OW24475   3.964   2.953   2.748
 8048SOL    HW124476   3.978   2.869   2.800
 8048SOL    HW224477   3.909   3.017   2.803
 8049SOL     OW24478   4.344   3.648   3.301
 8049SOL    HW124479   4.252   3.631   3.336
 8049SOL    HW224480   4.372   3.740   3.327
 8050SOL     OW24481   4.330   2.826   1.985
 8050SOL    HW124482   4.337   2.910   1.931
 8050SOL    HW224483   4.376   2.839   2.073
 8051SOL     OW24484   3.846   2.505   2.425
 8051SOL    HW124485   3.801   2.417   2.442
 8051SOL    HW224486   3.845   2.559   2.509
 8052SOL     OW24487   3.751   3.458   1.979
 8052SOL    HW124488   3.732   3.362   2.000
 8052SOL    HW224489   3.718   3.516   2.054
 8053SOL     OW24490   5.413   2.784   2.474
 8053SOL    HW124491   5.508   2.755   2.482
 8053SOL    HW224492   5.405   2.849   2.399
 8054SOL     OW24493   3.837   2.599   3.459
 8054SOL    HW124494   3.925   2.586   3.504
 8054SOL    HW224495   3.824   2.696   3.437
 8055SOL     OW24496   4.337   3.227   2.588
 8055SOL    HW124497   4.288   3.140   2.597
 8055SOL    HW224498   4.314   3.270   2.501
 8056SOL     OW24499   5.017   3.090   3.285
 8056SOL    HW124500   5.054   3.017   3.227
 8056SOL    HW224501   5.069   3.095   3.370
 8057SOL     OW24502   4.533   1.866   2.364
 8057SOL    HW124503   4.573   1.957   2.355
 8057SOL    HW224504   4.433   1.874   2.370
 8058SOL     OW24505   3.921   2.838   3.126
 8058SOL    HW124506   4.010   2.793   3.112
 8058SOL    HW224507   3.848   2.773   3.107
 8059SOL     OW24508   4.911   3.654   3.478
 8059SOL    HW124509   4.935   3.714   3.402
 8059SOL    HW224510   4.918   3.559   3.448
 8060SOL     OW24511   4.041   2.113   3.663
 8060SOL    HW124512   4.112   2.184   3.669
 8060SOL    HW224513   3.953   2.152   3.691
 8061SOL     OW24514   5.190   3.279   2.815
 8061SOL    HW124515   5.131   3.285   2.895
 8061SOL    HW224516   5.175   3.191   2.769
 8062SOL     OW24517   4.322   2.591   2.132
 8062SOL    HW124518   4.346   2.660   2.064
 8062SOL    HW224519   4.244   2.624   2.186
 8063SOL     OW24520   5.005   2.207   2.806
 8063SOL    HW124521   4.919   2.157   2.793
 8063SOL    HW224522   5.067   2.153   2.862
 8064SOL     OW24523   4.531   2.467   3.327
 8064SOL    HW124524   4.484   2.464   3.416
 8064SOL    HW224525   4.480   2.412   3.261
 8065SOL     OW24526   5.118   2.331   3.536
 8065SOL    HW124527   5.098   2.374   3.624
 8065SOL    HW224528   5.196   2.269   3.545
 8066SOL     OW24529   4.697   2.752   3.434
 8066SOL    HW124530   4.743   2.668   3.405
 8066SOL    HW224531   4.641   2.786   3.359
 8067SOL     OW24532   4.715   2.272   3.104
 8067SOL    HW124533   4.638   2.306   3.158
 8067SOL    HW224534   4.681   2.221   3.025
 8068SOL     OW24535   4.765   2.563   2.291
 8068SOL    HW124536   4.791   2.559   2.387
 8068SOL    HW224537   4.680   2.512   2.277
 8069SOL     OW24538   3.800   2.673   2.651
 8069SOL    HW124539   3.899   2.661   2.660
 8069SOL    HW224540   3.776   2.768   2.672
 8070SOL     OW24541   3.854   3.683   3.433
 8070SOL    HW124542   3.844   3.668   3.532
 8070SOL    HW224543   3.768   3.719   3.397
 8071SOL     OW24544   4.589   2.210   2.057
 8071SOL    HW124545   4.648   2.273   2.008
 8071SOL    HW224546   4.608   2.116   2.028
 8072SOL     OW24547   5.086   3.006   2.407
 8072SOL    HW124548   5.169   2.977   2.359
 8072SOL    HW224549   5.037   3.073   2.351
 8073SOL     OW24550   4.274   2.058   2.747
 8073SOL    HW124551   4.269   2.053   2.847
 8073SOL    HW224552   4.276   2.154   2.718
 8074SOL     OW24553   4.732   3.318   2.339
 8074SOL    HW124554   4.686   3.390   2.287
 8074SOL    HW224555   4.728   3.338   2.437
 8075SOL     OW24556   4.075   3.663   2.715
 8075SOL    HW124557   4.125   3.577   2.721
 8075SOL    HW224558   4.140   3.740   2.712
 8076SOL     OW24559   4.951   3.412   3.368
 8076SOL    HW124560   4.957   3.335   3.432
 8076SOL    HW224561   4.899   3.386   3.288
 8077SOL     OW24562   4.045   2.805   2.104
 8077SOL    HW124563   4.127   2.844   2.062
 8077SOL    HW224564   4.018   2.723   2.055
 8078SOL     OW24565   4.185   3.128   3.589
 8078SOL    HW124566   4.135   3.129   3.503
 8078SOL    HW224567   4.122   3.110   3.665
 8079SOL     OW24568   4.835   3.638   2.099
 8079SOL    HW124569   4.775   3.576   2.149
 8079SOL    HW224570   4.866   3.594   2.014
 8080SOL     OW24571   3.926   2.147   3.360
 8080SOL    HW124572   3.846   2.207   3.347
 8080SOL    HW224573   3.916   2.098   3.446
 8081SOL     OW24574   4.188   3.605   2.185
 8081SOL    HW124575   4.221   3.644   2.271
 8081SOL    HW224576   4.264   3.598   2.120
 8082SOL     OW24577   5.124   1.969   2.288
 8082SOL    HW124578   5.100   1.932   2.198
 8082SOL    HW224579   5.223   1.985   2.292
 8083SOL     OW24580   3.973   3.647   3.103
 8083SOL    HW124581   4.030   3.582   3.153
 8083SOL    HW224582   3.957   3.614   3.010
 8084SOL     OW24583   4.664   3.560   2.766
 8084SOL    HW124584   4.744   3.503   2.787
 8084SOL    HW224585   4.615   3.520   2.689
 8085SOL     OW24586   4.106   2.562   2.342
 8085SOL    HW124587   4.151   2.472   2.339
 8085SOL    HW224588   4.012   2.551   2.375
 8086SOL     OW24589   4.338   1.984   1.979
 8086SOL    HW124590   4.436   1.962   1.986
 8086SOL    HW224591   4.307   1.967   1.886
 8087SOL     OW24592   4.505   2.126   3.611
 8087SOL    HW124593   4.572   2.065   3.654
 8087SOL    HW224594   4.432   2.145   3.676
 8088SOL     OW24595   4.612   3.376   3.057
 8088SOL    HW124596   4.589   3.351   2.963
 8088SOL    HW224597   4.673   3.307   3.096
 8089SOL     OW24598   5.075   2.452   3.295
 8089SOL    HW124599   5.103   2.409   3.380
 8089SOL    HW224600   5.100   2.548   3.296
 8090SOL     OW24601   4.527   3.264   2.786
 8090SOL    HW124602   4.617   3.278   2.744
 8090SOL    HW224603   4.456   3.266   2.715
 8091SOL     OW24604   4.646   2.365   2.761
 8091SOL    HW124605   4.621   2.356   2.665
 8091SOL    HW224606   4.694   2.283   2.792
 8092SOL     OW24607   4.263   1.926   2.374
 8092SOL    HW124608   4.182   1.927   2.432
 8092SOL    HW224609   4.266   2.009   2.319
 8093SOL     OW24610   5.158   3.050   1.903
 8093SOL    HW124611   5.190   2.974   1.960
 8093SOL    HW224612   5.066   3.077   1.933
 8094SOL     OW24613   4.021   1.897   2.033
 8094SOL    HW124614   4.070   1.981   2.012
 8094SOL    HW224615   4.083   1.832   2.078
 8095SOL     OW24616   4.659   2.098   2.342
 8095SOL    HW124617   4.611   2.139   2.264
 8095SOL    HW224618   4.758   2.096   2.323
 8096SOL     OW24619   4.800   2.545   3.326
 8096SOL    HW124620   4.720   2.484   3.329
 8096SOL    HW224621   4.881   2.492   3.302
 8097SOL     OW24622   4.951   3.432   2.655
 8097SOL    HW124623   4.972   3.506   2.590
 8097SOL    HW224624   5.019   3.432   2.728
 8098SOL     OW24625   4.183   3.014   2.603
 8098SOL    HW124626   4.112   2.987   2.668
 8098SOL    HW224627   4.157   2.986   2.510
 8099SOL     OW24628   4.995   3.659   2.453
 8099SOL    HW124629   5.039   3.723   2.389
 8099SOL    HW224630   4.945   3.711   2.523
 8100SOL     OW24631   4.756   2.411   1.878
 8100SOL    HW124632   4.715   2.493   1.839
 8100SOL    HW224633   4.820   2.437   1.951
 8101SOL     OW24634   3.802   2.418   3.248
 8101SOL    HW124635   3.894   2.417   3.207
 8101SOL    HW224636   3.796   2.492   3.315
 8102SOL     OW24637   4.285   2.084   3.009
 8102SOL    HW124638   4.323   2.000   3.046
 8102SOL    HW224639   4.197   2.103   3.053
 8103SOL     OW24640   4.590   2.316   2.504
 8103SOL    HW124641   4.558   2.388   2.442
 8103SOL    HW224642   4.614   2.235   2.451
 8104SOL     OW24643   4.741   1.901   2.615
 8104SOL    HW124644   4.669   1.906   2.546
 8104SOL    HW224645   4.717   1.832   2.684
 8105SOL     OW24646   5.153   3.035   2.729
 8105SOL    HW124647   5.098   2.951   2.722
 8105SOL    HW224648   5.179   3.064   2.637
 8106SOL     OW24649   4.212   3.247   2.036
 8106SOL    HW124650   4.125   3.232   2.083
 8106SOL    HW224651   4.195   3.273   1.941
 8107SOL     OW24652   5.114   2.437   1.940
 8107SOL    HW124653   5.060   2.416   2.021
 8107SOL    HW224654   5.205   2.396   1.949
 8108SOL     OW24655   4.251   2.118   2.190
 8108SOL    HW124656   4.278   2.059   2.115
 8108SOL    HW224657   4.251   2.213   2.159
 8109SOL     OW24658   4.788   3.209   3.202
 8109SOL    HW124659   4.708   3.186   3.257
 8109SOL    HW224660   4.871   3.183   3.251
 8110SOL     OW24661   5.316   3.491   3.487
 8110SOL    HW124662   5.343   3.525   3.397
 8110SOL    HW224663   5.395   3.453   3.533
 8111SOL     OW24664   4.835   3.057   2.962
 8111SOL    HW124665   4.795   3.101   3.043
 8111SOL    HW224666   4.794   3.094   2.879
 8112SOL     OW24667   4.639   1.951   3.264
 8112SOL    HW124668   4.664   1.931   3.169
 8112SOL    HW224669   4.711   2.007   3.306
 8113SOL     OW24670   4.704   2.978   3.581
 8113SOL    HW124671   4.605   2.984   3.591
 8113SOL    HW224672   4.727   2.898   3.525
 8114SOL     OW24673   4.429   2.912   2.230
 8114SOL    HW124674   4.415   2.919   2.329
 8114SOL    HW224675   4.513   2.861   2.212
 8115SOL     OW24676   4.134   2.675   3.113
 8115SOL    HW124677   4.220   2.687   3.163
 8115SOL    HW224678   4.092   2.588   3.140
 8116SOL     OW24679   4.998   2.248   3.124
 8116SOL    HW124680   5.019   2.322   3.188
 8116SOL    HW224681   4.909   2.265   3.081
 8117SOL     OW24682   3.788   3.426   3.193
 8117SOL    HW124683   3.742   3.508   3.159
 8117SOL    HW224684   3.886   3.445   3.202
 8118SOL     OW24685   4.091   2.962   2.363
 8118SOL    HW124686   4.084   3.045   2.307
 8118SOL    HW224687   4.095   2.882   2.303
 8119SOL     OW24688   4.290   2.399   2.727
 8119SOL    HW124689   4.302   2.465   2.653
 8119SOL    HW224690   4.336   2.433   2.810
 8120SOL     OW24691   4.976   3.210   2.250
 8120SOL    HW124692   5.026   3.287   2.290
 8120SOL    HW224693   4.881   3.212   2.282
 8121SOL     OW24694   4.996   3.307   3.004
 8121SOL    HW124695   5.043   3.320   3.091
 8121SOL    HW224696   4.930   3.233   3.013
 8122SOL     OW24697   4.078   3.372   3.191
 8122SOL    HW124698   4.057   3.328   3.104
 8122SOL    HW224699   4.175   3.398   3.194
 8123SOL     OW24700   4.126   2.613   3.460
 8123SOL    HW124701   4.194   2.668   3.413
 8123SOL    HW224702   4.166   2.525   3.487
 8124SOL     OW24703   4.737   1.967   3.632
 8124SOL    HW124704   4.743   2.052   3.580
 8124SOL    HW224705   4.769   1.891   3.575
 8125SOL     OW24706   4.228   1.912   3.602
 8125SOL    HW124707   4.186   1.855   3.532
 8125SOL    HW224708   4.162   1.981   3.634
 8126SOL     OW24709   4.297   2.732   2.891
 8126SOL    HW124710   4.341   2.821   2.882
 8126SOL    HW224711   4.234   2.732   2.968
 8127SOL     OW24712   5.084   2.724   2.907
 8127SOL    HW124713   5.009   2.724   2.841
 8127SOL    HW224714   5.121   2.632   2.916
 8128SOL     OW24715   4.933   2.387   2.137
 8128SOL    HW124716   4.946   2.303   2.191
 8128SOL    HW224717   4.904   2.461   2.197
 8129SOL     OW24718   4.031   2.075   3.093
 8129SOL    HW124719   4.008   2.112   3.183
 8129SOL    HW224720   4.001   1.980   3.087
 8130SOL     OW24721   3.761   3.172   3.144
 8130SOL    HW124722   3.814   3.123   3.212
 8130SOL    HW224723   3.783   3.270   3.149
 8131SOL     OW24724   4.456   2.496   2.926
 8131SOL    HW124725   4.515   2.470   2.850
 8131SOL    HW224726   4.428   2.592   2.915
 8132SOL     OW24727   4.031   1.925   2.480
 8132SOL    HW124728   4.020   2.019   2.513
 8132SOL    HW224729   4.026   1.862   2.557
 8133SOL     OW24730   5.346   2.229   2.236
 8133SOL    HW124731   5.348   2.153   2.300
 8133SOL    HW224732   5.298   2.306   2.276
 8134SOL     OW24733   4.747   2.628   2.828
 8134SOL    HW124734   4.762   2.649   2.924
 8134SOL    HW224735   4.717   2.533   2.819
 8135SOL     OW24736   4.704   3.435   3.562
 8135SOL    HW124737   4.684   3.479   3.474
 8135SOL    HW224738   4.743   3.344   3.546
 8136SOL     OW24739   4.074   2.760   3.666
 8136SOL    HW124740   4.150   2.804   3.714
 8136SOL    HW224741   4.109   2.713   3.584
 8137SOL     OW24742   5.027   2.700   1.904
 8137SOL    HW124743   5.061   2.607   1.919
 8137SOL    HW224744   5.045   2.727   1.809
 8138SOL     OW24745   4.792   3.195   2.711
 8138SOL    HW124746   4.799   3.111   2.656
 8138SOL    HW224747   4.854   3.264   2.675
 8139SOL     OW24748   4.043   2.672   2.811
 8139SOL    HW124749   4.136   2.708   2.816
 8139SOL    HW224750   4.037   2.587   2.863
 8140SOL     OW24751   4.063   2.371   2.868
 8140SOL    HW124752   4.011   2.288   2.851
 8140SOL    HW224753   4.140   2.376   2.804
 8141SOL     OW24754   4.862   2.242   3.540
 8141SOL    HW124755   4.817   2.305   3.604
 8141SOL    HW224756   4.955   2.273   3.523
 8142SOL     OW24757   4.884   2.069   3.339
 8142SOL    HW124758   4.884   2.133   3.416
 8142SOL    HW224759   4.912   2.117   3.256
 8143SOL     OW24760   3.732   3.188   2.062
 8143SOL    HW124761   3.639   3.209   2.031
 8143SOL    HW224762   3.742   3.089   2.075
 8144SOL     OW24763   3.812   3.663   2.789
 8144SOL    HW124764   3.770   3.577   2.762
 8144SOL    HW224765   3.906   3.666   2.755
 8145SOL     OW24766   4.228   3.430   2.772
 8145SOL    HW124767   4.294   3.504   2.781
 8145SOL    HW224768   4.272   3.351   2.730
 8146SOL     OW24769   4.726   2.658   3.100
 8146SOL    HW124770   4.767   2.626   3.186
 8146SOL    HW224771   4.630   2.631   3.097
 8147SOL     OW24772   3.764   2.406   2.976
 8147SOL    HW124773   3.849   2.373   2.935
 8147SOL    HW224774   3.777   2.421   3.074
 8148SOL     OW24775   3.913   2.382   3.584
 8148SOL    HW124776   3.972   2.342   3.514
 8148SOL    HW224777   3.855   2.453   3.543
 8149SOL     OW24778   5.093   2.812   3.522
 8149SOL    HW124779   5.132   2.901   3.542
 8149SOL    HW224780   5.103   2.792   3.425
 8150SOL     OW24781   4.539   2.434   2.187
 8150SOL    HW124782   4.546   2.345   2.141
 8150SOL    HW224783   4.445   2.468   2.179
 8151SOL     OW24784   3.976   3.426   3.606
 8151SOL    HW124785   3.946   3.483   3.682
 8151SOL    HW224786   3.969   3.329   3.632
 8152SOL     OW24787   4.395   2.326   3.131
 8152SOL    HW124788   4.361   2.237   3.101
 8152SOL    HW224789   4.421   2.380   3.051
 8153SOL     OW24790   4.654   3.540   3.327
 8153SOL    HW124791   4.630   3.522   3.232
 8153SOL    HW224792   4.684   3.634   3.337
 8154SOL     OW24793   4.197   2.362   2.053
 8154SOL    HW124794   4.258   2.442   2.057
 8154SOL    HW224795   4.102   2.393   2.060
 8155SOL     OW24796   3.883   2.999   3.328
 8155SOL    HW124797   3.905   2.938   3.404
 8155SOL    HW224798   3.893   2.950   3.242
 8156SOL     OW24799   5.071   2.921   3.096
 8156SOL    HW124800   5.095   2.858   3.022
 8156SOL    HW224801   4.981   2.961   3.078
 8157SOL     OW24802   5.026   2.717   2.171
 8157SOL    HW124803   4.940   2.686   2.213
 8157SOL    HW224804   5.022   2.703   2.072
 8158SOL     OW24805   4.976   3.593   2.990
 8158SOL    HW124806   5.060   3.598   2.936
 8158SOL    HW224807   4.953   3.497   3.008
 8159SOL     OW24808   3.807   3.120   2.884
 8159SOL    HW124809   3.802   3.119   2.984
 8159SOL    HW224810   3.724   3.079   2.846
 8160SOL     OW24811   4.412   3.524   3.578
 8160SOL    HW124812   4.356   3.605   3.587
 8160SOL    HW224813   4.464   3.528   3.492
 8161SOL     OW24814   5.450   1.997   2.385
 8161SOL    HW124815   5.523   1.980   2.318
 8161SOL    HW224816   5.419   1.910   2.423
 8162SOL     OW24817   5.112   3.435   2.339
 8162SOL    HW124818   5.179   3.447   2.265
 8162SOL    HW224819   5.072   3.524   2.362
 8163SOL     OW24820   3.854   3.656   3.713
 8163SOL    HW124821   3.813   3.582   3.766
 8163SOL    HW224822   3.918   3.707   3.771
 8164SOL     OW24823   5.004   2.789   2.534
 8164SOL    HW124824   5.064   2.708   2.536
 8164SOL    HW224825   5.044   2.858   2.474
 8165SOL     OW24826   4.554   3.135   3.284
 8165SOL    HW124827   4.549   3.168   3.379
 8165SOL    HW224828   4.468   3.154   3.238
 8166SOL     OW24829   4.396   3.478   2.016
 8166SOL    HW124830   4.405   3.488   1.917
 8166SOL    HW224831   4.356   3.389   2.037
 8167SOL     OW24832   3.987   2.188   2.582
 8167SOL    HW124833   3.908   2.239   2.548
 8167SOL    HW224834   3.978   2.173   2.680
 8168SOL     OW24835   4.918   3.474   1.893
 8168SOL    HW124836   4.924   3.381   1.930
 8168SOL    HW224837   4.859   3.474   1.813
 8169SOL     OW24838   4.546   2.864   3.234
 8169SOL    HW124839   4.586   2.863   3.142
 8169SOL    HW224840   4.556   2.956   3.274
 8170SOL     OW24841   4.640   2.772   2.153
 8170SOL    HW124842   4.703   2.810   2.085
 8170SOL    HW224843   4.680   2.689   2.192
 8171SOL     OW24844   4.096   3.150   3.352
 8171SOL    HW124845   4.083   3.243   3.318
 8171SOL    HW224846   4.012   3.098   3.339
 8172SOL     OW24847   4.763   2.960   2.558
 8172SOL    HW124848   4.693   2.913   2.612
 8172SOL    HW224849   4.822   2.892   2.515
 8173SOL     OW24850   4.738   2.098   2.833
 8173SOL    HW124851   4.730   2.062   2.740
 8173SOL    HW224852   4.736   2.022   2.898
 8174SOL     OW24853   4.314   3.349   2.353
 8174SOL    HW124854   4.356   3.291   2.283
 8174SOL    HW224855   4.270   3.428   2.309
 8175SOL     OW24856   3.979   3.210   2.152
 8175SOL    HW124857   3.883   3.211   2.125
 8175SOL    HW224858   3.991   3.263   2.236
 8176SOL     OW24859   3.829   2.875   3.588
 8176SOL    HW124860   3.752   2.842   3.642
 8176SOL    HW224861   3.914   2.845   3.630
 8177SOL     OW24862   4.396   2.065   3.351
 8177SOL    HW124863   4.486   2.049   3.311
 8177SOL    HW224864   4.404   2.070   3.450
 8178SOL     OW24865   3.799   2.207   1.895
 8178SOL    HW124866   3.707   2.179   1.866
 8178SOL    HW224867   3.830   2.284   1.839
 8179SOL     OW24868   5.164   2.718   3.260
 8179SOL    HW124869   5.107   2.770   3.197
 8179SOL    HW224870   5.260   2.730   3.236
 8180SOL     OW24871   3.796   2.028   2.180
 8180SOL    HW124872   3.779   2.111   2.126
 8180SOL    HW224873   3.886   1.991   2.158
 8181SOL     OW24874   4.907   3.197   1.981
 8181SOL    HW124875   4.808   3.186   1.983
 8181SOL    HW224876   4.941   3.212   2.074
 8182SOL     OW24877   4.337   2.704   3.293
 8182SOL    HW124878   4.393   2.785   3.276
 8182SOL    HW224879   4.396   2.624   3.296
 8183SOL     OW24880   4.440   2.427   3.570
 8183SOL    HW124881   4.459   2.492   3.644
 8183SOL    HW224882   4.500   2.347   3.579
 8184SOL     OW24883   5.174   3.082   3.495
 8184SOL    HW124884   5.165   3.072   3.594
 8184SOL    HW224885   5.270   3.075   3.469
 8185SOL     OW24886   4.114   3.603   3.422
 8185SOL    HW124887   4.023   3.644   3.420
 8185SOL    HW224888   4.107   3.509   3.454
 8186SOL     OW24889   4.949   2.187   2.311
 8186SOL    HW124890   5.014   2.113   2.300
 8186SOL    HW224891   4.969   2.237   2.395
 8187SOL     OW24892   4.318   2.607   2.514
 8187SOL    HW124893   4.368   2.692   2.495
 8187SOL    HW224894   4.230   2.609   2.466
 8188SOL     OW24895   4.583   3.236   1.878
 8188SOL    HW124896   4.537   3.251   1.966
 8188SOL    HW224897   4.627   3.321   1.848
 8189SOL     OW24898   4.385   3.652   2.815
 8189SOL    HW124899   4.339   3.740   2.802
 8189SOL    HW224900   4.484   3.664   2.808
 8190SOL     OW24901   4.583   2.818   2.723
 8190SOL    HW124902   4.637   2.749   2.771
 8190SOL    HW224903   4.551   2.887   2.789
 8191SOL     OW24904   4.807   2.846   1.949
 8191SOL    HW124905   4.784   2.899   1.867
 8191SOL    HW224906   4.888   2.790   1.930
 8192SOL     OW24907   3.945   3.176   3.706
 8192SOL    HW124908   3.880   3.103   3.685
 8192SOL    HW224909   3.949   3.190   3.804
 8193SOL     OW24910   3.803   3.102   2.515
 8193SOL    HW124911   3.802   3.055   2.603
 8193SOL    HW224912   3.885   3.074   2.464
 8194SOL     OW24913   4.396   3.253   3.486
 8194SOL    HW124914   4.318   3.203   3.524
 8194SOL    HW224915   4.393   3.348   3.517
 8195SOL     OW24916   4.152   2.286   2.382
 8195SOL    HW124917   4.182   2.214   2.320
 8195SOL    HW224918   4.113   2.246   2.465
 8196SOL     OW24919   5.429   3.349   2.966
 8196SOL    HW124920   5.336   3.324   2.939
 8196SOL    HW224921   5.455   3.299   3.048
 8197SOL     OW24922   4.041   2.409   3.142
 8197SOL    HW124923   4.079   2.350   3.214
 8197SOL    HW224924   4.081   2.383   3.054
 8198SOL     OW24925   4.536   3.448   2.549
 8198SOL    HW124926   4.568   3.458   2.455
 8198SOL    HW224927   4.457   3.386   2.551
 8199SOL     OW24928   5.148   2.076   2.974
 8199SOL    HW124929   5.200   2.011   3.029
 8199SOL    HW224930   5.099   2.139   3.035
 8200SOL     OW24931   4.725   1.896   3.016
 8200SOL    HW124932   4.662   1.824   2.985
 8200SOL    HW224933   4.818   1.860   3.016
 8201SOL     OW24934   4.494   3.192   2.163
 8201SOL    HW124935   4.448   3.105   2.180
 8201SOL    HW224936   4.585   3.189   2.204
 8202SOL     OW24937   4.342   3.429   3.146
 8202SOL    HW124938   4.337   3.511   3.203
 8202SOL    HW224939   4.431   3.426   3.101
 8203SOL     OW24940   5.076   1.914   2.030
 8203SOL    HW124941   5.111   1.873   1.946
 8203SOL    HW224942   4.986   1.876   2.050
 8204SOL     OW24943   5.024   2.315   2.553
 8204SOL    HW124944   4.965   2.395   2.557
 8204SOL    HW224945   5.039   2.280   2.646
 8205SOL     OW24946   5.317   2.083   2.744
 8205SOL    HW124947   5.233   2.082   2.798
 8205SOL    HW224948   5.319   2.166   2.688
 8206SOL     OW24949   3.763   2.939   2.162
 8206SOL    HW124950   3.862   2.928   2.153
 8206SOL    HW224951   3.723   2.853   2.194
 8207SOL     OW24952   4.599   3.508   2.199
 8207SOL    HW124953   4.522   3.473   2.145
 8207SOL    HW224954   4.567   3.579   2.261
 8208SOL     OW24955   3.954   2.490   3.837
 8208SOL    HW124956   3.861   2.488   3.874
 8208SOL    HW224957   3.955   2.451   3.745
 8209SOL     OW24958   3.949   2.137   4.720
 8209SOL    HW124959   3.984   2.120   4.812
 8209SOL    HW224960   3.861   2.092   4.708
 8210SOL     OW24961   3.743   2.230   4.371
 8210SOL    HW124962   3.661   2.273   4.410
 8210SOL    HW224963   3.715   2.157   4.308
 8211SOL     OW24964   4.293   3.137   4.889
 8211SOL    HW124965   4.200   3.130   4.852
 8211SOL    HW224966   4.304   3.226   4.933
 8212SOL     OW24967   5.279   3.373   4.427
 8212SOL    HW124968   5.222   3.357   4.508
 8212SOL    HW224969   5.220   3.383   4.347
 8213SOL     OW24970   4.859   2.565   4.441
 8213SOL    HW124971   4.916   2.643   4.416
 8213SOL    HW224972   4.799   2.591   4.517
 8214SOL     OW24973   4.492   3.006   4.747
 8214SOL    HW124974   4.414   3.023   4.807
 8214SOL    HW224975   4.526   3.093   4.711
 8215SOL     OW24976   4.574   2.660   5.547
 8215SOL    HW124977   4.570   2.736   5.612
 8215SOL    HW224978   4.596   2.696   5.456
 8216SOL     OW24979   4.409   2.874   4.389
 8216SOL    HW124980   4.478   2.858   4.459
 8216SOL    HW224981   4.336   2.931   4.427
 8217SOL     OW24982   4.410   3.023   5.527
 8217SOL    HW124983   4.470   3.102   5.541
 8217SOL    HW224984   4.324   3.054   5.486
 8218SOL     OW24985   4.059   3.297   4.785
 8218SOL    HW124986   3.981   3.266   4.732
 8218SOL    HW224987   4.117   3.355   4.728
 8219SOL     OW24988   5.184   3.367   5.063
 8219SOL    HW124989   5.208   3.461   5.089
 8219SOL    HW224990   5.168   3.313   5.145
 8220SOL     OW24991   4.162   2.254   5.223
 8220SOL    HW124992   4.244   2.198   5.232
 8220SOL    HW224993   4.081   2.196   5.227
 8221SOL     OW24994   3.955   3.575   4.207
 8221SOL    HW124995   3.989   3.652   4.261
 8221SOL    HW224996   3.999   3.575   4.117
 8222SOL     OW24997   4.851   3.203   5.414
 8222SOL    HW124998   4.898   3.203   5.502
 8222SOL    HW224999   4.803   3.116   5.403
 8223SOL     OW25000   3.954   3.296   4.262
 8223SOL    HW125001   3.928   3.392   4.262
 8223SOL    HW225002   3.883   3.242   4.307
 8224SOL     OW25003   3.964   2.953   4.610
 8224SOL    HW125004   3.978   2.869   4.662
 8224SOL    HW225005   3.909   3.017   4.665
 8225SOL     OW25006   4.344   3.648   5.163
 8225SOL    HW125007   4.252   3.631   5.198
 8225SOL    HW225008   4.372   3.740   5.189
 8226SOL     OW25009   4.330   2.826   3.847
 8226SOL    HW125010   4.337   2.910   3.793
 8226SOL    HW225011   4.376   2.839   3.935
 8227SOL     OW25012   3.846   2.505   4.287
 8227SOL    HW125013   3.801   2.417   4.304
 8227SOL    HW225014   3.845   2.559   4.371
 8228SOL     OW25015   3.751   3.458   3.841
 8228SOL    HW125016   3.732   3.362   3.862
 8228SOL    HW225017   3.718   3.516   3.916
 8229SOL     OW25018   5.413   2.784   4.336
 8229SOL    HW125019   5.508   2.755   4.344
 8229SOL    HW225020   5.405   2.849   4.261
 8230SOL     OW25021   3.837   2.599   5.321
 8230SOL    HW125022   3.925   2.586   5.366
 8230SOL    HW225023   3.824   2.696   5.299
 8231SOL     OW25024   4.337   3.227   4.450
 8231SOL    HW125025   4.288   3.140   4.459
 8231SOL    HW225026   4.314   3.270   4.363
 8232SOL     OW25027   5.017   3.090   5.147
 8232SOL    HW125028   5.054   3.017   5.089
 8232SOL    HW225029   5.069   3.095   5.232
 8233SOL     OW25030   4.533   1.866   4.226
 8233SOL    HW125031   4.573   1.957   4.217
 8233SOL    HW225032   4.433   1.874   4.232
 8234SOL     OW25033   3.921   2.838   4.988
 8234SOL    HW125034   4.010   2.793   4.974
 8234SOL    HW225035   3.848   2.773   4.969
 8235SOL     OW25036   4.911   3.654   5.340
 8235SOL    HW125037   4.935   3.714   5.264
 8235SOL    HW225038   4.918   3.559   5.310
 8236SOL     OW25039   4.041   2.113   5.525
 8236SOL    HW125040   4.112   2.184   5.531
 8236SOL    HW225041   3.953   2.152   5.553
 8237SOL     OW25042   5.190   3.279   4.677
 8237SOL    HW125043   5.131   3.285   4.757
 8237SOL    HW225044   5.175   3.191   4.631
 8238SOL     OW25045   4.322   2.591   3.994
 8238SOL    HW125046   4.346   2.660   3.926
 8238SOL    HW225047   4.244   2.624   4.048
 8239SOL     OW25048   5.005   2.207   4.668
 8239SOL    HW125049   4.919   2.157   4.655
 8239SOL    HW225050   5.067   2.153   4.724
 8240SOL     OW25051   4.531   2.467   5.189
 8240SOL    HW125052   4.484   2.464   5.278
 8240SOL    HW225053   4.480   2.412   5.123
 8241SOL     OW25054   5.118   2.331   5.398
 8241SOL    HW125055   5.098   2.374   5.486
 8241SOL    HW225056   5.196   2.269   5.407
 8242SOL     OW25057   4.697   2.752   5.296
 8242SOL    HW125058   4.743   2.668   5.267
 8242SOL    HW225059   4.641   2.786   5.221
 8243SOL     OW25060   4.715   2.272   4.966
 8243SOL    HW125061   4.638   2.306   5.020
 8243SOL    HW225062   4.681   2.221   4.887
 8244SOL     OW25063   4.765   2.563   4.153
 8244SOL    HW125064   4.791   2.559   4.249
 8244SOL    HW225065   4.680   2.512   4.139
 8245SOL     OW25066   3.800   2.673   4.513
 8245SOL    HW125067   3.899   2.661   4.522
 8245SOL    HW225068   3.776   2.768   4.534
 8246SOL     OW25069   3.854   3.683   5.295
 8246SOL    HW125070   3.844   3.668   5.394
 8246SOL    HW225071   3.768   3.719   5.259
 8247SOL     OW25072   4.589   2.210   3.919
 8247SOL    HW125073   4.648   2.273   3.870
 8247SOL    HW225074   4.608   2.116   3.890
 8248SOL     OW25075   5.086   3.006   4.269
 8248SOL    HW125076   5.169   2.977   4.221
 8248SOL    HW225077   5.037   3.073   4.213
 8249SOL     OW25078   4.274   2.058   4.609
 8249SOL    HW125079   4.269   2.053   4.709
 8249SOL    HW225080   4.276   2.154   4.580
 8250SOL     OW25081   4.732   3.318   4.201
 8250SOL    HW125082   4.686   3.390   4.149
 8250SOL    HW225083   4.728   3.338   4.299
 8251SOL     OW25084   4.075   3.663   4.577
 8251SOL    HW125085   4.125   3.577   4.583
 8251SOL    HW225086   4.140   3.740   4.574
 8252SOL     OW25087   4.951   3.412   5.230
 8252SOL    HW125088   4.957   3.335   5.294
 8252SOL    HW225089   4.899   3.386   5.150
 8253SOL     OW25090   4.045   2.805   3.966
 8253SOL    HW125091   4.127   2.844   3.924
 8253SOL    HW225092   4.018   2.723   3.917
 8254SOL     OW25093   4.185   3.128   5.451
 8254SOL    HW125094   4.135   3.129   5.365
 8254SOL    HW225095   4.122   3.110   5.527
 8255SOL     OW25096   4.835   3.638   3.961
 8255SOL    HW125097   4.775   3.576   4.011
 8255SOL    HW225098   4.866   3.594   3.876
 8256SOL     OW25099   3.926   2.147   5.222
 8256SOL    HW125100   3.846   2.207   5.209
 8256SOL    HW225101   3.916   2.098   5.308
 8257SOL     OW25102   4.188   3.605   4.047
 8257SOL    HW125103   4.221   3.644   4.133
 8257SOL    HW225104   4.264   3.598   3.982
 8258SOL     OW25105   5.124   1.969   4.150
 8258SOL    HW125106   5.100   1.932   4.060
 8258SOL    HW225107   5.223   1.985   4.154
 8259SOL     OW25108   3.973   3.647   4.965
 8259SOL    HW125109   4.030   3.582   5.015
 8259SOL    HW225110   3.957   3.614   4.872
 8260SOL     OW25111   4.664   3.560   4.628
 8260SOL    HW125112   4.744   3.503   4.649
 8260SOL    HW225113   4.615   3.520   4.551
 8261SOL     OW25114   4.106   2.562   4.204
 8261SOL    HW125115   4.151   2.472   4.201
 8261SOL    HW225116   4.012   2.551   4.237
 8262SOL     OW25117   4.338   1.984   3.841
 8262SOL    HW125118   4.436   1.962   3.848
 8262SOL    HW225119   4.307   1.967   3.748
 8263SOL     OW25120   4.505   2.126   5.473
 8263SOL    HW125121   4.572   2.065   5.516
 8263SOL    HW225122   4.432   2.145   5.538
 8264SOL     OW25123   4.612   3.376   4.919
 8264SOL    HW125124   4.589   3.351   4.825
 8264SOL    HW225125   4.673   3.307   4.958
 8265SOL     OW25126   5.075   2.452   5.157
 8265SOL    HW125127   5.103   2.409   5.242
 8265SOL    HW225128   5.100   2.548   5.158
 8266SOL     OW25129   4.527   3.264   4.648
 8266SOL    HW125130   4.617   3.278   4.606
 8266SOL    HW225131   4.456   3.266   4.577
 8267SOL     OW25132   4.646   2.365   4.623
 8267SOL    HW125133   4.621   2.356   4.527
 8267SOL    HW225134   4.694   2.283   4.654
 8268SOL     OW25135   4.263   1.926   4.236
 8268SOL    HW125136   4.182   1.927   4.294
 8268SOL    HW225137   4.266   2.009   4.181
 8269SOL     OW25138   5.158   3.050   3.765
 8269SOL    HW125139   5.190   2.974   3.822
 8269SOL    HW225140   5.066   3.077   3.795
 8270SOL     OW25141   4.021   1.897   3.895
 8270SOL    HW125142   4.070   1.981   3.874
 8270SOL    HW225143   4.083   1.832   3.940
 8271SOL     OW25144   4.659   2.098   4.204
 8271SOL    HW125145   4.611   2.139   4.126
 8271SOL    HW225146   4.758   2.096   4.185
 8272SOL     OW25147   4.800   2.545   5.188
 8272SOL    HW125148   4.720   2.484   5.191
 8272SOL    HW225149   4.881   2.492   5.164
 8273SOL     OW25150   4.951   3.432   4.517
 8273SOL    HW125151   4.972   3.506   4.452
 8273SOL    HW225152   5.019   3.432   4.590
 8274SOL     OW25153   4.183   3.014   4.465
 8274SOL    HW125154   4.112   2.987   4.530
 8274SOL    HW225155   4.157   2.986   4.372
 8275SOL     OW25156   4.995   3.659   4.315
 8275SOL    HW125157   5.039   3.723   4.251
 8275SOL    HW225158   4.945   3.711   4.385
 8276SOL     OW25159   4.756   2.411   3.740
 8276SOL    HW125160   4.715   2.493   3.701
 8276SOL    HW225161   4.820   2.437   3.813
 8277SOL     OW25162   3.802   2.418   5.110
 8277SOL    HW125163   3.894   2.417   5.069
 8277SOL    HW225164   3.796   2.492   5.177
 8278SOL     OW25165   4.285   2.084   4.871
 8278SOL    HW125166   4.323   2.000   4.908
 8278SOL    HW225167   4.197   2.103   4.915
 8279SOL     OW25168   4.590   2.316   4.366
 8279SOL    HW125169   4.558   2.388   4.304
 8279SOL    HW225170   4.614   2.235   4.313
 8280SOL     OW25171   4.741   1.901   4.477
 8280SOL    HW125172   4.669   1.906   4.408
 8280SOL    HW225173   4.717   1.832   4.546
 8281SOL     OW25174   5.153   3.035   4.591
 8281SOL    HW125175   5.098   2.951   4.584
 8281SOL    HW225176   5.179   3.064   4.499
 8282SOL     OW25177   4.212   3.247   3.898
 8282SOL    HW125178   4.125   3.232   3.945
 8282SOL    HW225179   4.195   3.273   3.803
 8283SOL     OW25180   5.114   2.437   3.802
 8283SOL    HW125181   5.060   2.416   3.883
 8283SOL    HW225182   5.205   2.396   3.811
 8284SOL     OW25183   4.251   2.118   4.052
 8284SOL    HW125184   4.278   2.059   3.977
 8284SOL    HW225185   4.251   2.213   4.021
 8285SOL     OW25186   4.788   3.209   5.064
 8285SOL    HW125187   4.708   3.186   5.119
 8285SOL    HW225188   4.871   3.183   5.113
 8286SOL     OW25189   5.316   3.491   5.349
 8286SOL    HW125190   5.343   3.525   5.259
 8286SOL    HW225191   5.395   3.453   5.395
 8287SOL     OW25192   4.835   3.057   4.824
 8287SOL    HW125193   4.795   3.101   4.905
 8287SOL    HW225194   4.794   3.094   4.741
 8288SOL     OW25195   4.639   1.951   5.126
 8288SOL    HW125196   4.664   1.931   5.031
 8288SOL    HW225197   4.711   2.007   5.168
 8289SOL     OW25198   4.704   2.978   5.443
 8289SOL    HW125199   4.605   2.984   5.453
 8289SOL    HW225200   4.727   2.898   5.387
 8290SOL     OW25201   4.429   2.912   4.092
 8290SOL    HW125202   4.415   2.919   4.191
 8290SOL    HW225203   4.513   2.861   4.074
 8291SOL     OW25204   4.134   2.675   4.975
 8291SOL    HW125205   4.220   2.687   5.025
 8291SOL    HW225206   4.092   2.588   5.002
 8292SOL     OW25207   4.998   2.248   4.986
 8292SOL    HW125208   5.019   2.322   5.050
 8292SOL    HW225209   4.909   2.265   4.943
 8293SOL     OW25210   3.788   3.426   5.055
 8293SOL    HW125211   3.742   3.508   5.021
 8293SOL    HW225212   3.886   3.445   5.064
 8294SOL     OW25213   4.091   2.962   4.225
 8294SOL    HW125214   4.084   3.045   4.169
 8294SOL    HW225215   4.095   2.882   4.165
 8295SOL     OW25216   4.290   2.399   4.589
 8295SOL    HW125217   4.302   2.465   4.515
 8295SOL    HW225218   4.336   2.433   4.672
 8296SOL     OW25219   4.976   3.210   4.112
 8296SOL    HW125220   5.026   3.287   4.152
 8296SOL    HW225221   4.881   3.212   4.144
 8297SOL     OW25222   4.996   3.307   4.866
 8297SOL    HW125223   5.043   3.320   4.953
 8297SOL    HW225224   4.930   3.233   4.875
 8298SOL     OW25225   4.078   3.372   5.053
 8298SOL    HW125226   4.057   3.328   4.966
 8298SOL    HW225227   4.175   3.398   5.056
 8299SOL     OW25228   4.126   2.613   5.322
 8299SOL    HW125229   4.194   2.668   5.275
 8299SOL    HW225230   4.166   2.525   5.349
 8300SOL     OW25231   4.737   1.967   5.494
 8300SOL    HW125232   4.743   2.052   5.442
 8300SOL    HW225233   4.769   1.891   5.437
 8301SOL     OW25234   4.228   1.912   5.464
 8301SOL    HW125235   4.186   1.855   5.394
 8301SOL    HW225236   4.162   1.981   5.496
 8302SOL     OW25237   4.297   2.732   4.753
 8302SOL    HW125238   4.341   2.821   4.744
 8302SOL    HW225239   4.234   2.732   4.830
 8303SOL     OW25240   5.084   2.724   4.769
 8303SOL    HW125241   5.009   2.724   4.703
 8303SOL    HW225242   5.121   2.632   4.778
 8304SOL     OW25243   4.933   2.387   3.999
 8304SOL    HW125244   4.946   2.303   4.053
 8304SOL    HW225245   4.904   2.461   4.059
 8305SOL     OW25246   4.031   2.075   4.955
 8305SOL    HW125247   4.008   2.112   5.045
 8305SOL    HW225248   4.001   1.980   4.949
 8306SOL     OW25249   3.761   3.172   5.006
 8306SOL    HW125250   3.814   3.123   5.074
 8306SOL    HW225251   3.783   3.270   5.011
 8307SOL     OW25252   4.456   2.496   4.788
 8307SOL    HW125253   4.515   2.470   4.712
 8307SOL    HW225254   4.428   2.592   4.777
 8308SOL     OW25255   4.031   1.925   4.342
 8308SOL    HW125256   4.020   2.019   4.375
 8308SOL    HW225257   4.026   1.862   4.419
 8309SOL     OW25258   5.346   2.229   4.098
 8309SOL    HW125259   5.348   2.153   4.162
 8309SOL    HW225260   5.298   2.306   4.138
 8310SOL     OW25261   4.747   2.628   4.690
 8310SOL    HW125262   4.762   2.649   4.786
 8310SOL    HW225263   4.717   2.533   4.681
 8311SOL     OW25264   4.704   3.435   5.424
 8311SOL    HW125265   4.684   3.479   5.336
 8311SOL    HW225266   4.743   3.344   5.408
 8312SOL     OW25267   4.074   2.760   5.528
 8312SOL    HW125268   4.150   2.804   5.576
 8312SOL    HW225269   4.109   2.713   5.446
 8313SOL     OW25270   5.027   2.700   3.766
 8313SOL    HW125271   5.061   2.607   3.781
 8313SOL    HW225272   5.045   2.727   3.671
 8314SOL     OW25273   4.792   3.195   4.573
 8314SOL    HW125274   4.799   3.111   4.518
 8314SOL    HW225275   4.854   3.264   4.537
 8315SOL     OW25276   4.043   2.672   4.673
 8315SOL    HW125277   4.136   2.708   4.678
 8315SOL    HW225278   4.037   2.587   4.725
 8316SOL     OW25279   4.063   2.371   4.730
 8316SOL    HW125280   4.011   2.288   4.713
 8316SOL    HW225281   4.140   2.376   4.666
 8317SOL     OW25282   4.862   2.242   5.402
 8317SOL    HW125283   4.817   2.305   5.466
 8317SOL    HW225284   4.955   2.273   5.385
 8318SOL     OW25285   4.884   2.069   5.201
 8318SOL    HW125286   4.884   2.133   5.278
 8318SOL    HW225287   4.912   2.117   5.118
 8319SOL     OW25288   3.732   3.188   3.924
 8319SOL    HW125289   3.639   3.209   3.893
 8319SOL    HW225290   3.742   3.089   3.937
 8320SOL     OW25291   3.812   3.663   4.651
 8320SOL    HW125292   3.770   3.577   4.624
 8320SOL    HW225293   3.906   3.666   4.617
 8321SOL     OW25294   4.228   3.430   4.634
 8321SOL    HW125295   4.294   3.504   4.643
 8321SOL    HW225296   4.272   3.351   4.592
 8322SOL     OW25297   4.726   2.658   4.962
 8322SOL    HW125298   4.767   2.626   5.048
 8322SOL    HW225299   4.630   2.631   4.959
 8323SOL     OW25300   3.764   2.406   4.838
 8323SOL    HW125301   3.849   2.373   4.797
 8323SOL    HW225302   3.777   2.421   4.936
 8324SOL     OW25303   3.913   2.382   5.446
 8324SOL    HW125304   3.972   2.342   5.376
 8324SOL    HW225305   3.855   2.453   5.405
 8325SOL     OW25306   5.093   2.812   5.384
 8325SOL    HW125307   5.132   2.901   5.404
 8325SOL    HW225308   5.103   2.792   5.287
 8326SOL     OW25309   4.539   2.434   4.049
 8326SOL    HW125310   4.546   2.345   4.003
 8326SOL    HW225311   4.445   2.468   4.041
 8327SOL     OW25312   3.976   3.426   5.468
 8327SOL    HW125313   3.946   3.483   5.544
 8327SOL    HW225314   3.969   3.329   5.494
 8328SOL     OW25315   4.395   2.326   4.993
 8328SOL    HW125316   4.361   2.237   4.963
 8328SOL    HW225317   4.421   2.380   4.913
 8329SOL     OW25318   4.654   3.540   5.189
 8329SOL    HW125319   4.630   3.522   5.094
 8329SOL    HW225320   4.684   3.634   5.199
 8330SOL     OW25321   4.197   2.362   3.915
 8330SOL    HW125322   4.258   2.442   3.919
 8330SOL    HW225323   4.102   2.393   3.922
 8331SOL     OW25324   3.883   2.999   5.190
 8331SOL    HW125325   3.905   2.938   5.266
 8331SOL    HW225326   3.893   2.950   5.104
 8332SOL     OW25327   5.071   2.921   4.958
 8332SOL    HW125328   5.095   2.858   4.884
 8332SOL    HW225329   4.981   2.961   4.940
 8333SOL     OW25330   5.026   2.717   4.033
 8333SOL    HW125331   4.940   2.686   4.075
 8333SOL    HW225332   5.022   2.703   3.934
 8334SOL     OW25333   4.976   3.593   4.852
 8334SOL    HW125334   5.060   3.598   4.798
 8334SOL    HW225335   4.953   3.497   4.870
 8335SOL     OW25336   3.807   3.120   4.746
 8335SOL    HW125337   3.802   3.119   4.846
 8335SOL    HW225338   3.724   3.079   4.708
 8336SOL     OW25339   4.412   3.524   5.440
 8336SOL    HW125340   4.356   3.605   5.449
 8336SOL    HW225341   4.464   3.528   5.354
 8337SOL     OW25342   5.450   1.997   4.247
 8337SOL    HW125343   5.523   1.980   4.180
 8337SOL    HW225344   5.419   1.910   4.285
 8338SOL     OW25345   5.112   3.435   4.201
 8338SOL    HW125346   5.179   3.447   4.127
 8338SOL    HW225347   5.072   3.524   4.224
 8339SOL     OW25348   3.854   3.656   5.575
 8339SOL    HW125349   3.813   3.582   5.628
 8339SOL    HW225350   3.918   3.707   5.633
 8340SOL     OW25351   5.004   2.789   4.396
 8340SOL    HW125352   5.064   2.708   4.398
 8340SOL    HW225353   5.044   2.858   4.336
 8341SOL     OW25354   4.554   3.135   5.146
 8341SOL    HW125355   4.549   3.168   5.241
 8341SOL    HW225356   4.468   3.154   5.100
 8342SOL     OW25357   4.396   3.478   3.878
 8342SOL    HW125358   4.405   3.488   3.779
 8342SOL    HW225359   4.356   3.389   3.899
 8343SOL     OW25360   3.987   2.188   4.444
 8343SOL    HW125361   3.908   2.239   4.410
 8343SOL    HW225362   3.978   2.173   4.542
 8344SOL     OW25363   4.918   3.474   3.755
 8344SOL    HW125364   4.924   3.381   3.792
 8344SOL    HW225365   4.859   3.474   3.675
 8345SOL     OW25366   4.546   2.864   5.096
 8345SOL    HW125367   4.586   2.863   5.004
 8345SOL    HW225368   4.556   2.956   5.136
 8346SOL     OW25369   4.640   2.772   4.015
 8346SOL    HW125370   4.703   2.810   3.947
 8346SOL    HW225371   4.680   2.689   4.054
 8347SOL     OW25372   4.096   3.150   5.214
 8347SOL    HW125373   4.083   3.243   5.180
 8347SOL    HW225374   4.012   3.098   5.201
 8348SOL     OW25375   4.763   2.960   4.420
 8348SOL    HW125376   4.693   2.913   4.474
 8348SOL    HW225377   4.822   2.892   4.377
 8349SOL     OW25378   4.738   2.098   4.695
 8349SOL    HW125379   4.730   2.062   4.602
 8349SOL    HW225380   4.736   2.022   4.760
 8350SOL     OW25381   4.314   3.349   4.215
 8350SOL    HW125382   4.356   3.291   4.145
 8350SOL    HW225383   4.270   3.428   4.171
 8351SOL     OW25384   3.979   3.210   4.014
 8351SOL    HW125385   3.883   3.211   3.987
 8351SOL    HW225386   3.991   3.263   4.098
 8352SOL     OW25387   3.829   2.875   5.450
 8352SOL    HW125388   3.752   2.842   5.504
 8352SOL    HW225389   3.914   2.845   5.492
 8353SOL     OW25390   4.396   2.065   5.213
 8353SOL    HW125391   4.486   2.049   5.173
 8353SOL    HW225392   4.404   2.070   5.312
 8354SOL     OW25393   3.799   2.207   3.757
 8354SOL    HW125394   3.707   2.179   3.728
 8354SOL    HW225395   3.830   2.284   3.701
 8355SOL     OW25396   5.164   2.718   5.122
 8355SOL    HW125397   5.107   2.770   5.059
 8355SOL    HW225398   5.260   2.730   5.098
 8356SOL     OW25399   3.796   2.028   4.042
 8356SOL    HW125400   3.779   2.111   3.988
 8356SOL    HW225401   3.886   1.991   4.020
 8357SOL     OW25402   4.907   3.197   3.843
 8357SOL    HW125403   4.808   3.186   3.845
 8357SOL    HW225404   4.941   3.212   3.936
 8358SOL     OW25405   4.337   2.704   5.155
 8358SOL    HW125406   4.393   2.785   5.138
 8358SOL    HW225407   4.396   2.624   5.158
 8359SOL     OW25408   4.440   2.427   5.432
 8359SOL    HW125409   4.459   2.492   5.506
 8359SOL    HW225410   4.500   2.347   5.441
 8360SOL     OW25411   5.174   3.082   5.357
 8360SOL    HW125412   5.165   3.072   5.456
 8360SOL    HW225413   5.270   3.075   5.331
 8361SOL     OW25414   4.114   3.603   5.284
 8361SOL    HW125415   4.023   3.644   5.282
 8361SOL    HW225416   4.107   3.509   5.316
 8362SOL     OW25417   4.949   2.187   4.173
 8362SOL    HW125418   5.014   2.113   4.162
 8362SOL    HW225419   4.969   2.237   4.257
 8363SOL     OW25420   4.318   2.607   4.376
 8363SOL    HW125421   4.368   2.692   4.357
 8363SOL    HW225422   4.230   2.609   4.328
 8364SOL     OW25423   4.583   3.236   3.740
 8364SOL    HW125424   4.537   3.251   3.828
 8364SOL    HW225425   4.627   3.321   3.710
 8365SOL     OW25426   4.385   3.652   4.677
 8365SOL    HW125427   4.339   3.740   4.664
 8365SOL    HW225428   4.484   3.664   4.670
 8366SOL     OW25429   4.583   2.818   4.585
 8366SOL    HW125430   4.637   2.749   4.633
 8366SOL    HW225431   4.551   2.887   4.651
 8367SOL     OW25432   4.807   2.846   3.811
 8367SOL    HW125433   4.784   2.899   3.729
 8367SOL    HW225434   4.888   2.790   3.792
 8368SOL     OW25435   3.945   3.176   5.568
 8368SOL    HW125436   3.880   3.103   5.547
 8368SOL    HW225437   3.949   3.190   5.666
 8369SOL     OW25438   3.803   3.102   4.377
 8369SOL    HW125439   3.802   3.055   4.465
 8369SOL    HW225440   3.885   3.074   4.326
 8370SOL     OW25441   4.396   3.253   5.348
 8370SOL    HW125442   4.318   3.203   5.386
 8370SOL    HW225443   4.393   3.348   5.379
 8371SOL     OW25444   4.152   2.286   4.244
 8371SOL    HW125445   4.182   2.214   4.182
 8371SOL    HW225446   4.113   2.246   4.327
 8372SOL     OW25447   5.429   3.349   4.828
 8372SOL    HW125448   5.336   3.324   4.801
 8372SOL    HW225449   5.455   3.299   4.910
 8373SOL     OW25450   4.041   2.409   5.004
 8373SOL    HW125451   4.079   2.350   5.076
 8373SOL    HW225452   4.081   2.383   4.916
 8374SOL     OW25453   4.536   3.448   4.411
 8374SOL    HW125454   4.568   3.458   4.317
 8374SOL    HW225455   4.457   3.386   4.413
 8375SOL     OW25456   5.148   2.076   4.836
 8375SOL    HW125457   5.200   2.011   4.891
 8375SOL    HW225458   5.099   2.139   4.897
 8376SOL     OW25459   4.725   1.896   4.878
 8376SOL    HW125460   4.662   1.824   4.847
 8376SOL    HW225461   4.818   1.860   4.878
 8377SOL     OW25462   4.494   3.192   4.025
 8377SOL    HW125463   4.448   3.105   4.042
 8377SOL    HW225464   4.585   3.189   4.066
 8378SOL     OW25465   4.342   3.429   5.008
 8378SOL    HW125466   4.337   3.511   5.065
 8378SOL    HW225467   4.431   3.426   4.963
 8379SOL     OW25468   5.076   1.914   3.892
 8379SOL    HW125469   5.111   1.873   3.808
 8379SOL    HW225470   4.986   1.876   3.912
 8380SOL     OW25471   5.024   2.315   4.415
 8380SOL    HW125472   4.965   2.395   4.419
 8380SOL    HW225473   5.039   2.280   4.508
 8381SOL     OW25474   5.317   2.083   4.606
 8381SOL    HW125475   5.233   2.082   4.660
 8381SOL    HW225476   5.319   2.166   4.550
 8382SOL     OW25477   3.763   2.939   4.024
 8382SOL    HW125478   3.862   2.928   4.015
 8382SOL    HW225479   3.723   2.853   4.056
 8383SOL     OW25480   4.599   3.508   4.061
 8383SOL    HW125481   4.522   3.473   4.007
 8383SOL    HW225482   4.567   3.579   4.123
 8384SOL     OW25483   3.954   2.490   5.699
 8384SOL    HW125484   3.861   2.488   5.736
 8384SOL    HW225485   3.955   2.451   5.607
 8385SOL     OW25486   3.949   2.137   6.582
 8385SOL    HW125487   3.984   2.120   6.674
 8385SOL    HW225488   3.861   2.092   6.570
 8386SOL     OW25489   3.743   2.230   6.233
 8386SOL    HW125490   3.661   2.273   6.272
 8386SOL    HW225491   3.715   2.157   6.170
 8387SOL     OW25492   4.293   3.137   6.751
 8387SOL    HW125493   4.200   3.130   6.714
 8387SOL    HW225494   4.304   3.226   6.795
 8388SOL     OW25495   5.279   3.373   6.289
 8388SOL    HW125496   5.222   3.357   6.370
 8388SOL    HW225497   5.220   3.383   6.209
 8389SOL     OW25498   4.859   2.565   6.303
 8389SOL    HW125499   4.916   2.643   6.278
 8389SOL    HW225500   4.799   2.591   6.379
 8390SOL     OW25501   4.492   3.006   6.609
 8390SOL    HW125502   4.414   3.023   6.669
 8390SOL    HW225503   4.526   3.093   6.573
 8391SOL     OW25504   4.574   2.660   7.409
 8391SOL    HW125505   4.570   2.736   7.474
 8391SOL    HW225506   4.596   2.696   7.318
 8392SOL     OW25507   4.409   2.874   6.251
 8392SOL    HW125508   4.478   2.858   6.321
 8392SOL    HW225509   4.336   2.931   6.289
 8393SOL     OW25510   4.410   3.023   7.389
 8393SOL    HW125511   4.470   3.102   7.403
 8393SOL    HW225512   4.324   3.054   7.348
 8394SOL     OW25513   4.059   3.297   6.647
 8394SOL    HW125514   3.981   3.266   6.594
 8394SOL    HW225515   4.117   3.355   6.590
 8395SOL     OW25516   5.184   3.367   6.925
 8395SOL    HW125517   5.208   3.461   6.951
 8395SOL    HW225518   5.168   3.313   7.007
 8396SOL     OW25519   4.162   2.254   7.085
 8396SOL    HW125520   4.244   2.198   7.094
 8396SOL    HW225521   4.081   2.196   7.089
 8397SOL     OW25522   3.955   3.575   6.069
 8397SOL    HW125523   3.989   3.652   6.123
 8397SOL    HW225524   3.999   3.575   5.979
 8398SOL     OW25525   4.851   3.203   7.276
 8398SOL    HW125526   4.898   3.203   7.364
 8398SOL    HW225527   4.803   3.116   7.265
 8399SOL     OW25528   3.954   3.296   6.124
 8399SOL    HW125529   3.928   3.392   6.124
 8399SOL    HW225530   3.883   3.242   6.169
 8400SOL     OW25531   3.964   2.953   6.472
 8400SOL    HW125532   3.978   2.869   6.524
 8400SOL    HW225533   3.909   3.017   6.527
 8401SOL     OW25534   4.344   3.648   7.025
 8401SOL    HW125535   4.252   3.631   7.060
 8401SOL    HW225536   4.372   3.740   7.051
 8402SOL     OW25537   4.330   2.826   5.709
 8402SOL    HW125538   4.337   2.910   5.655
 8402SOL    HW225539   4.376   2.839   5.797
 8403SOL     OW25540   3.846   2.505   6.149
 8403SOL    HW125541   3.801   2.417   6.166
 8403SOL    HW225542   3.845   2.559   6.233
 8404SOL     OW25543   3.751   3.458   5.703
 8404SOL    HW125544   3.732   3.362   5.724
 8404SOL    HW225545   3.718   3.516   5.778
 8405SOL     OW25546   5.413   2.784   6.198
 8405SOL    HW125547   5.508   2.755   6.206
 8405SOL    HW225548   5.405   2.849   6.123
 8406SOL     OW25549   3.837   2.599   7.183
 8406SOL    HW125550   3.925   2.586   7.228
 8406SOL    HW225551   3.824   2.696   7.161
 8407SOL     OW25552   4.337   3.227   6.312
 8407SOL    HW125553   4.288   3.140   6.321
 8407SOL    HW225554   4.314   3.270   6.225
 8408SOL     OW25555   5.017   3.090   7.009
 8408SOL    HW125556   5.054   3.017   6.951
 8408SOL    HW225557   5.069   3.095   7.094
 8409SOL     OW25558   4.533   1.866   6.088
 8409SOL    HW125559   4.573   1.957   6.079
 8409SOL    HW225560   4.433   1.874   6.094
 8410SOL     OW25561   3.921   2.838   6.850
 8410SOL    HW125562   4.010   2.793   6.836
 8410SOL    HW225563   3.848   2.773   6.831
 8411SOL     OW25564   4.911   3.654   7.202
 8411SOL    HW125565   4.935   3.714   7.126
 8411SOL    HW225566   4.918   3.559   7.172
 8412SOL     OW25567   4.041   2.113   7.387
 8412SOL    HW125568   4.112   2.184   7.393
 8412SOL    HW225569   3.953   2.152   7.415
 8413SOL     OW25570   5.190   3.279   6.539
 8413SOL    HW125571   5.131   3.285   6.619
 8413SOL    HW225572   5.175   3.191   6.493
 8414SOL     OW25573   4.322   2.591   5.856
 8414SOL    HW125574   4.346   2.660   5.788
 8414SOL    HW225575   4.244   2.624   5.910
 8415SOL     OW25576   5.005   2.207   6.530
 8415SOL    HW125577   4.919   2.157   6.517
 8415SOL    HW225578   5.067   2.153   6.586
 8416SOL     OW25579   4.531   2.467   7.051
 8416SOL    HW125580   4.484   2.464   7.140
 8416SOL    HW225581   4.480   2.412   6.985
 8417SOL     OW25582   5.118   2.331   7.260
 8417SOL    HW125583   5.098   2.374   7.348
 8417SOL    HW225584   5.196   2.269   7.269
 8418SOL     OW25585   4.697   2.752   7.158
 8418SOL    HW125586   4.743   2.668   7.129
 8418SOL    HW225587   4.641   2.786   7.083
 8419SOL     OW25588   4.715   2.272   6.828
 8419SOL    HW125589   4.638   2.306   6.882
 8419SOL    HW225590   4.681   2.221   6.749
 8420SOL     OW25591   4.765   2.563   6.015
 8420SOL    HW125592   4.791   2.559   6.111
 8420SOL    HW225593   4.680   2.512   6.001
 8421SOL     OW25594   3.800   2.673   6.375
 8421SOL    HW125595   3.899   2.661   6.384
 8421SOL    HW225596   3.776   2.768   6.396
 8422SOL     OW25597   3.854   3.683   7.157
 8422SOL    HW125598   3.844   3.668   7.256
 8422SOL    HW225599   3.768   3.719   7.121
 8423SOL     OW25600   4.589   2.210   5.781
 8423SOL    HW125601   4.648   2.273   5.732
 8423SOL    HW225602   4.608   2.116   5.752
 8424SOL     OW25603   5.086   3.006   6.131
 8424SOL    HW125604   5.169   2.977   6.083
 8424SOL    HW225605   5.037   3.073   6.075
 8425SOL     OW25606   4.274   2.058   6.471
 8425SOL    HW125607   4.269   2.053   6.571
 8425SOL    HW225608   4.276   2.154   6.442
 8426SOL     OW25609   4.732   3.318   6.063
 8426SOL    HW125610   4.686   3.390   6.011
 8426SOL    HW225611   4.728   3.338   6.161
 8427SOL     OW25612   4.075   3.663   6.439
 8427SOL    HW125613   4.125   3.577   6.445
 8427SOL    HW225614   4.140   3.740   6.436
 8428SOL     OW25615   4.951   3.412   7.092
 8428SOL    HW125616   4.957   3.335   7.156
 8428SOL    HW225617   4.899   3.386   7.012
 8429SOL     OW25618   4.045   2.805   5.828
 8429SOL    HW125619   4.127   2.844   5.786
 8429SOL    HW225620   4.018   2.723   5.779
 8430SOL     OW25621   4.185   3.128   7.313
 8430SOL    HW125622   4.135   3.129   7.227
 8430SOL    HW225623   4.122   3.110   7.389
 8431SOL     OW25624   4.835   3.638   5.823
 8431SOL    HW125625   4.775   3.576   5.873
 8431SOL    HW225626   4.866   3.594   5.738
 8432SOL     OW25627   3.926   2.147   7.084
 8432SOL    HW125628   3.846   2.207   7.071
 8432SOL    HW225629   3.916   2.098   7.170
 8433SOL     OW25630   4.188   3.605   5.909
 8433SOL    HW125631   4.221   3.644   5.995
 8433SOL    HW225632   4.264   3.598   5.844
 8434SOL     OW25633   5.124   1.969   6.012
 8434SOL    HW125634   5.100   1.932   5.922
 8434SOL    HW225635   5.223   1.985   6.016
 8435SOL     OW25636   3.973   3.647   6.827
 8435SOL    HW125637   4.030   3.582   6.877
 8435SOL    HW225638   3.957   3.614   6.734
 8436SOL     OW25639   4.664   3.560   6.490
 8436SOL    HW125640   4.744   3.503   6.511
 8436SOL    HW225641   4.615   3.520   6.413
 8437SOL     OW25642   4.106   2.562   6.066
 8437SOL    HW125643   4.151   2.472   6.063
 8437SOL    HW225644   4.012   2.551   6.099
 8438SOL     OW25645   4.338   1.984   5.703
 8438SOL    HW125646   4.436   1.962   5.710
 8438SOL    HW225647   4.307   1.967   5.610
 8439SOL     OW25648   4.505   2.126   7.335
 8439SOL    HW125649   4.572   2.065   7.378
 8439SOL    HW225650   4.432   2.145   7.400
 8440SOL     OW25651   4.612   3.376   6.781
 8440SOL    HW125652   4.589   3.351   6.687
 8440SOL    HW225653   4.673   3.307   6.820
 8441SOL     OW25654   5.075   2.452   7.019
 8441SOL    HW125655   5.103   2.409   7.104
 8441SOL    HW225656   5.100   2.548   7.020
 8442SOL     OW25657   4.527   3.264   6.510
 8442SOL    HW125658   4.617   3.278   6.468
 8442SOL    HW225659   4.456   3.266   6.439
 8443SOL     OW25660   4.646   2.365   6.485
 8443SOL    HW125661   4.621   2.356   6.389
 8443SOL    HW225662   4.694   2.283   6.516
 8444SOL     OW25663   4.263   1.926   6.098
 8444SOL    HW125664   4.182   1.927   6.156
 8444SOL    HW225665   4.266   2.009   6.043
 8445SOL     OW25666   5.158   3.050   5.627
 8445SOL    HW125667   5.190   2.974   5.684
 8445SOL    HW225668   5.066   3.077   5.657
 8446SOL     OW25669   4.021   1.897   5.757
 8446SOL    HW125670   4.070   1.981   5.736
 8446SOL    HW225671   4.083   1.832   5.802
 8447SOL     OW25672   4.659   2.098   6.066
 8447SOL    HW125673   4.611   2.139   5.988
 8447SOL    HW225674   4.758   2.096   6.047
 8448SOL     OW25675   4.800   2.545   7.050
 8448SOL    HW125676   4.720   2.484   7.053
 8448SOL    HW225677   4.881   2.492   7.026
 8449SOL     OW25678   4.951   3.432   6.379
 8449SOL    HW125679   4.972   3.506   6.314
 8449SOL    HW225680   5.019   3.432   6.452
 8450SOL     OW25681   4.183   3.014   6.327
 8450SOL    HW125682   4.112   2.987   6.392
 8450SOL    HW225683   4.157   2.986   6.234
 8451SOL     OW25684   4.995   3.659   6.177
 8451SOL    HW125685   5.039   3.723   6.113
 8451SOL    HW225686   4.945   3.711   6.247
 8452SOL     OW25687   4.756   2.411   5.602
 8452SOL    HW125688   4.715   2.493   5.563
 8452SOL    HW225689   4.820   2.437   5.675
 8453SOL     OW25690   3.802   2.418   6.972
 8453SOL    HW125691   3.894   2.417   6.931
 8453SOL    HW225692   3.796   2.492   7.039
 8454SOL     OW25693   4.285   2.084   6.733
 8454SOL    HW125694   4.323   2.000   6.770
 8454SOL    HW225695   4.197   2.103   6.777
 8455SOL     OW25696   4.590   2.316   6.228
 8455SOL    HW125697   4.558   2.388   6.166
 8455SOL    HW225698   4.614   2.235   6.175
 8456SOL     OW25699   4.741   1.901   6.339
 8456SOL    HW125700   4.669   1.906   6.270
 8456SOL    HW225701   4.717   1.832   6.408
 8457SOL     OW25702   5.153   3.035   6.453
 8457SOL    HW125703   5.098   2.951   6.446
 8457SOL    HW225704   5.179   3.064   6.361
 8458SOL     OW25705   4.212   3.247   5.760
 8458SOL    HW125706   4.125   3.232   5.807
 8458SOL    HW225707   4.195   3.273   5.665
 8459SOL     OW25708   5.114   2.437   5.664
 8459SOL    HW125709   5.060   2.416   5.745
 8459SOL    HW225710   5.205   2.396   5.673
 8460SOL     OW25711   4.251   2.118   5.914
 8460SOL    HW125712   4.278   2.059   5.839
 8460SOL    HW225713   4.251   2.213   5.883
 8461SOL     OW25714   4.788   3.209   6.926
 8461SOL    HW125715   4.708   3.186   6.981
 8461SOL    HW225716   4.871   3.183   6.975
 8462SOL     OW25717   5.316   3.491   7.211
 8462SOL    HW125718   5.343   3.525   7.121
 8462SOL    HW225719   5.395   3.453   7.257
 8463SOL     OW25720   4.835   3.057   6.686
 8463SOL    HW125721   4.795   3.101   6.767
 8463SOL    HW225722   4.794   3.094   6.603
 8464SOL     OW25723   4.639   1.951   6.988
 8464SOL    HW125724   4.664   1.931   6.893
 8464SOL    HW225725   4.711   2.007   7.030
 8465SOL     OW25726   4.704   2.978   7.305
 8465SOL    HW125727   4.605   2.984   7.315
 8465SOL    HW225728   4.727   2.898   7.249
 8466SOL     OW25729   4.429   2.912   5.954
 8466SOL    HW125730   4.415   2.919   6.053
 8466SOL    HW225731   4.513   2.861   5.936
 8467SOL     OW25732   4.134   2.675   6.837
 8467SOL    HW125733   4.220   2.687   6.887
 8467SOL    HW225734   4.092   2.588   6.864
 8468SOL     OW25735   4.998   2.248   6.848
 8468SOL    HW125736   5.019   2.322   6.912
 8468SOL    HW225737   4.909   2.265   6.805
 8469SOL     OW25738   3.788   3.426   6.917
 8469SOL    HW125739   3.742   3.508   6.883
 8469SOL    HW225740   3.886   3.445   6.926
 8470SOL     OW25741   4.091   2.962   6.087
 8470SOL    HW125742   4.084   3.045   6.031
 8470SOL    HW225743   4.095   2.882   6.027
 8471SOL     OW25744   4.290   2.399   6.451
 8471SOL    HW125745   4.302   2.465   6.377
 8471SOL    HW225746   4.336   2.433   6.534
 8472SOL     OW25747   4.976   3.210   5.974
 8472SOL    HW125748   5.026   3.287   6.014
 8472SOL    HW225749   4.881   3.212   6.006
 8473SOL     OW25750   4.996   3.307   6.728
 8473SOL    HW125751   5.043   3.320   6.815
 8473SOL    HW225752   4.930   3.233   6.737
 8474SOL     OW25753   4.078   3.372   6.915
 8474SOL    HW125754   4.057   3.328   6.828
 8474SOL    HW225755   4.175   3.398   6.918
 8475SOL     OW25756   4.126   2.613   7.184
 8475SOL    HW125757   4.194   2.668   7.137
 8475SOL    HW225758   4.166   2.525   7.211
 8476SOL     OW25759   4.737   1.967   7.356
 8476SOL    HW125760   4.743   2.052   7.304
 8476SOL    HW225761   4.769   1.891   7.299
 8477SOL     OW25762   4.228   1.912   7.326
 8477SOL    HW125763   4.186   1.855   7.256
 8477SOL    HW225764   4.162   1.981   7.358
 8478SOL     OW25765   4.297   2.732   6.615
 8478SOL    HW125766   4.341   2.821   6.606
 8478SOL    HW225767   4.234   2.732   6.692
 8479SOL     OW25768   5.084   2.724   6.631
 8479SOL    HW125769   5.009   2.724   6.565
 8479SOL    HW225770   5.121   2.632   6.640
 8480SOL     OW25771   4.933   2.387   5.861
 8480SOL    HW125772   4.946   2.303   5.915
 8480SOL    HW225773   4.904   2.461   5.921
 8481SOL     OW25774   4.031   2.075   6.817
 8481SOL    HW125775   4.008   2.112   6.907
 8481SOL    HW225776   4.001   1.980   6.811
 8482SOL     OW25777   3.761   3.172   6.868
 8482SOL    HW125778   3.814   3.123   6.936
 8482SOL    HW225779   3.783   3.270   6.873
 8483SOL     OW25780   4.456   2.496   6.650
 8483SOL    HW125781   4.515   2.470   6.574
 8483SOL    HW225782   4.428   2.592   6.639
 8484SOL     OW25783   4.031   1.925   6.204
 8484SOL    HW125784   4.020   2.019   6.237
 8484SOL    HW225785   4.026   1.862   6.281
 8485SOL     OW25786   5.346   2.229   5.960
 8485SOL    HW125787   5.348   2.153   6.024
 8485SOL    HW225788   5.298   2.306   6.000
 8486SOL     OW25789   4.747   2.628   6.552
 8486SOL    HW125790   4.762   2.649   6.648
 8486SOL    HW225791   4.717   2.533   6.543
 8487SOL     OW25792   4.704   3.435   7.286
 8487SOL    HW125793   4.684   3.479   7.198
 8487SOL    HW225794   4.743   3.344   7.270
 8488SOL     OW25795   4.074   2.760   7.390
 8488SOL    HW125796   4.150   2.804   7.438
 8488SOL    HW225797   4.109   2.713   7.308
 8489SOL     OW25798   5.027   2.700   5.628
 8489SOL    HW125799   5.061   2.607   5.643
 8489SOL    HW225800   5.045   2.727   5.533
 8490SOL     OW25801   4.792   3.195   6.435
 8490SOL    HW125802   4.799   3.111   6.380
 8490SOL    HW225803   4.854   3.264   6.399
 8491SOL     OW25804   4.043   2.672   6.535
 8491SOL    HW125805   4.136   2.708   6.540
 8491SOL    HW225806   4.037   2.587   6.587
 8492SOL     OW25807   4.063   2.371   6.592
 8492SOL    HW125808   4.011   2.288   6.575
 8492SOL    HW225809   4.140   2.376   6.528
 8493SOL     OW25810   4.862   2.242   7.264
 8493SOL    HW125811   4.817   2.305   7.328
 8493SOL    HW225812   4.955   2.273   7.247
 8494SOL     OW25813   4.884   2.069   7.063
 8494SOL    HW125814   4.884   2.133   7.140
 8494SOL    HW225815   4.912   2.117   6.980
 8495SOL     OW25816   3.732   3.188   5.786
 8495SOL    HW125817   3.639   3.209   5.755
 8495SOL    HW225818   3.742   3.089   5.799
 8496SOL     OW25819   3.812   3.663   6.513
 8496SOL    HW125820   3.770   3.577   6.486
 8496SOL    HW225821   3.906   3.666   6.479
 8497SOL     OW25822   4.228   3.430   6.496
 8497SOL    HW125823   4.294   3.504   6.505
 8497SOL    HW225824   4.272   3.351   6.454
 8498SOL     OW25825   4.726   2.658   6.824
 8498SOL    HW125826   4.767   2.626   6.910
 8498SOL    HW225827   4.630   2.631   6.821
 8499SOL     OW25828   3.764   2.406   6.700
 8499SOL    HW125829   3.849   2.373   6.659
 8499SOL    HW225830   3.777   2.421   6.798
 8500SOL     OW25831   3.913   2.382   7.308
 8500SOL    HW125832   3.972   2.342   7.238
 8500SOL    HW225833   3.855   2.453   7.267
 8501SOL     OW25834   5.093   2.812   7.246
 8501SOL    HW125835   5.132   2.901   7.266
 8501SOL    HW225836   5.103   2.792   7.149
 8502SOL     OW25837   4.539   2.434   5.911
 8502SOL    HW125838   4.546   2.345   5.865
 8502SOL    HW225839   4.445   2.468   5.903
 8503SOL     OW25840   3.976   3.426   7.330
 8503SOL    HW125841   3.946   3.483   7.406
 8503SOL    HW225842   3.969   3.329   7.356
 8504SOL     OW25843   4.395   2.326   6.855
 8504SOL    HW125844   4.361   2.237   6.825
 8504SOL    HW225845   4.421   2.380   6.775
 8505SOL     OW25846   4.654   3.540   7.051
 8505SOL    HW125847   4.630   3.522   6.956
 8505SOL    HW225848   4.684   3.634   7.061
 8506SOL     OW25849   4.197   2.362   5.777
 8506SOL    HW125850   4.258   2.442   5.781
 8506SOL    HW225851   4.102   2.393   5.784
 8507SOL     OW25852   3.883   2.999   7.052
 8507SOL    HW125853   3.905   2.938   7.128
 8507SOL    HW225854   3.893   2.950   6.966
 8508SOL     OW25855   5.071   2.921   6.820
 8508SOL    HW125856   5.095   2.858   6.746
 8508SOL    HW225857   4.981   2.961   6.802
 8509SOL     OW25858   5.026   2.717   5.895
 8509SOL    HW125859   4.940   2.686   5.937
 8509SOL    HW225860   5.022   2.703   5.796
 8510SOL     OW25861   4.976   3.593   6.714
 8510SOL    HW125862   5.060   3.598   6.660
 8510SOL    HW225863   4.953   3.497   6.732
 8511SOL     OW25864   3.807   3.120   6.608
 8511SOL    HW125865   3.802   3.119   6.708
 8511SOL    HW225866   3.724   3.079   6.570
 8512SOL     OW25867   4.412   3.524   7.302
 8512SOL    HW125868   4.356   3.605   7.311
 8512SOL    HW225869   4.464   3.528   7.216
 8513SOL     OW25870   5.450   1.997   6.109
 8513SOL    HW125871   5.523   1.980   6.042
 8513SOL    HW225872   5.419   1.910   6.147
 8514SOL     OW25873   5.112   3.435   6.063
 8514SOL    HW125874   5.179   3.447   5.989
 8514SOL    HW225875   5.072   3.524   6.086
 8515SOL     OW25876   3.854   3.656   7.437
 8515SOL    HW125877   3.813   3.582   7.490
 8515SOL    HW225878   3.918   3.707   7.495
 8516SOL     OW25879   5.004   2.789   6.258
 8516SOL    HW125880   5.064   2.708   6.260
 8516SOL    HW225881   5.044   2.858   6.198
 8517SOL     OW25882   4.554   3.135   7.008
 8517SOL    HW125883   4.549   3.168   7.103
 8517SOL    HW225884   4.468   3.154   6.962
 8518SOL     OW25885   4.396   3.478   5.740
 8518SOL    HW125886   4.405   3.488   5.641
 8518SOL    HW225887   4.356   3.389   5.761
 8519SOL     OW25888   3.987   2.188   6.306
 8519SOL    HW125889   3.908   2.239   6.272
 8519SOL    HW225890   3.978   2.173   6.404
 8520SOL     OW25891   4.918   3.474   5.617
 8520SOL    HW125892   4.924   3.381   5.654
 8520SOL    HW225893   4.859   3.474   5.537
 8521SOL     OW25894   4.546   2.864   6.958
 8521SOL    HW125895   4.586   2.863   6.866
 8521SOL    HW225896   4.556   2.956   6.998
 8522SOL     OW25897   4.640   2.772   5.877
 8522SOL    HW125898   4.703   2.810   5.809
 8522SOL    HW225899   4.680   2.689   5.916
 8523SOL     OW25900   4.096   3.150   7.076
 8523SOL    HW125901   4.083   3.243   7.042
 8523SOL    HW225902   4.012   3.098   7.063
 8524SOL     OW25903   4.763   2.960   6.282
 8524SOL    HW125904   4.693   2.913   6.336
 8524SOL    HW225905   4.822   2.892   6.239
 8525SOL     OW25906   4.738   2.098   6.557
 8525SOL    HW125907   4.730   2.062   6.464
 8525SOL    HW225908   4.736   2.022   6.622
 8526SOL     OW25909   4.314   3.349   6.077
 8526SOL    HW125910   4.356   3.291   6.007
 8526SOL    HW225911   4.270   3.428   6.033
 8527SOL     OW25912   3.979   3.210   5.876
 8527SOL    HW125913   3.883   3.211   5.849
 8527SOL    HW225914   3.991   3.263   5.960
 8528SOL     OW25915   3.829   2.875   7.312
 8528SOL    HW125916   3.752   2.842   7.366
 8528SOL    HW225917   3.914   2.845   7.354
 8529SOL     OW25918   4.396   2.065   7.075
 8529SOL    HW125919   4.486   2.049   7.035
 8529SOL    HW225920   4.404   2.070   7.174
 8530SOL     OW25921   3.799   2.207   5.619
 8530SOL    HW125922   3.707   2.179   5.590
 8530SOL    HW225923   3.830   2.284   5.563
 8531SOL     OW25924   5.164   2.718   6.984
 8531SOL    HW125925   5.107   2.770   6.921
 8531SOL    HW225926   5.260   2.730   6.960
 8532SOL     OW25927   3.796   2.028   5.904
 8532SOL    HW125928   3.779   2.111   5.850
 8532SOL    HW225929   3.886   1.991   5.882
 8533SOL     OW25930   4.907   3.197   5.705
 8533SOL    HW125931   4.808   3.186   5.707
 8533SOL    HW225932   4.941   3.212   5.798
 8534SOL     OW25933   4.337   2.704   7.017
 8534SOL    HW125934   4.393   2.785   7.000
 8534SOL    HW225935   4.396   2.624   7.020
 8535SOL     OW25936   4.440   2.427   7.294
 8535SOL    HW125937   4.459   2.492   7.368
 8535SOL    HW225938   4.500   2.347   7.303
 8536SOL     OW25939   5.174   3.082   7.219
 8536SOL    HW125940   5.165   3.072   7.318
 8536SOL    HW225941   5.270   3.075   7.193
 8537SOL     OW25942   4.114   3.603   7.146
 8537SOL    HW125943   4.023   3.644   7.144
 8537SOL    HW225944   4.107   3.509   7.178
 8538SOL     OW25945   4.949   2.187   6.035
 8538SOL    HW125946   5.014   2.113   6.024
 8538SOL    HW225947   4.969   2.237   6.119
 8539SOL     OW25948   4.318   2.607   6.238
 8539SOL    HW125949   4.368   2.692   6.219
 8539SOL    HW225950   4.230   2.609   6.190
 8540SOL     OW25951   4.583   3.236   5.602
 8540SOL    HW125952   4.537   3.251   5.690
 8540SOL    HW225953   4.627   3.321   5.572
 8541SOL     OW25954   4.385   3.652   6.539
 8541SOL    HW125955   4.339   3.740   6.526
 8541SOL    HW225956   4.484   3.664   6.532
 8542SOL     OW25957   4.583   2.818   6.447
 8542SOL    HW125958   4.637   2.749   6.495
 8542SOL    HW225959   4.551   2.887   6.513
 8543SOL     OW25960   4.807   2.846   5.673
 8543SOL    HW125961   4.784   2.899   5.591
 8543SOL    HW225962   4.888   2.790   5.654
 8544SOL     OW25963   3.945   3.176   7.430
 8544SOL    HW125964   3.880   3.103   7.409
 8544SOL    HW225965   3.949   3.190   7.528
 8545SOL     OW25966   3.803   3.102   6.239
 8545SOL    HW125967   3.802   3.055   6.327
 8545SOL    HW225968   3.885   3.074   6.188
 8546SOL     OW25969   4.396   3.253   7.210
 8546SOL    HW125970   4.318   3.203   7.248
 8546SOL    HW225971   4.393   3.348   7.241
 8547SOL     OW25972   4.152   2.286   6.106
 8547SOL    HW125973   4.182   2.214   6.044
 8547SOL    HW225974   4.113   2.246   6.189
 8548SOL     OW25975   5.429   3.349   6.690
 8548SOL    HW125976   5.336   3.324   6.663
 8548SOL    HW225977   5.455   3.299   6.772
 8549SOL     OW25978   4.041   2.409   6.866
 8549SOL    HW125979   4.079   2.350   6.938
 8549SOL    HW225980   4.081   2.383   6.778
 8550SOL     OW25981   4.536   3.448   6.273
 8550SOL    HW125982   4.568   3.458   6.179
 8550SOL    HW225983   4.457   3.386   6.275
 8551SOL     OW25984   5.148   2.076   6.698
 8551SOL    HW125985   5.200   2.011   6.753
 8551SOL    HW225986   5.099   2.139   6.759
 8552SOL     OW25987   4.725   1.896   6.740
 8552SOL    HW125988   4.662   1.824   6.709
 8552SOL    HW225989   4.818   1.860   6.740
 8553SOL     OW25990   4.494   3.192   5.887
 8553SOL    HW125991   4.448   3.105   5.904
 8553SOL    HW225992   4.585   3.189   5.928
 8554SOL     OW25993   4.342   3.429   6.870
 8554SOL    HW125994   4.337   3.511   6.927
 8554SOL    HW225995   4.431   3.426   6.825
 8555SOL     OW25996   5.076   1.914   5.754
 8555SOL    HW125997   5.111   1.873   5.670
 8555SOL    HW225998   4.986   1.876   5.774
 8556SOL     OW25999   5.024   2.315   6.277
 8556SOL    HW126000   4.965   2.395   6.281
 8556SOL    HW226001   5.039   2.280   6.370
 8557SOL     OW26002   5.317   2.083   6.468
 8557SOL    HW126003   5.233   2.082   6.522
 8557SOL    HW226004   5.319   2.166   6.412
 8558SOL     OW26005   3.763   2.939   5.886
 8558SOL    HW126006   3.862   2.928   5.877
 8558SOL    HW226007   3.723   2.853   5.918
 8559SOL     OW26008   4.599   3.508   5.923
 8559SOL    HW126009   4.522   3.473   5.869
 8559SOL    HW226010   4.567   3.579   5.985
 8560SOL     OW26011   3.954   2.490   7.561
 8560SOL    HW126012   3.861   2.488   7.598
 8560SOL    HW226013   3.955   2.451   7.469
 8561SOL     OW26014   3.949   2.137   8.444
 8561SOL    HW126015   3.984   2.120   8.536
 8561SOL    HW226016   3.861   2.092   8.432
 8562SOL     OW26017   3.743   2.230   8.095
 8562SOL    HW126018   3.661   2.273   8.134
 8562SOL    HW226019   3.715   2.157   8.032
 8563SOL     OW26020   4.293   3.137   8.613
 8563SOL    HW126021   4.200   3.130   8.576
 8563SOL    HW226022   4.304   3.226   8.657
 8564SOL     OW26023   5.279   3.373   8.151
 8564SOL    HW126024   5.222   3.357   8.232
 8564SOL    HW226025   5.220   3.383   8.071
 8565SOL     OW26026   4.859   2.565   8.165
 8565SOL    HW126027   4.916   2.643   8.140
 8565SOL    HW226028   4.799   2.591   8.241
 8566SOL     OW26029   4.492   3.006   8.471
 8566SOL    HW126030   4.414   3.023   8.531
 8566SOL    HW226031   4.526   3.093   8.435
 8567SOL     OW26032   4.574   2.660   9.271
 8567SOL    HW126033   4.570   2.736   9.336
 8567SOL    HW226034   4.596   2.696   9.180
 8568SOL     OW26035   4.409   2.874   8.113
 8568SOL    HW126036   4.478   2.858   8.183
 8568SOL    HW226037   4.336   2.931   8.151
 8569SOL     OW26038   4.410   3.023   9.251
 8569SOL    HW126039   4.470   3.102   9.265
 8569SOL    HW226040   4.324   3.054   9.210
 8570SOL     OW26041   4.059   3.297   8.509
 8570SOL    HW126042   3.981   3.266   8.456
 8570SOL    HW226043   4.117   3.355   8.452
 8571SOL     OW26044   5.184   3.367   8.787
 8571SOL    HW126045   5.208   3.461   8.813
 8571SOL    HW226046   5.168   3.313   8.869
 8572SOL     OW26047   4.162   2.254   8.947
 8572SOL    HW126048   4.244   2.198   8.956
 8572SOL    HW226049   4.081   2.196   8.951
 8573SOL     OW26050   3.955   3.575   7.931
 8573SOL    HW126051   3.989   3.652   7.985
 8573SOL    HW226052   3.999   3.575   7.841
 8574SOL     OW26053   4.851   3.203   9.138
 8574SOL    HW126054   4.898   3.203   9.226
 8574SOL    HW226055   4.803   3.116   9.127
 8575SOL     OW26056   3.954   3.296   7.986
 8575SOL    HW126057   3.928   3.392   7.986
 8575SOL    HW226058   3.883   3.242   8.031
 8576SOL     OW26059   3.964   2.953   8.334
 8576SOL    HW126060   3.978   2.869   8.386
 8576SOL    HW226061   3.909   3.017   8.389
 8577SOL     OW26062   4.344   3.648   8.887
 8577SOL    HW126063   4.252   3.631   8.922
 8577SOL    HW226064   4.372   3.740   8.913
 8578SOL     OW26065   4.330   2.826   7.571
 8578SOL    HW126066   4.337   2.910   7.517
 8578SOL    HW226067   4.376   2.839   7.659
 8579SOL     OW26068   3.846   2.505   8.011
 8579SOL    HW126069   3.801   2.417   8.028
 8579SOL    HW226070   3.845   2.559   8.095
 8580SOL     OW26071   3.751   3.458   7.565
 8580SOL    HW126072   3.732   3.362   7.586
 8580SOL    HW226073   3.718   3.516   7.640
 8581SOL     OW26074   5.413   2.784   8.060
 8581SOL    HW126075   5.508   2.755   8.068
 8581SOL    HW226076   5.405   2.849   7.985
 8582SOL     OW26077   3.837   2.599   9.045
 8582SOL    HW126078   3.925   2.586   9.090
 8582SOL    HW226079   3.824   2.696   9.023
 8583SOL     OW26080   4.337   3.227   8.174
 8583SOL    HW126081   4.288   3.140   8.183
 8583SOL    HW226082   4.314   3.270   8.087
 8584SOL     OW26083   5.017   3.090   8.871
 8584SOL    HW126084   5.054   3.017   8.813
 8584SOL    HW226085   5.069   3.095   8.956
 8585SOL     OW26086   4.533   1.866   7.950
 8585SOL    HW126087   4.573   1.957   7.941
 8585SOL    HW226088   4.433   1.874   7.956
 8586SOL     OW26089   3.921   2.838   8.712
 8586SOL    HW126090   4.010   2.793   8.698
 8586SOL    HW226091   3.848   2.773   8.693
 8587SOL     OW26092   4.911   3.654   9.064
 8587SOL    HW126093   4.935   3.714   8.988
 8587SOL    HW226094   4.918   3.559   9.034
 8588SOL     OW26095   4.041   2.113   9.249
 8588SOL    HW126096   4.112   2.184   9.255
 8588SOL    HW226097   3.953   2.152   9.277
 8589SOL     OW26098   5.190   3.279   8.401
 8589SOL    HW126099   5.131   3.285   8.481
 8589SOL    HW226100   5.175   3.191   8.355
 8590SOL     OW26101   4.322   2.591   7.718
 8590SOL    HW126102   4.346   2.660   7.650
 8590SOL    HW226103   4.244   2.624   7.772
 8591SOL     OW26104   5.005   2.207   8.392
 8591SOL    HW126105   4.919   2.157   8.379
 8591SOL    HW226106   5.067   2.153   8.448
 8592SOL     OW26107   4.531   2.467   8.913
 8592SOL    HW126108   4.484   2.464   9.002
 8592SOL    HW226109   4.480   2.412   8.847
 8593SOL     OW26110   5.118   2.331   9.122
 8593SOL    HW126111   5.098   2.374   9.210
 8593SOL    HW226112   5.196   2.269   9.131
 8594SOL     OW26113   4.697   2.752   9.020
 8594SOL    HW126114   4.743   2.668   8.991
 8594SOL    HW226115   4.641   2.786   8.945
 8595SOL     OW26116   4.715   2.272   8.690
 8595SOL    HW126117   4.638   2.306   8.744
 8595SOL    HW226118   4.681   2.221   8.611
 8596SOL     OW26119   4.765   2.563   7.877
 8596SOL    HW126120   4.791   2.559   7.973
 8596SOL    HW226121   4.680   2.512   7.863
 8597SOL     OW26122   3.800   2.673   8.237
 8597SOL    HW126123   3.899   2.661   8.246
 8597SOL    HW226124   3.776   2.768   8.258
 8598SOL     OW26125   3.854   3.683   9.019
 8598SOL    HW126126   3.844   3.668   9.118
 8598SOL    HW226127   3.768   3.719   8.983
 8599SOL     OW26128   4.589   2.210   7.643
 8599SOL    HW126129   4.648   2.273   7.594
 8599SOL    HW226130   4.608   2.116   7.614
 8600SOL     OW26131   5.086   3.006   7.993
 8600SOL    HW126132   5.169   2.977   7.945
 8600SOL    HW226133   5.037   3.073   7.937
 8601SOL     OW26134   4.274   2.058   8.333
 8601SOL    HW126135   4.269   2.053   8.433
 8601SOL    HW226136   4.276   2.154   8.304
 8602SOL     OW26137   4.732   3.318   7.925
 8602SOL    HW126138   4.686   3.390   7.873
 8602SOL    HW226139   4.728   3.338   8.023
 8603SOL     OW26140   4.075   3.663   8.301
 8603SOL    HW126141   4.125   3.577   8.307
 8603SOL    HW226142   4.140   3.740   8.298
 8604SOL     OW26143   4.951   3.412   8.954
 8604SOL    HW126144   4.957   3.335   9.018
 8604SOL    HW226145   4.899   3.386   8.874
 8605SOL     OW26146   4.045   2.805   7.690
 8605SOL    HW126147   4.127   2.844   7.648
 8605SOL    HW226148   4.018   2.723   7.641
 8606SOL     OW26149   4.185   3.128   9.175
 8606SOL    HW126150   4.135   3.129   9.089
 8606SOL    HW226151   4.122   3.110   9.251
 8607SOL     OW26152   4.835   3.638   7.685
 8607SOL    HW126153   4.775   3.576   7.735
 8607SOL    HW226154   4.866   3.594   7.600
 8608SOL     OW26155   3.926   2.147   8.946
 8608SOL    HW126156   3.846   2.207   8.933
 8608SOL    HW226157   3.916   2.098   9.032
 8609SOL     OW26158   4.188   3.605   7.771
 8609SOL    HW126159   4.221   3.644   7.857
 8609SOL    HW226160   4.264   3.598   7.706
 8610SOL     OW26161   5.124   1.969   7.874
 8610SOL    HW126162   5.100   1.932   7.784
 8610SOL    HW226163   5.223   1.985   7.878
 8611SOL     OW26164   3.973   3.647   8.689
 8611SOL    HW126165   4.030   3.582   8.739
 8611SOL    HW226166   3.957   3.614   8.596
 8612SOL     OW26167   4.664   3.560   8.352
 8612SOL    HW126168   4.744   3.503   8.373
 8612SOL    HW226169   4.615   3.520   8.275
 8613SOL     OW26170   4.106   2.562   7.928
 8613SOL    HW126171   4.151   2.472   7.925
 8613SOL    HW226172   4.012   2.551   7.961
 8614SOL     OW26173   4.338   1.984   7.565
 8614SOL    HW126174   4.436   1.962   7.572
 8614SOL    HW226175   4.307   1.967   7.472
 8615SOL     OW26176   4.505   2.126   9.197
 8615SOL    HW126177   4.572   2.065   9.240
 8615SOL    HW226178   4.432   2.145   9.262
 8616SOL     OW26179   4.612   3.376   8.643
 8616SOL    HW126180   4.589   3.351   8.549
 8616SOL    HW226181   4.673   3.307   8.682
 8617SOL     OW26182   5.075   2.452   8.881
 8617SOL    HW126183   5.103   2.409   8.966
 8617SOL    HW226184   5.100   2.548   8.882
 8618SOL     OW26185   4.527   3.264   8.372
 8618SOL    HW126186   4.617   3.278   8.330
 8618SOL    HW226187   4.456   3.266   8.301
 8619SOL     OW26188   4.646   2.365   8.347
 8619SOL    HW126189   4.621   2.356   8.251
 8619SOL    HW226190   4.694   2.283   8.378
 8620SOL     OW26191   4.263   1.926   7.960
 8620SOL    HW126192   4.182   1.927   8.018
 8620SOL    HW226193   4.266   2.009   7.905
 8621SOL     OW26194   5.158   3.050   7.489
 8621SOL    HW126195   5.190   2.974   7.546
 8621SOL    HW226196   5.066   3.077   7.519
 8622SOL     OW26197   4.021   1.897   7.619
 8622SOL    HW126198   4.070   1.981   7.598
 8622SOL    HW226199   4.083   1.832   7.664
 8623SOL     OW26200   4.659   2.098   7.928
 8623SOL    HW126201   4.611   2.139   7.850
 8623SOL    HW226202   4.758   2.096   7.909
 8624SOL     OW26203   4.800   2.545   8.912
 8624SOL    HW126204   4.720   2.484   8.915
 8624SOL    HW226205   4.881   2.492   8.888
 8625SOL     OW26206   4.951   3.432   8.241
 8625SOL    HW126207   4.972   3.506   8.176
 8625SOL    HW226208   5.019   3.432   8.314
 8626SOL     OW26209   4.183   3.014   8.189
 8626SOL    HW126210   4.112   2.987   8.254
 8626SOL    HW226211   4.157   2.986   8.096
 8627SOL     OW26212   4.995   3.659   8.039
 8627SOL    HW126213   5.039   3.723   7.975
 8627SOL    HW226214   4.945   3.711   8.109
 8628SOL     OW26215   4.756   2.411   7.464
 8628SOL    HW126216   4.715   2.493   7.425
 8628SOL    HW226217   4.820   2.437   7.537
 8629SOL     OW26218   3.802   2.418   8.834
 8629SOL    HW126219   3.894   2.417   8.793
 8629SOL    HW226220   3.796   2.492   8.901
 8630SOL     OW26221   4.285   2.084   8.595
 8630SOL    HW126222   4.323   2.000   8.632
 8630SOL    HW226223   4.197   2.103   8.639
 8631SOL     OW26224   4.590   2.316   8.090
 8631SOL    HW126225   4.558   2.388   8.028
 8631SOL    HW226226   4.614   2.235   8.037
 8632SOL     OW26227   4.741   1.901   8.201
 8632SOL    HW126228   4.669   1.906   8.132
 8632SOL    HW226229   4.717   1.832   8.270
 8633SOL     OW26230   5.153   3.035   8.315
 8633SOL    HW126231   5.098   2.951   8.308
 8633SOL    HW226232   5.179   3.064   8.223
 8634SOL     OW26233   4.212   3.247   7.622
 8634SOL    HW126234   4.125   3.232   7.669
 8634SOL    HW226235   4.195   3.273   7.527
 8635SOL     OW26236   5.114   2.437   7.526
 8635SOL    HW126237   5.060   2.416   7.607
 8635SOL    HW226238   5.205   2.396   7.535
 8636SOL     OW26239   4.251   2.118   7.776
 8636SOL    HW126240   4.278   2.059   7.701
 8636SOL    HW226241   4.251   2.213   7.745
 8637SOL     OW26242   4.788   3.209   8.788
 8637SOL    HW126243   4.708   3.186   8.843
 8637SOL    HW226244   4.871   3.183   8.837
 8638SOL     OW26245   5.316   3.491   9.073
 8638SOL    HW126246   5.343   3.525   8.983
 8638SOL    HW226247   5.395   3.453   9.119
 8639SOL     OW26248   4.835   3.057   8.548
 8639SOL    HW126249   4.795   3.101   8.629
 8639SOL    HW226250   4.794   3.094   8.465
 8640SOL     OW26251   4.639   1.951   8.850
 8640SOL    HW126252   4.664   1.931   8.755
 8640SOL    HW226253   4.711   2.007   8.892
 8641SOL     OW26254   4.704   2.978   9.167
 8641SOL    HW126255   4.605   2.984   9.177
 8641SOL    HW226256   4.727   2.898   9.111
 8642SOL     OW26257   4.429   2.912   7.816
 8642SOL    HW126258   4.415   2.919   7.915
 8642SOL    HW226259   4.513   2.861   7.798
 8643SOL     OW26260   4.134   2.675   8.699
 8643SOL    HW126261   4.220   2.687   8.749
 8643SOL    HW226262   4.092   2.588   8.726
 8644SOL     OW26263   4.998   2.248   8.710
 8644SOL    HW126264   5.019   2.322   8.774
 8644SOL    HW226265   4.909   2.265   8.667
 8645SOL     OW26266   3.788   3.426   8.779
 8645SOL    HW126267   3.742   3.508   8.745
 8645SOL    HW226268   3.886   3.445   8.788
 8646SOL     OW26269   4.091   2.962   7.949
 8646SOL    HW126270   4.084   3.045   7.893
 8646SOL    HW226271   4.095   2.882   7.889
 8647SOL     OW26272   4.290   2.399   8.313
 8647SOL    HW126273   4.302   2.465   8.239
 8647SOL    HW226274   4.336   2.433   8.396
 8648SOL     OW26275   4.976   3.210   7.836
 8648SOL    HW126276   5.026   3.287   7.876
 8648SOL    HW226277   4.881   3.212   7.868
 8649SOL     OW26278   4.996   3.307   8.590
 8649SOL    HW126279   5.043   3.320   8.677
 8649SOL    HW226280   4.930   3.233   8.599
 8650SOL     OW26281   4.078   3.372   8.777
 8650SOL    HW126282   4.057   3.328   8.690
 8650SOL    HW226283   4.175   3.398   8.780
 8651SOL     OW26284   4.126   2.613   9.046
 8651SOL    HW126285   4.194   2.668   8.999
 8651SOL    HW226286   4.166   2.525   9.073
 8652SOL     OW26287   4.737   1.967   9.218
 8652SOL    HW126288   4.743   2.052   9.166
 8652SOL    HW226289   4.769   1.891   9.161
 8653SOL     OW26290   4.228   1.912   9.188
 8653SOL    HW126291   4.186   1.855   9.118
 8653SOL    HW226292   4.162   1.981   9.220
 8654SOL     OW26293   4.297   2.732   8.477
 8654SOL    HW126294   4.341   2.821   8.468
 8654SOL    HW226295   4.234   2.732   8.554
 8655SOL     OW26296   5.084   2.724   8.493
 8655SOL    HW126297   5.009   2.724   8.427
 8655SOL    HW226298   5.121   2.632   8.502
 8656SOL     OW26299   4.933   2.387   7.723
 8656SOL    HW126300   4.946   2.303   7.777
 8656SOL    HW226301   4.904   2.461   7.783
 8657SOL     OW26302   4.031   2.075   8.679
 8657SOL    HW126303   4.008   2.112   8.769
 8657SOL    HW226304   4.001   1.980   8.673
 8658SOL     OW26305   3.761   3.172   8.730
 8658SOL    HW126306   3.814   3.123   8.798
 8658SOL    HW226307   3.783   3.270   8.735
 8659SOL     OW26308   4.456   2.496   8.512
 8659SOL    HW126309   4.515   2.470   8.436
 8659SOL    HW226310   4.428   2.592   8.501
 8660SOL     OW26311   4.031   1.925   8.066
 8660SOL    HW126312   4.020   2.019   8.099
 8660SOL    HW226313   4.026   1.862   8.143
 8661SOL     OW26314   5.346   2.229   7.822
 8661SOL    HW126315   5.348   2.153   7.886
 8661SOL    HW226316   5.298   2.306   7.862
 8662SOL     OW26317   4.747   2.628   8.414
 8662SOL    HW126318   4.762   2.649   8.510
 8662SOL    HW226319   4.717   2.533   8.405
 8663SOL     OW26320   4.704   3.435   9.148
 8663SOL    HW126321   4.684   3.479   9.060
 8663SOL    HW226322   4.743   3.344   9.132
 8664SOL     OW26323   4.074   2.760   9.252
 8664SOL    HW126324   4.150   2.804   9.300
 8664SOL    HW226325   4.109   2.713   9.170
 8665SOL     OW26326   5.027   2.700   7.490
 8665SOL    HW126327   5.061   2.607   7.505
 8665SOL    HW226328   5.045   2.727   7.395
 8666SOL     OW26329   4.792   3.195   8.297
 8666SOL    HW126330   4.799   3.111   8.242
 8666SOL    HW226331   4.854   3.264   8.261
 8667SOL     OW26332   4.043   2.672   8.397
 8667SOL    HW126333   4.136   2.708   8.402
 8667SOL    HW226334   4.037   2.587   8.449
 8668SOL     OW26335   4.063   2.371   8.454
 8668SOL    HW126336   4.011   2.288   8.437
 8668SOL    HW226337   4.140   2.376   8.390
 8669SOL     OW26338   4.862   2.242   9.126
 8669SOL    HW126339   4.817   2.305   9.190
 8669SOL    HW226340   4.955   2.273   9.109
 8670SOL     OW26341   4.884   2.069   8.925
 8670SOL    HW126342   4.884   2.133   9.002
 8670SOL    HW226343   4.912   2.117   8.842
 8671SOL     OW26344   3.732   3.188   7.648
 8671SOL    HW126345   3.639   3.209   7.617
 8671SOL    HW226346   3.742   3.089   7.661
 8672SOL     OW26347   3.812   3.663   8.375
 8672SOL    HW126348   3.770   3.577   8.348
 8672SOL    HW226349   3.906   3.666   8.341
 8673SOL     OW26350   4.228   3.430   8.358
 8673SOL    HW126351   4.294   3.504   8.367
 8673SOL    HW226352   4.272   3.351   8.316
 8674SOL     OW26353   4.726   2.658   8.686
 8674SOL    HW126354   4.767   2.626   8.772
 8674SOL    HW226355   4.630   2.631   8.683
 8675SOL     OW26356   3.764   2.406   8.562
 8675SOL    HW126357   3.849   2.373   8.521
 8675SOL    HW226358   3.777   2.421   8.660
 8676SOL     OW26359   3.913   2.382   9.170
 8676SOL    HW126360   3.972   2.342   9.100
 8676SOL    HW226361   3.855   2.453   9.129
 8677SOL     OW26362   5.093   2.812   9.108
 8677SOL    HW126363   5.132   2.901   9.128
 8677SOL    HW226364   5.103   2.792   9.011
 8678SOL     OW26365   4.539   2.434   7.773
 8678SOL    HW126366   4.546   2.345   7.727
 8678SOL    HW226367   4.445   2.468   7.765
 8679SOL     OW26368   3.976   3.426   9.192
 8679SOL    HW126369   3.946   3.483   9.268
 8679SOL    HW226370   3.969   3.329   9.218
 8680SOL     OW26371   4.395   2.326   8.717
 8680SOL    HW126372   4.361   2.237   8.687
 8680SOL    HW226373   4.421   2.380   8.637
 8681SOL     OW26374   4.654   3.540   8.913
 8681SOL    HW126375   4.630   3.522   8.818
 8681SOL    HW226376   4.684   3.634   8.923
 8682SOL     OW26377   4.197   2.362   7.639
 8682SOL    HW126378   4.258   2.442   7.643
 8682SOL    HW226379   4.102   2.393   7.646
 8683SOL     OW26380   3.883   2.999   8.914
 8683SOL    HW126381   3.905   2.938   8.990
 8683SOL    HW226382   3.893   2.950   8.828
 8684SOL     OW26383   5.071   2.921   8.682
 8684SOL    HW126384   5.095   2.858   8.608
 8684SOL    HW226385   4.981   2.961   8.664
 8685SOL     OW26386   5.026   2.717   7.757
 8685SOL    HW126387   4.940   2.686   7.799
 8685SOL    HW226388   5.022   2.703   7.658
 8686SOL     OW26389   4.976   3.593   8.576
 8686SOL    HW126390   5.060   3.598   8.522
 8686SOL    HW226391   4.953   3.497   8.594
 8687SOL     OW26392   3.807   3.120   8.470
 8687SOL    HW126393   3.802   3.119   8.570
 8687SOL    HW226394   3.724   3.079   8.432
 8688SOL     OW26395   4.412   3.524   9.164
 8688SOL    HW126396   4.356   3.605   9.173
 8688SOL    HW226397   4.464   3.528   9.078
 8689SOL     OW26398   5.450   1.997   7.971
 8689SOL    HW126399   5.523   1.980   7.904
 8689SOL    HW226400   5.419   1.910   8.009
 8690SOL     OW26401   5.112   3.435   7.925
 8690SOL    HW126402   5.179   3.447   7.851
 8690SOL    HW226403   5.072   3.524   7.948
 8691SOL     OW26404   3.854   3.656   9.299
 8691SOL    HW126405   3.813   3.582   9.352
 8691SOL    HW226406   3.918   3.707   9.357
 8692SOL     OW26407   5.004   2.789   8.120
 8692SOL    HW126408   5.064   2.708   8.122
 8692SOL    HW226409   5.044   2.858   8.060
 8693SOL     OW26410   4.554   3.135   8.870
 8693SOL    HW126411   4.549   3.168   8.965
 8693SOL    HW226412   4.468   3.154   8.824
 8694SOL     OW26413   4.396   3.478   7.602
 8694SOL    HW126414   4.405   3.488   7.503
 8694SOL    HW226415   4.356   3.389   7.623
 8695SOL     OW26416   3.987   2.188   8.168
 8695SOL    HW126417   3.908   2.239   8.134
 8695SOL    HW226418   3.978   2.173   8.266
 8696SOL     OW26419   4.918   3.474   7.479
 8696SOL    HW126420   4.924   3.381   7.516
 8696SOL    HW226421   4.859   3.474   7.399
 8697SOL     OW26422   4.546   2.864   8.820
 8697SOL    HW126423   4.586   2.863   8.728
 8697SOL    HW226424   4.556   2.956   8.860
 8698SOL     OW26425   4.640   2.772   7.739
 8698SOL    HW126426   4.703   2.810   7.671
 8698SOL    HW226427   4.680   2.689   7.778
 8699SOL     OW26428   4.096   3.150   8.938
 8699SOL    HW126429   4.083   3.243   8.904
 8699SOL    HW226430   4.012   3.098   8.925
 8700SOL     OW26431   4.763   2.960   8.144
 8700SOL    HW126432   4.693   2.913   8.198
 8700SOL    HW226433   4.822   2.892   8.101
 8701SOL     OW26434   4.738   2.098   8.419
 8701SOL    HW126435   4.730   2.062   8.326
 8701SOL    HW226436   4.736   2.022   8.484
 8702SOL     OW26437   4.314   3.349   7.939
 8702SOL    HW126438   4.356   3.291   7.869
 8702SOL    HW226439   4.270   3.428   7.895
 8703SOL     OW26440   3.979   3.210   7.738
 8703SOL    HW126441   3.883   3.211   7.711
 8703SOL    HW226442   3.991   3.263   7.822
 8704SOL     OW26443   3.829   2.875   9.174
 8704SOL    HW126444   3.752   2.842   9.228
 8704SOL    HW226445   3.914   2.845   9.216
 8705SOL     OW26446   4.396   2.065   8.937
 8705SOL    HW126447   4.486   2.049   8.897
 8705SOL    HW226448   4.404   2.070   9.036
 8706SOL     OW26449   3.799   2.207   7.481
 8706SOL    HW126450   3.707   2.179   7.452
 8706SOL    HW226451   3.830   2.284   7.425
 8707SOL     OW26452   5.164   2.718   8.846
 8707SOL    HW126453   5.107   2.770   8.783
 8707SOL    HW226454   5.260   2.730   8.822
 8708SOL     OW26455   3.796   2.028   7.766
 8708SOL    HW126456   3.779   2.111   7.712
 8708SOL    HW226457   3.886   1.991   7.744
 8709SOL     OW26458   4.907   3.197   7.567
 8709SOL    HW126459   4.808   3.186   7.569
 8709SOL    HW226460   4.941   3.212   7.660
 8710SOL     OW26461   4.337   2.704   8.879
 8710SOL    HW126462   4.393   2.785   8.862
 8710SOL    HW226463   4.396   2.624   8.882
 8711SOL     OW26464   4.440   2.427   9.156
 8711SOL    HW126465   4.459   2.492   9.230
 8711SOL    HW226466   4.500   2.347   9.165
 8712SOL     OW26467   5.174   3.082   9.081
 8712SOL    HW126468   5.165   3.072   9.180
 8712SOL    HW226469   5.270   3.075   9.055
 8713SOL     OW26470   4.114   3.603   9.008
 8713SOL    HW126471   4.023   3.644   9.006
 8713SOL    HW226472   4.107   3.509   9.040
 8714SOL     OW26473   4.949   2.187   7.897
 8714SOL    HW126474   5.014   2.113   7.886
 8714SOL    HW226475   4.969   2.237   7.981
 8715SOL     OW26476   4.318   2.607   8.100
 8715SOL    HW126477   4.368   2.692   8.081
 8715SOL    HW226478   4.230   2.609   8.052
 8716SOL     OW26479   4.583   3.236   7.464
 8716SOL    HW126480   4.537   3.251   7.552
 8716SOL    HW226481   4.627   3.321   7.434
 8717SOL     OW26482   4.385   3.652   8.401
 8717SOL    HW126483   4.339   3.740   8.388
 8717SOL    HW226484   4.484   3.664   8.394
 8718SOL     OW26485   4.583   2.818   8.309
 8718SOL    HW126486   4.637   2.749   8.357
 8718SOL    HW226487   4.551   2.887   8.375
 8719SOL     OW26488   4.807   2.846   7.535
 8719SOL    HW126489   4.784   2.899   7.453
 8719SOL    HW226490   4.888   2.790   7.516
 8720SOL     OW26491   3.945   3.176   9.292
 8720SOL    HW126492   3.880   3.103   9.271
 8720SOL    HW226493   3.949   3.190   9.390
 8721SOL     OW26494   3.803   3.102   8.101
 8721SOL    HW126495   3.802   3.055   8.189
 8721SOL    HW226496   3.885   3.074   8.050
 8722SOL     OW26497   4.396   3.253   9.072
 8722SOL    HW126498   4.318   3.203   9.110
 8722SOL    HW226499   4.393   3.348   9.103
 8723SOL     OW26500   4.152   2.286   7.968
 8723SOL    HW126501   4.182   2.214   7.906
 8723SOL    HW226502   4.113   2.246   8.051
 8724SOL     OW26503   5.429   3.349   8.552
 8724SOL    HW126504   5.336   3.324   8.525
 8724SOL    HW226505   5.455   3.299   8.634
 8725SOL     OW26506   4.041   2.409   8.728
 8725SOL    HW126507   4.079   2.350   8.800
 8725SOL    HW226508   4.081   2.383   8.640
 8726SOL     OW26509   4.536   3.448   8.135
 8726SOL    HW126510   4.568   3.458   8.041
 8726SOL    HW226511   4.457   3.386   8.137
 8727SOL     OW26512   5.148   2.076   8.560
 8727SOL    HW126513   5.200   2.011   8.615
 8727SOL    HW226514   5.099   2.139   8.621
 8728SOL     OW26515   4.725   1.896   8.602
 8728SOL    HW126516   4.662   1.824   8.571
 8728SOL    HW226517   4.818   1.860   8.602
 8729SOL     OW26518   4.494   3.192   7.749
 8729SOL    HW126519   4.448   3.105   7.766
 8729SOL    HW226520   4.585   3.189   7.790
 8730SOL     OW26521   4.342   3.429   8.732
 8730SOL    HW126522   4.337   3.511   8.789
 8730SOL    HW226523   4.431   3.426   8.687
 8731SOL     OW26524   5.076   1.914   7.616
 8731SOL    HW126525   5.111   1.873   7.532
 8731SOL    HW226526   4.986   1.876   7.636
 8732SOL     OW26527   5.024   2.315   8.139
 8732SOL    HW126528   4.965   2.395   8.143
 8732SOL    HW226529   5.039   2.280   8.232
 8733SOL     OW26530   5.317   2.083   8.330
 8733SOL    HW126531   5.233   2.082   8.384
 8733SOL    HW226532   5.319   2.166   8.274
 8734SOL     OW26533   3.763   2.939   7.748
 8734SOL    HW126534   3.862   2.928   7.739
 8734SOL    HW226535   3.723   2.853   7.780
 8735SOL     OW26536   4.599   3.508   7.785
 8735SOL    HW126537   4.522   3.473   7.731
 8735SOL    HW226538   4.567   3.579   7.847
 8736SOL     OW26539   3.954   2.490   9.423
 8736SOL    HW126540   3.861   2.488   9.460
 8736SOL    HW226541   3.955   2.451   9.331
 8737SOL     OW26542   3.949   2.137  10.306
 8737SOL    HW126543   3.984   2.120  10.398
 8737SOL    HW226544   3.861   2.092  10.294
 8738SOL     OW26545   3.743   2.230   9.957
 8738SOL    HW126546   3.661   2.273   9.996
 8738SOL    HW226547   3.715   2.157   9.894
 8739SOL     OW26548   4.293   3.137  10.475
 8739SOL    HW126549   4.200   3.130  10.438
 8739SOL    HW226550   4.304   3.226  10.519
 8740SOL     OW26551   5.279   3.373  10.013
 8740SOL    HW126552   5.222   3.357  10.094
 8740SOL    HW226553   5.220   3.383   9.933
 8741SOL     OW26554   4.859   2.565  10.027
 8741SOL    HW126555   4.916   2.643  10.002
 8741SOL    HW226556   4.799   2.591  10.103
 8742SOL     OW26557   4.492   3.006  10.333
 8742SOL    HW126558   4.414   3.023  10.393
 8742SOL    HW226559   4.526   3.093  10.297
 8743SOL     OW26560   4.409   2.874   9.975
 8743SOL    HW126561   4.478   2.858  10.045
 8743SOL    HW226562   4.336   2.931  10.013
 8744SOL     OW26563   4.059   3.297  10.371
 8744SOL    HW126564   3.981   3.266  10.318
 8744SOL    HW226565   4.117   3.355  10.314
 8745SOL     OW26566   5.184   3.367  10.649
 8745SOL    HW126567   5.208   3.461  10.675
 8745SOL    HW226568   5.168   3.313  10.731
 8746SOL     OW26569   4.162   2.254  10.809
 8746SOL    HW126570   4.244   2.198  10.818
 8746SOL    HW226571   4.081   2.196  10.813
 8747SOL     OW26572   3.955   3.575   9.793
 8747SOL    HW126573   3.989   3.652   9.847
 8747SOL    HW226574   3.999   3.575   9.703
 8748SOL     OW26575   3.954   3.296   9.848
 8748SOL    HW126576   3.928   3.392   9.848
 8748SOL    HW226577   3.883   3.242   9.893
 8749SOL     OW26578   3.964   2.953  10.196
 8749SOL    HW126579   3.978   2.869  10.248
 8749SOL    HW226580   3.909   3.017  10.251
 8750SOL     OW26581   4.344   3.648  10.749
 8750SOL    HW126582   4.252   3.631  10.784
 8750SOL    HW226583   4.372   3.740  10.775
 8751SOL     OW26584   4.330   2.826   9.433
 8751SOL    HW126585   4.337   2.910   9.379
 8751SOL    HW226586   4.376   2.839   9.521
 8752SOL     OW26587   3.846   2.505   9.873
 8752SOL    HW126588   3.801   2.417   9.890
 8752SOL    HW226589   3.845   2.559   9.957
 8753SOL     OW26590   3.751   3.458   9.427
 8753SOL    HW126591   3.732   3.362   9.448
 8753SOL    HW226592   3.718   3.516   9.502
 8754SOL     OW26593   5.413   2.784   9.922
 8754SOL    HW126594   5.508   2.755   9.930
 8754SOL    HW226595   5.405   2.849   9.847
 8755SOL     OW26596   4.337   3.227  10.036
 8755SOL    HW126597   4.288   3.140  10.045
 8755SOL    HW226598   4.314   3.270   9.949
 8756SOL     OW26599   4.533   1.866   9.812
 8756SOL    HW126600   4.573   1.957   9.803
 8756SOL    HW226601   4.433   1.874   9.818
 8757SOL     OW26602   3.921   2.838  10.574
 8757SOL    HW126603   4.010   2.793  10.560
 8757SOL    HW226604   3.848   2.773  10.555
 8758SOL     OW26605   5.190   3.279  10.263
 8758SOL    HW126606   5.131   3.285  10.343
 8758SOL    HW226607   5.175   3.191  10.217
 8759SOL     OW26608   4.322   2.591   9.580
 8759SOL    HW126609   4.346   2.660   9.512
 8759SOL    HW226610   4.244   2.624   9.634
 8760SOL     OW26611   5.005   2.207  10.254
 8760SOL    HW126612   4.919   2.157  10.241
 8760SOL    HW226613   5.067   2.153  10.310
 8761SOL     OW26614   4.531   2.467  10.775
 8761SOL    HW126615   4.484   2.464  10.864
 8761SOL    HW226616   4.480   2.412  10.709
 8762SOL     OW26617   4.715   2.272  10.552
 8762SOL    HW126618   4.638   2.306  10.606
 8762SOL    HW226619   4.681   2.221  10.473
 8763SOL     OW26620   4.765   2.563   9.739
 8763SOL    HW126621   4.791   2.559   9.835
 8763SOL    HW226622   4.680   2.512   9.725
 8764SOL     OW26623   3.800   2.673  10.099
 8764SOL    HW126624   3.899   2.661  10.108
 8764SOL    HW226625   3.776   2.768  10.120
 8765SOL     OW26626   3.854   3.683  10.881
 8765SOL    HW126627   3.844   3.668  10.980
 8765SOL    HW226628   3.768   3.719  10.845
 8766SOL     OW26629   4.589   2.210   9.505
 8766SOL    HW126630   4.648   2.273   9.456
 8766SOL    HW226631   4.608   2.116   9.476
 8767SOL     OW26632   5.086   3.006   9.855
 8767SOL    HW126633   5.169   2.977   9.807
 8767SOL    HW226634   5.037   3.073   9.799
 8768SOL     OW26635   4.274   2.058  10.195
 8768SOL    HW126636   4.269   2.053  10.295
 8768SOL    HW226637   4.276   2.154  10.166
 8769SOL     OW26638   4.732   3.318   9.787
 8769SOL    HW126639   4.686   3.390   9.735
 8769SOL    HW226640   4.728   3.338   9.885
 8770SOL     OW26641   4.075   3.663  10.163
 8770SOL    HW126642   4.125   3.577  10.169
 8770SOL    HW226643   4.140   3.740  10.160
 8771SOL     OW26644   4.045   2.805   9.552
 8771SOL    HW126645   4.127   2.844   9.510
 8771SOL    HW226646   4.018   2.723   9.503
 8772SOL     OW26647   4.835   3.638   9.547
 8772SOL    HW126648   4.775   3.576   9.597
 8772SOL    HW226649   4.866   3.594   9.462
 8773SOL     OW26650   4.188   3.605   9.633
 8773SOL    HW126651   4.221   3.644   9.719
 8773SOL    HW226652   4.264   3.598   9.568
 8774SOL     OW26653   5.124   1.969   9.736
 8774SOL    HW126654   5.100   1.932   9.646
 8774SOL    HW226655   5.223   1.985   9.740
 8775SOL     OW26656   3.973   3.647  10.551
 8775SOL    HW126657   4.030   3.582  10.601
 8775SOL    HW226658   3.957   3.614  10.458
 8776SOL     OW26659   4.664   3.560  10.214
 8776SOL    HW126660   4.744   3.503  10.235
 8776SOL    HW226661   4.615   3.520  10.137
 8777SOL     OW26662   4.106   2.562   9.790
 8777SOL    HW126663   4.151   2.472   9.787
 8777SOL    HW226664   4.012   2.551   9.823
 8778SOL     OW26665   4.338   1.984   9.427
 8778SOL    HW126666   4.436   1.962   9.434
 8778SOL    HW226667   4.307   1.967   9.334
 8779SOL     OW26668   4.612   3.376  10.505
 8779SOL    HW126669   4.589   3.351  10.411
 8779SOL    HW226670   4.673   3.307  10.544
 8780SOL     OW26671   4.527   3.264  10.234
 8780SOL    HW126672   4.617   3.278  10.192
 8780SOL    HW226673   4.456   3.266  10.163
 8781SOL     OW26674   4.646   2.365  10.209
 8781SOL    HW126675   4.621   2.356  10.113
 8781SOL    HW226676   4.694   2.283  10.240
 8782SOL     OW26677   4.263   1.926   9.822
 8782SOL    HW126678   4.182   1.927   9.880
 8782SOL    HW226679   4.266   2.009   9.767
 8783SOL     OW26680   5.158   3.050   9.351
 8783SOL    HW126681   5.190   2.974   9.408
 8783SOL    HW226682   5.066   3.077   9.381
 8784SOL     OW26683   4.021   1.897   9.481
 8784SOL    HW126684   4.070   1.981   9.460
 8784SOL    HW226685   4.083   1.832   9.526
 8785SOL     OW26686   4.659   2.098   9.790
 8785SOL    HW126687   4.611   2.139   9.712
 8785SOL    HW226688   4.758   2.096   9.771
 8786SOL     OW26689   4.951   3.432  10.103
 8786SOL    HW126690   4.972   3.506  10.038
 8786SOL    HW226691   5.019   3.432  10.176
 8787SOL     OW26692   4.183   3.014  10.051
 8787SOL    HW126693   4.112   2.987  10.116
 8787SOL    HW226694   4.157   2.986   9.958
 8788SOL     OW26695   4.995   3.659   9.901
 8788SOL    HW126696   5.039   3.723   9.837
 8788SOL    HW226697   4.945   3.711   9.971
 8789SOL     OW26698   4.756   2.411   9.326
 8789SOL    HW126699   4.715   2.493   9.287
 8789SOL    HW226700   4.820   2.437   9.399
 8790SOL     OW26701   4.285   2.084  10.457
 8790SOL    HW126702   4.323   2.000  10.494
 8790SOL    HW226703   4.197   2.103  10.501
 8791SOL     OW26704   4.590   2.316   9.952
 8791SOL    HW126705   4.558   2.388   9.890
 8791SOL    HW226706   4.614   2.235   9.899
 8792SOL     OW26707   4.741   1.901  10.063
 8792SOL    HW126708   4.669   1.906   9.994
 8792SOL    HW226709   4.717   1.832  10.132
 8793SOL     OW26710   5.153   3.035  10.177
 8793SOL    HW126711   5.098   2.951  10.170
 8793SOL    HW226712   5.179   3.064  10.085
 8794SOL     OW26713   4.212   3.247   9.484
 8794SOL    HW126714   4.125   3.232   9.531
 8794SOL    HW226715   4.195   3.273   9.389
 8795SOL     OW26716   5.114   2.437   9.388
 8795SOL    HW126717   5.060   2.416   9.469
 8795SOL    HW226718   5.205   2.396   9.397
 8796SOL     OW26719   4.251   2.118   9.638
 8796SOL    HW126720   4.278   2.059   9.563
 8796SOL    HW226721   4.251   2.213   9.607
 8797SOL     OW26722   4.788   3.209  10.650
 8797SOL    HW126723   4.708   3.186  10.705
 8797SOL    HW226724   4.871   3.183  10.699
 8798SOL     OW26725   4.835   3.057  10.410
 8798SOL    HW126726   4.795   3.101  10.491
 8798SOL    HW226727   4.794   3.094  10.327
 8799SOL     OW26728   4.429   2.912   9.678
 8799SOL    HW126729   4.415   2.919   9.777
 8799SOL    HW226730   4.513   2.861   9.660
 8800SOL     OW26731   4.134   2.675  10.561
 8800SOL    HW126732   4.220   2.687  10.611
 8800SOL    HW226733   4.092   2.588  10.588
 8801SOL     OW26734   4.998   2.248  10.572
 8801SOL    HW126735   5.019   2.322  10.636
 8801SOL    HW226736   4.909   2.265  10.529
 8802SOL     OW26737   3.788   3.426  10.641
 8802SOL    HW126738   3.742   3.508  10.607
 8802SOL    HW226739   3.886   3.445  10.650
 8803SOL     OW26740   4.091   2.962   9.811
 8803SOL    HW126741   4.084   3.045   9.755
 8803SOL    HW226742   4.095   2.882   9.751
 8804SOL     OW26743   4.290   2.399  10.175
 8804SOL    HW126744   4.302   2.465  10.101
 8804SOL    HW226745   4.336   2.433  10.258
 8805SOL     OW26746   4.976   3.210   9.698
 8805SOL    HW126747   5.026   3.287   9.738
 8805SOL    HW226748   4.881   3.212   9.730
 8806SOL     OW26749   4.996   3.307  10.452
 8806SOL    HW126750   5.043   3.320  10.539
 8806SOL    HW226751   4.930   3.233  10.461
 8807SOL     OW26752   4.078   3.372  10.639
 8807SOL    HW126753   4.057   3.328  10.552
 8807SOL    HW226754   4.175   3.398  10.642
 8808SOL     OW26755   5.311   2.641  10.980
 8808SOL    HW126756   5.219   2.679  10.975
 8808SOL    HW226757   5.371   2.688  10.915
 8809SOL     OW26758   4.228   1.912  11.050
 8809SOL    HW126759   4.186   1.855  10.980
 8809SOL    HW226760   4.162   1.981  11.082
 8810SOL     OW26761   4.297   2.732  10.339
 8810SOL    HW126762   4.341   2.821  10.330
 8810SOL    HW226763   4.234   2.732  10.416
 8811SOL     OW26764   5.084   2.724  10.355
 8811SOL    HW126765   5.009   2.724  10.289
 8811SOL    HW226766   5.121   2.632  10.364
 8812SOL     OW26767   4.933   2.387   9.585
 8812SOL    HW126768   4.946   2.303   9.639
 8812SOL    HW226769   4.904   2.461   9.645
 8813SOL     OW26770   4.031   2.075  10.541
 8813SOL    HW126771   4.008   2.112  10.631
 8813SOL    HW226772   4.001   1.980  10.535
 8814SOL     OW26773   3.761   3.172  10.592
 8814SOL    HW126774   3.814   3.123  10.660
 8814SOL    HW226775   3.783   3.270  10.597
 8815SOL     OW26776   4.456   2.496  10.374
 8815SOL    HW126777   4.515   2.470  10.298
 8815SOL    HW226778   4.428   2.592  10.363
 8816SOL     OW26779   4.031   1.925   9.928
 8816SOL    HW126780   4.020   2.019   9.961
 8816SOL    HW226781   4.026   1.862  10.005
 8817SOL     OW26782   5.346   2.229   9.684
 8817SOL    HW126783   5.348   2.153   9.748
 8817SOL    HW226784   5.298   2.306   9.724
 8818SOL     OW26785   4.747   2.628  10.276
 8818SOL    HW126786   4.762   2.649  10.372
 8818SOL    HW226787   4.717   2.533  10.267
 8819SOL     OW26788   5.027   2.700   9.352
 8819SOL    HW126789   5.061   2.607   9.367
 8819SOL    HW226790   5.045   2.727   9.257
 8820SOL     OW26791   4.792   3.195  10.159
 8820SOL    HW126792   4.799   3.111  10.104
 8820SOL    HW226793   4.854   3.264  10.123
 8821SOL     OW26794   4.043   2.672  10.259
 8821SOL    HW126795   4.136   2.708  10.264
 8821SOL    HW226796   4.037   2.587  10.311
 8822SOL     OW26797   4.063   2.371  10.316
 8822SOL    HW126798   4.011   2.288  10.299
 8822SOL    HW226799   4.140   2.376  10.252
 8823SOL     OW26800   4.884   2.069  10.787
 8823SOL    HW126801   4.884   2.133  10.864
 8823SOL    HW226802   4.912   2.117  10.704
 8824SOL     OW26803   3.732   3.188   9.510
 8824SOL    HW126804   3.639   3.209   9.479
 8824SOL    HW226805   3.742   3.089   9.523
 8825SOL     OW26806   3.812   3.663  10.237
 8825SOL    HW126807   3.770   3.577  10.210
 8825SOL    HW226808   3.906   3.666  10.203
 8826SOL     OW26809   4.228   3.430  10.220
 8826SOL    HW126810   4.294   3.504  10.229
 8826SOL    HW226811   4.272   3.351  10.178
 8827SOL     OW26812   4.726   2.658  10.548
 8827SOL    HW126813   4.767   2.626  10.634
 8827SOL    HW226814   4.630   2.631  10.545
 8828SOL     OW26815   3.764   2.406  10.424
 8828SOL    HW126816   3.849   2.373  10.383
 8828SOL    HW226817   3.777   2.421  10.522
 8829SOL     OW26818   4.539   2.434   9.635
 8829SOL    HW126819   4.546   2.345   9.589
 8829SOL    HW226820   4.445   2.468   9.627
 8830SOL     OW26821   4.395   2.326  10.579
 8830SOL    HW126822   4.361   2.237  10.549
 8830SOL    HW226823   4.421   2.380  10.499
 8831SOL     OW26824   4.654   3.540  10.775
 8831SOL    HW126825   4.630   3.522  10.680
 8831SOL    HW226826   4.684   3.634  10.785
 8832SOL     OW26827   4.197   2.362   9.501
 8832SOL    HW126828   4.258   2.442   9.505
 8832SOL    HW226829   4.102   2.393   9.508
 8833SOL     OW26830   3.883   2.999  10.776
 8833SOL    HW126831   3.905   2.938  10.852
 8833SOL    HW226832   3.893   2.950  10.690
 8834SOL     OW26833   5.071   2.921  10.544
 8834SOL    HW126834   5.095   2.858  10.470
 8834SOL    HW226835   4.981   2.961  10.526
 8835SOL     OW26836   5.026   2.717   9.619
 8835SOL    HW126837   4.940   2.686   9.661
 8835SOL    HW226838   5.022   2.703   9.520
 8836SOL     OW26839   4.976   3.593  10.438
 8836SOL    HW126840   5.060   3.598  10.384
 8836SOL    HW226841   4.953   3.497  10.456
 8837SOL     OW26842   3.807   3.120  10.332
 8837SOL    HW126843   3.802   3.119  10.432
 8837SOL    HW226844   3.724   3.079  10.294
 8838SOL     OW26845   5.450   1.997   9.833
 8838SOL    HW126846   5.523   1.980   9.766
 8838SOL    HW226847   5.419   1.910   9.871
 8839SOL     OW26848   5.112   3.435   9.787
 8839SOL    HW126849   5.179   3.447   9.713
 8839SOL    HW226850   5.072   3.524   9.810
 8840SOL     OW26851   5.004   2.789   9.982
 8840SOL    HW126852   5.064   2.708   9.984
 8840SOL    HW226853   5.044   2.858   9.922
 8841SOL     OW26854   4.396   3.478   9.464
 8841SOL    HW126855   4.405   3.488   9.365
 8841SOL    HW226856   4.356   3.389   9.485
 8842SOL     OW26857   3.987   2.188  10.030
 8842SOL    HW126858   3.908   2.239   9.996
 8842SOL    HW226859   3.978   2.173  10.128
 8843SOL     OW26860   4.918   3.474   9.341
 8843SOL    HW126861   4.924   3.381   9.378
 8843SOL    HW226862   4.859   3.474   9.261
 8844SOL     OW26863   4.546   2.864  10.682
 8844SOL    HW126864   4.586   2.863  10.590
 8844SOL    HW226865   4.556   2.956  10.722
 8845SOL     OW26866   4.640   2.772   9.601
 8845SOL    HW126867   4.703   2.810   9.533
 8845SOL    HW226868   4.680   2.689   9.640
 8846SOL     OW26869   4.096   3.150  10.800
 8846SOL    HW126870   4.083   3.243  10.766
 8846SOL    HW226871   4.012   3.098  10.787
 8847SOL     OW26872   4.763   2.960  10.006
 8847SOL    HW126873   4.693   2.913  10.060
 8847SOL    HW226874   4.822   2.892   9.963
 8848SOL     OW26875   4.738   2.098  10.281
 8848SOL    HW126876   4.730   2.062  10.188
 8848SOL    HW226877   4.736   2.022  10.346
 8849SOL     OW26878   4.314   3.349   9.801
 8849SOL    HW126879   4.356   3.291   9.731
 8849SOL    HW226880   4.270   3.428   9.757
 8850SOL     OW26881   3.979   3.210   9.600
 8850SOL    HW126882   3.883   3.211   9.573
 8850SOL    HW226883   3.991   3.263   9.684
 8851SOL     OW26884   4.396   2.065  10.799
 8851SOL    HW126885   4.486   2.049  10.759
 8851SOL    HW226886   4.404   2.070  10.898
 8852SOL     OW26887   3.799   2.207   9.343
 8852SOL    HW126888   3.707   2.179   9.314
 8852SOL    HW226889   3.830   2.284   9.287
 8853SOL     OW26890   3.796   2.028   9.628
 8853SOL    HW126891   3.779   2.111   9.574
 8853SOL    HW226892   3.886   1.991   9.606
 8854SOL     OW26893   4.907   3.197   9.429
 8854SOL    HW126894   4.808   3.186   9.431
 8854SOL    HW226895   4.941   3.212   9.522
 8855SOL     OW26896   4.337   2.704  10.741
 8855SOL    HW126897   4.393   2.785  10.724
 8855SOL    HW226898   4.396   2.624  10.744
 8856SOL     OW26899   4.114   3.603  10.870
 8856SOL    HW126900   4.023   3.644  10.868
 8856SOL    HW226901   4.107   3.509  10.902
 8857SOL     OW26902   4.949   2.187   9.759
 8857SOL    HW126903   5.014   2.113   9.748
 8857SOL    HW226904   4.969   2.237   9.843
 8858SOL     OW26905   4.318   2.607   9.962
 8858SOL    HW126906   4.368   2.692   9.943
 8858SOL    HW226907   4.230   2.609   9.914
 8859SOL     OW26908   4.583   3.236   9.326
 8859SOL    HW126909   4.537   3.251   9.414
 8859SOL    HW226910   4.627   3.321   9.296
 8860SOL     OW26911   4.385   3.652  10.263
 8860SOL    HW126912   4.339   3.740  10.250
 8860SOL    HW226913   4.484   3.664  10.256
 8861SOL     OW26914   4.583   2.818  10.171
 8861SOL    HW126915   4.637   2.749  10.219
 8861SOL    HW226916   4.551   2.887  10.237
 8862SOL     OW26917   4.807   2.846   9.397
 8862SOL    HW126918   4.784   2.899   9.315
 8862SOL    HW226919   4.888   2.790   9.378
 8863SOL     OW26920   3.803   3.102   9.963
 8863SOL    HW126921   3.802   3.055  10.051
 8863SOL    HW226922   3.885   3.074   9.912
 8864SOL     OW26923   4.152   2.286   9.830
 8864SOL    HW126924   4.182   2.214   9.768
 8864SOL    HW226925   4.113   2.246   9.913
 8865SOL     OW26926   5.429   3.349  10.414
 8865SOL    HW126927   5.336   3.324  10.387
 8865SOL    HW226928   5.455   3.299  10.496
 8866SOL     OW26929   4.041   2.409  10.590
 8866SOL    HW126930   4.079   2.350  10.662
 8866SOL    HW226931   4.081   2.383  10.502
 8867SOL     OW26932   4.536   3.448   9.997
 8867SOL    HW126933   4.568   3.458   9.903
 8867SOL    HW226934   4.457   3.386   9.999
 8868SOL     OW26935   5.148   2.076  10.422
 8868SOL    HW126936   5.200   2.011  10.477
 8868SOL    HW226937   5.099   2.139  10.483
 8869SOL     OW26938   4.725   1.896  10.464
 8869SOL    HW126939   4.662   1.824  10.433
 8869SOL    HW226940   4.818   1.860  10.464
 8870SOL     OW26941   4.494   3.192   9.611
 8870SOL    HW126942   4.448   3.105   9.628
 8870SOL    HW226943   4.585   3.189   9.652
 8871SOL     OW26944   4.342   3.429  10.594
 8871SOL    HW126945   4.337   3.511  10.651
 8871SOL    HW226946   4.431   3.426  10.549
 8872SOL     OW26947   5.076   1.914   9.478
 8872SOL    HW126948   5.111   1.873   9.394
 8872SOL    HW226949   4.986   1.876   9.498
 8873SOL     OW26950   5.024   2.315  10.001
 8873SOL    HW126951   4.965   2.395  10.005
 8873SOL    HW226952   5.039   2.280  10.094
 8874SOL     OW26953   5.317   2.083  10.192
 8874SOL    HW126954   5.233   2.082  10.246
 8874SOL    HW226955   5.319   2.166  10.136
 8875SOL     OW26956   3.763   2.939   9.610
 8875SOL    HW126957   3.862   2.928   9.601
 8875SOL    HW226958   3.723   2.853   9.642
 8876SOL     OW26959   4.599   3.508   9.647
 8876SOL    HW126960   4.522   3.473   9.593
 8876SOL    HW226961   4.567   3.579   9.709
 8877SOL     OW26962   3.954   4.352   0.113
 8877SOL    HW126963   3.861   4.350   0.150
 8877SOL    HW226964   3.955   4.313   0.021
 8878SOL     OW26965   3.949   3.999   0.996
 8878SOL    HW126966   3.984   3.982   1.088
 8878SOL    HW226967   3.861   3.954   0.984
 8879SOL     OW26968   3.743   4.092   0.647
 8879SOL    HW126969   3.661   4.135   0.686
 8879SOL    HW226970   3.715   4.019   0.584
 8880SOL     OW26971   4.293   4.999   1.165
 8880SOL    HW126972   4.200   4.992   1.128
 8880SOL    HW226973   4.304   5.088   1.209
 8881SOL     OW26974   5.279   5.235   0.703
 8881SOL    HW126975   5.222   5.219   0.784
 8881SOL    HW226976   5.220   5.245   0.623
 8882SOL     OW26977   4.859   4.427   0.717
 8882SOL    HW126978   4.916   4.505   0.692
 8882SOL    HW226979   4.799   4.453   0.793
 8883SOL     OW26980   4.492   4.868   1.023
 8883SOL    HW126981   4.414   4.885   1.083
 8883SOL    HW226982   4.526   4.955   0.987
 8884SOL     OW26983   4.574   4.522   1.823
 8884SOL    HW126984   4.570   4.598   1.888
 8884SOL    HW226985   4.596   4.558   1.732
 8885SOL     OW26986   4.409   4.736   0.665
 8885SOL    HW126987   4.478   4.720   0.735
 8885SOL    HW226988   4.336   4.793   0.703
 8886SOL     OW26989   4.410   4.885   1.803
 8886SOL    HW126990   4.470   4.964   1.817
 8886SOL    HW226991   4.324   4.916   1.762
 8887SOL     OW26992   4.059   5.159   1.061
 8887SOL    HW126993   3.981   5.128   1.008
 8887SOL    HW226994   4.117   5.217   1.004
 8888SOL     OW26995   5.184   5.229   1.339
 8888SOL    HW126996   5.208   5.323   1.365
 8888SOL    HW226997   5.168   5.175   1.421
 8889SOL     OW26998   4.162   4.116   1.499
 8889SOL    HW126999   4.244   4.060   1.508
 8889SOL    HW227000   4.081   4.058   1.503
 8890SOL     OW27001   4.851   5.065   1.690
 8890SOL    HW127002   4.898   5.065   1.778
 8890SOL    HW227003   4.803   4.978   1.679
 8891SOL     OW27004   3.954   5.158   0.538
 8891SOL    HW127005   3.928   5.254   0.538
 8891SOL    HW227006   3.883   5.104   0.583
 8892SOL     OW27007   3.964   4.815   0.886
 8892SOL    HW127008   3.978   4.731   0.938
 8892SOL    HW227009   3.909   4.879   0.941
 8893SOL     OW27010   4.330   4.688   0.123
 8893SOL    HW127011   4.337   4.772   0.069
 8893SOL    HW227012   4.376   4.701   0.211
 8894SOL     OW27013   3.846   4.367   0.563
 8894SOL    HW127014   3.801   4.279   0.580
 8894SOL    HW227015   3.845   4.421   0.647
 8895SOL     OW27016   3.751   5.320   0.117
 8895SOL    HW127017   3.732   5.224   0.138
 8895SOL    HW227018   3.718   5.378   0.192
 8896SOL     OW27019   5.413   4.646   0.612
 8896SOL    HW127020   5.508   4.617   0.620
 8896SOL    HW227021   5.405   4.711   0.537
 8897SOL     OW27022   3.837   4.461   1.597
 8897SOL    HW127023   3.925   4.448   1.642
 8897SOL    HW227024   3.824   4.558   1.575
 8898SOL     OW27025   4.337   5.089   0.726
 8898SOL    HW127026   4.288   5.002   0.735
 8898SOL    HW227027   4.314   5.132   0.639
 8899SOL     OW27028   5.017   4.952   1.423
 8899SOL    HW127029   5.054   4.879   1.365
 8899SOL    HW227030   5.069   4.957   1.508
 8900SOL     OW27031   4.533   3.728   0.502
 8900SOL    HW127032   4.573   3.819   0.493
 8900SOL    HW227033   4.433   3.736   0.508
 8901SOL     OW27034   3.921   4.700   1.264
 8901SOL    HW127035   4.010   4.655   1.250
 8901SOL    HW227036   3.848   4.635   1.245
 8902SOL     OW27037   4.041   3.975   1.801
 8902SOL    HW127038   4.112   4.046   1.807
 8902SOL    HW227039   3.953   4.014   1.829
 8903SOL     OW27040   5.190   5.141   0.953
 8903SOL    HW127041   5.131   5.147   1.033
 8903SOL    HW227042   5.175   5.053   0.907
 8904SOL     OW27043   5.391   5.438   0.572
 8904SOL    HW127044   5.350   5.415   0.484
 8904SOL    HW227045   5.373   5.364   0.637
 8905SOL     OW27046   4.322   4.453   0.270
 8905SOL    HW127047   4.346   4.522   0.202
 8905SOL    HW227048   4.244   4.486   0.324
 8906SOL     OW27049   5.005   4.069   0.944
 8906SOL    HW127050   4.919   4.019   0.931
 8906SOL    HW227051   5.067   4.015   1.000
 8907SOL     OW27052   4.531   4.329   1.465
 8907SOL    HW127053   4.484   4.326   1.554
 8907SOL    HW227054   4.480   4.274   1.399
 8908SOL     OW27055   5.118   4.193   1.674
 8908SOL    HW127056   5.098   4.236   1.762
 8908SOL    HW227057   5.196   4.131   1.683
 8909SOL     OW27058   4.697   4.614   1.572
 8909SOL    HW127059   4.743   4.530   1.543
 8909SOL    HW227060   4.641   4.648   1.497
 8910SOL     OW27061   4.715   4.134   1.242
 8910SOL    HW127062   4.638   4.168   1.296
 8910SOL    HW227063   4.681   4.083   1.163
 8911SOL     OW27064   4.765   4.425   0.429
 8911SOL    HW127065   4.791   4.421   0.525
 8911SOL    HW227066   4.680   4.374   0.415
 8912SOL     OW27067   3.800   4.535   0.789
 8912SOL    HW127068   3.899   4.523   0.798
 8912SOL    HW227069   3.776   4.630   0.810
 8913SOL     OW27070   4.589   4.072   0.195
 8913SOL    HW127071   4.648   4.135   0.146
 8913SOL    HW227072   4.608   3.978   0.166
 8914SOL     OW27073   5.086   4.868   0.545
 8914SOL    HW127074   5.169   4.839   0.497
 8914SOL    HW227075   5.037   4.935   0.489
 8915SOL     OW27076   4.274   3.920   0.885
 8915SOL    HW127077   4.269   3.915   0.985
 8915SOL    HW227078   4.276   4.016   0.856
 8916SOL     OW27079   4.732   5.180   0.477
 8916SOL    HW127080   4.686   5.252   0.425
 8916SOL    HW227081   4.728   5.200   0.575
 8917SOL     OW27082   4.951   5.274   1.506
 8917SOL    HW127083   4.957   5.197   1.570
 8917SOL    HW227084   4.899   5.248   1.426
 8918SOL     OW27085   4.045   4.667   0.242
 8918SOL    HW127086   4.127   4.706   0.200
 8918SOL    HW227087   4.018   4.585   0.193
 8919SOL     OW27088   4.185   4.990   1.727
 8919SOL    HW127089   4.135   4.991   1.641
 8919SOL    HW227090   4.122   4.972   1.803
 8920SOL     OW27091   4.835   5.500   0.237
 8920SOL    HW127092   4.775   5.438   0.287
 8920SOL    HW227093   4.866   5.456   0.152
 8921SOL     OW27094   3.926   4.009   1.498
 8921SOL    HW127095   3.846   4.069   1.485
 8921SOL    HW227096   3.916   3.960   1.584
 8922SOL     OW27097   5.124   3.831   0.426
 8922SOL    HW127098   5.100   3.794   0.336
 8922SOL    HW227099   5.223   3.847   0.430
 8923SOL     OW27100   4.106   4.424   0.480
 8923SOL    HW127101   4.151   4.334   0.477
 8923SOL    HW227102   4.012   4.413   0.513
 8924SOL     OW27103   4.505   3.988   1.749
 8924SOL    HW127104   4.572   3.927   1.792
 8924SOL    HW227105   4.432   4.007   1.814
 8925SOL     OW27106   5.075   4.314   1.433
 8925SOL    HW127107   5.103   4.271   1.518
 8925SOL    HW227108   5.100   4.410   1.434
 8926SOL     OW27109   4.527   5.126   0.924
 8926SOL    HW127110   4.617   5.140   0.882
 8926SOL    HW227111   4.456   5.128   0.853
 8927SOL     OW27112   4.646   4.227   0.899
 8927SOL    HW127113   4.621   4.218   0.803
 8927SOL    HW227114   4.694   4.145   0.930
 8928SOL     OW27115   4.263   3.788   0.512
 8928SOL    HW127116   4.182   3.789   0.570
 8928SOL    HW227117   4.266   3.871   0.457
 8929SOL     OW27118   5.158   4.912   0.041
 8929SOL    HW127119   5.190   4.836   0.098
 8929SOL    HW227120   5.066   4.939   0.071
 8930SOL     OW27121   4.659   3.960   0.480
 8930SOL    HW127122   4.611   4.001   0.402
 8930SOL    HW227123   4.758   3.958   0.461
 8931SOL     OW27124   4.800   4.407   1.464
 8931SOL    HW127125   4.720   4.346   1.467
 8931SOL    HW227126   4.881   4.354   1.440
 8932SOL     OW27127   4.951   5.294   0.793
 8932SOL    HW127128   4.972   5.368   0.728
 8932SOL    HW227129   5.019   5.294   0.866
 8933SOL     OW27130   4.183   4.876   0.741
 8933SOL    HW127131   4.112   4.849   0.806
 8933SOL    HW227132   4.157   4.848   0.648
 8934SOL     OW27133   4.756   4.273   0.016
 8934SOL    HW127134   4.715   4.355  -0.023
 8934SOL    HW227135   4.820   4.299   0.089
 8935SOL     OW27136   3.802   4.280   1.386
 8935SOL    HW127137   3.894   4.279   1.345
 8935SOL    HW227138   3.796   4.354   1.453
 8936SOL     OW27139   4.285   3.946   1.147
 8936SOL    HW127140   4.323   3.862   1.184
 8936SOL    HW227141   4.197   3.965   1.191
 8937SOL     OW27142   4.590   4.178   0.642
 8937SOL    HW127143   4.558   4.250   0.580
 8937SOL    HW227144   4.614   4.097   0.589
 8938SOL     OW27145   4.741   3.763   0.753
 8938SOL    HW127146   4.669   3.768   0.684
 8938SOL    HW227147   4.717   3.694   0.822
 8939SOL     OW27148   5.153   4.897   0.867
 8939SOL    HW127149   5.098   4.813   0.860
 8939SOL    HW227150   5.179   4.926   0.775
 8940SOL     OW27151   4.212   5.109   0.174
 8940SOL    HW127152   4.125   5.094   0.221
 8940SOL    HW227153   4.195   5.135   0.079
 8941SOL     OW27154   5.114   4.299   0.078
 8941SOL    HW127155   5.060   4.278   0.159
 8941SOL    HW227156   5.205   4.258   0.087
 8942SOL     OW27157   4.251   3.980   0.328
 8942SOL    HW127158   4.278   3.921   0.253
 8942SOL    HW227159   4.251   4.075   0.297
 8943SOL     OW27160   4.788   5.071   1.340
 8943SOL    HW127161   4.708   5.048   1.395
 8943SOL    HW227162   4.871   5.045   1.389
 8944SOL     OW27163   4.835   4.919   1.100
 8944SOL    HW127164   4.795   4.963   1.181
 8944SOL    HW227165   4.794   4.956   1.017
 8945SOL     OW27166   4.639   3.813   1.402
 8945SOL    HW127167   4.664   3.793   1.307
 8945SOL    HW227168   4.711   3.869   1.444
 8946SOL     OW27169   4.704   4.840   1.719
 8946SOL    HW127170   4.605   4.846   1.729
 8946SOL    HW227171   4.727   4.760   1.663
 8947SOL     OW27172   4.429   4.774   0.368
 8947SOL    HW127173   4.415   4.781   0.467
 8947SOL    HW227174   4.513   4.723   0.350
 8948SOL     OW27175   4.134   4.537   1.251
 8948SOL    HW127176   4.220   4.549   1.301
 8948SOL    HW227177   4.092   4.450   1.278
 8949SOL     OW27178   4.998   4.110   1.262
 8949SOL    HW127179   5.019   4.184   1.326
 8949SOL    HW227180   4.909   4.127   1.219
 8950SOL     OW27181   4.091   4.824   0.501
 8950SOL    HW127182   4.084   4.907   0.445
 8950SOL    HW227183   4.095   4.744   0.441
 8951SOL     OW27184   4.290   4.261   0.865
 8951SOL    HW127185   4.302   4.327   0.791
 8951SOL    HW227186   4.336   4.295   0.948
 8952SOL     OW27187   4.976   5.072   0.388
 8952SOL    HW127188   5.026   5.149   0.428
 8952SOL    HW227189   4.881   5.074   0.420
 8953SOL     OW27190   4.996   5.169   1.142
 8953SOL    HW127191   5.043   5.182   1.229
 8953SOL    HW227192   4.930   5.095   1.151
 8954SOL     OW27193   4.078   5.234   1.329
 8954SOL    HW127194   4.057   5.190   1.242
 8954SOL    HW227195   4.175   5.260   1.332
 8955SOL     OW27196   4.126   4.475   1.598
 8955SOL    HW127197   4.194   4.530   1.551
 8955SOL    HW227198   4.166   4.387   1.625
 8956SOL     OW27199   4.737   3.829   1.770
 8956SOL    HW127200   4.743   3.914   1.718
 8956SOL    HW227201   4.769   3.753   1.713
 8957SOL     OW27202   4.228   3.774   1.740
 8957SOL    HW127203   4.186   3.717   1.670
 8957SOL    HW227204   4.162   3.843   1.772
 8958SOL     OW27205   4.297   4.594   1.029
 8958SOL    HW127206   4.341   4.683   1.020
 8958SOL    HW227207   4.234   4.594   1.106
 8959SOL     OW27208   5.084   4.586   1.045
 8959SOL    HW127209   5.009   4.586   0.979
 8959SOL    HW227210   5.121   4.494   1.054
 8960SOL     OW27211   4.933   4.249   0.275
 8960SOL    HW127212   4.946   4.165   0.329
 8960SOL    HW227213   4.904   4.323   0.335
 8961SOL     OW27214   4.031   3.937   1.231
 8961SOL    HW127215   4.008   3.974   1.321
 8961SOL    HW227216   4.001   3.842   1.225
 8962SOL     OW27217   3.761   5.034   1.282
 8962SOL    HW127218   3.814   4.985   1.350
 8962SOL    HW227219   3.783   5.132   1.287
 8963SOL     OW27220   4.456   4.358   1.064
 8963SOL    HW127221   4.515   4.332   0.988
 8963SOL    HW227222   4.428   4.454   1.053
 8964SOL     OW27223   4.031   3.787   0.618
 8964SOL    HW127224   4.020   3.881   0.651
 8964SOL    HW227225   4.026   3.724   0.695
 8965SOL     OW27226   5.346   4.091   0.374
 8965SOL    HW127227   5.348   4.015   0.438
 8965SOL    HW227228   5.298   4.168   0.414
 8966SOL     OW27229   4.747   4.490   0.966
 8966SOL    HW127230   4.762   4.511   1.062
 8966SOL    HW227231   4.717   4.395   0.957
 8967SOL     OW27232   4.074   4.622   1.804
 8967SOL    HW127233   4.150   4.666   1.852
 8967SOL    HW227234   4.109   4.575   1.722
 8968SOL     OW27235   5.027   4.562   0.042
 8968SOL    HW127236   5.061   4.469   0.057
 8968SOL    HW227237   5.045   4.589  -0.053
 8969SOL     OW27238   4.792   5.057   0.849
 8969SOL    HW127239   4.799   4.973   0.794
 8969SOL    HW227240   4.854   5.126   0.813
 8970SOL     OW27241   4.043   4.534   0.949
 8970SOL    HW127242   4.136   4.570   0.954
 8970SOL    HW227243   4.037   4.449   1.001
 8971SOL     OW27244   4.063   4.233   1.006
 8971SOL    HW127245   4.011   4.150   0.989
 8971SOL    HW227246   4.140   4.238   0.942
 8972SOL     OW27247   4.862   4.104   1.678
 8972SOL    HW127248   4.817   4.167   1.742
 8972SOL    HW227249   4.955   4.135   1.661
 8973SOL     OW27250   4.884   3.931   1.477
 8973SOL    HW127251   4.884   3.995   1.554
 8973SOL    HW227252   4.912   3.979   1.394
 8974SOL     OW27253   3.732   5.050   0.200
 8974SOL    HW127254   3.639   5.071   0.169
 8974SOL    HW227255   3.742   4.951   0.213
 8975SOL     OW27256   4.726   4.520   1.238
 8975SOL    HW127257   4.767   4.488   1.324
 8975SOL    HW227258   4.630   4.493   1.235
 8976SOL     OW27259   3.764   4.268   1.114
 8976SOL    HW127260   3.849   4.235   1.073
 8976SOL    HW227261   3.777   4.283   1.212
 8977SOL     OW27262   3.913   4.244   1.722
 8977SOL    HW127263   3.972   4.204   1.652
 8977SOL    HW227264   3.855   4.315   1.681
 8978SOL     OW27265   5.093   4.674   1.660
 8978SOL    HW127266   5.132   4.763   1.680
 8978SOL    HW227267   5.103   4.654   1.563
 8979SOL     OW27268   4.539   4.296   0.325
 8979SOL    HW127269   4.546   4.207   0.279
 8979SOL    HW227270   4.445   4.330   0.317
 8980SOL     OW27271   3.976   5.288   1.744
 8980SOL    HW127272   3.946   5.345   1.820
 8980SOL    HW227273   3.969   5.191   1.770
 8981SOL     OW27274   4.395   4.188   1.269
 8981SOL    HW127275   4.361   4.099   1.239
 8981SOL    HW227276   4.421   4.242   1.189
 8982SOL     OW27277   4.197   4.224   0.191
 8982SOL    HW127278   4.258   4.304   0.195
 8982SOL    HW227279   4.102   4.255   0.198
 8983SOL     OW27280   3.883   4.861   1.466
 8983SOL    HW127281   3.905   4.800   1.542
 8983SOL    HW227282   3.893   4.812   1.380
 8984SOL     OW27283   5.071   4.783   1.234
 8984SOL    HW127284   5.095   4.720   1.160
 8984SOL    HW227285   4.981   4.823   1.216
 8985SOL     OW27286   5.026   4.579   0.309
 8985SOL    HW127287   4.940   4.548   0.351
 8985SOL    HW227288   5.022   4.565   0.210
 8986SOL     OW27289   3.807   4.982   1.022
 8986SOL    HW127290   3.802   4.981   1.122
 8986SOL    HW227291   3.724   4.941   0.984
 8987SOL     OW27292   4.412   5.386   1.716
 8987SOL    HW127293   4.356   5.467   1.725
 8987SOL    HW227294   4.464   5.390   1.630
 8988SOL     OW27295   4.627   3.810   0.133
 8988SOL    HW127296   4.678   3.811   0.047
 8988SOL    HW227297   4.683   3.768   0.204
 8989SOL     OW27298   5.450   3.859   0.523
 8989SOL    HW127299   5.523   3.842   0.456
 8989SOL    HW227300   5.419   3.772   0.561
 8990SOL     OW27301   5.004   4.651   0.672
 8990SOL    HW127302   5.064   4.570   0.674
 8990SOL    HW227303   5.044   4.720   0.612
 8991SOL     OW27304   4.554   4.997   1.422
 8991SOL    HW127305   4.549   5.030   1.517
 8991SOL    HW227306   4.468   5.016   1.376
 8992SOL     OW27307   3.987   4.050   0.720
 8992SOL    HW127308   3.908   4.101   0.686
 8992SOL    HW227309   3.978   4.035   0.818
 8993SOL     OW27310   4.918   5.336   0.031
 8993SOL    HW127311   4.924   5.243   0.068
 8993SOL    HW227312   4.859   5.336  -0.049
 8994SOL     OW27313   4.546   4.726   1.372
 8994SOL    HW127314   4.586   4.725   1.280
 8994SOL    HW227315   4.556   4.818   1.412
 8995SOL     OW27316   4.640   4.634   0.291
 8995SOL    HW127317   4.703   4.672   0.223
 8995SOL    HW227318   4.680   4.551   0.330
 8996SOL     OW27319   4.096   5.012   1.490
 8996SOL    HW127320   4.083   5.105   1.456
 8996SOL    HW227321   4.012   4.960   1.477
 8997SOL     OW27322   4.763   4.822   0.696
 8997SOL    HW127323   4.693   4.775   0.750
 8997SOL    HW227324   4.822   4.754   0.653
 8998SOL     OW27325   4.738   3.960   0.971
 8998SOL    HW127326   4.730   3.924   0.878
 8998SOL    HW227327   4.736   3.884   1.036
 8999SOL     OW27328   3.979   5.072   0.290
 8999SOL    HW127329   3.883   5.073   0.263
 8999SOL    HW227330   3.991   5.125   0.374
 9000SOL     OW27331   3.829   4.737   1.726
 9000SOL    HW127332   3.752   4.704   1.780
 9000SOL    HW227333   3.914   4.707   1.768
 9001SOL     OW27334   4.396   3.927   1.489
 9001SOL    HW127335   4.486   3.911   1.449
 9001SOL    HW227336   4.404   3.932   1.588
 9002SOL     OW27337   3.799   4.069   0.033
 9002SOL    HW127338   3.707   4.041   0.004
 9002SOL    HW227339   3.830   4.146  -0.023
 9003SOL     OW27340   5.164   4.580   1.398
 9003SOL    HW127341   5.107   4.632   1.335
 9003SOL    HW227342   5.260   4.592   1.374
 9004SOL     OW27343   3.796   3.890   0.318
 9004SOL    HW127344   3.779   3.973   0.264
 9004SOL    HW227345   3.886   3.853   0.296
 9005SOL     OW27346   4.907   5.059   0.119
 9005SOL    HW127347   4.808   5.048   0.121
 9005SOL    HW227348   4.941   5.074   0.212
 9006SOL     OW27349   4.337   4.566   1.431
 9006SOL    HW127350   4.393   4.647   1.414
 9006SOL    HW227351   4.396   4.486   1.434
 9007SOL     OW27352   4.440   4.289   1.708
 9007SOL    HW127353   4.459   4.354   1.782
 9007SOL    HW227354   4.500   4.209   1.717
 9008SOL     OW27355   5.174   4.944   1.633
 9008SOL    HW127356   5.165   4.934   1.732
 9008SOL    HW227357   5.270   4.937   1.607
 9009SOL     OW27358   4.949   4.049   0.449
 9009SOL    HW127359   5.014   3.975   0.438
 9009SOL    HW227360   4.969   4.099   0.533
 9010SOL     OW27361   4.318   4.469   0.652
 9010SOL    HW127362   4.368   4.554   0.633
 9010SOL    HW227363   4.230   4.471   0.604
 9011SOL     OW27364   4.583   5.098   0.016
 9011SOL    HW127365   4.537   5.113   0.104
 9011SOL    HW227366   4.627   5.183  -0.014
 9012SOL     OW27367   4.583   4.680   0.861
 9012SOL    HW127368   4.637   4.611   0.909
 9012SOL    HW227369   4.551   4.749   0.927
 9013SOL     OW27370   4.807   4.708   0.087
 9013SOL    HW127371   4.784   4.761   0.005
 9013SOL    HW227372   4.888   4.652   0.068
 9014SOL     OW27373   3.945   5.038   1.844
 9014SOL    HW127374   3.880   4.965   1.823
 9014SOL    HW227375   3.949   5.052   1.942
 9015SOL     OW27376   3.803   4.964   0.653
 9015SOL    HW127377   3.802   4.917   0.741
 9015SOL    HW227378   3.885   4.936   0.602
 9016SOL     OW27379   4.396   5.115   1.624
 9016SOL    HW127380   4.318   5.065   1.662
 9016SOL    HW227381   4.393   5.210   1.655
 9017SOL     OW27382   4.152   4.148   0.520
 9017SOL    HW127383   4.182   4.076   0.458
 9017SOL    HW227384   4.113   4.108   0.603
 9018SOL     OW27385   5.429   5.211   1.104
 9018SOL    HW127386   5.336   5.186   1.077
 9018SOL    HW227387   5.455   5.161   1.186
 9019SOL     OW27388   4.041   4.271   1.280
 9019SOL    HW127389   4.079   4.212   1.352
 9019SOL    HW227390   4.081   4.245   1.192
 9020SOL     OW27391   5.148   3.938   1.112
 9020SOL    HW127392   5.200   3.873   1.167
 9020SOL    HW227393   5.099   4.001   1.173
 9021SOL     OW27394   4.725   3.758   1.154
 9021SOL    HW127395   4.662   3.686   1.123
 9021SOL    HW227396   4.818   3.722   1.154
 9022SOL     OW27397   4.494   5.054   0.301
 9022SOL    HW127398   4.448   4.967   0.318
 9022SOL    HW227399   4.585   5.051   0.342
 9023SOL     OW27400   4.342   5.291   1.284
 9023SOL    HW127401   4.337   5.373   1.341
 9023SOL    HW227402   4.431   5.288   1.239
 9024SOL     OW27403   5.076   3.776   0.168
 9024SOL    HW127404   5.111   3.735   0.084
 9024SOL    HW227405   4.986   3.738   0.188
 9025SOL     OW27406   5.024   4.177   0.691
 9025SOL    HW127407   4.965   4.257   0.695
 9025SOL    HW227408   5.039   4.142   0.784
 9026SOL     OW27409   5.317   3.945   0.882
 9026SOL    HW127410   5.233   3.944   0.936
 9026SOL    HW227411   5.319   4.028   0.826
 9027SOL     OW27412   3.763   4.801   0.300
 9027SOL    HW127413   3.862   4.790   0.291
 9027SOL    HW227414   3.723   4.715   0.332
 9028SOL     OW27415   3.954   4.352   1.975
 9028SOL    HW127416   3.861   4.350   2.012
 9028SOL    HW227417   3.955   4.313   1.883
 9029SOL     OW27418   3.949   3.999   2.858
 9029SOL    HW127419   3.984   3.982   2.950
 9029SOL    HW227420   3.861   3.954   2.846
 9030SOL     OW27421   3.743   4.092   2.509
 9030SOL    HW127422   3.661   4.135   2.548
 9030SOL    HW227423   3.715   4.019   2.446
 9031SOL     OW27424   4.293   4.999   3.027
 9031SOL    HW127425   4.200   4.992   2.990
 9031SOL    HW227426   4.304   5.088   3.071
 9032SOL     OW27427   5.279   5.235   2.565
 9032SOL    HW127428   5.222   5.219   2.646
 9032SOL    HW227429   5.220   5.245   2.485
 9033SOL     OW27430   4.859   4.427   2.579
 9033SOL    HW127431   4.916   4.505   2.554
 9033SOL    HW227432   4.799   4.453   2.655
 9034SOL     OW27433   4.492   4.868   2.885
 9034SOL    HW127434   4.414   4.885   2.945
 9034SOL    HW227435   4.526   4.955   2.849
 9035SOL     OW27436   4.574   4.522   3.685
 9035SOL    HW127437   4.570   4.598   3.750
 9035SOL    HW227438   4.596   4.558   3.594
 9036SOL     OW27439   4.409   4.736   2.527
 9036SOL    HW127440   4.478   4.720   2.597
 9036SOL    HW227441   4.336   4.793   2.565
 9037SOL     OW27442   4.410   4.885   3.665
 9037SOL    HW127443   4.470   4.964   3.679
 9037SOL    HW227444   4.324   4.916   3.624
 9038SOL     OW27445   4.059   5.159   2.923
 9038SOL    HW127446   3.981   5.128   2.870
 9038SOL    HW227447   4.117   5.217   2.866
 9039SOL     OW27448   5.184   5.229   3.201
 9039SOL    HW127449   5.208   5.323   3.227
 9039SOL    HW227450   5.168   5.175   3.283
 9040SOL     OW27451   4.162   4.116   3.361
 9040SOL    HW127452   4.244   4.060   3.370
 9040SOL    HW227453   4.081   4.058   3.365
 9041SOL     OW27454   4.851   5.065   3.552
 9041SOL    HW127455   4.898   5.065   3.640
 9041SOL    HW227456   4.803   4.978   3.541
 9042SOL     OW27457   3.954   5.158   2.400
 9042SOL    HW127458   3.928   5.254   2.400
 9042SOL    HW227459   3.883   5.104   2.445
 9043SOL     OW27460   3.964   4.815   2.748
 9043SOL    HW127461   3.978   4.731   2.800
 9043SOL    HW227462   3.909   4.879   2.803
 9044SOL     OW27463   4.330   4.688   1.985
 9044SOL    HW127464   4.337   4.772   1.931
 9044SOL    HW227465   4.376   4.701   2.073
 9045SOL     OW27466   3.846   4.367   2.425
 9045SOL    HW127467   3.801   4.279   2.442
 9045SOL    HW227468   3.845   4.421   2.509
 9046SOL     OW27469   3.751   5.320   1.979
 9046SOL    HW127470   3.732   5.224   2.000
 9046SOL    HW227471   3.718   5.378   2.054
 9047SOL     OW27472   5.413   4.646   2.474
 9047SOL    HW127473   5.508   4.617   2.482
 9047SOL    HW227474   5.405   4.711   2.399
 9048SOL     OW27475   3.837   4.461   3.459
 9048SOL    HW127476   3.925   4.448   3.504
 9048SOL    HW227477   3.824   4.558   3.437
 9049SOL     OW27478   4.337   5.089   2.588
 9049SOL    HW127479   4.288   5.002   2.597
 9049SOL    HW227480   4.314   5.132   2.501
 9050SOL     OW27481   5.017   4.952   3.285
 9050SOL    HW127482   5.054   4.879   3.227
 9050SOL    HW227483   5.069   4.957   3.370
 9051SOL     OW27484   4.533   3.728   2.364
 9051SOL    HW127485   4.573   3.819   2.355
 9051SOL    HW227486   4.433   3.736   2.370
 9052SOL     OW27487   3.921   4.700   3.126
 9052SOL    HW127488   4.010   4.655   3.112
 9052SOL    HW227489   3.848   4.635   3.107
 9053SOL     OW27490   4.041   3.975   3.663
 9053SOL    HW127491   4.112   4.046   3.669
 9053SOL    HW227492   3.953   4.014   3.691
 9054SOL     OW27493   5.190   5.141   2.815
 9054SOL    HW127494   5.131   5.147   2.895
 9054SOL    HW227495   5.175   5.053   2.769
 9055SOL     OW27496   5.391   5.438   2.434
 9055SOL    HW127497   5.350   5.415   2.346
 9055SOL    HW227498   5.373   5.364   2.499
 9056SOL     OW27499   4.322   4.453   2.132
 9056SOL    HW127500   4.346   4.522   2.064
 9056SOL    HW227501   4.244   4.486   2.186
 9057SOL     OW27502   5.005   4.069   2.806
 9057SOL    HW127503   4.919   4.019   2.793
 9057SOL    HW227504   5.067   4.015   2.862
 9058SOL     OW27505   4.531   4.329   3.327
 9058SOL    HW127506   4.484   4.326   3.416
 9058SOL    HW227507   4.480   4.274   3.261
 9059SOL     OW27508   5.118   4.193   3.536
 9059SOL    HW127509   5.098   4.236   3.624
 9059SOL    HW227510   5.196   4.131   3.545
 9060SOL     OW27511   4.697   4.614   3.434
 9060SOL    HW127512   4.743   4.530   3.405
 9060SOL    HW227513   4.641   4.648   3.359
 9061SOL     OW27514   4.715   4.134   3.104
 9061SOL    HW127515   4.638   4.168   3.158
 9061SOL    HW227516   4.681   4.083   3.025
 9062SOL     OW27517   4.765   4.425   2.291
 9062SOL    HW127518   4.791   4.421   2.387
 9062SOL    HW227519   4.680   4.374   2.277
 9063SOL     OW27520   3.800   4.535   2.651
 9063SOL    HW127521   3.899   4.523   2.660
 9063SOL    HW227522   3.776   4.630   2.672
 9064SOL     OW27523   4.589   4.072   2.057
 9064SOL    HW127524   4.648   4.135   2.008
 9064SOL    HW227525   4.608   3.978   2.028
 9065SOL     OW27526   5.086   4.868   2.407
 9065SOL    HW127527   5.169   4.839   2.359
 9065SOL    HW227528   5.037   4.935   2.351
 9066SOL     OW27529   4.274   3.920   2.747
 9066SOL    HW127530   4.269   3.915   2.847
 9066SOL    HW227531   4.276   4.016   2.718
 9067SOL     OW27532   4.732   5.180   2.339
 9067SOL    HW127533   4.686   5.252   2.287
 9067SOL    HW227534   4.728   5.200   2.437
 9068SOL     OW27535   4.951   5.274   3.368
 9068SOL    HW127536   4.957   5.197   3.432
 9068SOL    HW227537   4.899   5.248   3.288
 9069SOL     OW27538   4.045   4.667   2.104
 9069SOL    HW127539   4.127   4.706   2.062
 9069SOL    HW227540   4.018   4.585   2.055
 9070SOL     OW27541   4.185   4.990   3.589
 9070SOL    HW127542   4.135   4.991   3.503
 9070SOL    HW227543   4.122   4.972   3.665
 9071SOL     OW27544   4.835   5.500   2.099
 9071SOL    HW127545   4.775   5.438   2.149
 9071SOL    HW227546   4.866   5.456   2.014
 9072SOL     OW27547   3.926   4.009   3.360
 9072SOL    HW127548   3.846   4.069   3.347
 9072SOL    HW227549   3.916   3.960   3.446
 9073SOL     OW27550   5.124   3.831   2.288
 9073SOL    HW127551   5.100   3.794   2.198
 9073SOL    HW227552   5.223   3.847   2.292
 9074SOL     OW27553   4.106   4.424   2.342
 9074SOL    HW127554   4.151   4.334   2.339
 9074SOL    HW227555   4.012   4.413   2.375
 9075SOL     OW27556   4.338   3.846   1.979
 9075SOL    HW127557   4.436   3.824   1.986
 9075SOL    HW227558   4.307   3.829   1.886
 9076SOL     OW27559   4.505   3.988   3.611
 9076SOL    HW127560   4.572   3.927   3.654
 9076SOL    HW227561   4.432   4.007   3.676
 9077SOL     OW27562   5.075   4.314   3.295
 9077SOL    HW127563   5.103   4.271   3.380
 9077SOL    HW227564   5.100   4.410   3.296
 9078SOL     OW27565   4.527   5.126   2.786
 9078SOL    HW127566   4.617   5.140   2.744
 9078SOL    HW227567   4.456   5.128   2.715
 9079SOL     OW27568   4.646   4.227   2.761
 9079SOL    HW127569   4.621   4.218   2.665
 9079SOL    HW227570   4.694   4.145   2.792
 9080SOL     OW27571   4.263   3.788   2.374
 9080SOL    HW127572   4.182   3.789   2.432
 9080SOL    HW227573   4.266   3.871   2.319
 9081SOL     OW27574   5.158   4.912   1.903
 9081SOL    HW127575   5.190   4.836   1.960
 9081SOL    HW227576   5.066   4.939   1.933
 9082SOL     OW27577   4.021   3.759   2.033
 9082SOL    HW127578   4.070   3.843   2.012
 9082SOL    HW227579   4.083   3.694   2.078
 9083SOL     OW27580   4.659   3.960   2.342
 9083SOL    HW127581   4.611   4.001   2.264
 9083SOL    HW227582   4.758   3.958   2.323
 9084SOL     OW27583   4.800   4.407   3.326
 9084SOL    HW127584   4.720   4.346   3.329
 9084SOL    HW227585   4.881   4.354   3.302
 9085SOL     OW27586   4.951   5.294   2.655
 9085SOL    HW127587   4.972   5.368   2.590
 9085SOL    HW227588   5.019   5.294   2.728
 9086SOL     OW27589   4.183   4.876   2.603
 9086SOL    HW127590   4.112   4.849   2.668
 9086SOL    HW227591   4.157   4.848   2.510
 9087SOL     OW27592   4.756   4.273   1.878
 9087SOL    HW127593   4.715   4.355   1.839
 9087SOL    HW227594   4.820   4.299   1.951
 9088SOL     OW27595   3.802   4.280   3.248
 9088SOL    HW127596   3.894   4.279   3.207
 9088SOL    HW227597   3.796   4.354   3.315
 9089SOL     OW27598   4.285   3.946   3.009
 9089SOL    HW127599   4.323   3.862   3.046
 9089SOL    HW227600   4.197   3.965   3.053
 9090SOL     OW27601   4.590   4.178   2.504
 9090SOL    HW127602   4.558   4.250   2.442
 9090SOL    HW227603   4.614   4.097   2.451
 9091SOL     OW27604   4.741   3.763   2.615
 9091SOL    HW127605   4.669   3.768   2.546
 9091SOL    HW227606   4.717   3.694   2.684
 9092SOL     OW27607   5.153   4.897   2.729
 9092SOL    HW127608   5.098   4.813   2.722
 9092SOL    HW227609   5.179   4.926   2.637
 9093SOL     OW27610   4.212   5.109   2.036
 9093SOL    HW127611   4.125   5.094   2.083
 9093SOL    HW227612   4.195   5.135   1.941
 9094SOL     OW27613   5.114   4.299   1.940
 9094SOL    HW127614   5.060   4.278   2.021
 9094SOL    HW227615   5.205   4.258   1.949
 9095SOL     OW27616   4.251   3.980   2.190
 9095SOL    HW127617   4.278   3.921   2.115
 9095SOL    HW227618   4.251   4.075   2.159
 9096SOL     OW27619   4.788   5.071   3.202
 9096SOL    HW127620   4.708   5.048   3.257
 9096SOL    HW227621   4.871   5.045   3.251
 9097SOL     OW27622   4.835   4.919   2.962
 9097SOL    HW127623   4.795   4.963   3.043
 9097SOL    HW227624   4.794   4.956   2.879
 9098SOL     OW27625   4.639   3.813   3.264
 9098SOL    HW127626   4.664   3.793   3.169
 9098SOL    HW227627   4.711   3.869   3.306
 9099SOL     OW27628   4.704   4.840   3.581
 9099SOL    HW127629   4.605   4.846   3.591
 9099SOL    HW227630   4.727   4.760   3.525
 9100SOL     OW27631   4.429   4.774   2.230
 9100SOL    HW127632   4.415   4.781   2.329
 9100SOL    HW227633   4.513   4.723   2.212
 9101SOL     OW27634   4.134   4.537   3.113
 9101SOL    HW127635   4.220   4.549   3.163
 9101SOL    HW227636   4.092   4.450   3.140
 9102SOL     OW27637   4.998   4.110   3.124
 9102SOL    HW127638   5.019   4.184   3.188
 9102SOL    HW227639   4.909   4.127   3.081
 9103SOL     OW27640   4.091   4.824   2.363
 9103SOL    HW127641   4.084   4.907   2.307
 9103SOL    HW227642   4.095   4.744   2.303
 9104SOL     OW27643   4.290   4.261   2.727
 9104SOL    HW127644   4.302   4.327   2.653
 9104SOL    HW227645   4.336   4.295   2.810
 9105SOL     OW27646   4.976   5.072   2.250
 9105SOL    HW127647   5.026   5.149   2.290
 9105SOL    HW227648   4.881   5.074   2.282
 9106SOL     OW27649   4.996   5.169   3.004
 9106SOL    HW127650   5.043   5.182   3.091
 9106SOL    HW227651   4.930   5.095   3.013
 9107SOL     OW27652   4.078   5.234   3.191
 9107SOL    HW127653   4.057   5.190   3.104
 9107SOL    HW227654   4.175   5.260   3.194
 9108SOL     OW27655   4.126   4.475   3.460
 9108SOL    HW127656   4.194   4.530   3.413
 9108SOL    HW227657   4.166   4.387   3.487
 9109SOL     OW27658   4.737   3.829   3.632
 9109SOL    HW127659   4.743   3.914   3.580
 9109SOL    HW227660   4.769   3.753   3.575
 9110SOL     OW27661   4.228   3.774   3.602
 9110SOL    HW127662   4.186   3.717   3.532
 9110SOL    HW227663   4.162   3.843   3.634
 9111SOL     OW27664   4.297   4.594   2.891
 9111SOL    HW127665   4.341   4.683   2.882
 9111SOL    HW227666   4.234   4.594   2.968
 9112SOL     OW27667   5.084   4.586   2.907
 9112SOL    HW127668   5.009   4.586   2.841
 9112SOL    HW227669   5.121   4.494   2.916
 9113SOL     OW27670   4.933   4.249   2.137
 9113SOL    HW127671   4.946   4.165   2.191
 9113SOL    HW227672   4.904   4.323   2.197
 9114SOL     OW27673   4.031   3.937   3.093
 9114SOL    HW127674   4.008   3.974   3.183
 9114SOL    HW227675   4.001   3.842   3.087
 9115SOL     OW27676   3.761   5.034   3.144
 9115SOL    HW127677   3.814   4.985   3.212
 9115SOL    HW227678   3.783   5.132   3.149
 9116SOL     OW27679   4.456   4.358   2.926
 9116SOL    HW127680   4.515   4.332   2.850
 9116SOL    HW227681   4.428   4.454   2.915
 9117SOL     OW27682   4.031   3.787   2.480
 9117SOL    HW127683   4.020   3.881   2.513
 9117SOL    HW227684   4.026   3.724   2.557
 9118SOL     OW27685   5.346   4.091   2.236
 9118SOL    HW127686   5.348   4.015   2.300
 9118SOL    HW227687   5.298   4.168   2.276
 9119SOL     OW27688   4.747   4.490   2.828
 9119SOL    HW127689   4.762   4.511   2.924
 9119SOL    HW227690   4.717   4.395   2.819
 9120SOL     OW27691   4.074   4.622   3.666
 9120SOL    HW127692   4.150   4.666   3.714
 9120SOL    HW227693   4.109   4.575   3.584
 9121SOL     OW27694   5.027   4.562   1.904
 9121SOL    HW127695   5.061   4.469   1.919
 9121SOL    HW227696   5.045   4.589   1.809
 9122SOL     OW27697   4.792   5.057   2.711
 9122SOL    HW127698   4.799   4.973   2.656
 9122SOL    HW227699   4.854   5.126   2.675
 9123SOL     OW27700   4.043   4.534   2.811
 9123SOL    HW127701   4.136   4.570   2.816
 9123SOL    HW227702   4.037   4.449   2.863
 9124SOL     OW27703   4.063   4.233   2.868
 9124SOL    HW127704   4.011   4.150   2.851
 9124SOL    HW227705   4.140   4.238   2.804
 9125SOL     OW27706   4.862   4.104   3.540
 9125SOL    HW127707   4.817   4.167   3.604
 9125SOL    HW227708   4.955   4.135   3.523
 9126SOL     OW27709   4.884   3.931   3.339
 9126SOL    HW127710   4.884   3.995   3.416
 9126SOL    HW227711   4.912   3.979   3.256
 9127SOL     OW27712   3.732   5.050   2.062
 9127SOL    HW127713   3.639   5.071   2.031
 9127SOL    HW227714   3.742   4.951   2.075
 9128SOL     OW27715   4.726   4.520   3.100
 9128SOL    HW127716   4.767   4.488   3.186
 9128SOL    HW227717   4.630   4.493   3.097
 9129SOL     OW27718   3.764   4.268   2.976
 9129SOL    HW127719   3.849   4.235   2.935
 9129SOL    HW227720   3.777   4.283   3.074
 9130SOL     OW27721   3.913   4.244   3.584
 9130SOL    HW127722   3.972   4.204   3.514
 9130SOL    HW227723   3.855   4.315   3.543
 9131SOL     OW27724   5.093   4.674   3.522
 9131SOL    HW127725   5.132   4.763   3.542
 9131SOL    HW227726   5.103   4.654   3.425
 9132SOL     OW27727   4.539   4.296   2.187
 9132SOL    HW127728   4.546   4.207   2.141
 9132SOL    HW227729   4.445   4.330   2.179
 9133SOL     OW27730   3.976   5.288   3.606
 9133SOL    HW127731   3.946   5.345   3.682
 9133SOL    HW227732   3.969   5.191   3.632
 9134SOL     OW27733   4.395   4.188   3.131
 9134SOL    HW127734   4.361   4.099   3.101
 9134SOL    HW227735   4.421   4.242   3.051
 9135SOL     OW27736   4.197   4.224   2.053
 9135SOL    HW127737   4.258   4.304   2.057
 9135SOL    HW227738   4.102   4.255   2.060
 9136SOL     OW27739   3.883   4.861   3.328
 9136SOL    HW127740   3.905   4.800   3.404
 9136SOL    HW227741   3.893   4.812   3.242
 9137SOL     OW27742   5.071   4.783   3.096
 9137SOL    HW127743   5.095   4.720   3.022
 9137SOL    HW227744   4.981   4.823   3.078
 9138SOL     OW27745   5.026   4.579   2.171
 9138SOL    HW127746   4.940   4.548   2.213
 9138SOL    HW227747   5.022   4.565   2.072
 9139SOL     OW27748   3.807   4.982   2.884
 9139SOL    HW127749   3.802   4.981   2.984
 9139SOL    HW227750   3.724   4.941   2.846
 9140SOL     OW27751   4.412   5.386   3.578
 9140SOL    HW127752   4.356   5.467   3.587
 9140SOL    HW227753   4.464   5.390   3.492
 9141SOL     OW27754   5.450   3.859   2.385
 9141SOL    HW127755   5.523   3.842   2.318
 9141SOL    HW227756   5.419   3.772   2.423
 9142SOL     OW27757   5.004   4.651   2.534
 9142SOL    HW127758   5.064   4.570   2.536
 9142SOL    HW227759   5.044   4.720   2.474
 9143SOL     OW27760   4.554   4.997   3.284
 9143SOL    HW127761   4.549   5.030   3.379
 9143SOL    HW227762   4.468   5.016   3.238
 9144SOL     OW27763   3.987   4.050   2.582
 9144SOL    HW127764   3.908   4.101   2.548
 9144SOL    HW227765   3.978   4.035   2.680
 9145SOL     OW27766   4.546   4.726   3.234
 9145SOL    HW127767   4.586   4.725   3.142
 9145SOL    HW227768   4.556   4.818   3.274
 9146SOL     OW27769   4.640   4.634   2.153
 9146SOL    HW127770   4.703   4.672   2.085
 9146SOL    HW227771   4.680   4.551   2.192
 9147SOL     OW27772   4.096   5.012   3.352
 9147SOL    HW127773   4.083   5.105   3.318
 9147SOL    HW227774   4.012   4.960   3.339
 9148SOL     OW27775   4.763   4.822   2.558
 9148SOL    HW127776   4.693   4.775   2.612
 9148SOL    HW227777   4.822   4.754   2.515
 9149SOL     OW27778   4.738   3.960   2.833
 9149SOL    HW127779   4.730   3.924   2.740
 9149SOL    HW227780   4.736   3.884   2.898
 9150SOL     OW27781   3.979   5.072   2.152
 9150SOL    HW127782   3.883   5.073   2.125
 9150SOL    HW227783   3.991   5.125   2.236
 9151SOL     OW27784   3.829   4.737   3.588
 9151SOL    HW127785   3.752   4.704   3.642
 9151SOL    HW227786   3.914   4.707   3.630
 9152SOL     OW27787   4.396   3.927   3.351
 9152SOL    HW127788   4.486   3.911   3.311
 9152SOL    HW227789   4.404   3.932   3.450
 9153SOL     OW27790   3.799   4.069   1.895
 9153SOL    HW127791   3.707   4.041   1.866
 9153SOL    HW227792   3.830   4.146   1.839
 9154SOL     OW27793   5.164   4.580   3.260
 9154SOL    HW127794   5.107   4.632   3.197
 9154SOL    HW227795   5.260   4.592   3.236
 9155SOL     OW27796   3.796   3.890   2.180
 9155SOL    HW127797   3.779   3.973   2.126
 9155SOL    HW227798   3.886   3.853   2.158
 9156SOL     OW27799   4.907   5.059   1.981
 9156SOL    HW127800   4.808   5.048   1.983
 9156SOL    HW227801   4.941   5.074   2.074
 9157SOL     OW27802   4.337   4.566   3.293
 9157SOL    HW127803   4.393   4.647   3.276
 9157SOL    HW227804   4.396   4.486   3.296
 9158SOL     OW27805   4.440   4.289   3.570
 9158SOL    HW127806   4.459   4.354   3.644
 9158SOL    HW227807   4.500   4.209   3.579
 9159SOL     OW27808   5.174   4.944   3.495
 9159SOL    HW127809   5.165   4.934   3.594
 9159SOL    HW227810   5.270   4.937   3.469
 9160SOL     OW27811   4.949   4.049   2.311
 9160SOL    HW127812   5.014   3.975   2.300
 9160SOL    HW227813   4.969   4.099   2.395
 9161SOL     OW27814   4.318   4.469   2.514
 9161SOL    HW127815   4.368   4.554   2.495
 9161SOL    HW227816   4.230   4.471   2.466
 9162SOL     OW27817   4.583   5.098   1.878
 9162SOL    HW127818   4.537   5.113   1.966
 9162SOL    HW227819   4.627   5.183   1.848
 9163SOL     OW27820   4.583   4.680   2.723
 9163SOL    HW127821   4.637   4.611   2.771
 9163SOL    HW227822   4.551   4.749   2.789
 9164SOL     OW27823   4.807   4.708   1.949
 9164SOL    HW127824   4.784   4.761   1.867
 9164SOL    HW227825   4.888   4.652   1.930
 9165SOL     OW27826   3.945   5.038   3.706
 9165SOL    HW127827   3.880   4.965   3.685
 9165SOL    HW227828   3.949   5.052   3.804
 9166SOL     OW27829   3.803   4.964   2.515
 9166SOL    HW127830   3.802   4.917   2.603
 9166SOL    HW227831   3.885   4.936   2.464
 9167SOL     OW27832   4.396   5.115   3.486
 9167SOL    HW127833   4.318   5.065   3.524
 9167SOL    HW227834   4.393   5.210   3.517
 9168SOL     OW27835   4.152   4.148   2.382
 9168SOL    HW127836   4.182   4.076   2.320
 9168SOL    HW227837   4.113   4.108   2.465
 9169SOL     OW27838   5.429   5.211   2.966
 9169SOL    HW127839   5.336   5.186   2.939
 9169SOL    HW227840   5.455   5.161   3.048
 9170SOL     OW27841   4.041   4.271   3.142
 9170SOL    HW127842   4.079   4.212   3.214
 9170SOL    HW227843   4.081   4.245   3.054
 9171SOL     OW27844   5.148   3.938   2.974
 9171SOL    HW127845   5.200   3.873   3.029
 9171SOL    HW227846   5.099   4.001   3.035
 9172SOL     OW27847   4.725   3.758   3.016
 9172SOL    HW127848   4.662   3.686   2.985
 9172SOL    HW227849   4.818   3.722   3.016
 9173SOL     OW27850   4.494   5.054   2.163
 9173SOL    HW127851   4.448   4.967   2.180
 9173SOL    HW227852   4.585   5.051   2.204
 9174SOL     OW27853   4.342   5.291   3.146
 9174SOL    HW127854   4.337   5.373   3.203
 9174SOL    HW227855   4.431   5.288   3.101
 9175SOL     OW27856   5.076   3.776   2.030
 9175SOL    HW127857   5.111   3.735   1.946
 9175SOL    HW227858   4.986   3.738   2.050
 9176SOL     OW27859   5.024   4.177   2.553
 9176SOL    HW127860   4.965   4.257   2.557
 9176SOL    HW227861   5.039   4.142   2.646
 9177SOL     OW27862   5.317   3.945   2.744
 9177SOL    HW127863   5.233   3.944   2.798
 9177SOL    HW227864   5.319   4.028   2.688
 9178SOL     OW27865   3.763   4.801   2.162
 9178SOL    HW127866   3.862   4.790   2.153
 9178SOL    HW227867   3.723   4.715   2.194
 9179SOL     OW27868   3.954   4.352   3.837
 9179SOL    HW127869   3.861   4.350   3.874
 9179SOL    HW227870   3.955   4.313   3.745
 9180SOL     OW27871   3.949   3.999   4.720
 9180SOL    HW127872   3.984   3.982   4.812
 9180SOL    HW227873   3.861   3.954   4.708
 9181SOL     OW27874   3.743   4.092   4.371
 9181SOL    HW127875   3.661   4.135   4.410
 9181SOL    HW227876   3.715   4.019   4.308
 9182SOL     OW27877   4.293   4.999   4.889
 9182SOL    HW127878   4.200   4.992   4.852
 9182SOL    HW227879   4.304   5.088   4.933
 9183SOL     OW27880   5.279   5.235   4.427
 9183SOL    HW127881   5.222   5.219   4.508
 9183SOL    HW227882   5.220   5.245   4.347
 9184SOL     OW27883   4.859   4.427   4.441
 9184SOL    HW127884   4.916   4.505   4.416
 9184SOL    HW227885   4.799   4.453   4.517
 9185SOL     OW27886   4.492   4.868   4.747
 9185SOL    HW127887   4.414   4.885   4.807
 9185SOL    HW227888   4.526   4.955   4.711
 9186SOL     OW27889   4.574   4.522   5.547
 9186SOL    HW127890   4.570   4.598   5.612
 9186SOL    HW227891   4.596   4.558   5.456
 9187SOL     OW27892   4.409   4.736   4.389
 9187SOL    HW127893   4.478   4.720   4.459
 9187SOL    HW227894   4.336   4.793   4.427
 9188SOL     OW27895   4.410   4.885   5.527
 9188SOL    HW127896   4.470   4.964   5.541
 9188SOL    HW227897   4.324   4.916   5.486
 9189SOL     OW27898   4.059   5.159   4.785
 9189SOL    HW127899   3.981   5.128   4.732
 9189SOL    HW227900   4.117   5.217   4.728
 9190SOL     OW27901   5.184   5.229   5.063
 9190SOL    HW127902   5.208   5.323   5.089
 9190SOL    HW227903   5.168   5.175   5.145
 9191SOL     OW27904   4.162   4.116   5.223
 9191SOL    HW127905   4.244   4.060   5.232
 9191SOL    HW227906   4.081   4.058   5.227
 9192SOL     OW27907   4.851   5.065   5.414
 9192SOL    HW127908   4.898   5.065   5.502
 9192SOL    HW227909   4.803   4.978   5.403
 9193SOL     OW27910   3.954   5.158   4.262
 9193SOL    HW127911   3.928   5.254   4.262
 9193SOL    HW227912   3.883   5.104   4.307
 9194SOL     OW27913   3.964   4.815   4.610
 9194SOL    HW127914   3.978   4.731   4.662
 9194SOL    HW227915   3.909   4.879   4.665
 9195SOL     OW27916   4.330   4.688   3.847
 9195SOL    HW127917   4.337   4.772   3.793
 9195SOL    HW227918   4.376   4.701   3.935
 9196SOL     OW27919   3.846   4.367   4.287
 9196SOL    HW127920   3.801   4.279   4.304
 9196SOL    HW227921   3.845   4.421   4.371
 9197SOL     OW27922   3.751   5.320   3.841
 9197SOL    HW127923   3.732   5.224   3.862
 9197SOL    HW227924   3.718   5.378   3.916
 9198SOL     OW27925   5.413   4.646   4.336
 9198SOL    HW127926   5.508   4.617   4.344
 9198SOL    HW227927   5.405   4.711   4.261
 9199SOL     OW27928   3.837   4.461   5.321
 9199SOL    HW127929   3.925   4.448   5.366
 9199SOL    HW227930   3.824   4.558   5.299
 9200SOL     OW27931   4.337   5.089   4.450
 9200SOL    HW127932   4.288   5.002   4.459
 9200SOL    HW227933   4.314   5.132   4.363
 9201SOL     OW27934   5.017   4.952   5.147
 9201SOL    HW127935   5.054   4.879   5.089
 9201SOL    HW227936   5.069   4.957   5.232
 9202SOL     OW27937   4.533   3.728   4.226
 9202SOL    HW127938   4.573   3.819   4.217
 9202SOL    HW227939   4.433   3.736   4.232
 9203SOL     OW27940   3.921   4.700   4.988
 9203SOL    HW127941   4.010   4.655   4.974
 9203SOL    HW227942   3.848   4.635   4.969
 9204SOL     OW27943   4.041   3.975   5.525
 9204SOL    HW127944   4.112   4.046   5.531
 9204SOL    HW227945   3.953   4.014   5.553
 9205SOL     OW27946   5.190   5.141   4.677
 9205SOL    HW127947   5.131   5.147   4.757
 9205SOL    HW227948   5.175   5.053   4.631
 9206SOL     OW27949   5.391   5.438   4.296
 9206SOL    HW127950   5.350   5.415   4.208
 9206SOL    HW227951   5.373   5.364   4.361
 9207SOL     OW27952   4.322   4.453   3.994
 9207SOL    HW127953   4.346   4.522   3.926
 9207SOL    HW227954   4.244   4.486   4.048
 9208SOL     OW27955   5.005   4.069   4.668
 9208SOL    HW127956   4.919   4.019   4.655
 9208SOL    HW227957   5.067   4.015   4.724
 9209SOL     OW27958   4.531   4.329   5.189
 9209SOL    HW127959   4.484   4.326   5.278
 9209SOL    HW227960   4.480   4.274   5.123
 9210SOL     OW27961   5.118   4.193   5.398
 9210SOL    HW127962   5.098   4.236   5.486
 9210SOL    HW227963   5.196   4.131   5.407
 9211SOL     OW27964   4.697   4.614   5.296
 9211SOL    HW127965   4.743   4.530   5.267
 9211SOL    HW227966   4.641   4.648   5.221
 9212SOL     OW27967   4.715   4.134   4.966
 9212SOL    HW127968   4.638   4.168   5.020
 9212SOL    HW227969   4.681   4.083   4.887
 9213SOL     OW27970   4.765   4.425   4.153
 9213SOL    HW127971   4.791   4.421   4.249
 9213SOL    HW227972   4.680   4.374   4.139
 9214SOL     OW27973   3.800   4.535   4.513
 9214SOL    HW127974   3.899   4.523   4.522
 9214SOL    HW227975   3.776   4.630   4.534
 9215SOL     OW27976   4.589   4.072   3.919
 9215SOL    HW127977   4.648   4.135   3.870
 9215SOL    HW227978   4.608   3.978   3.890
 9216SOL     OW27979   5.086   4.868   4.269
 9216SOL    HW127980   5.169   4.839   4.221
 9216SOL    HW227981   5.037   4.935   4.213
 9217SOL     OW27982   4.274   3.920   4.609
 9217SOL    HW127983   4.269   3.915   4.709
 9217SOL    HW227984   4.276   4.016   4.580
 9218SOL     OW27985   4.732   5.180   4.201
 9218SOL    HW127986   4.686   5.252   4.149
 9218SOL    HW227987   4.728   5.200   4.299
 9219SOL     OW27988   4.951   5.274   5.230
 9219SOL    HW127989   4.957   5.197   5.294
 9219SOL    HW227990   4.899   5.248   5.150
 9220SOL     OW27991   4.045   4.667   3.966
 9220SOL    HW127992   4.127   4.706   3.924
 9220SOL    HW227993   4.018   4.585   3.917
 9221SOL     OW27994   4.185   4.990   5.451
 9221SOL    HW127995   4.135   4.991   5.365
 9221SOL    HW227996   4.122   4.972   5.527
 9222SOL     OW27997   4.835   5.500   3.961
 9222SOL    HW127998   4.775   5.438   4.011
 9222SOL    HW227999   4.866   5.456   3.876
 9223SOL     OW28000   3.926   4.009   5.222
 9223SOL    HW128001   3.846   4.069   5.209
 9223SOL    HW228002   3.916   3.960   5.308
 9224SOL     OW28003   5.124   3.831   4.150
 9224SOL    HW128004   5.100   3.794   4.060
 9224SOL    HW228005   5.223   3.847   4.154
 9225SOL     OW28006   4.106   4.424   4.204
 9225SOL    HW128007   4.151   4.334   4.201
 9225SOL    HW228008   4.012   4.413   4.237
 9226SOL     OW28009   4.338   3.846   3.841
 9226SOL    HW128010   4.436   3.824   3.848
 9226SOL    HW228011   4.307   3.829   3.748
 9227SOL     OW28012   4.505   3.988   5.473
 9227SOL    HW128013   4.572   3.927   5.516
 9227SOL    HW228014   4.432   4.007   5.538
 9228SOL     OW28015   5.075   4.314   5.157
 9228SOL    HW128016   5.103   4.271   5.242
 9228SOL    HW228017   5.100   4.410   5.158
 9229SOL     OW28018   4.527   5.126   4.648
 9229SOL    HW128019   4.617   5.140   4.606
 9229SOL    HW228020   4.456   5.128   4.577
 9230SOL     OW28021   4.646   4.227   4.623
 9230SOL    HW128022   4.621   4.218   4.527
 9230SOL    HW228023   4.694   4.145   4.654
 9231SOL     OW28024   4.263   3.788   4.236
 9231SOL    HW128025   4.182   3.789   4.294
 9231SOL    HW228026   4.266   3.871   4.181
 9232SOL     OW28027   5.158   4.912   3.765
 9232SOL    HW128028   5.190   4.836   3.822
 9232SOL    HW228029   5.066   4.939   3.795
 9233SOL     OW28030   4.021   3.759   3.895
 9233SOL    HW128031   4.070   3.843   3.874
 9233SOL    HW228032   4.083   3.694   3.940
 9234SOL     OW28033   4.659   3.960   4.204
 9234SOL    HW128034   4.611   4.001   4.126
 9234SOL    HW228035   4.758   3.958   4.185
 9235SOL     OW28036   4.800   4.407   5.188
 9235SOL    HW128037   4.720   4.346   5.191
 9235SOL    HW228038   4.881   4.354   5.164
 9236SOL     OW28039   4.951   5.294   4.517
 9236SOL    HW128040   4.972   5.368   4.452
 9236SOL    HW228041   5.019   5.294   4.590
 9237SOL     OW28042   4.183   4.876   4.465
 9237SOL    HW128043   4.112   4.849   4.530
 9237SOL    HW228044   4.157   4.848   4.372
 9238SOL     OW28045   4.756   4.273   3.740
 9238SOL    HW128046   4.715   4.355   3.701
 9238SOL    HW228047   4.820   4.299   3.813
 9239SOL     OW28048   3.802   4.280   5.110
 9239SOL    HW128049   3.894   4.279   5.069
 9239SOL    HW228050   3.796   4.354   5.177
 9240SOL     OW28051   4.285   3.946   4.871
 9240SOL    HW128052   4.323   3.862   4.908
 9240SOL    HW228053   4.197   3.965   4.915
 9241SOL     OW28054   4.590   4.178   4.366
 9241SOL    HW128055   4.558   4.250   4.304
 9241SOL    HW228056   4.614   4.097   4.313
 9242SOL     OW28057   4.741   3.763   4.477
 9242SOL    HW128058   4.669   3.768   4.408
 9242SOL    HW228059   4.717   3.694   4.546
 9243SOL     OW28060   5.153   4.897   4.591
 9243SOL    HW128061   5.098   4.813   4.584
 9243SOL    HW228062   5.179   4.926   4.499
 9244SOL     OW28063   4.212   5.109   3.898
 9244SOL    HW128064   4.125   5.094   3.945
 9244SOL    HW228065   4.195   5.135   3.803
 9245SOL     OW28066   5.114   4.299   3.802
 9245SOL    HW128067   5.060   4.278   3.883
 9245SOL    HW228068   5.205   4.258   3.811
 9246SOL     OW28069   4.251   3.980   4.052
 9246SOL    HW128070   4.278   3.921   3.977
 9246SOL    HW228071   4.251   4.075   4.021
 9247SOL     OW28072   4.788   5.071   5.064
 9247SOL    HW128073   4.708   5.048   5.119
 9247SOL    HW228074   4.871   5.045   5.113
 9248SOL     OW28075   4.835   4.919   4.824
 9248SOL    HW128076   4.795   4.963   4.905
 9248SOL    HW228077   4.794   4.956   4.741
 9249SOL     OW28078   4.639   3.813   5.126
 9249SOL    HW128079   4.664   3.793   5.031
 9249SOL    HW228080   4.711   3.869   5.168
 9250SOL     OW28081   4.704   4.840   5.443
 9250SOL    HW128082   4.605   4.846   5.453
 9250SOL    HW228083   4.727   4.760   5.387
 9251SOL     OW28084   4.429   4.774   4.092
 9251SOL    HW128085   4.415   4.781   4.191
 9251SOL    HW228086   4.513   4.723   4.074
 9252SOL     OW28087   4.134   4.537   4.975
 9252SOL    HW128088   4.220   4.549   5.025
 9252SOL    HW228089   4.092   4.450   5.002
 9253SOL     OW28090   4.998   4.110   4.986
 9253SOL    HW128091   5.019   4.184   5.050
 9253SOL    HW228092   4.909   4.127   4.943
 9254SOL     OW28093   4.091   4.824   4.225
 9254SOL    HW128094   4.084   4.907   4.169
 9254SOL    HW228095   4.095   4.744   4.165
 9255SOL     OW28096   4.290   4.261   4.589
 9255SOL    HW128097   4.302   4.327   4.515
 9255SOL    HW228098   4.336   4.295   4.672
 9256SOL     OW28099   4.976   5.072   4.112
 9256SOL    HW128100   5.026   5.149   4.152
 9256SOL    HW228101   4.881   5.074   4.144
 9257SOL     OW28102   4.996   5.169   4.866
 9257SOL    HW128103   5.043   5.182   4.953
 9257SOL    HW228104   4.930   5.095   4.875
 9258SOL     OW28105   4.078   5.234   5.053
 9258SOL    HW128106   4.057   5.190   4.966
 9258SOL    HW228107   4.175   5.260   5.056
 9259SOL     OW28108   4.126   4.475   5.322
 9259SOL    HW128109   4.194   4.530   5.275
 9259SOL    HW228110   4.166   4.387   5.349
 9260SOL     OW28111   4.737   3.829   5.494
 9260SOL    HW128112   4.743   3.914   5.442
 9260SOL    HW228113   4.769   3.753   5.437
 9261SOL     OW28114   4.228   3.774   5.464
 9261SOL    HW128115   4.186   3.717   5.394
 9261SOL    HW228116   4.162   3.843   5.496
 9262SOL     OW28117   4.297   4.594   4.753
 9262SOL    HW128118   4.341   4.683   4.744
 9262SOL    HW228119   4.234   4.594   4.830
 9263SOL     OW28120   5.084   4.586   4.769
 9263SOL    HW128121   5.009   4.586   4.703
 9263SOL    HW228122   5.121   4.494   4.778
 9264SOL     OW28123   4.933   4.249   3.999
 9264SOL    HW128124   4.946   4.165   4.053
 9264SOL    HW228125   4.904   4.323   4.059
 9265SOL     OW28126   4.031   3.937   4.955
 9265SOL    HW128127   4.008   3.974   5.045
 9265SOL    HW228128   4.001   3.842   4.949
 9266SOL     OW28129   3.761   5.034   5.006
 9266SOL    HW128130   3.814   4.985   5.074
 9266SOL    HW228131   3.783   5.132   5.011
 9267SOL     OW28132   4.456   4.358   4.788
 9267SOL    HW128133   4.515   4.332   4.712
 9267SOL    HW228134   4.428   4.454   4.777
 9268SOL     OW28135   4.031   3.787   4.342
 9268SOL    HW128136   4.020   3.881   4.375
 9268SOL    HW228137   4.026   3.724   4.419
 9269SOL     OW28138   5.346   4.091   4.098
 9269SOL    HW128139   5.348   4.015   4.162
 9269SOL    HW228140   5.298   4.168   4.138
 9270SOL     OW28141   4.747   4.490   4.690
 9270SOL    HW128142   4.762   4.511   4.786
 9270SOL    HW228143   4.717   4.395   4.681
 9271SOL     OW28144   4.074   4.622   5.528
 9271SOL    HW128145   4.150   4.666   5.576
 9271SOL    HW228146   4.109   4.575   5.446
 9272SOL     OW28147   5.027   4.562   3.766
 9272SOL    HW128148   5.061   4.469   3.781
 9272SOL    HW228149   5.045   4.589   3.671
 9273SOL     OW28150   4.792   5.057   4.573
 9273SOL    HW128151   4.799   4.973   4.518
 9273SOL    HW228152   4.854   5.126   4.537
 9274SOL     OW28153   4.043   4.534   4.673
 9274SOL    HW128154   4.136   4.570   4.678
 9274SOL    HW228155   4.037   4.449   4.725
 9275SOL     OW28156   4.063   4.233   4.730
 9275SOL    HW128157   4.011   4.150   4.713
 9275SOL    HW228158   4.140   4.238   4.666
 9276SOL     OW28159   4.862   4.104   5.402
 9276SOL    HW128160   4.817   4.167   5.466
 9276SOL    HW228161   4.955   4.135   5.385
 9277SOL     OW28162   4.884   3.931   5.201
 9277SOL    HW128163   4.884   3.995   5.278
 9277SOL    HW228164   4.912   3.979   5.118
 9278SOL     OW28165   3.732   5.050   3.924
 9278SOL    HW128166   3.639   5.071   3.893
 9278SOL    HW228167   3.742   4.951   3.937
 9279SOL     OW28168   4.726   4.520   4.962
 9279SOL    HW128169   4.767   4.488   5.048
 9279SOL    HW228170   4.630   4.493   4.959
 9280SOL     OW28171   3.764   4.268   4.838
 9280SOL    HW128172   3.849   4.235   4.797
 9280SOL    HW228173   3.777   4.283   4.936
 9281SOL     OW28174   3.913   4.244   5.446
 9281SOL    HW128175   3.972   4.204   5.376
 9281SOL    HW228176   3.855   4.315   5.405
 9282SOL     OW28177   5.093   4.674   5.384
 9282SOL    HW128178   5.132   4.763   5.404
 9282SOL    HW228179   5.103   4.654   5.287
 9283SOL     OW28180   4.539   4.296   4.049
 9283SOL    HW128181   4.546   4.207   4.003
 9283SOL    HW228182   4.445   4.330   4.041
 9284SOL     OW28183   3.976   5.288   5.468
 9284SOL    HW128184   3.946   5.345   5.544
 9284SOL    HW228185   3.969   5.191   5.494
 9285SOL     OW28186   4.395   4.188   4.993
 9285SOL    HW128187   4.361   4.099   4.963
 9285SOL    HW228188   4.421   4.242   4.913
 9286SOL     OW28189   4.197   4.224   3.915
 9286SOL    HW128190   4.258   4.304   3.919
 9286SOL    HW228191   4.102   4.255   3.922
 9287SOL     OW28192   3.883   4.861   5.190
 9287SOL    HW128193   3.905   4.800   5.266
 9287SOL    HW228194   3.893   4.812   5.104
 9288SOL     OW28195   5.071   4.783   4.958
 9288SOL    HW128196   5.095   4.720   4.884
 9288SOL    HW228197   4.981   4.823   4.940
 9289SOL     OW28198   5.026   4.579   4.033
 9289SOL    HW128199   4.940   4.548   4.075
 9289SOL    HW228200   5.022   4.565   3.934
 9290SOL     OW28201   3.807   4.982   4.746
 9290SOL    HW128202   3.802   4.981   4.846
 9290SOL    HW228203   3.724   4.941   4.708
 9291SOL     OW28204   4.412   5.386   5.440
 9291SOL    HW128205   4.356   5.467   5.449
 9291SOL    HW228206   4.464   5.390   5.354
 9292SOL     OW28207   5.450   3.859   4.247
 9292SOL    HW128208   5.523   3.842   4.180
 9292SOL    HW228209   5.419   3.772   4.285
 9293SOL     OW28210   5.004   4.651   4.396
 9293SOL    HW128211   5.064   4.570   4.398
 9293SOL    HW228212   5.044   4.720   4.336
 9294SOL     OW28213   4.554   4.997   5.146
 9294SOL    HW128214   4.549   5.030   5.241
 9294SOL    HW228215   4.468   5.016   5.100
 9295SOL     OW28216   3.987   4.050   4.444
 9295SOL    HW128217   3.908   4.101   4.410
 9295SOL    HW228218   3.978   4.035   4.542
 9296SOL     OW28219   4.546   4.726   5.096
 9296SOL    HW128220   4.586   4.725   5.004
 9296SOL    HW228221   4.556   4.818   5.136
 9297SOL     OW28222   4.640   4.634   4.015
 9297SOL    HW128223   4.703   4.672   3.947
 9297SOL    HW228224   4.680   4.551   4.054
 9298SOL     OW28225   4.096   5.012   5.214
 9298SOL    HW128226   4.083   5.105   5.180
 9298SOL    HW228227   4.012   4.960   5.201
 9299SOL     OW28228   4.763   4.822   4.420
 9299SOL    HW128229   4.693   4.775   4.474
 9299SOL    HW228230   4.822   4.754   4.377
 9300SOL     OW28231   4.738   3.960   4.695
 9300SOL    HW128232   4.730   3.924   4.602
 9300SOL    HW228233   4.736   3.884   4.760
 9301SOL     OW28234   3.979   5.072   4.014
 9301SOL    HW128235   3.883   5.073   3.987
 9301SOL    HW228236   3.991   5.125   4.098
 9302SOL     OW28237   3.829   4.737   5.450
 9302SOL    HW128238   3.752   4.704   5.504
 9302SOL    HW228239   3.914   4.707   5.492
 9303SOL     OW28240   4.396   3.927   5.213
 9303SOL    HW128241   4.486   3.911   5.173
 9303SOL    HW228242   4.404   3.932   5.312
 9304SOL     OW28243   3.799   4.069   3.757
 9304SOL    HW128244   3.707   4.041   3.728
 9304SOL    HW228245   3.830   4.146   3.701
 9305SOL     OW28246   5.164   4.580   5.122
 9305SOL    HW128247   5.107   4.632   5.059
 9305SOL    HW228248   5.260   4.592   5.098
 9306SOL     OW28249   3.796   3.890   4.042
 9306SOL    HW128250   3.779   3.973   3.988
 9306SOL    HW228251   3.886   3.853   4.020
 9307SOL     OW28252   4.907   5.059   3.843
 9307SOL    HW128253   4.808   5.048   3.845
 9307SOL    HW228254   4.941   5.074   3.936
 9308SOL     OW28255   4.337   4.566   5.155
 9308SOL    HW128256   4.393   4.647   5.138
 9308SOL    HW228257   4.396   4.486   5.158
 9309SOL     OW28258   4.440   4.289   5.432
 9309SOL    HW128259   4.459   4.354   5.506
 9309SOL    HW228260   4.500   4.209   5.441
 9310SOL     OW28261   5.174   4.944   5.357
 9310SOL    HW128262   5.165   4.934   5.456
 9310SOL    HW228263   5.270   4.937   5.331
 9311SOL     OW28264   4.949   4.049   4.173
 9311SOL    HW128265   5.014   3.975   4.162
 9311SOL    HW228266   4.969   4.099   4.257
 9312SOL     OW28267   4.318   4.469   4.376
 9312SOL    HW128268   4.368   4.554   4.357
 9312SOL    HW228269   4.230   4.471   4.328
 9313SOL     OW28270   4.583   5.098   3.740
 9313SOL    HW128271   4.537   5.113   3.828
 9313SOL    HW228272   4.627   5.183   3.710
 9314SOL     OW28273   4.583   4.680   4.585
 9314SOL    HW128274   4.637   4.611   4.633
 9314SOL    HW228275   4.551   4.749   4.651
 9315SOL     OW28276   4.807   4.708   3.811
 9315SOL    HW128277   4.784   4.761   3.729
 9315SOL    HW228278   4.888   4.652   3.792
 9316SOL     OW28279   3.945   5.038   5.568
 9316SOL    HW128280   3.880   4.965   5.547
 9316SOL    HW228281   3.949   5.052   5.666
 9317SOL     OW28282   3.803   4.964   4.377
 9317SOL    HW128283   3.802   4.917   4.465
 9317SOL    HW228284   3.885   4.936   4.326
 9318SOL     OW28285   4.396   5.115   5.348
 9318SOL    HW128286   4.318   5.065   5.386
 9318SOL    HW228287   4.393   5.210   5.379
 9319SOL     OW28288   4.152   4.148   4.244
 9319SOL    HW128289   4.182   4.076   4.182
 9319SOL    HW228290   4.113   4.108   4.327
 9320SOL     OW28291   5.429   5.211   4.828
 9320SOL    HW128292   5.336   5.186   4.801
 9320SOL    HW228293   5.455   5.161   4.910
 9321SOL     OW28294   4.041   4.271   5.004
 9321SOL    HW128295   4.079   4.212   5.076
 9321SOL    HW228296   4.081   4.245   4.916
 9322SOL     OW28297   5.148   3.938   4.836
 9322SOL    HW128298   5.200   3.873   4.891
 9322SOL    HW228299   5.099   4.001   4.897
 9323SOL     OW28300   4.725   3.758   4.878
 9323SOL    HW128301   4.662   3.686   4.847
 9323SOL    HW228302   4.818   3.722   4.878
 9324SOL     OW28303   4.494   5.054   4.025
 9324SOL    HW128304   4.448   4.967   4.042
 9324SOL    HW228305   4.585   5.051   4.066
 9325SOL     OW28306   4.342   5.291   5.008
 9325SOL    HW128307   4.337   5.373   5.065
 9325SOL    HW228308   4.431   5.288   4.963
 9326SOL     OW28309   5.076   3.776   3.892
 9326SOL    HW128310   5.111   3.735   3.808
 9326SOL    HW228311   4.986   3.738   3.912
 9327SOL     OW28312   5.024   4.177   4.415
 9327SOL    HW128313   4.965   4.257   4.419
 9327SOL    HW228314   5.039   4.142   4.508
 9328SOL     OW28315   5.317   3.945   4.606
 9328SOL    HW128316   5.233   3.944   4.660
 9328SOL    HW228317   5.319   4.028   4.550
 9329SOL     OW28318   3.763   4.801   4.024
 9329SOL    HW128319   3.862   4.790   4.015
 9329SOL    HW228320   3.723   4.715   4.056
 9330SOL     OW28321   3.954   4.352   5.699
 9330SOL    HW128322   3.861   4.350   5.736
 9330SOL    HW228323   3.955   4.313   5.607
 9331SOL     OW28324   3.949   3.999   6.582
 9331SOL    HW128325   3.984   3.982   6.674
 9331SOL    HW228326   3.861   3.954   6.570
 9332SOL     OW28327   3.743   4.092   6.233
 9332SOL    HW128328   3.661   4.135   6.272
 9332SOL    HW228329   3.715   4.019   6.170
 9333SOL     OW28330   4.293   4.999   6.751
 9333SOL    HW128331   4.200   4.992   6.714
 9333SOL    HW228332   4.304   5.088   6.795
 9334SOL     OW28333   5.279   5.235   6.289
 9334SOL    HW128334   5.222   5.219   6.370
 9334SOL    HW228335   5.220   5.245   6.209
 9335SOL     OW28336   4.859   4.427   6.303
 9335SOL    HW128337   4.916   4.505   6.278
 9335SOL    HW228338   4.799   4.453   6.379
 9336SOL     OW28339   4.492   4.868   6.609
 9336SOL    HW128340   4.414   4.885   6.669
 9336SOL    HW228341   4.526   4.955   6.573
 9337SOL     OW28342   4.574   4.522   7.409
 9337SOL    HW128343   4.570   4.598   7.474
 9337SOL    HW228344   4.596   4.558   7.318
 9338SOL     OW28345   4.409   4.736   6.251
 9338SOL    HW128346   4.478   4.720   6.321
 9338SOL    HW228347   4.336   4.793   6.289
 9339SOL     OW28348   4.410   4.885   7.389
 9339SOL    HW128349   4.470   4.964   7.403
 9339SOL    HW228350   4.324   4.916   7.348
 9340SOL     OW28351   4.059   5.159   6.647
 9340SOL    HW128352   3.981   5.128   6.594
 9340SOL    HW228353   4.117   5.217   6.590
 9341SOL     OW28354   5.184   5.229   6.925
 9341SOL    HW128355   5.208   5.323   6.951
 9341SOL    HW228356   5.168   5.175   7.007
 9342SOL     OW28357   4.162   4.116   7.085
 9342SOL    HW128358   4.244   4.060   7.094
 9342SOL    HW228359   4.081   4.058   7.089
 9343SOL     OW28360   4.851   5.065   7.276
 9343SOL    HW128361   4.898   5.065   7.364
 9343SOL    HW228362   4.803   4.978   7.265
 9344SOL     OW28363   3.954   5.158   6.124
 9344SOL    HW128364   3.928   5.254   6.124
 9344SOL    HW228365   3.883   5.104   6.169
 9345SOL     OW28366   3.964   4.815   6.472
 9345SOL    HW128367   3.978   4.731   6.524
 9345SOL    HW228368   3.909   4.879   6.527
 9346SOL     OW28369   4.330   4.688   5.709
 9346SOL    HW128370   4.337   4.772   5.655
 9346SOL    HW228371   4.376   4.701   5.797
 9347SOL     OW28372   3.846   4.367   6.149
 9347SOL    HW128373   3.801   4.279   6.166
 9347SOL    HW228374   3.845   4.421   6.233
 9348SOL     OW28375   3.751   5.320   5.703
 9348SOL    HW128376   3.732   5.224   5.724
 9348SOL    HW228377   3.718   5.378   5.778
 9349SOL     OW28378   5.413   4.646   6.198
 9349SOL    HW128379   5.508   4.617   6.206
 9349SOL    HW228380   5.405   4.711   6.123
 9350SOL     OW28381   3.837   4.461   7.183
 9350SOL    HW128382   3.925   4.448   7.228
 9350SOL    HW228383   3.824   4.558   7.161
 9351SOL     OW28384   4.337   5.089   6.312
 9351SOL    HW128385   4.288   5.002   6.321
 9351SOL    HW228386   4.314   5.132   6.225
 9352SOL     OW28387   5.017   4.952   7.009
 9352SOL    HW128388   5.054   4.879   6.951
 9352SOL    HW228389   5.069   4.957   7.094
 9353SOL     OW28390   4.533   3.728   6.088
 9353SOL    HW128391   4.573   3.819   6.079
 9353SOL    HW228392   4.433   3.736   6.094
 9354SOL     OW28393   3.921   4.700   6.850
 9354SOL    HW128394   4.010   4.655   6.836
 9354SOL    HW228395   3.848   4.635   6.831
 9355SOL     OW28396   4.041   3.975   7.387
 9355SOL    HW128397   4.112   4.046   7.393
 9355SOL    HW228398   3.953   4.014   7.415
 9356SOL     OW28399   5.190   5.141   6.539
 9356SOL    HW128400   5.131   5.147   6.619
 9356SOL    HW228401   5.175   5.053   6.493
 9357SOL     OW28402   5.391   5.438   6.158
 9357SOL    HW128403   5.350   5.415   6.070
 9357SOL    HW228404   5.373   5.364   6.223
 9358SOL     OW28405   4.322   4.453   5.856
 9358SOL    HW128406   4.346   4.522   5.788
 9358SOL    HW228407   4.244   4.486   5.910
 9359SOL     OW28408   5.005   4.069   6.530
 9359SOL    HW128409   4.919   4.019   6.517
 9359SOL    HW228410   5.067   4.015   6.586
 9360SOL     OW28411   4.531   4.329   7.051
 9360SOL    HW128412   4.484   4.326   7.140
 9360SOL    HW228413   4.480   4.274   6.985
 9361SOL     OW28414   5.118   4.193   7.260
 9361SOL    HW128415   5.098   4.236   7.348
 9361SOL    HW228416   5.196   4.131   7.269
 9362SOL     OW28417   4.697   4.614   7.158
 9362SOL    HW128418   4.743   4.530   7.129
 9362SOL    HW228419   4.641   4.648   7.083
 9363SOL     OW28420   4.715   4.134   6.828
 9363SOL    HW128421   4.638   4.168   6.882
 9363SOL    HW228422   4.681   4.083   6.749
 9364SOL     OW28423   4.765   4.425   6.015
 9364SOL    HW128424   4.791   4.421   6.111
 9364SOL    HW228425   4.680   4.374   6.001
 9365SOL     OW28426   3.800   4.535   6.375
 9365SOL    HW128427   3.899   4.523   6.384
 9365SOL    HW228428   3.776   4.630   6.396
 9366SOL     OW28429   4.589   4.072   5.781
 9366SOL    HW128430   4.648   4.135   5.732
 9366SOL    HW228431   4.608   3.978   5.752
 9367SOL     OW28432   5.086   4.868   6.131
 9367SOL    HW128433   5.169   4.839   6.083
 9367SOL    HW228434   5.037   4.935   6.075
 9368SOL     OW28435   4.274   3.920   6.471
 9368SOL    HW128436   4.269   3.915   6.571
 9368SOL    HW228437   4.276   4.016   6.442
 9369SOL     OW28438   4.732   5.180   6.063
 9369SOL    HW128439   4.686   5.252   6.011
 9369SOL    HW228440   4.728   5.200   6.161
 9370SOL     OW28441   4.951   5.274   7.092
 9370SOL    HW128442   4.957   5.197   7.156
 9370SOL    HW228443   4.899   5.248   7.012
 9371SOL     OW28444   4.045   4.667   5.828
 9371SOL    HW128445   4.127   4.706   5.786
 9371SOL    HW228446   4.018   4.585   5.779
 9372SOL     OW28447   4.185   4.990   7.313
 9372SOL    HW128448   4.135   4.991   7.227
 9372SOL    HW228449   4.122   4.972   7.389
 9373SOL     OW28450   4.835   5.500   5.823
 9373SOL    HW128451   4.775   5.438   5.873
 9373SOL    HW228452   4.866   5.456   5.738
 9374SOL     OW28453   3.926   4.009   7.084
 9374SOL    HW128454   3.846   4.069   7.071
 9374SOL    HW228455   3.916   3.960   7.170
 9375SOL     OW28456   5.124   3.831   6.012
 9375SOL    HW128457   5.100   3.794   5.922
 9375SOL    HW228458   5.223   3.847   6.016
 9376SOL     OW28459   4.106   4.424   6.066
 9376SOL    HW128460   4.151   4.334   6.063
 9376SOL    HW228461   4.012   4.413   6.099
 9377SOL     OW28462   4.338   3.846   5.703
 9377SOL    HW128463   4.436   3.824   5.710
 9377SOL    HW228464   4.307   3.829   5.610
 9378SOL     OW28465   4.505   3.988   7.335
 9378SOL    HW128466   4.572   3.927   7.378
 9378SOL    HW228467   4.432   4.007   7.400
 9379SOL     OW28468   5.075   4.314   7.019
 9379SOL    HW128469   5.103   4.271   7.104
 9379SOL    HW228470   5.100   4.410   7.020
 9380SOL     OW28471   4.527   5.126   6.510
 9380SOL    HW128472   4.617   5.140   6.468
 9380SOL    HW228473   4.456   5.128   6.439
 9381SOL     OW28474   4.646   4.227   6.485
 9381SOL    HW128475   4.621   4.218   6.389
 9381SOL    HW228476   4.694   4.145   6.516
 9382SOL     OW28477   4.263   3.788   6.098
 9382SOL    HW128478   4.182   3.789   6.156
 9382SOL    HW228479   4.266   3.871   6.043
 9383SOL     OW28480   5.158   4.912   5.627
 9383SOL    HW128481   5.190   4.836   5.684
 9383SOL    HW228482   5.066   4.939   5.657
 9384SOL     OW28483   4.021   3.759   5.757
 9384SOL    HW128484   4.070   3.843   5.736
 9384SOL    HW228485   4.083   3.694   5.802
 9385SOL     OW28486   4.659   3.960   6.066
 9385SOL    HW128487   4.611   4.001   5.988
 9385SOL    HW228488   4.758   3.958   6.047
 9386SOL     OW28489   4.800   4.407   7.050
 9386SOL    HW128490   4.720   4.346   7.053
 9386SOL    HW228491   4.881   4.354   7.026
 9387SOL     OW28492   4.951   5.294   6.379
 9387SOL    HW128493   4.972   5.368   6.314
 9387SOL    HW228494   5.019   5.294   6.452
 9388SOL     OW28495   4.183   4.876   6.327
 9388SOL    HW128496   4.112   4.849   6.392
 9388SOL    HW228497   4.157   4.848   6.234
 9389SOL     OW28498   4.756   4.273   5.602
 9389SOL    HW128499   4.715   4.355   5.563
 9389SOL    HW228500   4.820   4.299   5.675
 9390SOL     OW28501   3.802   4.280   6.972
 9390SOL    HW128502   3.894   4.279   6.931
 9390SOL    HW228503   3.796   4.354   7.039
 9391SOL     OW28504   4.285   3.946   6.733
 9391SOL    HW128505   4.323   3.862   6.770
 9391SOL    HW228506   4.197   3.965   6.777
 9392SOL     OW28507   4.590   4.178   6.228
 9392SOL    HW128508   4.558   4.250   6.166
 9392SOL    HW228509   4.614   4.097   6.175
 9393SOL     OW28510   4.741   3.763   6.339
 9393SOL    HW128511   4.669   3.768   6.270
 9393SOL    HW228512   4.717   3.694   6.408
 9394SOL     OW28513   5.153   4.897   6.453
 9394SOL    HW128514   5.098   4.813   6.446
 9394SOL    HW228515   5.179   4.926   6.361
 9395SOL     OW28516   4.212   5.109   5.760
 9395SOL    HW128517   4.125   5.094   5.807
 9395SOL    HW228518   4.195   5.135   5.665
 9396SOL     OW28519   5.114   4.299   5.664
 9396SOL    HW128520   5.060   4.278   5.745
 9396SOL    HW228521   5.205   4.258   5.673
 9397SOL     OW28522   4.251   3.980   5.914
 9397SOL    HW128523   4.278   3.921   5.839
 9397SOL    HW228524   4.251   4.075   5.883
 9398SOL     OW28525   4.788   5.071   6.926
 9398SOL    HW128526   4.708   5.048   6.981
 9398SOL    HW228527   4.871   5.045   6.975
 9399SOL     OW28528   4.835   4.919   6.686
 9399SOL    HW128529   4.795   4.963   6.767
 9399SOL    HW228530   4.794   4.956   6.603
 9400SOL     OW28531   4.639   3.813   6.988
 9400SOL    HW128532   4.664   3.793   6.893
 9400SOL    HW228533   4.711   3.869   7.030
 9401SOL     OW28534   4.704   4.840   7.305
 9401SOL    HW128535   4.605   4.846   7.315
 9401SOL    HW228536   4.727   4.760   7.249
 9402SOL     OW28537   4.429   4.774   5.954
 9402SOL    HW128538   4.415   4.781   6.053
 9402SOL    HW228539   4.513   4.723   5.936
 9403SOL     OW28540   4.134   4.537   6.837
 9403SOL    HW128541   4.220   4.549   6.887
 9403SOL    HW228542   4.092   4.450   6.864
 9404SOL     OW28543   4.998   4.110   6.848
 9404SOL    HW128544   5.019   4.184   6.912
 9404SOL    HW228545   4.909   4.127   6.805
 9405SOL     OW28546   4.091   4.824   6.087
 9405SOL    HW128547   4.084   4.907   6.031
 9405SOL    HW228548   4.095   4.744   6.027
 9406SOL     OW28549   4.290   4.261   6.451
 9406SOL    HW128550   4.302   4.327   6.377
 9406SOL    HW228551   4.336   4.295   6.534
 9407SOL     OW28552   4.976   5.072   5.974
 9407SOL    HW128553   5.026   5.149   6.014
 9407SOL    HW228554   4.881   5.074   6.006
 9408SOL     OW28555   4.996   5.169   6.728
 9408SOL    HW128556   5.043   5.182   6.815
 9408SOL    HW228557   4.930   5.095   6.737
 9409SOL     OW28558   4.078   5.234   6.915
 9409SOL    HW128559   4.057   5.190   6.828
 9409SOL    HW228560   4.175   5.260   6.918
 9410SOL     OW28561   4.126   4.475   7.184
 9410SOL    HW128562   4.194   4.530   7.137
 9410SOL    HW228563   4.166   4.387   7.211
 9411SOL     OW28564   4.737   3.829   7.356
 9411SOL    HW128565   4.743   3.914   7.304
 9411SOL    HW228566   4.769   3.753   7.299
 9412SOL     OW28567   4.228   3.774   7.326
 9412SOL    HW128568   4.186   3.717   7.256
 9412SOL    HW228569   4.162   3.843   7.358
 9413SOL     OW28570   4.297   4.594   6.615
 9413SOL    HW128571   4.341   4.683   6.606
 9413SOL    HW228572   4.234   4.594   6.692
 9414SOL     OW28573   5.084   4.586   6.631
 9414SOL    HW128574   5.009   4.586   6.565
 9414SOL    HW228575   5.121   4.494   6.640
 9415SOL     OW28576   4.933   4.249   5.861
 9415SOL    HW128577   4.946   4.165   5.915
 9415SOL    HW228578   4.904   4.323   5.921
 9416SOL     OW28579   4.031   3.937   6.817
 9416SOL    HW128580   4.008   3.974   6.907
 9416SOL    HW228581   4.001   3.842   6.811
 9417SOL     OW28582   3.761   5.034   6.868
 9417SOL    HW128583   3.814   4.985   6.936
 9417SOL    HW228584   3.783   5.132   6.873
 9418SOL     OW28585   4.456   4.358   6.650
 9418SOL    HW128586   4.515   4.332   6.574
 9418SOL    HW228587   4.428   4.454   6.639
 9419SOL     OW28588   4.031   3.787   6.204
 9419SOL    HW128589   4.020   3.881   6.237
 9419SOL    HW228590   4.026   3.724   6.281
 9420SOL     OW28591   5.346   4.091   5.960
 9420SOL    HW128592   5.348   4.015   6.024
 9420SOL    HW228593   5.298   4.168   6.000
 9421SOL     OW28594   4.747   4.490   6.552
 9421SOL    HW128595   4.762   4.511   6.648
 9421SOL    HW228596   4.717   4.395   6.543
 9422SOL     OW28597   4.074   4.622   7.390
 9422SOL    HW128598   4.150   4.666   7.438
 9422SOL    HW228599   4.109   4.575   7.308
 9423SOL     OW28600   5.027   4.562   5.628
 9423SOL    HW128601   5.061   4.469   5.643
 9423SOL    HW228602   5.045   4.589   5.533
 9424SOL     OW28603   4.792   5.057   6.435
 9424SOL    HW128604   4.799   4.973   6.380
 9424SOL    HW228605   4.854   5.126   6.399
 9425SOL     OW28606   4.043   4.534   6.535
 9425SOL    HW128607   4.136   4.570   6.540
 9425SOL    HW228608   4.037   4.449   6.587
 9426SOL     OW28609   4.063   4.233   6.592
 9426SOL    HW128610   4.011   4.150   6.575
 9426SOL    HW228611   4.140   4.238   6.528
 9427SOL     OW28612   4.862   4.104   7.264
 9427SOL    HW128613   4.817   4.167   7.328
 9427SOL    HW228614   4.955   4.135   7.247
 9428SOL     OW28615   4.884   3.931   7.063
 9428SOL    HW128616   4.884   3.995   7.140
 9428SOL    HW228617   4.912   3.979   6.980
 9429SOL     OW28618   3.732   5.050   5.786
 9429SOL    HW128619   3.639   5.071   5.755
 9429SOL    HW228620   3.742   4.951   5.799
 9430SOL     OW28621   4.726   4.520   6.824
 9430SOL    HW128622   4.767   4.488   6.910
 9430SOL    HW228623   4.630   4.493   6.821
 9431SOL     OW28624   3.764   4.268   6.700
 9431SOL    HW128625   3.849   4.235   6.659
 9431SOL    HW228626   3.777   4.283   6.798
 9432SOL     OW28627   3.913   4.244   7.308
 9432SOL    HW128628   3.972   4.204   7.238
 9432SOL    HW228629   3.855   4.315   7.267
 9433SOL     OW28630   5.093   4.674   7.246
 9433SOL    HW128631   5.132   4.763   7.266
 9433SOL    HW228632   5.103   4.654   7.149
 9434SOL     OW28633   4.539   4.296   5.911
 9434SOL    HW128634   4.546   4.207   5.865
 9434SOL    HW228635   4.445   4.330   5.903
 9435SOL     OW28636   3.976   5.288   7.330
 9435SOL    HW128637   3.946   5.345   7.406
 9435SOL    HW228638   3.969   5.191   7.356
 9436SOL     OW28639   4.395   4.188   6.855
 9436SOL    HW128640   4.361   4.099   6.825
 9436SOL    HW228641   4.421   4.242   6.775
 9437SOL     OW28642   4.197   4.224   5.777
 9437SOL    HW128643   4.258   4.304   5.781
 9437SOL    HW228644   4.102   4.255   5.784
 9438SOL     OW28645   3.883   4.861   7.052
 9438SOL    HW128646   3.905   4.800   7.128
 9438SOL    HW228647   3.893   4.812   6.966
 9439SOL     OW28648   5.071   4.783   6.820
 9439SOL    HW128649   5.095   4.720   6.746
 9439SOL    HW228650   4.981   4.823   6.802
 9440SOL     OW28651   5.026   4.579   5.895
 9440SOL    HW128652   4.940   4.548   5.937
 9440SOL    HW228653   5.022   4.565   5.796
 9441SOL     OW28654   3.807   4.982   6.608
 9441SOL    HW128655   3.802   4.981   6.708
 9441SOL    HW228656   3.724   4.941   6.570
 9442SOL     OW28657   4.412   5.386   7.302
 9442SOL    HW128658   4.356   5.467   7.311
 9442SOL    HW228659   4.464   5.390   7.216
 9443SOL     OW28660   5.450   3.859   6.109
 9443SOL    HW128661   5.523   3.842   6.042
 9443SOL    HW228662   5.419   3.772   6.147
 9444SOL     OW28663   5.004   4.651   6.258
 9444SOL    HW128664   5.064   4.570   6.260
 9444SOL    HW228665   5.044   4.720   6.198
 9445SOL     OW28666   4.554   4.997   7.008
 9445SOL    HW128667   4.549   5.030   7.103
 9445SOL    HW228668   4.468   5.016   6.962
 9446SOL     OW28669   3.987   4.050   6.306
 9446SOL    HW128670   3.908   4.101   6.272
 9446SOL    HW228671   3.978   4.035   6.404
 9447SOL     OW28672   4.546   4.726   6.958
 9447SOL    HW128673   4.586   4.725   6.866
 9447SOL    HW228674   4.556   4.818   6.998
 9448SOL     OW28675   4.640   4.634   5.877
 9448SOL    HW128676   4.703   4.672   5.809
 9448SOL    HW228677   4.680   4.551   5.916
 9449SOL     OW28678   4.096   5.012   7.076
 9449SOL    HW128679   4.083   5.105   7.042
 9449SOL    HW228680   4.012   4.960   7.063
 9450SOL     OW28681   4.763   4.822   6.282
 9450SOL    HW128682   4.693   4.775   6.336
 9450SOL    HW228683   4.822   4.754   6.239
 9451SOL     OW28684   4.738   3.960   6.557
 9451SOL    HW128685   4.730   3.924   6.464
 9451SOL    HW228686   4.736   3.884   6.622
 9452SOL     OW28687   3.979   5.072   5.876
 9452SOL    HW128688   3.883   5.073   5.849
 9452SOL    HW228689   3.991   5.125   5.960
 9453SOL     OW28690   3.829   4.737   7.312
 9453SOL    HW128691   3.752   4.704   7.366
 9453SOL    HW228692   3.914   4.707   7.354
 9454SOL     OW28693   4.396   3.927   7.075
 9454SOL    HW128694   4.486   3.911   7.035
 9454SOL    HW228695   4.404   3.932   7.174
 9455SOL     OW28696   3.799   4.069   5.619
 9455SOL    HW128697   3.707   4.041   5.590
 9455SOL    HW228698   3.830   4.146   5.563
 9456SOL     OW28699   5.164   4.580   6.984
 9456SOL    HW128700   5.107   4.632   6.921
 9456SOL    HW228701   5.260   4.592   6.960
 9457SOL     OW28702   3.796   3.890   5.904
 9457SOL    HW128703   3.779   3.973   5.850
 9457SOL    HW228704   3.886   3.853   5.882
 9458SOL     OW28705   4.907   5.059   5.705
 9458SOL    HW128706   4.808   5.048   5.707
 9458SOL    HW228707   4.941   5.074   5.798
 9459SOL     OW28708   4.337   4.566   7.017
 9459SOL    HW128709   4.393   4.647   7.000
 9459SOL    HW228710   4.396   4.486   7.020
 9460SOL     OW28711   4.440   4.289   7.294
 9460SOL    HW128712   4.459   4.354   7.368
 9460SOL    HW228713   4.500   4.209   7.303
 9461SOL     OW28714   5.174   4.944   7.219
 9461SOL    HW128715   5.165   4.934   7.318
 9461SOL    HW228716   5.270   4.937   7.193
 9462SOL     OW28717   4.949   4.049   6.035
 9462SOL    HW128718   5.014   3.975   6.024
 9462SOL    HW228719   4.969   4.099   6.119
 9463SOL     OW28720   4.318   4.469   6.238
 9463SOL    HW128721   4.368   4.554   6.219
 9463SOL    HW228722   4.230   4.471   6.190
 9464SOL     OW28723   4.583   5.098   5.602
 9464SOL    HW128724   4.537   5.113   5.690
 9464SOL    HW228725   4.627   5.183   5.572
 9465SOL     OW28726   4.583   4.680   6.447
 9465SOL    HW128727   4.637   4.611   6.495
 9465SOL    HW228728   4.551   4.749   6.513
 9466SOL     OW28729   4.807   4.708   5.673
 9466SOL    HW128730   4.784   4.761   5.591
 9466SOL    HW228731   4.888   4.652   5.654
 9467SOL     OW28732   3.945   5.038   7.430
 9467SOL    HW128733   3.880   4.965   7.409
 9467SOL    HW228734   3.949   5.052   7.528
 9468SOL     OW28735   3.803   4.964   6.239
 9468SOL    HW128736   3.802   4.917   6.327
 9468SOL    HW228737   3.885   4.936   6.188
 9469SOL     OW28738   4.396   5.115   7.210
 9469SOL    HW128739   4.318   5.065   7.248
 9469SOL    HW228740   4.393   5.210   7.241
 9470SOL     OW28741   4.152   4.148   6.106
 9470SOL    HW128742   4.182   4.076   6.044
 9470SOL    HW228743   4.113   4.108   6.189
 9471SOL     OW28744   5.429   5.211   6.690
 9471SOL    HW128745   5.336   5.186   6.663
 9471SOL    HW228746   5.455   5.161   6.772
 9472SOL     OW28747   4.041   4.271   6.866
 9472SOL    HW128748   4.079   4.212   6.938
 9472SOL    HW228749   4.081   4.245   6.778
 9473SOL     OW28750   5.148   3.938   6.698
 9473SOL    HW128751   5.200   3.873   6.753
 9473SOL    HW228752   5.099   4.001   6.759
 9474SOL     OW28753   4.725   3.758   6.740
 9474SOL    HW128754   4.662   3.686   6.709
 9474SOL    HW228755   4.818   3.722   6.740
 9475SOL     OW28756   4.494   5.054   5.887
 9475SOL    HW128757   4.448   4.967   5.904
 9475SOL    HW228758   4.585   5.051   5.928
 9476SOL     OW28759   4.342   5.291   6.870
 9476SOL    HW128760   4.337   5.373   6.927
 9476SOL    HW228761   4.431   5.288   6.825
 9477SOL     OW28762   5.076   3.776   5.754
 9477SOL    HW128763   5.111   3.735   5.670
 9477SOL    HW228764   4.986   3.738   5.774
 9478SOL     OW28765   5.024   4.177   6.277
 9478SOL    HW128766   4.965   4.257   6.281
 9478SOL    HW228767   5.039   4.142   6.370
 9479SOL     OW28768   5.317   3.945   6.468
 9479SOL    HW128769   5.233   3.944   6.522
 9479SOL    HW228770   5.319   4.028   6.412
 9480SOL     OW28771   3.763   4.801   5.886
 9480SOL    HW128772   3.862   4.790   5.877
 9480SOL    HW228773   3.723   4.715   5.918
 9481SOL     OW28774   3.954   4.352   7.561
 9481SOL    HW128775   3.861   4.350   7.598
 9481SOL    HW228776   3.955   4.313   7.469
 9482SOL     OW28777   3.949   3.999   8.444
 9482SOL    HW128778   3.984   3.982   8.536
 9482SOL    HW228779   3.861   3.954   8.432
 9483SOL     OW28780   3.743   4.092   8.095
 9483SOL    HW128781   3.661   4.135   8.134
 9483SOL    HW228782   3.715   4.019   8.032
 9484SOL     OW28783   4.293   4.999   8.613
 9484SOL    HW128784   4.200   4.992   8.576
 9484SOL    HW228785   4.304   5.088   8.657
 9485SOL     OW28786   5.279   5.235   8.151
 9485SOL    HW128787   5.222   5.219   8.232
 9485SOL    HW228788   5.220   5.245   8.071
 9486SOL     OW28789   4.859   4.427   8.165
 9486SOL    HW128790   4.916   4.505   8.140
 9486SOL    HW228791   4.799   4.453   8.241
 9487SOL     OW28792   4.492   4.868   8.471
 9487SOL    HW128793   4.414   4.885   8.531
 9487SOL    HW228794   4.526   4.955   8.435
 9488SOL     OW28795   4.574   4.522   9.271
 9488SOL    HW128796   4.570   4.598   9.336
 9488SOL    HW228797   4.596   4.558   9.180
 9489SOL     OW28798   4.409   4.736   8.113
 9489SOL    HW128799   4.478   4.720   8.183
 9489SOL    HW228800   4.336   4.793   8.151
 9490SOL     OW28801   4.410   4.885   9.251
 9490SOL    HW128802   4.470   4.964   9.265
 9490SOL    HW228803   4.324   4.916   9.210
 9491SOL     OW28804   4.059   5.159   8.509
 9491SOL    HW128805   3.981   5.128   8.456
 9491SOL    HW228806   4.117   5.217   8.452
 9492SOL     OW28807   5.184   5.229   8.787
 9492SOL    HW128808   5.208   5.323   8.813
 9492SOL    HW228809   5.168   5.175   8.869
 9493SOL     OW28810   4.162   4.116   8.947
 9493SOL    HW128811   4.244   4.060   8.956
 9493SOL    HW228812   4.081   4.058   8.951
 9494SOL     OW28813   4.851   5.065   9.138
 9494SOL    HW128814   4.898   5.065   9.226
 9494SOL    HW228815   4.803   4.978   9.127
 9495SOL     OW28816   3.954   5.158   7.986
 9495SOL    HW128817   3.928   5.254   7.986
 9495SOL    HW228818   3.883   5.104   8.031
 9496SOL     OW28819   3.964   4.815   8.334
 9496SOL    HW128820   3.978   4.731   8.386
 9496SOL    HW228821   3.909   4.879   8.389
 9497SOL     OW28822   4.330   4.688   7.571
 9497SOL    HW128823   4.337   4.772   7.517
 9497SOL    HW228824   4.376   4.701   7.659
 9498SOL     OW28825   3.846   4.367   8.011
 9498SOL    HW128826   3.801   4.279   8.028
 9498SOL    HW228827   3.845   4.421   8.095
 9499SOL     OW28828   3.751   5.320   7.565
 9499SOL    HW128829   3.732   5.224   7.586
 9499SOL    HW228830   3.718   5.378   7.640
 9500SOL     OW28831   5.413   4.646   8.060
 9500SOL    HW128832   5.508   4.617   8.068
 9500SOL    HW228833   5.405   4.711   7.985
 9501SOL     OW28834   3.837   4.461   9.045
 9501SOL    HW128835   3.925   4.448   9.090
 9501SOL    HW228836   3.824   4.558   9.023
 9502SOL     OW28837   4.337   5.089   8.174
 9502SOL    HW128838   4.288   5.002   8.183
 9502SOL    HW228839   4.314   5.132   8.087
 9503SOL     OW28840   5.017   4.952   8.871
 9503SOL    HW128841   5.054   4.879   8.813
 9503SOL    HW228842   5.069   4.957   8.956
 9504SOL     OW28843   4.533   3.728   7.950
 9504SOL    HW128844   4.573   3.819   7.941
 9504SOL    HW228845   4.433   3.736   7.956
 9505SOL     OW28846   3.921   4.700   8.712
 9505SOL    HW128847   4.010   4.655   8.698
 9505SOL    HW228848   3.848   4.635   8.693
 9506SOL     OW28849   4.041   3.975   9.249
 9506SOL    HW128850   4.112   4.046   9.255
 9506SOL    HW228851   3.953   4.014   9.277
 9507SOL     OW28852   5.190   5.141   8.401
 9507SOL    HW128853   5.131   5.147   8.481
 9507SOL    HW228854   5.175   5.053   8.355
 9508SOL     OW28855   5.391   5.438   8.020
 9508SOL    HW128856   5.350   5.415   7.932
 9508SOL    HW228857   5.373   5.364   8.085
 9509SOL     OW28858   4.322   4.453   7.718
 9509SOL    HW128859   4.346   4.522   7.650
 9509SOL    HW228860   4.244   4.486   7.772
 9510SOL     OW28861   5.005   4.069   8.392
 9510SOL    HW128862   4.919   4.019   8.379
 9510SOL    HW228863   5.067   4.015   8.448
 9511SOL     OW28864   4.531   4.329   8.913
 9511SOL    HW128865   4.484   4.326   9.002
 9511SOL    HW228866   4.480   4.274   8.847
 9512SOL     OW28867   5.118   4.193   9.122
 9512SOL    HW128868   5.098   4.236   9.210
 9512SOL    HW228869   5.196   4.131   9.131
 9513SOL     OW28870   4.697   4.614   9.020
 9513SOL    HW128871   4.743   4.530   8.991
 9513SOL    HW228872   4.641   4.648   8.945
 9514SOL     OW28873   4.715   4.134   8.690
 9514SOL    HW128874   4.638   4.168   8.744
 9514SOL    HW228875   4.681   4.083   8.611
 9515SOL     OW28876   4.765   4.425   7.877
 9515SOL    HW128877   4.791   4.421   7.973
 9515SOL    HW228878   4.680   4.374   7.863
 9516SOL     OW28879   3.800   4.535   8.237
 9516SOL    HW128880   3.899   4.523   8.246
 9516SOL    HW228881   3.776   4.630   8.258
 9517SOL     OW28882   4.589   4.072   7.643
 9517SOL    HW128883   4.648   4.135   7.594
 9517SOL    HW228884   4.608   3.978   7.614
 9518SOL     OW28885   5.086   4.868   7.993
 9518SOL    HW128886   5.169   4.839   7.945
 9518SOL    HW228887   5.037   4.935   7.937
 9519SOL     OW28888   4.274   3.920   8.333
 9519SOL    HW128889   4.269   3.915   8.433
 9519SOL    HW228890   4.276   4.016   8.304
 9520SOL     OW28891   4.732   5.180   7.925
 9520SOL    HW128892   4.686   5.252   7.873
 9520SOL    HW228893   4.728   5.200   8.023
 9521SOL     OW28894   4.951   5.274   8.954
 9521SOL    HW128895   4.957   5.197   9.018
 9521SOL    HW228896   4.899   5.248   8.874
 9522SOL     OW28897   4.045   4.667   7.690
 9522SOL    HW128898   4.127   4.706   7.648
 9522SOL    HW228899   4.018   4.585   7.641
 9523SOL     OW28900   4.185   4.990   9.175
 9523SOL    HW128901   4.135   4.991   9.089
 9523SOL    HW228902   4.122   4.972   9.251
 9524SOL     OW28903   4.835   5.500   7.685
 9524SOL    HW128904   4.775   5.438   7.735
 9524SOL    HW228905   4.866   5.456   7.600
 9525SOL     OW28906   3.926   4.009   8.946
 9525SOL    HW128907   3.846   4.069   8.933
 9525SOL    HW228908   3.916   3.960   9.032
 9526SOL     OW28909   5.124   3.831   7.874
 9526SOL    HW128910   5.100   3.794   7.784
 9526SOL    HW228911   5.223   3.847   7.878
 9527SOL     OW28912   4.106   4.424   7.928
 9527SOL    HW128913   4.151   4.334   7.925
 9527SOL    HW228914   4.012   4.413   7.961
 9528SOL     OW28915   4.338   3.846   7.565
 9528SOL    HW128916   4.436   3.824   7.572
 9528SOL    HW228917   4.307   3.829   7.472
 9529SOL     OW28918   4.505   3.988   9.197
 9529SOL    HW128919   4.572   3.927   9.240
 9529SOL    HW228920   4.432   4.007   9.262
 9530SOL     OW28921   5.075   4.314   8.881
 9530SOL    HW128922   5.103   4.271   8.966
 9530SOL    HW228923   5.100   4.410   8.882
 9531SOL     OW28924   4.527   5.126   8.372
 9531SOL    HW128925   4.617   5.140   8.330
 9531SOL    HW228926   4.456   5.128   8.301
 9532SOL     OW28927   4.646   4.227   8.347
 9532SOL    HW128928   4.621   4.218   8.251
 9532SOL    HW228929   4.694   4.145   8.378
 9533SOL     OW28930   4.263   3.788   7.960
 9533SOL    HW128931   4.182   3.789   8.018
 9533SOL    HW228932   4.266   3.871   7.905
 9534SOL     OW28933   5.158   4.912   7.489
 9534SOL    HW128934   5.190   4.836   7.546
 9534SOL    HW228935   5.066   4.939   7.519
 9535SOL     OW28936   4.021   3.759   7.619
 9535SOL    HW128937   4.070   3.843   7.598
 9535SOL    HW228938   4.083   3.694   7.664
 9536SOL     OW28939   4.659   3.960   7.928
 9536SOL    HW128940   4.611   4.001   7.850
 9536SOL    HW228941   4.758   3.958   7.909
 9537SOL     OW28942   4.800   4.407   8.912
 9537SOL    HW128943   4.720   4.346   8.915
 9537SOL    HW228944   4.881   4.354   8.888
 9538SOL     OW28945   4.951   5.294   8.241
 9538SOL    HW128946   4.972   5.368   8.176
 9538SOL    HW228947   5.019   5.294   8.314
 9539SOL     OW28948   4.183   4.876   8.189
 9539SOL    HW128949   4.112   4.849   8.254
 9539SOL    HW228950   4.157   4.848   8.096
 9540SOL     OW28951   4.756   4.273   7.464
 9540SOL    HW128952   4.715   4.355   7.425
 9540SOL    HW228953   4.820   4.299   7.537
 9541SOL     OW28954   3.802   4.280   8.834
 9541SOL    HW128955   3.894   4.279   8.793
 9541SOL    HW228956   3.796   4.354   8.901
 9542SOL     OW28957   4.285   3.946   8.595
 9542SOL    HW128958   4.323   3.862   8.632
 9542SOL    HW228959   4.197   3.965   8.639
 9543SOL     OW28960   4.590   4.178   8.090
 9543SOL    HW128961   4.558   4.250   8.028
 9543SOL    HW228962   4.614   4.097   8.037
 9544SOL     OW28963   4.741   3.763   8.201
 9544SOL    HW128964   4.669   3.768   8.132
 9544SOL    HW228965   4.717   3.694   8.270
 9545SOL     OW28966   5.153   4.897   8.315
 9545SOL    HW128967   5.098   4.813   8.308
 9545SOL    HW228968   5.179   4.926   8.223
 9546SOL     OW28969   4.212   5.109   7.622
 9546SOL    HW128970   4.125   5.094   7.669
 9546SOL    HW228971   4.195   5.135   7.527
 9547SOL     OW28972   5.114   4.299   7.526
 9547SOL    HW128973   5.060   4.278   7.607
 9547SOL    HW228974   5.205   4.258   7.535
 9548SOL     OW28975   4.251   3.980   7.776
 9548SOL    HW128976   4.278   3.921   7.701
 9548SOL    HW228977   4.251   4.075   7.745
 9549SOL     OW28978   4.788   5.071   8.788
 9549SOL    HW128979   4.708   5.048   8.843
 9549SOL    HW228980   4.871   5.045   8.837
 9550SOL     OW28981   4.835   4.919   8.548
 9550SOL    HW128982   4.795   4.963   8.629
 9550SOL    HW228983   4.794   4.956   8.465
 9551SOL     OW28984   4.639   3.813   8.850
 9551SOL    HW128985   4.664   3.793   8.755
 9551SOL    HW228986   4.711   3.869   8.892
 9552SOL     OW28987   4.704   4.840   9.167
 9552SOL    HW128988   4.605   4.846   9.177
 9552SOL    HW228989   4.727   4.760   9.111
 9553SOL     OW28990   4.429   4.774   7.816
 9553SOL    HW128991   4.415   4.781   7.915
 9553SOL    HW228992   4.513   4.723   7.798
 9554SOL     OW28993   4.134   4.537   8.699
 9554SOL    HW128994   4.220   4.549   8.749
 9554SOL    HW228995   4.092   4.450   8.726
 9555SOL     OW28996   4.998   4.110   8.710
 9555SOL    HW128997   5.019   4.184   8.774
 9555SOL    HW228998   4.909   4.127   8.667
 9556SOL     OW28999   4.091   4.824   7.949
 9556SOL    HW129000   4.084   4.907   7.893
 9556SOL    HW229001   4.095   4.744   7.889
 9557SOL     OW29002   4.290   4.261   8.313
 9557SOL    HW129003   4.302   4.327   8.239
 9557SOL    HW229004   4.336   4.295   8.396
 9558SOL     OW29005   4.976   5.072   7.836
 9558SOL    HW129006   5.026   5.149   7.876
 9558SOL    HW229007   4.881   5.074   7.868
 9559SOL     OW29008   4.996   5.169   8.590
 9559SOL    HW129009   5.043   5.182   8.677
 9559SOL    HW229010   4.930   5.095   8.599
 9560SOL     OW29011   4.078   5.234   8.777
 9560SOL    HW129012   4.057   5.190   8.690
 9560SOL    HW229013   4.175   5.260   8.780
 9561SOL     OW29014   4.126   4.475   9.046
 9561SOL    HW129015   4.194   4.530   8.999
 9561SOL    HW229016   4.166   4.387   9.073
 9562SOL     OW29017   4.737   3.829   9.218
 9562SOL    HW129018   4.743   3.914   9.166
 9562SOL    HW229019   4.769   3.753   9.161
 9563SOL     OW29020   4.228   3.774   9.188
 9563SOL    HW129021   4.186   3.717   9.118
 9563SOL    HW229022   4.162   3.843   9.220
 9564SOL     OW29023   4.297   4.594   8.477
 9564SOL    HW129024   4.341   4.683   8.468
 9564SOL    HW229025   4.234   4.594   8.554
 9565SOL     OW29026   5.084   4.586   8.493
 9565SOL    HW129027   5.009   4.586   8.427
 9565SOL    HW229028   5.121   4.494   8.502
 9566SOL     OW29029   4.933   4.249   7.723
 9566SOL    HW129030   4.946   4.165   7.777
 9566SOL    HW229031   4.904   4.323   7.783
 9567SOL     OW29032   4.031   3.937   8.679
 9567SOL    HW129033   4.008   3.974   8.769
 9567SOL    HW229034   4.001   3.842   8.673
 9568SOL     OW29035   3.761   5.034   8.730
 9568SOL    HW129036   3.814   4.985   8.798
 9568SOL    HW229037   3.783   5.132   8.735
 9569SOL     OW29038   4.456   4.358   8.512
 9569SOL    HW129039   4.515   4.332   8.436
 9569SOL    HW229040   4.428   4.454   8.501
 9570SOL     OW29041   4.031   3.787   8.066
 9570SOL    HW129042   4.020   3.881   8.099
 9570SOL    HW229043   4.026   3.724   8.143
 9571SOL     OW29044   5.346   4.091   7.822
 9571SOL    HW129045   5.348   4.015   7.886
 9571SOL    HW229046   5.298   4.168   7.862
 9572SOL     OW29047   4.747   4.490   8.414
 9572SOL    HW129048   4.762   4.511   8.510
 9572SOL    HW229049   4.717   4.395   8.405
 9573SOL     OW29050   4.074   4.622   9.252
 9573SOL    HW129051   4.150   4.666   9.300
 9573SOL    HW229052   4.109   4.575   9.170
 9574SOL     OW29053   5.027   4.562   7.490
 9574SOL    HW129054   5.061   4.469   7.505
 9574SOL    HW229055   5.045   4.589   7.395
 9575SOL     OW29056   4.792   5.057   8.297
 9575SOL    HW129057   4.799   4.973   8.242
 9575SOL    HW229058   4.854   5.126   8.261
 9576SOL     OW29059   4.043   4.534   8.397
 9576SOL    HW129060   4.136   4.570   8.402
 9576SOL    HW229061   4.037   4.449   8.449
 9577SOL     OW29062   4.063   4.233   8.454
 9577SOL    HW129063   4.011   4.150   8.437
 9577SOL    HW229064   4.140   4.238   8.390
 9578SOL     OW29065   4.862   4.104   9.126
 9578SOL    HW129066   4.817   4.167   9.190
 9578SOL    HW229067   4.955   4.135   9.109
 9579SOL     OW29068   4.884   3.931   8.925
 9579SOL    HW129069   4.884   3.995   9.002
 9579SOL    HW229070   4.912   3.979   8.842
 9580SOL     OW29071   3.732   5.050   7.648
 9580SOL    HW129072   3.639   5.071   7.617
 9580SOL    HW229073   3.742   4.951   7.661
 9581SOL     OW29074   4.726   4.520   8.686
 9581SOL    HW129075   4.767   4.488   8.772
 9581SOL    HW229076   4.630   4.493   8.683
 9582SOL     OW29077   3.764   4.268   8.562
 9582SOL    HW129078   3.849   4.235   8.521
 9582SOL    HW229079   3.777   4.283   8.660
 9583SOL     OW29080   3.913   4.244   9.170
 9583SOL    HW129081   3.972   4.204   9.100
 9583SOL    HW229082   3.855   4.315   9.129
 9584SOL     OW29083   5.093   4.674   9.108
 9584SOL    HW129084   5.132   4.763   9.128
 9584SOL    HW229085   5.103   4.654   9.011
 9585SOL     OW29086   4.539   4.296   7.773
 9585SOL    HW129087   4.546   4.207   7.727
 9585SOL    HW229088   4.445   4.330   7.765
 9586SOL     OW29089   3.976   5.288   9.192
 9586SOL    HW129090   3.946   5.345   9.268
 9586SOL    HW229091   3.969   5.191   9.218
 9587SOL     OW29092   4.395   4.188   8.717
 9587SOL    HW129093   4.361   4.099   8.687
 9587SOL    HW229094   4.421   4.242   8.637
 9588SOL     OW29095   4.197   4.224   7.639
 9588SOL    HW129096   4.258   4.304   7.643
 9588SOL    HW229097   4.102   4.255   7.646
 9589SOL     OW29098   3.883   4.861   8.914
 9589SOL    HW129099   3.905   4.800   8.990
 9589SOL    HW229100   3.893   4.812   8.828
 9590SOL     OW29101   5.071   4.783   8.682
 9590SOL    HW129102   5.095   4.720   8.608
 9590SOL    HW229103   4.981   4.823   8.664
 9591SOL     OW29104   5.026   4.579   7.757
 9591SOL    HW129105   4.940   4.548   7.799
 9591SOL    HW229106   5.022   4.565   7.658
 9592SOL     OW29107   3.807   4.982   8.470
 9592SOL    HW129108   3.802   4.981   8.570
 9592SOL    HW229109   3.724   4.941   8.432
 9593SOL     OW29110   4.412   5.386   9.164
 9593SOL    HW129111   4.356   5.467   9.173
 9593SOL    HW229112   4.464   5.390   9.078
 9594SOL     OW29113   5.450   3.859   7.971
 9594SOL    HW129114   5.523   3.842   7.904
 9594SOL    HW229115   5.419   3.772   8.009
 9595SOL     OW29116   5.004   4.651   8.120
 9595SOL    HW129117   5.064   4.570   8.122
 9595SOL    HW229118   5.044   4.720   8.060
 9596SOL     OW29119   4.554   4.997   8.870
 9596SOL    HW129120   4.549   5.030   8.965
 9596SOL    HW229121   4.468   5.016   8.824
 9597SOL     OW29122   3.987   4.050   8.168
 9597SOL    HW129123   3.908   4.101   8.134
 9597SOL    HW229124   3.978   4.035   8.266
 9598SOL     OW29125   4.546   4.726   8.820
 9598SOL    HW129126   4.586   4.725   8.728
 9598SOL    HW229127   4.556   4.818   8.860
 9599SOL     OW29128   4.640   4.634   7.739
 9599SOL    HW129129   4.703   4.672   7.671
 9599SOL    HW229130   4.680   4.551   7.778
 9600SOL     OW29131   4.096   5.012   8.938
 9600SOL    HW129132   4.083   5.105   8.904
 9600SOL    HW229133   4.012   4.960   8.925
 9601SOL     OW29134   4.763   4.822   8.144
 9601SOL    HW129135   4.693   4.775   8.198
 9601SOL    HW229136   4.822   4.754   8.101
 9602SOL     OW29137   4.738   3.960   8.419
 9602SOL    HW129138   4.730   3.924   8.326
 9602SOL    HW229139   4.736   3.884   8.484
 9603SOL     OW29140   3.979   5.072   7.738
 9603SOL    HW129141   3.883   5.073   7.711
 9603SOL    HW229142   3.991   5.125   7.822
 9604SOL     OW29143   3.829   4.737   9.174
 9604SOL    HW129144   3.752   4.704   9.228
 9604SOL    HW229145   3.914   4.707   9.216
 9605SOL     OW29146   4.396   3.927   8.937
 9605SOL    HW129147   4.486   3.911   8.897
 9605SOL    HW229148   4.404   3.932   9.036
 9606SOL     OW29149   3.799   4.069   7.481
 9606SOL    HW129150   3.707   4.041   7.452
 9606SOL    HW229151   3.830   4.146   7.425
 9607SOL     OW29152   5.164   4.580   8.846
 9607SOL    HW129153   5.107   4.632   8.783
 9607SOL    HW229154   5.260   4.592   8.822
 9608SOL     OW29155   3.796   3.890   7.766
 9608SOL    HW129156   3.779   3.973   7.712
 9608SOL    HW229157   3.886   3.853   7.744
 9609SOL     OW29158   4.907   5.059   7.567
 9609SOL    HW129159   4.808   5.048   7.569
 9609SOL    HW229160   4.941   5.074   7.660
 9610SOL     OW29161   4.337   4.566   8.879
 9610SOL    HW129162   4.393   4.647   8.862
 9610SOL    HW229163   4.396   4.486   8.882
 9611SOL     OW29164   4.440   4.289   9.156
 9611SOL    HW129165   4.459   4.354   9.230
 9611SOL    HW229166   4.500   4.209   9.165
 9612SOL     OW29167   5.174   4.944   9.081
 9612SOL    HW129168   5.165   4.934   9.180
 9612SOL    HW229169   5.270   4.937   9.055
 9613SOL     OW29170   4.949   4.049   7.897
 9613SOL    HW129171   5.014   3.975   7.886
 9613SOL    HW229172   4.969   4.099   7.981
 9614SOL     OW29173   4.318   4.469   8.100
 9614SOL    HW129174   4.368   4.554   8.081
 9614SOL    HW229175   4.230   4.471   8.052
 9615SOL     OW29176   4.583   5.098   7.464
 9615SOL    HW129177   4.537   5.113   7.552
 9615SOL    HW229178   4.627   5.183   7.434
 9616SOL     OW29179   4.583   4.680   8.309
 9616SOL    HW129180   4.637   4.611   8.357
 9616SOL    HW229181   4.551   4.749   8.375
 9617SOL     OW29182   4.807   4.708   7.535
 9617SOL    HW129183   4.784   4.761   7.453
 9617SOL    HW229184   4.888   4.652   7.516
 9618SOL     OW29185   3.945   5.038   9.292
 9618SOL    HW129186   3.880   4.965   9.271
 9618SOL    HW229187   3.949   5.052   9.390
 9619SOL     OW29188   3.803   4.964   8.101
 9619SOL    HW129189   3.802   4.917   8.189
 9619SOL    HW229190   3.885   4.936   8.050
 9620SOL     OW29191   4.396   5.115   9.072
 9620SOL    HW129192   4.318   5.065   9.110
 9620SOL    HW229193   4.393   5.210   9.103
 9621SOL     OW29194   4.152   4.148   7.968
 9621SOL    HW129195   4.182   4.076   7.906
 9621SOL    HW229196   4.113   4.108   8.051
 9622SOL     OW29197   5.429   5.211   8.552
 9622SOL    HW129198   5.336   5.186   8.525
 9622SOL    HW229199   5.455   5.161   8.634
 9623SOL     OW29200   4.041   4.271   8.728
 9623SOL    HW129201   4.079   4.212   8.800
 9623SOL    HW229202   4.081   4.245   8.640
 9624SOL     OW29203   5.148   3.938   8.560
 9624SOL    HW129204   5.200   3.873   8.615
 9624SOL    HW229205   5.099   4.001   8.621
 9625SOL     OW29206   4.725   3.758   8.602
 9625SOL    HW129207   4.662   3.686   8.571
 9625SOL    HW229208   4.818   3.722   8.602
 9626SOL     OW29209   4.494   5.054   7.749
 9626SOL    HW129210   4.448   4.967   7.766
 9626SOL    HW229211   4.585   5.051   7.790
 9627SOL     OW29212   4.342   5.291   8.732
 9627SOL    HW129213   4.337   5.373   8.789
 9627SOL    HW229214   4.431   5.288   8.687
 9628SOL     OW29215   5.076   3.776   7.616
 9628SOL    HW129216   5.111   3.735   7.532
 9628SOL    HW229217   4.986   3.738   7.636
 9629SOL     OW29218   5.024   4.177   8.139
 9629SOL    HW129219   4.965   4.257   8.143
 9629SOL    HW229220   5.039   4.142   8.232
 9630SOL     OW29221   5.317   3.945   8.330
 9630SOL    HW129222   5.233   3.944   8.384
 9630SOL    HW229223   5.319   4.028   8.274
 9631SOL     OW29224   3.763   4.801   7.748
 9631SOL    HW129225   3.862   4.790   7.739
 9631SOL    HW229226   3.723   4.715   7.780
 9632SOL     OW29227   3.954   4.352   9.423
 9632SOL    HW129228   3.861   4.350   9.460
 9632SOL    HW229229   3.955   4.313   9.331
 9633SOL     OW29230   3.949   3.999  10.306
 9633SOL    HW129231   3.984   3.982  10.398
 9633SOL    HW229232   3.861   3.954  10.294
 9634SOL     OW29233   3.743   4.092   9.957
 9634SOL    HW129234   3.661   4.135   9.996
 9634SOL    HW229235   3.715   4.019   9.894
 9635SOL     OW29236   4.293   4.999  10.475
 9635SOL    HW129237   4.200   4.992  10.438
 9635SOL    HW229238   4.304   5.088  10.519
 9636SOL     OW29239   5.279   5.235  10.013
 9636SOL    HW129240   5.222   5.219  10.094
 9636SOL    HW229241   5.220   5.245   9.933
 9637SOL     OW29242   4.859   4.427  10.027
 9637SOL    HW129243   4.916   4.505  10.002
 9637SOL    HW229244   4.799   4.453  10.103
 9638SOL     OW29245   4.492   4.868  10.333
 9638SOL    HW129246   4.414   4.885  10.393
 9638SOL    HW229247   4.526   4.955  10.297
 9639SOL     OW29248   4.409   4.736   9.975
 9639SOL    HW129249   4.478   4.720  10.045
 9639SOL    HW229250   4.336   4.793  10.013
 9640SOL     OW29251   4.059   5.159  10.371
 9640SOL    HW129252   3.981   5.128  10.318
 9640SOL    HW229253   4.117   5.217  10.314
 9641SOL     OW29254   5.184   5.229  10.649
 9641SOL    HW129255   5.208   5.323  10.675
 9641SOL    HW229256   5.168   5.175  10.731
 9642SOL     OW29257   4.162   4.116  10.809
 9642SOL    HW129258   4.244   4.060  10.818
 9642SOL    HW229259   4.081   4.058  10.813
 9643SOL     OW29260   3.954   5.158   9.848
 9643SOL    HW129261   3.928   5.254   9.848
 9643SOL    HW229262   3.883   5.104   9.893
 9644SOL     OW29263   3.964   4.815  10.196
 9644SOL    HW129264   3.978   4.731  10.248
 9644SOL    HW229265   3.909   4.879  10.251
 9645SOL     OW29266   4.330   4.688   9.433
 9645SOL    HW129267   4.337   4.772   9.379
 9645SOL    HW229268   4.376   4.701   9.521
 9646SOL     OW29269   3.846   4.367   9.873
 9646SOL    HW129270   3.801   4.279   9.890
 9646SOL    HW229271   3.845   4.421   9.957
 9647SOL     OW29272   3.751   5.320   9.427
 9647SOL    HW129273   3.732   5.224   9.448
 9647SOL    HW229274   3.718   5.378   9.502
 9648SOL     OW29275   5.413   4.646   9.922
 9648SOL    HW129276   5.508   4.617   9.930
 9648SOL    HW229277   5.405   4.711   9.847
 9649SOL     OW29278   4.337   5.089  10.036
 9649SOL    HW129279   4.288   5.002  10.045
 9649SOL    HW229280   4.314   5.132   9.949
 9650SOL     OW29281   4.533   3.728   9.812
 9650SOL    HW129282   4.573   3.819   9.803
 9650SOL    HW229283   4.433   3.736   9.818
 9651SOL     OW29284   3.921   4.700  10.574
 9651SOL    HW129285   4.010   4.655  10.560
 9651SOL    HW229286   3.848   4.635  10.555
 9652SOL     OW29287   5.190   5.141  10.263
 9652SOL    HW129288   5.131   5.147  10.343
 9652SOL    HW229289   5.175   5.053  10.217
 9653SOL     OW29290   5.391   5.438   9.882
 9653SOL    HW129291   5.350   5.415   9.794
 9653SOL    HW229292   5.373   5.364   9.947
 9654SOL     OW29293   4.322   4.453   9.580
 9654SOL    HW129294   4.346   4.522   9.512
 9654SOL    HW229295   4.244   4.486   9.634
 9655SOL     OW29296   5.005   4.069  10.254
 9655SOL    HW129297   4.919   4.019  10.241
 9655SOL    HW229298   5.067   4.015  10.310
 9656SOL     OW29299   4.531   4.329  10.775
 9656SOL    HW129300   4.484   4.326  10.864
 9656SOL    HW229301   4.480   4.274  10.709
 9657SOL     OW29302   4.715   4.134  10.552
 9657SOL    HW129303   4.638   4.168  10.606
 9657SOL    HW229304   4.681   4.083  10.473
 9658SOL     OW29305   4.765   4.425   9.739
 9658SOL    HW129306   4.791   4.421   9.835
 9658SOL    HW229307   4.680   4.374   9.725
 9659SOL     OW29308   3.800   4.535  10.099
 9659SOL    HW129309   3.899   4.523  10.108
 9659SOL    HW229310   3.776   4.630  10.120
 9660SOL     OW29311   4.589   4.072   9.505
 9660SOL    HW129312   4.648   4.135   9.456
 9660SOL    HW229313   4.608   3.978   9.476
 9661SOL     OW29314   5.086   4.868   9.855
 9661SOL    HW129315   5.169   4.839   9.807
 9661SOL    HW229316   5.037   4.935   9.799
 9662SOL     OW29317   4.274   3.920  10.195
 9662SOL    HW129318   4.269   3.915  10.295
 9662SOL    HW229319   4.276   4.016  10.166
 9663SOL     OW29320   4.732   5.180   9.787
 9663SOL    HW129321   4.686   5.252   9.735
 9663SOL    HW229322   4.728   5.200   9.885
 9664SOL     OW29323   4.045   4.667   9.552
 9664SOL    HW129324   4.127   4.706   9.510
 9664SOL    HW229325   4.018   4.585   9.503
 9665SOL     OW29326   4.835   5.500   9.547
 9665SOL    HW129327   4.775   5.438   9.597
 9665SOL    HW229328   4.866   5.456   9.462
 9666SOL     OW29329   5.124   3.831   9.736
 9666SOL    HW129330   5.100   3.794   9.646
 9666SOL    HW229331   5.223   3.847   9.740
 9667SOL     OW29332   4.106   4.424   9.790
 9667SOL    HW129333   4.151   4.334   9.787
 9667SOL    HW229334   4.012   4.413   9.823
 9668SOL     OW29335   4.338   3.846   9.427
 9668SOL    HW129336   4.436   3.824   9.434
 9668SOL    HW229337   4.307   3.829   9.334
 9669SOL     OW29338   4.527   5.126  10.234
 9669SOL    HW129339   4.617   5.140  10.192
 9669SOL    HW229340   4.456   5.128  10.163
 9670SOL     OW29341   4.646   4.227  10.209
 9670SOL    HW129342   4.621   4.218  10.113
 9670SOL    HW229343   4.694   4.145  10.240
 9671SOL     OW29344   4.263   3.788   9.822
 9671SOL    HW129345   4.182   3.789   9.880
 9671SOL    HW229346   4.266   3.871   9.767
 9672SOL     OW29347   5.158   4.912   9.351
 9672SOL    HW129348   5.190   4.836   9.408
 9672SOL    HW229349   5.066   4.939   9.381
 9673SOL     OW29350   4.021   3.759   9.481
 9673SOL    HW129351   4.070   3.843   9.460
 9673SOL    HW229352   4.083   3.694   9.526
 9674SOL     OW29353   4.659   3.960   9.790
 9674SOL    HW129354   4.611   4.001   9.712
 9674SOL    HW229355   4.758   3.958   9.771
 9675SOL     OW29356   4.951   5.294  10.103
 9675SOL    HW129357   4.972   5.368  10.038
 9675SOL    HW229358   5.019   5.294  10.176
 9676SOL     OW29359   4.183   4.876  10.051
 9676SOL    HW129360   4.112   4.849  10.116
 9676SOL    HW229361   4.157   4.848   9.958
 9677SOL     OW29362   4.756   4.273   9.326
 9677SOL    HW129363   4.715   4.355   9.287
 9677SOL    HW229364   4.820   4.299   9.399
 9678SOL     OW29365   4.285   3.946  10.457
 9678SOL    HW129366   4.323   3.862  10.494
 9678SOL    HW229367   4.197   3.965  10.501
 9679SOL     OW29368   4.590   4.178   9.952
 9679SOL    HW129369   4.558   4.250   9.890
 9679SOL    HW229370   4.614   4.097   9.899
 9680SOL     OW29371   4.741   3.763  10.063
 9680SOL    HW129372   4.669   3.768   9.994
 9680SOL    HW229373   4.717   3.694  10.132
 9681SOL     OW29374   5.153   4.897  10.177
 9681SOL    HW129375   5.098   4.813  10.170
 9681SOL    HW229376   5.179   4.926  10.085
 9682SOL     OW29377   4.212   5.109   9.484
 9682SOL    HW129378   4.125   5.094   9.531
 9682SOL    HW229379   4.195   5.135   9.389
 9683SOL     OW29380   5.114   4.299   9.388
 9683SOL    HW129381   5.060   4.278   9.469
 9683SOL    HW229382   5.205   4.258   9.397
 9684SOL     OW29383   4.251   3.980   9.638
 9684SOL    HW129384   4.278   3.921   9.563
 9684SOL    HW229385   4.251   4.075   9.607
 9685SOL     OW29386   4.788   5.071  10.650
 9685SOL    HW129387   4.708   5.048  10.705
 9685SOL    HW229388   4.871   5.045  10.699
 9686SOL     OW29389   4.835   4.919  10.410
 9686SOL    HW129390   4.795   4.963  10.491
 9686SOL    HW229391   4.794   4.956  10.327
 9687SOL     OW29392   4.429   4.774   9.678
 9687SOL    HW129393   4.415   4.781   9.777
 9687SOL    HW229394   4.513   4.723   9.660
 9688SOL     OW29395   4.134   4.537  10.561
 9688SOL    HW129396   4.220   4.549  10.611
 9688SOL    HW229397   4.092   4.450  10.588
 9689SOL     OW29398   4.998   4.110  10.572
 9689SOL    HW129399   5.019   4.184  10.636
 9689SOL    HW229400   4.909   4.127  10.529
 9690SOL     OW29401   4.091   4.824   9.811
 9690SOL    HW129402   4.084   4.907   9.755
 9690SOL    HW229403   4.095   4.744   9.751
 9691SOL     OW29404   4.290   4.261  10.175
 9691SOL    HW129405   4.302   4.327  10.101
 9691SOL    HW229406   4.336   4.295  10.258
 9692SOL     OW29407   4.976   5.072   9.698
 9692SOL    HW129408   5.026   5.149   9.738
 9692SOL    HW229409   4.881   5.074   9.730
 9693SOL     OW29410   4.996   5.169  10.452
 9693SOL    HW129411   5.043   5.182  10.539
 9693SOL    HW229412   4.930   5.095  10.461
 9694SOL     OW29413   4.078   5.234  10.639
 9694SOL    HW129414   4.057   5.190  10.552
 9694SOL    HW229415   4.175   5.260  10.642
 9695SOL     OW29416   5.311   4.503  10.980
 9695SOL    HW129417   5.219   4.541  10.975
 9695SOL    HW229418   5.371   4.550  10.915
 9696SOL     OW29419   4.228   3.774  11.050
 9696SOL    HW129420   4.186   3.717  10.980
 9696SOL    HW229421   4.162   3.843  11.082
 9697SOL     OW29422   4.297   4.594  10.339
 9697SOL    HW129423   4.341   4.683  10.330
 9697SOL    HW229424   4.234   4.594  10.416
 9698SOL     OW29425   5.084   4.586  10.355
 9698SOL    HW129426   5.009   4.586  10.289
 9698SOL    HW229427   5.121   4.494  10.364
 9699SOL     OW29428   4.933   4.249   9.585
 9699SOL    HW129429   4.946   4.165   9.639
 9699SOL    HW229430   4.904   4.323   9.645
 9700SOL     OW29431   4.031   3.937  10.541
 9700SOL    HW129432   4.008   3.974  10.631
 9700SOL    HW229433   4.001   3.842  10.535
 9701SOL     OW29434   3.761   5.034  10.592
 9701SOL    HW129435   3.814   4.985  10.660
 9701SOL    HW229436   3.783   5.132  10.597
 9702SOL     OW29437   4.456   4.358  10.374
 9702SOL    HW129438   4.515   4.332  10.298
 9702SOL    HW229439   4.428   4.454  10.363
 9703SOL     OW29440   4.031   3.787   9.928
 9703SOL    HW129441   4.020   3.881   9.961
 9703SOL    HW229442   4.026   3.724  10.005
 9704SOL     OW29443   5.346   4.091   9.684
 9704SOL    HW129444   5.348   4.015   9.748
 9704SOL    HW229445   5.298   4.168   9.724
 9705SOL     OW29446   4.747   4.490  10.276
 9705SOL    HW129447   4.762   4.511  10.372
 9705SOL    HW229448   4.717   4.395  10.267
 9706SOL     OW29449   5.027   4.562   9.352
 9706SOL    HW129450   5.061   4.469   9.367
 9706SOL    HW229451   5.045   4.589   9.257
 9707SOL     OW29452   4.792   5.057  10.159
 9707SOL    HW129453   4.799   4.973  10.104
 9707SOL    HW229454   4.854   5.126  10.123
 9708SOL     OW29455   4.043   4.534  10.259
 9708SOL    HW129456   4.136   4.570  10.264
 9708SOL    HW229457   4.037   4.449  10.311
 9709SOL     OW29458   4.063   4.233  10.316
 9709SOL    HW129459   4.011   4.150  10.299
 9709SOL    HW229460   4.140   4.238  10.252
 9710SOL     OW29461   4.884   3.931  10.787
 9710SOL    HW129462   4.884   3.995  10.864
 9710SOL    HW229463   4.912   3.979  10.704
 9711SOL     OW29464   3.732   5.050   9.510
 9711SOL    HW129465   3.639   5.071   9.479
 9711SOL    HW229466   3.742   4.951   9.523
 9712SOL     OW29467   4.726   4.520  10.548
 9712SOL    HW129468   4.767   4.488  10.634
 9712SOL    HW229469   4.630   4.493  10.545
 9713SOL     OW29470   3.764   4.268  10.424
 9713SOL    HW129471   3.849   4.235  10.383
 9713SOL    HW229472   3.777   4.283  10.522
 9714SOL     OW29473   4.539   4.296   9.635
 9714SOL    HW129474   4.546   4.207   9.589
 9714SOL    HW229475   4.445   4.330   9.627
 9715SOL     OW29476   4.395   4.188  10.579
 9715SOL    HW129477   4.361   4.099  10.549
 9715SOL    HW229478   4.421   4.242  10.499
 9716SOL     OW29479   4.197   4.224   9.501
 9716SOL    HW129480   4.258   4.304   9.505
 9716SOL    HW229481   4.102   4.255   9.508
 9717SOL     OW29482   3.883   4.861  10.776
 9717SOL    HW129483   3.905   4.800  10.852
 9717SOL    HW229484   3.893   4.812  10.690
 9718SOL     OW29485   5.071   4.783  10.544
 9718SOL    HW129486   5.095   4.720  10.470
 9718SOL    HW229487   4.981   4.823  10.526
 9719SOL     OW29488   5.026   4.579   9.619
 9719SOL    HW129489   4.940   4.548   9.661
 9719SOL    HW229490   5.022   4.565   9.520
 9720SOL     OW29491   3.807   4.982  10.332
 9720SOL    HW129492   3.802   4.981  10.432
 9720SOL    HW229493   3.724   4.941  10.294
 9721SOL     OW29494   5.450   3.859   9.833
 9721SOL    HW129495   5.523   3.842   9.766
 9721SOL    HW229496   5.419   3.772   9.871
 9722SOL     OW29497   5.004   4.651   9.982
 9722SOL    HW129498   5.064   4.570   9.984
 9722SOL    HW229499   5.044   4.720   9.922
 9723SOL     OW29500   3.987   4.050  10.030
 9723SOL    HW129501   3.908   4.101   9.996
 9723SOL    HW229502   3.978   4.035  10.128
 9724SOL     OW29503   4.546   4.726  10.682
 9724SOL    HW129504   4.586   4.725  10.590
 9724SOL    HW229505   4.556   4.818  10.722
 9725SOL     OW29506   4.640   4.634   9.601
 9725SOL    HW129507   4.703   4.672   9.533
 9725SOL    HW229508   4.680   4.551   9.640
 9726SOL     OW29509   4.096   5.012  10.800
 9726SOL    HW129510   4.083   5.105  10.766
 9726SOL    HW229511   4.012   4.960  10.787
 9727SOL     OW29512   4.763   4.822  10.006
 9727SOL    HW129513   4.693   4.775  10.060
 9727SOL    HW229514   4.822   4.754   9.963
 9728SOL     OW29515   4.738   3.960  10.281
 9728SOL    HW129516   4.730   3.924  10.188
 9728SOL    HW229517   4.736   3.884  10.346
 9729SOL     OW29518   3.979   5.072   9.600
 9729SOL    HW129519   3.883   5.073   9.573
 9729SOL    HW229520   3.991   5.125   9.684
 9730SOL     OW29521   4.396   3.927  10.799
 9730SOL    HW129522   4.486   3.911  10.759
 9730SOL    HW229523   4.404   3.932  10.898
 9731SOL     OW29524   3.799   4.069   9.343
 9731SOL    HW129525   3.707   4.041   9.314
 9731SOL    HW229526   3.830   4.146   9.287
 9732SOL     OW29527   3.796   3.890   9.628
 9732SOL    HW129528   3.779   3.973   9.574
 9732SOL    HW229529   3.886   3.853   9.606
 9733SOL     OW29530   4.907   5.059   9.429
 9733SOL    HW129531   4.808   5.048   9.431
 9733SOL    HW229532   4.941   5.074   9.522
 9734SOL     OW29533   4.337   4.566  10.741
 9734SOL    HW129534   4.393   4.647  10.724
 9734SOL    HW229535   4.396   4.486  10.744
 9735SOL     OW29536   4.949   4.049   9.759
 9735SOL    HW129537   5.014   3.975   9.748
 9735SOL    HW229538   4.969   4.099   9.843
 9736SOL     OW29539   4.318   4.469   9.962
 9736SOL    HW129540   4.368   4.554   9.943
 9736SOL    HW229541   4.230   4.471   9.914
 9737SOL     OW29542   4.583   5.098   9.326
 9737SOL    HW129543   4.537   5.113   9.414
 9737SOL    HW229544   4.627   5.183   9.296
 9738SOL     OW29545   5.132   5.575  11.030
 9738SOL    HW129546   5.036   5.564  11.003
 9738SOL    HW229547   5.188   5.508  10.982
 9739SOL     OW29548   4.583   4.680  10.171
 9739SOL    HW129549   4.637   4.611  10.219
 9739SOL    HW229550   4.551   4.749  10.237
 9740SOL     OW29551   4.807   4.708   9.397
 9740SOL    HW129552   4.784   4.761   9.315
 9740SOL    HW229553   4.888   4.652   9.378
 9741SOL     OW29554   3.803   4.964   9.963
 9741SOL    HW129555   3.802   4.917  10.051
 9741SOL    HW229556   3.885   4.936   9.912
 9742SOL     OW29557   4.152   4.148   9.830
 9742SOL    HW129558   4.182   4.076   9.768
 9742SOL    HW229559   4.113   4.108   9.913
 9743SOL     OW29560   5.429   5.211  10.414
 9743SOL    HW129561   5.336   5.186  10.387
 9743SOL    HW229562   5.455   5.161  10.496
 9744SOL     OW29563   4.041   4.271  10.590
 9744SOL    HW129564   4.079   4.212  10.662
 9744SOL    HW229565   4.081   4.245  10.502
 9745SOL     OW29566   5.148   3.938  10.422
 9745SOL    HW129567   5.200   3.873  10.477
 9745SOL    HW229568   5.099   4.001  10.483
 9746SOL     OW29569   4.725   3.758  10.464
 9746SOL    HW129570   4.662   3.686  10.433
 9746SOL    HW229571   4.818   3.722  10.464
 9747SOL     OW29572   4.494   5.054   9.611
 9747SOL    HW129573   4.448   4.967   9.628
 9747SOL    HW229574   4.585   5.051   9.652
 9748SOL     OW29575   4.342   5.291  10.594
 9748SOL    HW129576   4.337   5.373  10.651
 9748SOL    HW229577   4.431   5.288  10.549
 9749SOL     OW29578   5.076   3.776   9.478
 9749SOL    HW129579   5.111   3.735   9.394
 9749SOL    HW229580   4.986   3.738   9.498
 9750SOL     OW29581   5.024   4.177  10.001
 9750SOL    HW129582   4.965   4.257  10.005
 9750SOL    HW229583   5.039   4.142  10.094
 9751SOL     OW29584   5.317   3.945  10.192
 9751SOL    HW129585   5.233   3.944  10.246
 9751SOL    HW229586   5.319   4.028  10.136
 9752SOL     OW29587   3.763   4.801   9.610
 9752SOL    HW129588   3.862   4.790   9.601
 9752SOL    HW229589   3.723   4.715   9.642
   5.30000   5.30000  10.78802
