Built with Packmol
21930
    1LIG      O    1   2.227   2.220   0.053
    1LIG      C    2   2.292   2.270   0.173
    1LIG     C1    3   2.221   2.217   0.301
    1LIG     O1    4   2.285   2.267   0.423
    1LIG     C2    5   2.220   2.218   0.544
    1LIG     C3    6   2.291   2.273   0.670
    1LIG     O2    7   2.227   2.225   0.791
    1LIG     C4    8   2.290   2.275   0.912
    1LIG     C5    9   2.218   2.221   1.038
    1LIG     O3   10   2.281   2.270   1.160
    1LIG     C6   11   2.216   2.221   1.280
    1LIG     C7   12   2.288   2.277   1.406
    1LIG     O4   13   2.224   2.229   1.528
    1LIG     C8   14   2.288   2.279   1.649
    1LIG     C9   15   2.215   2.223   1.774
    1LIG     O5   16   2.279   2.273   1.895
    1LIG    C10   17   2.215   2.224   2.016
    1LIG    C11   18   2.287   2.280   2.142
    1LIG     O6   19   2.223   2.231   2.263
    1LIG    C12   20   2.286   2.280   2.384
    1LIG    C13   21   2.213   2.225   2.509
    1LIG     O7   22   2.277   2.274   2.631
    1LIG    C14   23   2.213   2.225   2.752
    1LIG    C15   24   2.285   2.280   2.878
    1LIG     O8   25   2.221   2.232   3.000
    1LIG    C16   26   2.285   2.281   3.121
    1LIG    C17   27   2.214   2.226   3.247
    1LIG     O9   28   2.277   2.275   3.369
    1LIG    C18   29   2.212   2.226   3.489
    1LIG    C19   30   2.284   2.281   3.614
    1LIG    O10   31   2.221   2.232   3.736
    1LIG    C20   32   2.285   2.282   3.857
    1LIG    C21   33   2.212   2.226   3.982
    1LIG    O11   34   2.276   2.275   4.103
    1LIG    C22   35   2.212   2.226   4.224
    1LIG    C23   36   2.284   2.282   4.350
    1LIG    O12   37   2.220   2.233   4.471
    1LIG    C24   38   2.284   2.282   4.593
    1LIG    C25   39   2.212   2.227   4.719
    1LIG    O13   40   2.275   2.276   4.841
    1LIG    C26   41   2.211   2.227   4.961
    1LIG    C27   42   2.283   2.282   5.086
    1LIG    O14   43   2.219   2.233   5.208
    1LIG    C28   44   2.284   2.282   5.329
    1LIG    C29   45   2.212   2.226   5.455
    1LIG    O15   46   2.276   2.276   5.577
    1LIG    C30   47   2.212   2.226   5.697
    1LIG    C31   48   2.284   2.281   5.822
    1LIG    O16   49   2.220   2.232   5.943
    1LIG    C32   50   2.284   2.281   6.065
    1LIG    C33   51   2.212   2.226   6.191
    1LIG    O17   52   2.276   2.275   6.312
    1LIG    C34   53   2.212   2.225   6.433
    1LIG    C35   54   2.284   2.280   6.559
    1LIG    O18   55   2.220   2.231   6.680
    1LIG    C36   56   2.284   2.281   6.801
    1LIG    C37   57   2.213   2.225   6.927
    1LIG    O19   58   2.277   2.274   7.049
    1LIG    C38   59   2.213   2.224   7.169
    1LIG    C39   60   2.284   2.279   7.295
    1LIG    O20   61   2.221   2.230   7.417
    1LIG    C40   62   2.285   2.279   7.538
    1LIG    C41   63   2.214   2.224   7.664
    1LIG    O21   64   2.277   2.273   7.786
    1LIG    C42   65   2.213   2.223   7.906
    1LIG    C43   66   2.285   2.278   8.031
    1LIG    O22   67   2.222   2.229   8.153
    1LIG    C44   68   2.286   2.278   8.274
    1LIG    C45   69   2.214   2.222   8.399
    1LIG    O23   70   2.278   2.271   8.521
    1LIG    C46   71   2.214   2.222   8.642
    1LIG    C47   72   2.287   2.278   8.767
    1LIG    O24   73   2.223   2.228   8.888
    1LIG    C48   74   2.286   2.277   9.010
    1LIG    C49   75   2.214   2.221   9.135
    1LIG    O25   76   2.278   2.270   9.256
    1LIG    C50   77   2.215   2.221   9.378
    1LIG    C51   78   2.287   2.277   9.503
    1LIG    O26   79   2.224   2.227   9.624
    1LIG    C52   80   2.287   2.276   9.746
    1LIG    C53   81   2.215   2.220   9.871
    1LIG    O27   82   2.279   2.269   9.991
    1LIG    C54   83   2.216   2.219  10.113
    1LIG    C55   84   2.288   2.275  10.240
    1LIG    O28   85   2.224   2.225  10.361
    1LIG    C56   86   2.288   2.274  10.482
    1LIG    C57   87   2.217   2.218  10.609
    1LIG    O29   88   2.281   2.267  10.731
    1LIG    C58   89   2.217   2.217  10.852
    1LIG    C59   90   2.288   2.272  10.978
    1LIG      H   91   2.289   2.380   0.171
    1LIG     H1   92   2.397   2.239   0.172
    1LIG     H2   93   2.224   2.108   0.301
    1LIG     H3   94   2.116   2.248   0.300
    1LIG     H4   95   2.223   2.108   0.546
    1LIG     H5   96   2.115   2.249   0.545
    1LIG     H6   97   2.289   2.383   0.668
    1LIG     H7   98   2.397   2.242   0.669
    1LIG     H8   99   2.288   2.384   0.913
    1LIG     H9  100   2.395   2.244   0.914
    1LIG    H10  101   2.221   2.111   1.037
    1LIG    H11  102   2.113   2.251   1.036
    1LIG    H12  103   2.219   2.112   1.282
    1LIG    H13  104   2.111   2.252   1.281
    1LIG    H14  105   2.285   2.387   1.404
    1LIG    H15  106   2.393   2.247   1.405
    1LIG    H16  107   2.285   2.388   1.650
    1LIG    H17  108   2.393   2.248   1.651
    1LIG    H18  109   2.218   2.114   1.772
    1LIG    H19  110   2.110   2.255   1.772
    1LIG    H20  111   2.217   2.115   2.018
    1LIG    H21  112   2.109   2.255   2.018
    1LIG    H22  113   2.284   2.389   2.140
    1LIG    H23  114   2.392   2.249   2.140
    1LIG    H24  115   2.283   2.390   2.386
    1LIG    H25  116   2.391   2.249   2.386
    1LIG    H26  117   2.216   2.115   2.508
    1LIG    H27  118   2.108   2.256   2.508
    1LIG    H28  119   2.216   2.115   2.754
    1LIG    H29  120   2.108   2.256   2.753
    1LIG    H30  121   2.282   2.390   2.877
    1LIG    H31  122   2.390   2.249   2.877
    1LIG    H32  123   2.282   2.391   3.122
    1LIG    H33  124   2.390   2.250   3.122
    1LIG    H34  125   2.216   2.117   3.245
    1LIG    H35  126   2.108   2.257   3.245
    1LIG    H36  127   2.215   2.116   3.490
    1LIG    H37  128   2.107   2.257   3.490
    1LIG    H38  129   2.281   2.391   3.613
    1LIG    H39  130   2.389   2.250   3.613
    1LIG    H40  131   2.282   2.391   3.858
    1LIG    H41  132   2.390   2.251   3.858
    1LIG    H42  133   2.215   2.117   3.981
    1LIG    H43  134   2.107   2.257   3.980
    1LIG    H44  135   2.215   2.117   4.226
    1LIG    H45  136   2.107   2.257   4.226
    1LIG    H46  137   2.281   2.392   4.348
    1LIG    H47  138   2.390   2.251   4.349
    1LIG    H48  139   2.281   2.392   4.594
    1LIG    H49  140   2.389   2.251   4.594
    1LIG    H50  141   2.215   2.117   4.718
    1LIG    H51  142   2.107   2.258   4.717
    1LIG    H52  143   2.214   2.117   4.963
    1LIG    H53  144   2.106   2.258   4.963
    1LIG    H54  145   2.280   2.392   5.085
    1LIG    H55  146   2.388   2.251   5.085
    1LIG    H56  147   2.281   2.391   5.331
    1LIG    H57  148   2.389   2.251   5.330
    1LIG    H58  149   2.215   2.117   5.453
    1LIG    H59  150   2.107   2.257   5.454
    1LIG    H60  151   2.215   2.116   5.699
    1LIG    H61  152   2.107   2.257   5.699
    1LIG    H62  153   2.281   2.391   5.821
    1LIG    H63  154   2.389   2.251   5.821
    1LIG    H64  155   2.281   2.391   6.066
    1LIG    H65  156   2.389   2.250   6.066
    1LIG    H66  157   2.215   2.116   6.189
    1LIG    H67  158   2.107   2.257   6.189
    1LIG    H68  159   2.215   2.116   6.434
    1LIG    H69  160   2.107   2.256   6.434
    1LIG    H70  161   2.281   2.390   6.558
    1LIG    H71  162   2.389   2.250   6.557
    1LIG    H72  163   2.281   2.390   6.802
    1LIG    H73  164   2.390   2.250   6.802
    1LIG    H74  165   2.216   2.116   6.926
    1LIG    H75  166   2.108   2.256   6.926
    1LIG    H76  167   2.216   2.115   7.170
    1LIG    H77  168   2.108   2.255   7.171
    1LIG    H78  169   2.281   2.389   7.294
    1LIG    H79  170   2.390   2.248   7.294
    1LIG    H80  171   2.282   2.389   7.539
    1LIG    H81  172   2.390   2.249   7.539
    1LIG    H82  173   2.217   2.114   7.662
    1LIG    H83  174   2.108   2.254   7.663
    1LIG    H84  175   2.217   2.113   7.907
    1LIG    H85  176   2.108   2.254   7.907
    1LIG    H86  177   2.282   2.388   8.030
    1LIG    H87  178   2.391   2.248   8.029
    1LIG    H88  179   2.283   2.388   8.276
    1LIG    H89  180   2.391   2.248   8.275
    1LIG    H90  181   2.217   2.113   8.398
    1LIG    H91  182   2.109   2.253   8.398
    1LIG    H92  183   2.218   2.112   8.644
    1LIG    H93  184   2.109   2.252   8.644
    1LIG    H94  185   2.283   2.387   8.766
    1LIG    H95  186   2.392   2.247   8.766
    1LIG    H96  187   2.283   2.386   9.012
    1LIG    H97  188   2.391   2.246   9.011
    1LIG    H98  189   2.218   2.111   9.133
    1LIG    H99  190   2.109   2.251   9.134
    1LIG   H100  191   2.218   2.111   9.379
    1LIG   H101  192   2.110   2.251   9.380
    1LIG   H102  193   2.284   2.386   9.502
    1LIG   H103  194   2.392   2.246   9.501
    1LIG   H104  195   2.284   2.385   9.747
    1LIG   H105  196   2.392   2.245   9.747
    1LIG   H106  197   2.219   2.110   9.869
    1LIG   H107  198   2.110   2.250   9.870
    1LIG   H108  199   2.220   2.110  10.114
    1LIG   H109  200   2.111   2.250  10.115
    1LIG   H110  201   2.284   2.384  10.239
    1LIG   H111  202   2.393   2.244  10.238
    1LIG   H112  203   2.285   2.384  10.484
    1LIG   H113  204   2.394   2.244  10.483
    1LIG   H114  205   2.221   2.109  10.607
    1LIG   H115  206   2.112   2.249  10.608
    1LIG   H116  207   2.221   2.108  10.852
    1LIG   H117  208   2.112   2.249  10.853
    1LIG   H118  209   2.393   2.242  10.978
    1LIG   H119  210   2.241   2.235  11.073
    1MOL     C1  211   2.930   2.448   5.066
    1MOL     H1  212   3.035   2.418   5.058
    1MOL     O1  213   2.897   2.507   4.942
    1MOL     C2  214   2.764   2.560   4.933
    1MOL     H2  215   2.691   2.478   4.945
    1MOL     C3  216   2.746   2.617   4.793
    1MOL     H3  217   2.639   2.639   4.778
    1MOL     H4  218   2.777   2.540   4.720
    1MOL     O2  219   2.824   2.735   4.780
    1MOL     H5  220   2.801   2.777   4.696
    1MOL     C4  221   2.911   2.548   5.181
    1MOL     H6  222   2.980   2.632   5.162
    1MOL     O3  223   2.945   2.497   5.308
    1MOL     H7  224   2.913   2.405   5.317
    1MOL     C5  225   2.769   2.603   5.179
    1MOL     H8  226   2.698   2.521   5.198
    1MOL     O4  227   2.754   2.703   5.280
    1MOL     H9  228   2.802   2.669   5.358
    1MOL     C6  229   2.739   2.665   5.044
    1MOL    H10  230   2.807   2.750   5.028
    1MOL     O5  231   2.603   2.709   5.043
    1MOL     C7  232   2.574   2.836   4.987
    1MOL    H11  233   2.664   2.878   4.940
    1MOL     O6  234   2.480   2.824   4.883
    1MOL     C8  235   2.352   2.772   4.923
    1MOL    H12  236   2.366   2.673   4.969
    1MOL     C9  237   2.266   2.754   4.796
    1MOL    H13  238   2.194   2.673   4.816
    1MOL    H14  239   2.333   2.720   4.716
    1MOL     O7  240   2.201   2.871   4.751
    1MOL    H15  241   2.113   2.874   4.794
    1MOL    C10  242   2.522   2.928   5.098
    1MOL    H16  243   2.510   3.028   5.056
    1MOL     O8  244   2.610   2.942   5.208
    1MOL    H17  245   2.643   2.853   5.235
    1MOL    C11  246   2.384   2.880   5.145
    1MOL    H18  247   2.394   2.781   5.192
    1MOL     O9  248   2.327   2.972   5.238
    1MOL    H19  249   2.400   2.995   5.299
    1MOL    C12  250   2.291   2.869   5.025
    1MOL    H20  251   2.281   2.967   4.977
    1MOL    O10  252   2.163   2.824   5.071
    1MOL    C13  253   2.051   2.906   5.044
    1MOL    H21  254   2.083   3.005   5.012
    1MOL    O11  255   1.974   2.854   4.936
    1MOL    C14  256   1.920   2.722   4.960
    1MOL    H22  257   2.003   2.653   4.982
    1MOL    C15  258   1.851   2.674   4.831
    1MOL    H23  259   1.857   2.564   4.827
    1MOL    H24  260   1.909   2.713   4.746
    1MOL    O12  261   1.717   2.718   4.816
    1MOL    H25  262   1.660   2.647   4.851
    1MOL    C16  263   1.966   2.915   5.171
    1MOL    H26  264   1.884   2.985   5.152
    1MOL    O13  265   2.038   2.965   5.283
    1MOL    H27  266   2.133   2.943   5.273
    1MOL    C17  267   1.904   2.778   5.202
    1MOL    H28  268   1.984   2.706   5.225
    1MOL    O14  269   1.815   2.788   5.313
    1MOL    H29  270   1.863   2.838   5.382
    1MOL    C18  271   1.826   2.730   5.081
    1MOL    H30  272   1.746   2.800   5.058
    1MOL    O15  273   1.771   2.601   5.113
    1MOL    C19  274   1.632   2.583   5.098
    1MOL    H31  275   1.581   2.679   5.084
    1MOL    O16  276   1.602   2.507   4.982
    1MOL    C20  277   1.659   2.374   4.981
    1MOL    H32  278   1.768   2.383   4.992
    1MOL    C21  279   1.629   2.309   4.845
    1MOL    H33  280   1.712   2.240   4.822
    1MOL    H34  281   1.631   2.388   4.769
    1MOL    O17  282   1.504   2.243   4.837
    1MOL    H35  283   1.520   2.149   4.858
    1MOL    C22  284   1.580   2.512   5.224
    1MOL    H36  285   1.471   2.505   5.216
    1MOL    O18  286   1.608   2.583   5.343
    1MOL    H37  287   1.692   2.632   5.333
    1MOL    C23  288   1.636   2.370   5.230
    1MOL    H38  289   1.745   2.374   5.241
    1MOL    O19  290   1.579   2.298   5.339
    1MOL    H39  291   1.584   2.358   5.416
    1MOL    C24  292   1.602   2.296   5.101
    1MOL    H40  293   1.494   2.290   5.089
    1MOL    O20  294   1.659   2.165   5.108
    1MOL    C25  295   1.574   2.054   5.090
    1MOL    H41  296   1.469   2.085   5.092
    1MOL    O21  297   1.594   1.995   4.963
    1MOL    C26  298   1.727   1.943   4.941
    1MOL    H42  299   1.799   2.025   4.947
    1MOL    C27  300   1.733   1.886   4.800
    1MOL    H43  301   1.838   1.866   4.776
    1MOL    H44  302   1.695   1.962   4.730
    1MOL    O22  303   1.655   1.767   4.794
    1MOL    H45  304   1.664   1.730   4.705
    1MOL    C28  305   1.602   1.954   5.202
    1MOL    H46  306   1.532   1.870   5.190
    1MOL    O23  307   1.580   2.006   5.332
    1MOL    H47  308   1.603   2.102   5.333
    1MOL    C29  309   1.744   1.900   5.188
    1MOL    H48  310   1.816   1.982   5.201
    1MOL    O24  311   1.768   1.799   5.286
    1MOL    H49  312   1.730   1.833   5.369
    1MOL    C30  313   1.763   1.839   5.049
    1MOL    H50  314   1.699   1.751   5.039
    1MOL    O25  315   1.900   1.802   5.037
    1MOL    C31  316   1.931   1.677   4.975
    1MOL    H51  317   1.843   1.638   4.924
    1MOL    O26  318   2.029   1.696   4.875
    1MOL    C32  319   2.156   1.747   4.922
    1MOL    H52  320   2.139   1.843   4.973
    1MOL    C33  321   2.245   1.772   4.800
    1MOL    H53  322   2.321   1.846   4.828
    1MOL    H54  323   2.181   1.818   4.723
    1MOL    O27  324   2.305   1.655   4.749
    1MOL    H55  325   2.401   1.666   4.756
    1MOL    C34  326   1.981   1.579   5.083
    1MOL    H56  327   1.995   1.482   5.035
    1MOL    O28  328   1.889   1.558   5.188
    1MOL    H57  329   1.861   1.645   5.225
    1MOL    C35  330   2.116   1.626   5.137
    1MOL    H58  331   2.103   1.722   5.188
    1MOL    O29  332   2.170   1.530   5.228
    1MOL    H59  333   2.095   1.502   5.283
    1MOL    C36  334   2.214   1.646   5.022
    1MOL    H60  335   2.229   1.552   4.968
    1MOL    O30  336   2.339   1.691   5.076
    1MOL    C37  337   2.446   1.600   5.073
    1MOL    H61  338   2.410   1.499   5.054
    1MOL    O31  339   2.536   1.628   4.968
    1MOL    C38  340   2.597   1.758   4.973
    1MOL    H62  341   2.519   1.835   4.976
    1MOL    C39  342   2.674   1.774   4.844
    1MOL    H63  343   2.742   1.688   4.831
    1MOL    H64  344   2.732   1.866   4.845
    1MOL    O32  345   2.576   1.776   4.739
    1MOL    H65  346   2.620   1.798   4.656
    1MOL    C40  347   2.520   1.606   5.207
    1MOL    H66  348   2.598   1.529   5.204
    1MOL    O33  349   2.439   1.582   5.320
    1MOL    H67  350   2.345   1.581   5.294
    1MOL    C41  351   2.589   1.742   5.221
    1MOL    H68  352   2.512   1.820   5.225
    1MOL    O34  353   2.668   1.745   5.340
    1MOL    H69  354   2.610   1.711   5.411
    1MOL    C42  355   2.680   1.769   5.102
    1MOL    H70  356   2.761   1.694   5.100
    1MOL    O35  357   2.735   1.900   5.118
    1MOL    C43  358   2.875   1.917   5.114
    1MOL    H71  359   2.925   1.819   5.111
    1MOL    O36  360   2.916   1.983   4.996
    1MOL    C44  361   2.865   2.116   4.979
    1MOL    H72  362   2.755   2.113   4.977
    1MOL    C45  363   2.915   2.165   4.845
    1MOL    H73  364   3.023   2.145   4.838
    1MOL    H74  365   2.898   2.274   4.837
    1MOL    O37  366   2.842   2.095   4.743
    1MOL    H75  367   2.880   2.121   4.658
    1MOL    C46  368   2.919   1.996   5.237
    1MOL    H76  369   3.028   2.001   5.237
    1MOL    O38  370   2.882   1.937   5.360
    1MOL    H77  371   2.796   1.890   5.350
    1MOL    C47  372   2.865   2.139   5.228
    1MOL    H78  373   2.755   2.136   5.230
    1MOL    O39  374   2.913   2.216   5.338
    1MOL    H79  375   2.902   2.160   5.416
    1MOL    C48  376   2.909   2.205   5.098
    1MOL    H80  377   3.018   2.215   5.098
    1MOL    O40  378   2.848   2.334   5.091
    1MOL     C1  379   1.570   2.448   6.034
    1MOL     H1  380   1.465   2.418   6.043
    1MOL     O1  381   1.603   2.507   6.158
    1MOL     C2  382   1.737   2.560   6.167
    1MOL     H2  383   1.809   2.478   6.155
    1MOL     C3  384   1.754   2.617   6.307
    1MOL     H3  385   1.861   2.639   6.322
    1MOL     H4  386   1.723   2.540   6.380
    1MOL     O2  387   1.676   2.735   6.320
    1MOL     H5  388   1.699   2.777   6.404
    1MOL     C4  389   1.589   2.548   5.919
    1MOL     H6  390   1.520   2.632   5.938
    1MOL     O3  391   1.555   2.497   5.792
    1MOL     H7  392   1.587   2.405   5.783
    1MOL     C5  393   1.732   2.603   5.921
    1MOL     H8  394   1.802   2.521   5.902
    1MOL     O4  395   1.746   2.703   5.820
    1MOL     H9  396   1.699   2.669   5.742
    1MOL     C6  397   1.761   2.665   6.057
    1MOL    H10  398   1.693   2.750   6.072
    1MOL     O5  399   1.897   2.709   6.057
    1MOL     C7  400   1.926   2.836   6.113
    1MOL    H11  401   1.836   2.878   6.160
    1MOL     O6  402   2.020   2.824   6.218
    1MOL     C8  403   2.149   2.772   6.178
    1MOL    H12  404   2.134   2.673   6.131
    1MOL     C9  405   2.234   2.754   6.304
    1MOL    H13  406   2.306   2.673   6.284
    1MOL    H14  407   2.168   2.720   6.384
    1MOL     O7  408   2.299   2.871   6.349
    1MOL    H15  409   2.387   2.874   6.306
    1MOL    C10  410   1.979   2.928   6.002
    1MOL    H16  411   1.990   3.028   6.044
    1MOL     O8  412   1.890   2.942   5.892
    1MOL    H17  413   1.857   2.853   5.865
    1MOL    C11  414   2.116   2.880   5.955
    1MOL    H18  415   2.106   2.781   5.908
    1MOL     O9  416   2.173   2.972   5.862
    1MOL    H19  417   2.100   2.995   5.801
    1MOL    C12  418   2.209   2.869   6.075
    1MOL    H20  419   2.219   2.967   6.123
    1MOL    O10  420   2.337   2.824   6.029
    1MOL    C13  421   2.449   2.906   6.056
    1MOL    H21  422   2.417   3.005   6.089
    1MOL    O11  423   2.526   2.854   6.164
    1MOL    C14  424   2.581   2.722   6.141
    1MOL    H22  425   2.498   2.653   6.118
    1MOL    C15  426   2.649   2.674   6.269
    1MOL    H23  427   2.643   2.564   6.273
    1MOL    H24  428   2.591   2.713   6.354
    1MOL    O12  429   2.783   2.718   6.285
    1MOL    H25  430   2.840   2.647   6.249
    1MOL    C16  431   2.534   2.915   5.929
    1MOL    H26  432   2.616   2.985   5.948
    1MOL    O13  433   2.462   2.965   5.817
    1MOL    H27  434   2.367   2.943   5.827
    1MOL    C17  435   2.596   2.778   5.898
    1MOL    H28  436   2.516   2.706   5.875
    1MOL    O14  437   2.685   2.788   5.787
    1MOL    H29  438   2.637   2.838   5.719
    1MOL    C18  439   2.674   2.730   6.019
    1MOL    H30  440   2.755   2.800   6.042
    1MOL    O15  441   2.729   2.601   5.988
    1MOL    C19  442   2.868   2.583   6.002
    1MOL    H31  443   2.919   2.679   6.016
    1MOL    O16  444   2.898   2.507   6.119
    1MOL    C20  445   2.841   2.374   6.119
    1MOL    H32  446   2.732   2.383   6.108
    1MOL    C21  447   2.871   2.309   6.255
    1MOL    H33  448   2.788   2.240   6.278
    1MOL    H34  449   2.869   2.388   6.331
    1MOL    O17  450   2.996   2.243   6.263
    1MOL    H35  451   2.980   2.149   6.242
    1MOL    C22  452   2.920   2.512   5.876
    1MOL    H36  453   3.029   2.505   5.884
    1MOL    O18  454   2.892   2.583   5.757
    1MOL    H37  455   2.808   2.632   5.767
    1MOL    C23  456   2.864   2.370   5.870
    1MOL    H38  457   2.755   2.374   5.859
    1MOL    O19  458   2.921   2.298   5.761
    1MOL    H39  459   2.916   2.358   5.684
    1MOL    C24  460   2.898   2.296   5.999
    1MOL    H40  461   3.007   2.290   6.011
    1MOL    O20  462   2.841   2.165   5.992
    1MOL    C25  463   2.927   2.054   6.010
    1MOL    H41  464   3.031   2.085   6.009
    1MOL    O21  465   2.906   1.995   6.137
    1MOL    C26  466   2.773   1.943   6.159
    1MOL    H42  467   2.701   2.025   6.153
    1MOL    C27  468   2.767   1.886   6.300
    1MOL    H43  469   2.662   1.866   6.324
    1MOL    H44  470   2.805   1.962   6.370
    1MOL    O22  471   2.846   1.767   6.306
    1MOL    H45  472   2.836   1.730   6.395
    1MOL    C28  473   2.898   1.954   5.898
    1MOL    H46  474   2.968   1.870   5.910
    1MOL    O23  475   2.920   2.006   5.769
    1MOL    H47  476   2.897   2.102   5.768
    1MOL    C29  477   2.756   1.900   5.912
    1MOL    H48  478   2.684   1.982   5.899
    1MOL    O24  479   2.732   1.799   5.814
    1MOL    H49  480   2.770   1.833   5.731
    1MOL    C30  481   2.737   1.839   6.051
    1MOL    H50  482   2.801   1.751   6.061
    1MOL    O25  483   2.600   1.802   6.063
    1MOL    C31  484   2.569   1.677   6.125
    1MOL    H51  485   2.657   1.638   6.176
    1MOL    O26  486   2.471   1.696   6.225
    1MOL    C32  487   2.344   1.747   6.178
    1MOL    H52  488   2.361   1.843   6.128
    1MOL    C33  489   2.255   1.772   6.300
    1MOL    H53  490   2.179   1.846   6.272
    1MOL    H54  491   2.319   1.818   6.377
    1MOL    O27  492   2.195   1.655   6.351
    1MOL    H55  493   2.099   1.666   6.344
    1MOL    C34  494   2.519   1.579   6.017
    1MOL    H56  495   2.505   1.482   6.065
    1MOL    O28  496   2.611   1.558   5.912
    1MOL    H57  497   2.639   1.645   5.875
    1MOL    C35  498   2.384   1.626   5.963
    1MOL    H58  499   2.397   1.722   5.912
    1MOL    O29  500   2.330   1.530   5.872
    1MOL    H59  501   2.405   1.502   5.817
    1MOL    C36  502   2.286   1.646   6.078
    1MOL    H60  503   2.271   1.552   6.132
    1MOL    O30  504   2.161   1.691   6.024
    1MOL    C37  505   2.054   1.600   6.027
    1MOL    H61  506   2.090   1.499   6.046
    1MOL    O31  507   1.964   1.628   6.132
    1MOL    C38  508   1.903   1.758   6.127
    1MOL    H62  509   1.982   1.835   6.124
    1MOL    C39  510   1.827   1.774   6.256
    1MOL    H63  511   1.758   1.688   6.269
    1MOL    H64  512   1.768   1.866   6.255
    1MOL    O32  513   1.924   1.776   6.361
    1MOL    H65  514   1.880   1.798   6.444
    1MOL    C40  515   1.980   1.606   5.893
    1MOL    H66  516   1.902   1.529   5.896
    1MOL    O33  517   2.061   1.582   5.780
    1MOL    H67  518   2.156   1.581   5.806
    1MOL    C41  519   1.911   1.742   5.879
    1MOL    H68  520   1.988   1.820   5.875
    1MOL    O34  521   1.832   1.745   5.760
    1MOL    H69  522   1.890   1.711   5.689
    1MOL    C42  523   1.820   1.769   5.998
    1MOL    H70  524   1.739   1.694   6.000
    1MOL    O35  525   1.765   1.900   5.982
    1MOL    C43  526   1.625   1.917   5.986
    1MOL    H71  527   1.575   1.819   5.989
    1MOL    O36  528   1.584   1.983   6.104
    1MOL    C44  529   1.635   2.116   6.121
    1MOL    H72  530   1.745   2.113   6.123
    1MOL    C45  531   1.586   2.165   6.256
    1MOL    H73  532   1.478   2.145   6.262
    1MOL    H74  533   1.602   2.274   6.263
    1MOL    O37  534   1.658   2.095   6.357
    1MOL    H75  535   1.621   2.121   6.442
    1MOL    C46  536   1.582   1.996   5.863
    1MOL    H76  537   1.472   2.001   5.863
    1MOL    O38  538   1.618   1.937   5.740
    1MOL    H77  539   1.704   1.890   5.750
    1MOL    C47  540   1.635   2.139   5.872
    1MOL    H78  541   1.745   2.136   5.871
    1MOL    O39  542   1.587   2.216   5.762
    1MOL    H79  543   1.598   2.160   5.684
    1MOL    C48  544   1.591   2.205   6.002
    1MOL    H80  545   1.482   2.215   6.002
    1MOL    O40  546   1.652   2.334   6.009
    2SOL     OW  547   0.230   0.628   0.113
    2SOL    HW1  548   0.137   0.626   0.150
    2SOL    HW2  549   0.231   0.589   0.021
    3SOL     OW  550   0.225   0.275   0.996
    3SOL    HW1  551   0.260   0.258   1.088
    3SOL    HW2  552   0.137   0.230   0.984
    4SOL     OW  553   0.019   0.368   0.647
    4SOL    HW1  554  -0.063   0.411   0.686
    4SOL    HW2  555  -0.009   0.295   0.584
    5SOL     OW  556   0.569   1.275   1.165
    5SOL    HW1  557   0.476   1.268   1.128
    5SOL    HW2  558   0.580   1.364   1.209
    6SOL     OW  559   1.555   1.511   0.703
    6SOL    HW1  560   1.498   1.495   0.784
    6SOL    HW2  561   1.496   1.521   0.623
    7SOL     OW  562   1.135   0.703   0.717
    7SOL    HW1  563   1.192   0.781   0.692
    7SOL    HW2  564   1.075   0.729   0.793
    8SOL     OW  565   1.755   0.607   0.231
    8SOL    HW1  566   1.743   0.594   0.132
    8SOL    HW2  567   1.725   0.526   0.280
    9SOL     OW  568   0.768   1.144   1.023
    9SOL    HW1  569   0.690   1.161   1.083
    9SOL    HW2  570   0.802   1.231   0.987
   10SOL     OW  571   0.850   0.798   1.823
   10SOL    HW1  572   0.846   0.874   1.888
   10SOL    HW2  573   0.872   0.834   1.732
   11SOL     OW  574   0.685   1.012   0.665
   11SOL    HW1  575   0.754   0.996   0.735
   11SOL    HW2  576   0.612   1.069   0.703
   12SOL     OW  577   0.686   1.161   1.803
   12SOL    HW1  578   0.746   1.240   1.817
   12SOL    HW2  579   0.600   1.192   1.762
   13SOL     OW  580   0.335   1.435   1.061
   13SOL    HW1  581   0.257   1.404   1.008
   13SOL    HW2  582   0.393   1.493   1.004
   14SOL     OW  583   1.460   1.505   1.339
   14SOL    HW1  584   1.484   1.599   1.365
   14SOL    HW2  585   1.444   1.451   1.421
   15SOL     OW  586   0.438   0.392   1.499
   15SOL    HW1  587   0.520   0.336   1.508
   15SOL    HW2  588   0.357   0.334   1.503
   16SOL     OW  589   1.603   0.447   0.737
   16SOL    HW1  590   1.529   0.493   0.687
   16SOL    HW2  591   1.654   0.515   0.790
   17SOL     OW  592   0.231   1.713   0.483
   17SOL    HW1  593   0.265   1.790   0.537
   17SOL    HW2  594   0.275   1.713   0.393
   18SOL     OW  595   1.127   1.341   1.690
   18SOL    HW1  596   1.174   1.341   1.778
   18SOL    HW2  597   1.079   1.254   1.679
   19SOL     OW  598   0.230   1.434   0.538
   19SOL    HW1  599   0.204   1.530   0.538
   19SOL    HW2  600   0.159   1.380   0.583
   20SOL     OW  601   0.240   1.091   0.886
   20SOL    HW1  602   0.254   1.007   0.938
   20SOL    HW2  603   0.185   1.155   0.941
   21SOL     OW  604   0.620   1.786   1.439
   21SOL    HW1  605   0.528   1.769   1.474
   21SOL    HW2  606   0.648   1.878   1.465
   22SOL     OW  607   0.606   0.964   0.123
   22SOL    HW1  608   0.613   1.048   0.069
   22SOL    HW2  609   0.652   0.977   0.211
   23SOL     OW  610   1.594   0.114   1.480
   23SOL    HW1  611   1.576   0.181   1.408
   23SOL    HW2  612   1.591   0.160   1.569
   24SOL     OW  613   0.122   0.643   0.563
   24SOL    HW1  614   0.077   0.555   0.580
   24SOL    HW2  615   0.121   0.697   0.647
   25SOL     OW  616   1.842   1.767   0.359
   25SOL    HW1  617   1.896   1.738   0.439
   25SOL    HW2  618   1.872   1.857   0.330
   26SOL     OW  619   0.027   1.596   0.117
   26SOL    HW1  620   0.008   1.500   0.138
   26SOL    HW2  621  -0.006   1.654   0.192
   27SOL     OW  622   1.689   0.922   0.612
   27SOL    HW1  623   1.784   0.893   0.620
   27SOL    HW2  624   1.681   0.987   0.537
   28SOL     OW  625   1.641   1.108   0.432
   28SOL    HW1  626   1.727   1.110   0.380
   28SOL    HW2  627   1.655   1.155   0.520
   29SOL     OW  628   0.113   0.737   1.597
   29SOL    HW1  629   0.201   0.724   1.642
   29SOL    HW2  630   0.100   0.834   1.575
   30SOL     OW  631   0.613   1.365   0.726
   30SOL    HW1  632   0.564   1.278   0.735
   30SOL    HW2  633   0.590   1.408   0.639
   31SOL     OW  634   1.293   1.228   1.423
   31SOL    HW1  635   1.330   1.155   1.365
   31SOL    HW2  636   1.345   1.233   1.508
   32SOL     OW  637   0.809   0.004   0.502
   32SOL    HW1  638   0.849   0.095   0.493
   32SOL    HW2  639   0.709   0.012   0.508
   33SOL     OW  640   0.197   0.976   1.264
   33SOL    HW1  641   0.286   0.931   1.250
   33SOL    HW2  642   0.124   0.911   1.245
   34SOL     OW  643   1.525   0.999   0.190
   34SOL    HW1  644   1.462   0.923   0.203
   34SOL    HW2  645   1.573   1.017   0.276
   35SOL     OW  646   1.187   1.792   1.616
   35SOL    HW1  647   1.211   1.852   1.540
   35SOL    HW2  648   1.194   1.697   1.586
   36SOL     OW  649   0.317   0.251   1.801
   36SOL    HW1  650   0.388   0.322   1.807
   36SOL    HW2  651   0.229   0.290   1.829
   37SOL     OW  652   1.466   1.417   0.953
   37SOL    HW1  653   1.407   1.423   1.033
   37SOL    HW2  654   1.451   1.329   0.907
   38SOL     OW  655   1.667   1.714   0.572
   38SOL    HW1  656   1.626   1.691   0.484
   38SOL    HW2  657   1.649   1.640   0.637
   39SOL     OW  658   0.598   0.729   0.270
   39SOL    HW1  659   0.622   0.798   0.202
   39SOL    HW2  660   0.520   0.762   0.324
   40SOL     OW  661   1.281   0.345   0.944
   40SOL    HW1  662   1.195   0.295   0.931
   40SOL    HW2  663   1.343   0.291   1.000
   41SOL     OW  664   1.576   1.662   0.307
   41SOL    HW1  665   1.665   1.708   0.310
   41SOL    HW2  666   1.555   1.638   0.212
   42SOL     OW  667   0.807   0.605   1.465
   42SOL    HW1  668   0.760   0.602   1.554
   42SOL    HW2  669   0.756   0.550   1.399
   43SOL     OW  670   1.394   0.469   1.674
   43SOL    HW1  671   1.374   0.512   1.762
   43SOL    HW2  672   1.472   0.407   1.683
   44SOL     OW  673   0.973   0.890   1.572
   44SOL    HW1  674   1.019   0.806   1.543
   44SOL    HW2  675   0.917   0.924   1.497
   45SOL     OW  676   0.991   0.410   1.242
   45SOL    HW1  677   0.914   0.444   1.296
   45SOL    HW2  678   0.957   0.359   1.163
   46SOL     OW  679   1.041   0.701   0.429
   46SOL    HW1  680   1.067   0.697   0.525
   46SOL    HW2  681   0.956   0.650   0.415
   47SOL     OW  682   0.076   0.811   0.789
   47SOL    HW1  683   0.175   0.799   0.798
   47SOL    HW2  684   0.052   0.906   0.810
   48SOL     OW  685   0.130   1.821   1.571
   48SOL    HW1  686   0.120   1.806   1.670
   48SOL    HW2  687   0.044   1.857   1.535
   49SOL     OW  688   0.865   0.348   0.195
   49SOL    HW1  689   0.924   0.411   0.146
   49SOL    HW2  690   0.884   0.254   0.166
   50SOL     OW  691   1.719   0.585   1.831
   50SOL    HW1  692   1.693   0.674   1.795
   50SOL    HW2  693   1.717   0.517   1.758
   51SOL     OW  694   1.362   1.144   0.545
   51SOL    HW1  695   1.445   1.115   0.497
   51SOL    HW2  696   1.313   1.211   0.489
   52SOL     OW  697   0.550   0.196   0.885
   52SOL    HW1  698   0.545   0.191   0.985
   52SOL    HW2  699   0.552   0.292   0.856
   53SOL     OW  700   1.008   1.456   0.477
   53SOL    HW1  701   0.962   1.528   0.425
   53SOL    HW2  702   1.004   1.476   0.575
   54SOL     OW  703   0.351   1.801   0.853
   54SOL    HW1  704   0.401   1.715   0.859
   54SOL    HW2  705   0.416   1.878   0.850
   55SOL     OW  706   1.795   1.066   0.873
   55SOL    HW1  707   1.733   1.051   0.797
   55SOL    HW2  708   1.743   1.077   0.958
   56SOL     OW  709   1.227   1.550   1.506
   56SOL    HW1  710   1.233   1.473   1.570
   56SOL    HW2  711   1.175   1.524   1.426
   57SOL     OW  712   0.321   0.943   0.242
   57SOL    HW1  713   0.403   0.982   0.200
   57SOL    HW2  714   0.294   0.861   0.193
   58SOL     OW  715   1.458   0.735   0.728
   58SOL    HW1  716   1.453   0.670   0.803
   58SOL    HW2  717   1.538   0.794   0.741
   59SOL     OW  718   0.461   1.266   1.727
   59SOL    HW1  719   0.411   1.267   1.641
   59SOL    HW2  720   0.398   1.248   1.803
   60SOL     OW  721   1.111   1.776   0.237
   60SOL    HW1  722   1.051   1.714   0.287
   60SOL    HW2  723   1.142   1.732   0.152
   61SOL     OW  724   0.202   0.285   1.498
   61SOL    HW1  725   0.122   0.345   1.485
   61SOL    HW2  726   0.192   0.236   1.584
   62SOL     OW  727   1.632   1.377   0.081
   62SOL    HW1  728   1.600   1.471   0.071
   62SOL    HW2  729   1.556   1.314   0.069
   63SOL     OW  730   0.464   1.743   0.323
   63SOL    HW1  731   0.497   1.782   0.409
   63SOL    HW2  732   0.540   1.736   0.258
   64SOL     OW  733   1.400   0.107   0.426
   64SOL    HW1  734   1.376   0.070   0.336
   64SOL    HW2  735   1.499   0.123   0.430
   65SOL     OW  736   0.249   1.785   1.241
   65SOL    HW1  737   0.306   1.720   1.291
   65SOL    HW2  738   0.233   1.752   1.148
   66SOL     OW  739   0.940   1.698   0.904
   66SOL    HW1  740   1.020   1.641   0.925
   66SOL    HW2  741   0.891   1.658   0.827
   67SOL     OW  742   0.382   0.700   0.480
   67SOL    HW1  743   0.427   0.610   0.477
   67SOL    HW2  744   0.288   0.689   0.513
   68SOL     OW  745   1.547   0.222   1.729
   68SOL    HW1  746   1.542   0.259   1.821
   68SOL    HW2  747   1.475   0.153   1.717
   69SOL     OW  748   0.614   0.122   0.117
   69SOL    HW1  749   0.712   0.100   0.124
   69SOL    HW2  750   0.583   0.105   0.024
   70SOL     OW  751   0.781   0.264   1.749
   70SOL    HW1  752   0.848   0.203   1.792
   70SOL    HW2  753   0.708   0.283   1.814
   71SOL     OW  754   0.888   1.514   1.195
   71SOL    HW1  755   0.865   1.489   1.101
   71SOL    HW2  756   0.949   1.445   1.234
   72SOL     OW  757   1.351   0.590   1.433
   72SOL    HW1  758   1.379   0.547   1.518
   72SOL    HW2  759   1.376   0.686   1.434
   73SOL     OW  760   0.803   1.402   0.924
   73SOL    HW1  761   0.893   1.416   0.882
   73SOL    HW2  762   0.732   1.404   0.853
   74SOL     OW  763   0.922   0.503   0.899
   74SOL    HW1  764   0.897   0.494   0.803
   74SOL    HW2  765   0.970   0.421   0.930
   75SOL     OW  766   0.539   0.064   0.512
   75SOL    HW1  767   0.458   0.065   0.570
   75SOL    HW2  768   0.542   0.147   0.457
   76SOL     OW  769   1.434   1.188   0.041
   76SOL    HW1  770   1.466   1.112   0.098
   76SOL    HW2  771   1.342   1.215   0.071
   77SOL     OW  772   0.297   0.035   0.171
   77SOL    HW1  773   0.346   0.119   0.150
   77SOL    HW2  774   0.359  -0.030   0.216
   78SOL     OW  775   0.935   0.236   0.480
   78SOL    HW1  776   0.887   0.277   0.402
   78SOL    HW2  777   1.034   0.234   0.461
   79SOL     OW  778   1.076   0.683   1.464
   79SOL    HW1  779   0.996   0.622   1.467
   79SOL    HW2  780   1.157   0.630   1.440
   80SOL     OW  781   1.227   1.570   0.793
   80SOL    HW1  782   1.248   1.644   0.728
   80SOL    HW2  783   1.295   1.570   0.866
   81SOL     OW  784   0.459   1.152   0.741
   81SOL    HW1  785   0.388   1.125   0.806
   81SOL    HW2  786   0.433   1.124   0.648
   82SOL     OW  787   1.271   1.797   0.591
   82SOL    HW1  788   1.315   1.861   0.527
   82SOL    HW2  789   1.221   1.849   0.661
   83SOL     OW  790   1.032   0.549   0.016
   83SOL    HW1  791   0.991   0.631  -0.023
   83SOL    HW2  792   1.096   0.575   0.089
   84SOL     OW  793   0.078   0.556   1.386
   84SOL    HW1  794   0.170   0.555   1.345
   84SOL    HW2  795   0.072   0.630   1.453
   85SOL     OW  796   0.561   0.222   1.147
   85SOL    HW1  797   0.599   0.138   1.184
   85SOL    HW2  798   0.473   0.241   1.191
   86SOL     OW  799   0.866   0.454   0.642
   86SOL    HW1  800   0.834   0.526   0.580
   86SOL    HW2  801   0.890   0.373   0.589
   87SOL     OW  802   1.017   0.039   0.753
   87SOL    HW1  803   0.945   0.044   0.684
   87SOL    HW2  804   0.993  -0.030   0.822
   88SOL     OW  805   1.429   1.173   0.867
   88SOL    HW1  806   1.374   1.089   0.860
   88SOL    HW2  807   1.455   1.202   0.775
   89SOL     OW  808   1.466   0.590   0.992
   89SOL    HW1  809   1.436   0.495   0.999
   89SOL    HW2  810   1.539   0.606   1.058
   90SOL     OW  811   1.857   0.833   0.377
   90SOL    HW1  812   1.899   0.769   0.441
   90SOL    HW2  813   1.819   0.782   0.299
   91SOL     OW  814   0.488   1.385   0.174
   91SOL    HW1  815   0.401   1.370   0.221
   91SOL    HW2  816   0.471   1.411   0.079
   92SOL     OW  817   1.664   1.280   0.657
   92SOL    HW1  818   1.763   1.288   0.671
   92SOL    HW2  819   1.619   1.364   0.688
   93SOL     OW  820   1.390   0.575   0.078
   93SOL    HW1  821   1.336   0.554   0.159
   93SOL    HW2  822   1.481   0.534   0.087
   94SOL     OW  823   0.527   0.256   0.328
   94SOL    HW1  824   0.554   0.197   0.253
   94SOL    HW2  825   0.527   0.351   0.297
   95SOL     OW  826   1.754   1.223   1.588
   95SOL    HW1  827   1.845   1.184   1.575
   95SOL    HW2  828   1.762   1.319   1.612
   96SOL     OW  829   1.064   1.347   1.340
   96SOL    HW1  830   0.984   1.324   1.395
   96SOL    HW2  831   1.147   1.321   1.389
   97SOL     OW  832   1.592   1.629   1.625
   97SOL    HW1  833   1.619   1.663   1.535
   97SOL    HW2  834   1.671   1.591   1.671
   98SOL     OW  835   1.111   1.195   1.100
   98SOL    HW1  836   1.071   1.239   1.181
   98SOL    HW2  837   1.070   1.232   1.017
   99SOL     OW  838   1.638   1.099   1.079
   99SOL    HW1  839   1.643   1.180   1.138
   99SOL    HW2  840   1.552   1.101   1.028
  100SOL     OW  841   0.915   0.089   1.402
  100SOL    HW1  842   0.940   0.069   1.307
  100SOL    HW2  843   0.987   0.145   1.444
  101SOL     OW  844   0.980   1.116   1.719
  101SOL    HW1  845   0.881   1.122   1.729
  101SOL    HW2  846   1.003   1.036   1.663
  102SOL     OW  847   0.705   1.050   0.368
  102SOL    HW1  848   0.691   1.057   0.467
  102SOL    HW2  849   0.789   0.999   0.350
  103SOL     OW  850   0.410   0.813   1.251
  103SOL    HW1  851   0.496   0.825   1.301
  103SOL    HW2  852   0.368   0.726   1.278
  104SOL     OW  853   1.274   0.386   1.262
  104SOL    HW1  854   1.295   0.460   1.326
  104SOL    HW2  855   1.185   0.403   1.219
  105SOL     OW  856   0.064   1.564   1.331
  105SOL    HW1  857   0.018   1.646   1.297
  105SOL    HW2  858   0.162   1.583   1.340
  106SOL     OW  859   0.367   1.100   0.501
  106SOL    HW1  860   0.360   1.183   0.445
  106SOL    HW2  861   0.371   1.020   0.441
  107SOL     OW  862   0.566   0.537   0.865
  107SOL    HW1  863   0.578   0.603   0.791
  107SOL    HW2  864   0.612   0.571   0.948
  108SOL     OW  865   1.252   1.348   0.388
  108SOL    HW1  866   1.302   1.425   0.428
  108SOL    HW2  867   1.157   1.350   0.420
  109SOL     OW  868   1.272   1.445   1.142
  109SOL    HW1  869   1.319   1.458   1.229
  109SOL    HW2  870   1.206   1.371   1.151
  110SOL     OW  871   1.582   0.639   0.472
  110SOL    HW1  872   1.551   0.700   0.545
  110SOL    HW2  873   1.632   0.691   0.403
  111SOL     OW  874   0.354   1.510   1.329
  111SOL    HW1  875   0.333   1.466   1.242
  111SOL    HW2  876   0.451   1.536   1.332
  112SOL     OW  877   0.402   0.751   1.598
  112SOL    HW1  878   0.470   0.806   1.551
  112SOL    HW2  879   0.442   0.663   1.625
  113SOL     OW  880   1.587   0.779   1.670
  113SOL    HW1  881   1.495   0.817   1.665
  113SOL    HW2  882   1.647   0.826   1.605
  114SOL     OW  883   1.013   0.105   1.770
  114SOL    HW1  884   1.019   0.190   1.718
  114SOL    HW2  885   1.045   0.029   1.713
  115SOL     OW  886   0.504   0.050   1.740
  115SOL    HW1  887   0.462  -0.007   1.670
  115SOL    HW2  888   0.438   0.119   1.772
  116SOL     OW  889   0.573   0.870   1.029
  116SOL    HW1  890   0.617   0.959   1.020
  116SOL    HW2  891   0.510   0.870   1.106
  117SOL     OW  892   1.360   0.862   1.045
  117SOL    HW1  893   1.285   0.862   0.979
  117SOL    HW2  894   1.397   0.770   1.054
  118SOL     OW  895   1.209   0.525   0.275
  118SOL    HW1  896   1.222   0.441   0.329
  118SOL    HW2  897   1.180   0.599   0.335
  119SOL     OW  898   0.307   0.213   1.231
  119SOL    HW1  899   0.284   0.250   1.321
  119SOL    HW2  900   0.277   0.118   1.225
  120SOL     OW  901   0.037   1.310   1.282
  120SOL    HW1  902   0.090   1.261   1.350
  120SOL    HW2  903   0.059   1.408   1.287
  121SOL     OW  904   0.732   0.634   1.064
  121SOL    HW1  905   0.791   0.608   0.988
  121SOL    HW2  906   0.704   0.730   1.053
  122SOL     OW  907   1.728   0.935   1.854
  122SOL    HW1  908   1.682   0.928   1.765
  122SOL    HW2  909   1.666   0.979   1.920
  123SOL     OW  910   0.307   0.063   0.618
  123SOL    HW1  911   0.296   0.157   0.651
  123SOL    HW2  912   0.302   0.000   0.695
  124SOL     OW  913   1.622   0.367   0.374
  124SOL    HW1  914   1.624   0.291   0.438
  124SOL    HW2  915   1.574   0.444   0.414
  125SOL     OW  916   1.023   0.766   0.966
  125SOL    HW1  917   1.038   0.787   1.062
  125SOL    HW2  918   0.993   0.671   0.957
  126SOL     OW  919   0.980   1.573   1.700
  126SOL    HW1  920   0.960   1.617   1.612
  126SOL    HW2  921   1.019   1.482   1.684
  127SOL     OW  922   1.859   1.518   1.605
  127SOL    HW1  923   1.873   1.545   1.510
  127SOL    HW2  924   1.942   1.540   1.658
  128SOL     OW  925   0.350   0.898   1.804
  128SOL    HW1  926   0.426   0.942   1.852
  128SOL    HW2  927   0.385   0.851   1.722
  129SOL     OW  928   1.540   0.274   0.125
  129SOL    HW1  929   1.479   0.199   0.148
  129SOL    HW2  930   1.562   0.326   0.208
  130SOL     OW  931   1.303   0.838   0.042
  130SOL    HW1  932   1.337   0.745   0.057
  130SOL    HW2  933   1.321   0.865  -0.053
  131SOL     OW  934   1.068   1.333   0.849
  131SOL    HW1  935   1.075   1.249   0.794
  131SOL    HW2  936   1.130   1.402   0.813
  132SOL     OW  937   0.319   0.810   0.949
  132SOL    HW1  938   0.412   0.846   0.954
  132SOL    HW2  939   0.313   0.725   1.001
  133SOL     OW  940   0.339   0.509   1.006
  133SOL    HW1  941   0.287   0.426   0.989
  133SOL    HW2  942   0.416   0.514   0.942
  134SOL     OW  943   1.138   0.380   1.678
  134SOL    HW1  944   1.093   0.443   1.742
  134SOL    HW2  945   1.231   0.411   1.661
  135SOL     OW  946   1.160   0.207   1.477
  135SOL    HW1  947   1.160   0.271   1.554
  135SOL    HW2  948   1.188   0.255   1.394
  136SOL     OW  949   0.008   1.326   0.200
  136SOL    HW1  950  -0.085   1.347   0.169
  136SOL    HW2  951   0.018   1.227   0.213
  137SOL     OW  952   0.088   1.801   0.927
  137SOL    HW1  953   0.046   1.715   0.900
  137SOL    HW2  954   0.182   1.804   0.893
  138SOL     OW  955   0.504   1.568   0.910
  138SOL    HW1  956   0.570   1.642   0.919
  138SOL    HW2  957   0.548   1.489   0.868
  139SOL     OW  958   1.002   0.796   1.238
  139SOL    HW1  959   1.043   0.764   1.324
  139SOL    HW2  960   0.906   0.769   1.235
  140SOL     OW  961   0.040   0.544   1.114
  140SOL    HW1  962   0.125   0.511   1.073
  140SOL    HW2  963   0.053   0.559   1.212
  141SOL     OW  964   0.189   0.520   1.722
  141SOL    HW1  965   0.248   0.480   1.652
  141SOL    HW2  966   0.131   0.591   1.681
  142SOL     OW  967   1.369   0.950   1.660
  142SOL    HW1  968   1.408   1.039   1.680
  142SOL    HW2  969   1.379   0.930   1.563
  143SOL     OW  970   0.815   0.572   0.325
  143SOL    HW1  971   0.822   0.483   0.279
  143SOL    HW2  972   0.721   0.606   0.317
  144SOL     OW  973   1.657   0.604   1.206
  144SOL    HW1  974   1.619   0.535   1.268
  144SOL    HW2  975   1.739   0.568   1.162
  145SOL     OW  976   0.252   1.564   1.744
  145SOL    HW1  977   0.222   1.621   1.820
  145SOL    HW2  978   0.245   1.467   1.770
  146SOL     OW  979   0.671   0.464   1.269
  146SOL    HW1  980   0.637   0.375   1.239
  146SOL    HW2  981   0.697   0.518   1.189
  147SOL     OW  982   0.930   1.678   1.465
  147SOL    HW1  983   0.906   1.660   1.370
  147SOL    HW2  984   0.960   1.772   1.475
  148SOL     OW  985   0.473   0.500   0.191
  148SOL    HW1  986   0.534   0.580   0.195
  148SOL    HW2  987   0.378   0.531   0.198
  149SOL     OW  988   0.159   1.137   1.466
  149SOL    HW1  989   0.181   1.076   1.542
  149SOL    HW2  990   0.169   1.088   1.380
  150SOL     OW  991   1.347   1.059   1.234
  150SOL    HW1  992   1.371   0.996   1.160
  150SOL    HW2  993   1.257   1.099   1.216
  151SOL     OW  994   1.302   0.855   0.309
  151SOL    HW1  995   1.216   0.824   0.351
  151SOL    HW2  996   1.298   0.841   0.210
  152SOL     OW  997   1.759   1.747   1.154
  152SOL    HW1  998   1.820   1.777   1.081
  152SOL    HW2  999   1.721   1.658   1.132
  153SOL     OW 1000   1.252   1.731   1.128
  153SOL    HW1 1001   1.336   1.736   1.074
  153SOL    HW2 1002   1.229   1.635   1.146
  154SOL     OW 1003   0.083   1.258   1.022
  154SOL    HW1 1004   0.078   1.257   1.122
  154SOL    HW2 1005   0.000   1.217   0.984
  155SOL     OW 1006   0.688   1.662   1.716
  155SOL    HW1 1007   0.632   1.743   1.725
  155SOL    HW2 1008   0.740   1.666   1.630
  156SOL     OW 1009   0.903   0.086   0.133
  156SOL    HW1 1010   0.954   0.087   0.047
  156SOL    HW2 1011   0.959   0.044   0.204
  157SOL     OW 1012   1.726   0.135   0.523
  157SOL    HW1 1013   1.799   0.118   0.456
  157SOL    HW2 1014   1.695   0.048   0.561
  158SOL     OW 1015   1.388   1.573   0.477
  158SOL    HW1 1016   1.455   1.585   0.403
  158SOL    HW2 1017   1.348   1.662   0.500
  159SOL     OW 1018   0.130   1.794   1.851
  159SOL    HW1 1019   0.089   1.720   1.904
  159SOL    HW2 1020   0.194   1.845   1.909
  160SOL     OW 1021   1.280   0.927   0.672
  160SOL    HW1 1022   1.340   0.846   0.674
  160SOL    HW2 1023   1.320   0.996   0.612
  161SOL     OW 1024   0.830   1.273   1.422
  161SOL    HW1 1025   0.825   1.306   1.517
  161SOL    HW2 1026   0.744   1.292   1.376
  162SOL     OW 1027   0.672   1.616   0.154
  162SOL    HW1 1028   0.681   1.626   0.055
  162SOL    HW2 1029   0.632   1.527   0.175
  163SOL     OW 1030   1.650   1.720   1.394
  163SOL    HW1 1031   1.703   1.730   1.310
  163SOL    HW2 1032   1.623   1.810   1.428
  164SOL     OW 1033   1.841   0.175   0.963
  164SOL    HW1 1034   1.880   0.090   0.927
  164SOL    HW2 1035   1.743   0.177   0.944
  165SOL     OW 1036   0.263   0.326   0.720
  165SOL    HW1 1037   0.184   0.377   0.686
  165SOL    HW2 1038   0.254   0.311   0.818
  166SOL     OW 1039   1.194   1.612   0.031
  166SOL    HW1 1040   1.200   1.519   0.068
  166SOL    HW2 1041   1.135   1.612  -0.049
  167SOL     OW 1042   0.822   1.002   1.372
  167SOL    HW1 1043   0.862   1.001   1.280
  167SOL    HW2 1044   0.832   1.094   1.412
  168SOL     OW 1045   0.916   0.910   0.291
  168SOL    HW1 1046   0.979   0.948   0.223
  168SOL    HW2 1047   0.956   0.827   0.330
  169SOL     OW 1048   1.504   1.607   0.044
  169SOL    HW1 1049   1.412   1.644   0.051
  169SOL    HW2 1050   1.542   1.627  -0.046
  170SOL     OW 1051   0.372   1.288   1.490
  170SOL    HW1 1052   0.359   1.381   1.456
  170SOL    HW2 1053   0.288   1.236   1.477
  171SOL     OW 1054   1.614   1.292   1.289
  171SOL    HW1 1055   1.674   1.295   1.369
  171SOL    HW2 1056   1.539   1.356   1.302
  172SOL     OW 1057   1.039   1.098   0.696
  172SOL    HW1 1058   0.969   1.051   0.750
  172SOL    HW2 1059   1.098   1.030   0.653
  173SOL     OW 1060   1.014   0.236   0.971
  173SOL    HW1 1061   1.006   0.200   0.878
  173SOL    HW2 1062   1.012   0.160   1.036
  174SOL     OW 1063   0.590   1.487   0.491
  174SOL    HW1 1064   0.632   1.429   0.421
  174SOL    HW2 1065   0.546   1.566   0.447
  175SOL     OW 1066   1.709   0.385   1.381
  175SOL    HW1 1067   1.782   0.454   1.385
  175SOL    HW2 1068   1.737   0.310   1.322
  176SOL     OW 1069   0.255   1.348   0.290
  176SOL    HW1 1070   0.159   1.349   0.263
  176SOL    HW2 1071   0.267   1.401   0.374
  177SOL     OW 1072   0.105   1.013   1.726
  177SOL    HW1 1073   0.028   0.980   1.780
  177SOL    HW2 1074   0.190   0.983   1.768
  178SOL     OW 1075   0.672   0.203   1.489
  178SOL    HW1 1076   0.762   0.187   1.449
  178SOL    HW2 1077   0.680   0.208   1.588
  179SOL     OW 1078   0.075   0.345   0.033
  179SOL    HW1 1079  -0.017   0.317   0.004
  179SOL    HW2 1080   0.106   0.422  -0.023
  180SOL     OW 1081   1.440   0.856   1.398
  180SOL    HW1 1082   1.383   0.908   1.335
  180SOL    HW2 1083   1.536   0.868   1.374
  181SOL     OW 1084   0.072   0.166   0.318
  181SOL    HW1 1085   0.055   0.249   0.264
  181SOL    HW2 1086   0.162   0.129   0.296
  182SOL     OW 1087   1.183   1.335   0.119
  182SOL    HW1 1088   1.084   1.324   0.121
  182SOL    HW2 1089   1.217   1.350   0.212
  183SOL     OW 1090   0.613   0.842   1.431
  183SOL    HW1 1091   0.669   0.923   1.414
  183SOL    HW2 1092   0.672   0.762   1.434
  184SOL     OW 1093   1.493   1.767   0.959
  184SOL    HW1 1094   1.526   1.831   0.890
  184SOL    HW2 1095   1.559   1.761   1.034
  185SOL     OW 1096   0.716   0.565   1.708
  185SOL    HW1 1097   0.735   0.630   1.782
  185SOL    HW2 1098   0.776   0.485   1.717
  186SOL     OW 1099   1.450   1.220   1.633
  186SOL    HW1 1100   1.441   1.210   1.732
  186SOL    HW2 1101   1.546   1.213   1.607
  187SOL     OW 1102   0.390   1.741   1.560
  187SOL    HW1 1103   0.299   1.782   1.558
  187SOL    HW2 1104   0.383   1.647   1.592
  188SOL     OW 1105   1.674   0.883   1.254
  188SOL    HW1 1106   1.647   0.794   1.217
  188SOL    HW2 1107   1.675   0.951   1.181
  189SOL     OW 1108   1.225   0.325   0.449
  189SOL    HW1 1109   1.290   0.251   0.438
  189SOL    HW2 1110   1.245   0.375   0.533
  190SOL     OW 1111   0.594   0.745   0.652
  190SOL    HW1 1112   0.644   0.830   0.633
  190SOL    HW2 1113   0.506   0.747   0.604
  191SOL     OW 1114   1.777   0.342   1.642
  191SOL    HW1 1115   1.760   0.373   1.548
  191SOL    HW2 1116   1.693   0.305   1.680
  192SOL     OW 1117   1.730   0.934   1.517
  192SOL    HW1 1118   1.768   1.025   1.532
  192SOL    HW2 1119   1.722   0.917   1.418
  193SOL     OW 1120   0.859   1.374   0.016
  193SOL    HW1 1121   0.813   1.389   0.104
  193SOL    HW2 1122   0.903   1.459  -0.014
  194SOL     OW 1123   0.661   1.790   0.953
  194SOL    HW1 1124   0.615   1.878   0.940
  194SOL    HW2 1125   0.760   1.802   0.946
  195SOL     OW 1126   0.859   0.956   0.861
  195SOL    HW1 1127   0.913   0.887   0.909
  195SOL    HW2 1128   0.827   1.025   0.927
  196SOL     OW 1129   1.083   0.984   0.087
  196SOL    HW1 1130   1.060   1.037   0.005
  196SOL    HW2 1131   1.164   0.928   0.068
  197SOL     OW 1132   1.861   1.569   0.851
  197SOL    HW1 1133   1.790   1.557   0.781
  197SOL    HW2 1134   1.862   1.490   0.911
  198SOL     OW 1135   0.221   1.314   1.844
  198SOL    HW1 1136   0.156   1.241   1.823
  198SOL    HW2 1137   0.225   1.328   1.942
  199SOL     OW 1138   0.079   1.240   0.653
  199SOL    HW1 1139   0.078   1.193   0.741
  199SOL    HW2 1140   0.161   1.212   0.602
  200SOL     OW 1141   0.672   1.391   1.624
  200SOL    HW1 1142   0.594   1.341   1.662
  200SOL    HW2 1143   0.669   1.486   1.655
  201SOL     OW 1144   1.824   0.192   1.227
  201SOL    HW1 1145   1.820   0.102   1.271
  201SOL    HW2 1146   1.827   0.181   1.128
  202SOL     OW 1147   0.428   0.424   0.520
  202SOL    HW1 1148   0.458   0.352   0.458
  202SOL    HW2 1149   0.389   0.384   0.603
  203SOL     OW 1150   1.705   1.487   1.104
  203SOL    HW1 1151   1.612   1.462   1.077
  203SOL    HW2 1152   1.731   1.437   1.186
  204SOL     OW 1153   0.317   0.547   1.280
  204SOL    HW1 1154   0.355   0.488   1.352
  204SOL    HW2 1155   0.357   0.521   1.192
  205SOL     OW 1156   0.812   1.586   0.687
  205SOL    HW1 1157   0.844   1.596   0.593
  205SOL    HW2 1158   0.733   1.524   0.689
  206SOL     OW 1159   1.424   0.214   1.112
  206SOL    HW1 1160   1.476   0.149   1.167
  206SOL    HW2 1161   1.375   0.277   1.173
  207SOL     OW 1162   1.001   0.034   1.154
  207SOL    HW1 1163   0.938  -0.038   1.123
  207SOL    HW2 1164   1.094  -0.002   1.154
  208SOL     OW 1165   0.770   1.330   0.301
  208SOL    HW1 1166   0.724   1.243   0.318
  208SOL    HW2 1167   0.861   1.327   0.342
  209SOL     OW 1168   0.618   1.567   1.284
  209SOL    HW1 1169   0.613   1.649   1.341
  209SOL    HW2 1170   0.707   1.564   1.239
  210SOL     OW 1171   1.352   0.052   0.168
  210SOL    HW1 1172   1.387   0.011   0.084
  210SOL    HW2 1173   1.262   0.014   0.188
  211SOL     OW 1174   1.300   0.453   0.691
  211SOL    HW1 1175   1.241   0.533   0.695
  211SOL    HW2 1176   1.315   0.418   0.784
  212SOL     OW 1177   1.593   0.221   0.882
  212SOL    HW1 1178   1.509   0.220   0.936
  212SOL    HW2 1179   1.595   0.304   0.826
  213SOL     OW 1180   0.039   1.077   0.300
  213SOL    HW1 1181   0.138   1.066   0.291
  213SOL    HW2 1182  -0.001   0.991   0.332
  214SOL     OW 1183   0.875   1.646   0.337
  214SOL    HW1 1184   0.798   1.611   0.283
  214SOL    HW2 1185   0.843   1.717   0.399
  215SOL     OW 1186   0.230   0.628   1.975
  215SOL    HW1 1187   0.137   0.626   2.012
  215SOL    HW2 1188   0.231   0.589   1.883
  216SOL     OW 1189   0.225   0.275   2.858
  216SOL    HW1 1190   0.260   0.258   2.950
  216SOL    HW2 1191   0.137   0.230   2.846
  217SOL     OW 1192   0.019   0.368   2.509
  217SOL    HW1 1193  -0.063   0.411   2.548
  217SOL    HW2 1194  -0.009   0.295   2.446
  218SOL     OW 1195   0.569   1.275   3.027
  218SOL    HW1 1196   0.476   1.268   2.990
  218SOL    HW2 1197   0.580   1.364   3.071
  219SOL     OW 1198   1.555   1.511   2.565
  219SOL    HW1 1199   1.498   1.495   2.646
  219SOL    HW2 1200   1.496   1.521   2.485
  220SOL     OW 1201   1.135   0.703   2.579
  220SOL    HW1 1202   1.192   0.781   2.554
  220SOL    HW2 1203   1.075   0.729   2.655
  221SOL     OW 1204   1.755   0.607   2.093
  221SOL    HW1 1205   1.743   0.594   1.994
  221SOL    HW2 1206   1.725   0.526   2.142
  222SOL     OW 1207   0.768   1.144   2.885
  222SOL    HW1 1208   0.690   1.161   2.945
  222SOL    HW2 1209   0.802   1.231   2.849
  223SOL     OW 1210   0.850   0.798   3.685
  223SOL    HW1 1211   0.846   0.874   3.750
  223SOL    HW2 1212   0.872   0.834   3.594
  224SOL     OW 1213   0.685   1.012   2.527
  224SOL    HW1 1214   0.754   0.996   2.597
  224SOL    HW2 1215   0.612   1.069   2.565
  225SOL     OW 1216   0.686   1.161   3.665
  225SOL    HW1 1217   0.746   1.240   3.679
  225SOL    HW2 1218   0.600   1.192   3.624
  226SOL     OW 1219   0.335   1.435   2.923
  226SOL    HW1 1220   0.257   1.404   2.870
  226SOL    HW2 1221   0.393   1.493   2.866
  227SOL     OW 1222   1.460   1.505   3.201
  227SOL    HW1 1223   1.484   1.599   3.227
  227SOL    HW2 1224   1.444   1.451   3.283
  228SOL     OW 1225   0.438   0.392   3.361
  228SOL    HW1 1226   0.520   0.336   3.370
  228SOL    HW2 1227   0.357   0.334   3.365
  229SOL     OW 1228   1.603   0.447   2.599
  229SOL    HW1 1229   1.529   0.493   2.549
  229SOL    HW2 1230   1.654   0.515   2.652
  230SOL     OW 1231   0.231   1.713   2.345
  230SOL    HW1 1232   0.265   1.790   2.399
  230SOL    HW2 1233   0.275   1.713   2.255
  231SOL     OW 1234   1.127   1.341   3.552
  231SOL    HW1 1235   1.174   1.341   3.640
  231SOL    HW2 1236   1.079   1.254   3.541
  232SOL     OW 1237   0.230   1.434   2.400
  232SOL    HW1 1238   0.204   1.530   2.400
  232SOL    HW2 1239   0.159   1.380   2.445
  233SOL     OW 1240   0.240   1.091   2.748
  233SOL    HW1 1241   0.254   1.007   2.800
  233SOL    HW2 1242   0.185   1.155   2.803
  234SOL     OW 1243   0.620   1.786   3.301
  234SOL    HW1 1244   0.528   1.769   3.336
  234SOL    HW2 1245   0.648   1.878   3.327
  235SOL     OW 1246   0.606   0.964   1.985
  235SOL    HW1 1247   0.613   1.048   1.931
  235SOL    HW2 1248   0.652   0.977   2.073
  236SOL     OW 1249   1.594   0.114   3.342
  236SOL    HW1 1250   1.576   0.181   3.270
  236SOL    HW2 1251   1.591   0.160   3.431
  237SOL     OW 1252   0.122   0.643   2.425
  237SOL    HW1 1253   0.077   0.555   2.442
  237SOL    HW2 1254   0.121   0.697   2.509
  238SOL     OW 1255   1.842   1.767   2.221
  238SOL    HW1 1256   1.896   1.738   2.301
  238SOL    HW2 1257   1.872   1.857   2.192
  239SOL     OW 1258   0.027   1.596   1.979
  239SOL    HW1 1259   0.008   1.500   2.000
  239SOL    HW2 1260  -0.006   1.654   2.054
  240SOL     OW 1261   1.689   0.922   2.474
  240SOL    HW1 1262   1.784   0.893   2.482
  240SOL    HW2 1263   1.681   0.987   2.399
  241SOL     OW 1264   1.641   1.108   2.294
  241SOL    HW1 1265   1.727   1.110   2.242
  241SOL    HW2 1266   1.655   1.155   2.382
  242SOL     OW 1267   0.113   0.737   3.459
  242SOL    HW1 1268   0.201   0.724   3.504
  242SOL    HW2 1269   0.100   0.834   3.437
  243SOL     OW 1270   0.613   1.365   2.588
  243SOL    HW1 1271   0.564   1.278   2.597
  243SOL    HW2 1272   0.590   1.408   2.501
  244SOL     OW 1273   1.293   1.228   3.285
  244SOL    HW1 1274   1.330   1.155   3.227
  244SOL    HW2 1275   1.345   1.233   3.370
  245SOL     OW 1276   0.809   0.004   2.364
  245SOL    HW1 1277   0.849   0.095   2.355
  245SOL    HW2 1278   0.709   0.012   2.370
  246SOL     OW 1279   0.197   0.976   3.126
  246SOL    HW1 1280   0.286   0.931   3.112
  246SOL    HW2 1281   0.124   0.911   3.107
  247SOL     OW 1282   1.525   0.999   2.052
  247SOL    HW1 1283   1.462   0.923   2.065
  247SOL    HW2 1284   1.573   1.017   2.138
  248SOL     OW 1285   1.187   1.792   3.478
  248SOL    HW1 1286   1.211   1.852   3.402
  248SOL    HW2 1287   1.194   1.697   3.448
  249SOL     OW 1288   0.317   0.251   3.663
  249SOL    HW1 1289   0.388   0.322   3.669
  249SOL    HW2 1290   0.229   0.290   3.691
  250SOL     OW 1291   1.466   1.417   2.815
  250SOL    HW1 1292   1.407   1.423   2.895
  250SOL    HW2 1293   1.451   1.329   2.769
  251SOL     OW 1294   1.667   1.714   2.434
  251SOL    HW1 1295   1.626   1.691   2.346
  251SOL    HW2 1296   1.649   1.640   2.499
  252SOL     OW 1297   0.598   0.729   2.132
  252SOL    HW1 1298   0.622   0.798   2.064
  252SOL    HW2 1299   0.520   0.762   2.186
  253SOL     OW 1300   1.281   0.345   2.806
  253SOL    HW1 1301   1.195   0.295   2.793
  253SOL    HW2 1302   1.343   0.291   2.862
  254SOL     OW 1303   1.576   1.662   2.169
  254SOL    HW1 1304   1.665   1.708   2.172
  254SOL    HW2 1305   1.555   1.638   2.074
  255SOL     OW 1306   0.807   0.605   3.327
  255SOL    HW1 1307   0.760   0.602   3.416
  255SOL    HW2 1308   0.756   0.550   3.261
  256SOL     OW 1309   1.394   0.469   3.536
  256SOL    HW1 1310   1.374   0.512   3.624
  256SOL    HW2 1311   1.472   0.407   3.545
  257SOL     OW 1312   0.973   0.890   3.434
  257SOL    HW1 1313   1.019   0.806   3.405
  257SOL    HW2 1314   0.917   0.924   3.359
  258SOL     OW 1315   0.991   0.410   3.104
  258SOL    HW1 1316   0.914   0.444   3.158
  258SOL    HW2 1317   0.957   0.359   3.025
  259SOL     OW 1318   1.041   0.701   2.291
  259SOL    HW1 1319   1.067   0.697   2.387
  259SOL    HW2 1320   0.956   0.650   2.277
  260SOL     OW 1321   0.076   0.811   2.651
  260SOL    HW1 1322   0.175   0.799   2.660
  260SOL    HW2 1323   0.052   0.906   2.672
  261SOL     OW 1324   0.130   1.821   3.433
  261SOL    HW1 1325   0.120   1.806   3.532
  261SOL    HW2 1326   0.044   1.857   3.397
  262SOL     OW 1327   0.865   0.348   2.057
  262SOL    HW1 1328   0.924   0.411   2.008
  262SOL    HW2 1329   0.884   0.254   2.028
  263SOL     OW 1330   1.719   0.585   3.693
  263SOL    HW1 1331   1.693   0.674   3.657
  263SOL    HW2 1332   1.717   0.517   3.620
  264SOL     OW 1333   1.362   1.144   2.407
  264SOL    HW1 1334   1.445   1.115   2.359
  264SOL    HW2 1335   1.313   1.211   2.351
  265SOL     OW 1336   0.550   0.196   2.747
  265SOL    HW1 1337   0.545   0.191   2.847
  265SOL    HW2 1338   0.552   0.292   2.718
  266SOL     OW 1339   1.008   1.456   2.339
  266SOL    HW1 1340   0.962   1.528   2.287
  266SOL    HW2 1341   1.004   1.476   2.437
  267SOL     OW 1342   0.351   1.801   2.715
  267SOL    HW1 1343   0.401   1.715   2.721
  267SOL    HW2 1344   0.416   1.878   2.712
  268SOL     OW 1345   1.795   1.066   2.735
  268SOL    HW1 1346   1.733   1.051   2.659
  268SOL    HW2 1347   1.743   1.077   2.820
  269SOL     OW 1348   1.227   1.550   3.368
  269SOL    HW1 1349   1.233   1.473   3.432
  269SOL    HW2 1350   1.175   1.524   3.288
  270SOL     OW 1351   0.321   0.943   2.104
  270SOL    HW1 1352   0.403   0.982   2.062
  270SOL    HW2 1353   0.294   0.861   2.055
  271SOL     OW 1354   1.458   0.735   2.590
  271SOL    HW1 1355   1.453   0.670   2.665
  271SOL    HW2 1356   1.538   0.794   2.603
  272SOL     OW 1357   0.461   1.266   3.589
  272SOL    HW1 1358   0.411   1.267   3.503
  272SOL    HW2 1359   0.398   1.248   3.665
  273SOL     OW 1360   1.111   1.776   2.099
  273SOL    HW1 1361   1.051   1.714   2.149
  273SOL    HW2 1362   1.142   1.732   2.014
  274SOL     OW 1363   0.202   0.285   3.360
  274SOL    HW1 1364   0.122   0.345   3.347
  274SOL    HW2 1365   0.192   0.236   3.446
  275SOL     OW 1366   1.632   1.377   1.943
  275SOL    HW1 1367   1.600   1.471   1.933
  275SOL    HW2 1368   1.556   1.314   1.931
  276SOL     OW 1369   0.464   1.743   2.185
  276SOL    HW1 1370   0.497   1.782   2.271
  276SOL    HW2 1371   0.540   1.736   2.120
  277SOL     OW 1372   1.400   0.107   2.288
  277SOL    HW1 1373   1.376   0.070   2.198
  277SOL    HW2 1374   1.499   0.123   2.292
  278SOL     OW 1375   0.249   1.785   3.103
  278SOL    HW1 1376   0.306   1.720   3.153
  278SOL    HW2 1377   0.233   1.752   3.010
  279SOL     OW 1378   0.940   1.698   2.766
  279SOL    HW1 1379   1.020   1.641   2.787
  279SOL    HW2 1380   0.891   1.658   2.689
  280SOL     OW 1381   0.382   0.700   2.342
  280SOL    HW1 1382   0.427   0.610   2.339
  280SOL    HW2 1383   0.288   0.689   2.375
  281SOL     OW 1384   1.547   0.222   3.591
  281SOL    HW1 1385   1.542   0.259   3.683
  281SOL    HW2 1386   1.475   0.153   3.579
  282SOL     OW 1387   0.614   0.122   1.979
  282SOL    HW1 1388   0.712   0.100   1.986
  282SOL    HW2 1389   0.583   0.105   1.886
  283SOL     OW 1390   0.781   0.264   3.611
  283SOL    HW1 1391   0.848   0.203   3.654
  283SOL    HW2 1392   0.708   0.283   3.676
  284SOL     OW 1393   0.888   1.514   3.057
  284SOL    HW1 1394   0.865   1.489   2.963
  284SOL    HW2 1395   0.949   1.445   3.096
  285SOL     OW 1396   1.351   0.590   3.295
  285SOL    HW1 1397   1.379   0.547   3.380
  285SOL    HW2 1398   1.376   0.686   3.296
  286SOL     OW 1399   0.803   1.402   2.786
  286SOL    HW1 1400   0.893   1.416   2.744
  286SOL    HW2 1401   0.732   1.404   2.715
  287SOL     OW 1402   0.922   0.503   2.761
  287SOL    HW1 1403   0.897   0.494   2.665
  287SOL    HW2 1404   0.970   0.421   2.792
  288SOL     OW 1405   0.539   0.064   2.374
  288SOL    HW1 1406   0.458   0.065   2.432
  288SOL    HW2 1407   0.542   0.147   2.319
  289SOL     OW 1408   1.434   1.188   1.903
  289SOL    HW1 1409   1.466   1.112   1.960
  289SOL    HW2 1410   1.342   1.215   1.933
  290SOL     OW 1411   0.297   0.035   2.033
  290SOL    HW1 1412   0.346   0.119   2.012
  290SOL    HW2 1413   0.359  -0.030   2.078
  291SOL     OW 1414   0.935   0.236   2.342
  291SOL    HW1 1415   0.887   0.277   2.264
  291SOL    HW2 1416   1.034   0.234   2.323
  292SOL     OW 1417   1.076   0.683   3.326
  292SOL    HW1 1418   0.996   0.622   3.329
  292SOL    HW2 1419   1.157   0.630   3.302
  293SOL     OW 1420   1.227   1.570   2.655
  293SOL    HW1 1421   1.248   1.644   2.590
  293SOL    HW2 1422   1.295   1.570   2.728
  294SOL     OW 1423   0.459   1.152   2.603
  294SOL    HW1 1424   0.388   1.125   2.668
  294SOL    HW2 1425   0.433   1.124   2.510
  295SOL     OW 1426   1.271   1.797   2.453
  295SOL    HW1 1427   1.315   1.861   2.389
  295SOL    HW2 1428   1.221   1.849   2.523
  296SOL     OW 1429   1.032   0.549   1.878
  296SOL    HW1 1430   0.991   0.631   1.839
  296SOL    HW2 1431   1.096   0.575   1.951
  297SOL     OW 1432   0.078   0.556   3.248
  297SOL    HW1 1433   0.170   0.555   3.207
  297SOL    HW2 1434   0.072   0.630   3.315
  298SOL     OW 1435   0.561   0.222   3.009
  298SOL    HW1 1436   0.599   0.138   3.046
  298SOL    HW2 1437   0.473   0.241   3.053
  299SOL     OW 1438   0.866   0.454   2.504
  299SOL    HW1 1439   0.834   0.526   2.442
  299SOL    HW2 1440   0.890   0.373   2.451
  300SOL     OW 1441   1.017   0.039   2.615
  300SOL    HW1 1442   0.945   0.044   2.546
  300SOL    HW2 1443   0.993  -0.030   2.684
  301SOL     OW 1444   1.429   1.173   2.729
  301SOL    HW1 1445   1.374   1.089   2.722
  301SOL    HW2 1446   1.455   1.202   2.637
  302SOL     OW 1447   1.466   0.590   2.854
  302SOL    HW1 1448   1.436   0.495   2.861
  302SOL    HW2 1449   1.539   0.606   2.920
  303SOL     OW 1450   1.857   0.833   2.239
  303SOL    HW1 1451   1.899   0.769   2.303
  303SOL    HW2 1452   1.819   0.782   2.161
  304SOL     OW 1453   0.488   1.385   2.036
  304SOL    HW1 1454   0.401   1.370   2.083
  304SOL    HW2 1455   0.471   1.411   1.941
  305SOL     OW 1456   1.664   1.280   2.519
  305SOL    HW1 1457   1.763   1.288   2.533
  305SOL    HW2 1458   1.619   1.364   2.550
  306SOL     OW 1459   1.390   0.575   1.940
  306SOL    HW1 1460   1.336   0.554   2.021
  306SOL    HW2 1461   1.481   0.534   1.949
  307SOL     OW 1462   0.527   0.256   2.190
  307SOL    HW1 1463   0.554   0.197   2.115
  307SOL    HW2 1464   0.527   0.351   2.159
  308SOL     OW 1465   1.754   1.223   3.450
  308SOL    HW1 1466   1.845   1.184   3.437
  308SOL    HW2 1467   1.762   1.319   3.474
  309SOL     OW 1468   1.064   1.347   3.202
  309SOL    HW1 1469   0.984   1.324   3.257
  309SOL    HW2 1470   1.147   1.321   3.251
  310SOL     OW 1471   1.592   1.629   3.487
  310SOL    HW1 1472   1.619   1.663   3.397
  310SOL    HW2 1473   1.671   1.591   3.533
  311SOL     OW 1474   1.111   1.195   2.962
  311SOL    HW1 1475   1.071   1.239   3.043
  311SOL    HW2 1476   1.070   1.232   2.879
  312SOL     OW 1477   1.638   1.099   2.941
  312SOL    HW1 1478   1.643   1.180   3.000
  312SOL    HW2 1479   1.552   1.101   2.890
  313SOL     OW 1480   0.915   0.089   3.264
  313SOL    HW1 1481   0.940   0.069   3.169
  313SOL    HW2 1482   0.987   0.145   3.306
  314SOL     OW 1483   0.980   1.116   3.581
  314SOL    HW1 1484   0.881   1.122   3.591
  314SOL    HW2 1485   1.003   1.036   3.525
  315SOL     OW 1486   0.705   1.050   2.230
  315SOL    HW1 1487   0.691   1.057   2.329
  315SOL    HW2 1488   0.789   0.999   2.212
  316SOL     OW 1489   0.410   0.813   3.113
  316SOL    HW1 1490   0.496   0.825   3.163
  316SOL    HW2 1491   0.368   0.726   3.140
  317SOL     OW 1492   1.274   0.386   3.124
  317SOL    HW1 1493   1.295   0.460   3.188
  317SOL    HW2 1494   1.185   0.403   3.081
  318SOL     OW 1495   0.064   1.564   3.193
  318SOL    HW1 1496   0.018   1.646   3.159
  318SOL    HW2 1497   0.162   1.583   3.202
  319SOL     OW 1498   0.367   1.100   2.363
  319SOL    HW1 1499   0.360   1.183   2.307
  319SOL    HW2 1500   0.371   1.020   2.303
  320SOL     OW 1501   0.566   0.537   2.727
  320SOL    HW1 1502   0.578   0.603   2.653
  320SOL    HW2 1503   0.612   0.571   2.810
  321SOL     OW 1504   1.252   1.348   2.250
  321SOL    HW1 1505   1.302   1.425   2.290
  321SOL    HW2 1506   1.157   1.350   2.282
  322SOL     OW 1507   1.272   1.445   3.004
  322SOL    HW1 1508   1.319   1.458   3.091
  322SOL    HW2 1509   1.206   1.371   3.013
  323SOL     OW 1510   1.582   0.639   2.334
  323SOL    HW1 1511   1.551   0.700   2.407
  323SOL    HW2 1512   1.632   0.691   2.265
  324SOL     OW 1513   0.354   1.510   3.191
  324SOL    HW1 1514   0.333   1.466   3.104
  324SOL    HW2 1515   0.451   1.536   3.194
  325SOL     OW 1516   0.402   0.751   3.460
  325SOL    HW1 1517   0.470   0.806   3.413
  325SOL    HW2 1518   0.442   0.663   3.487
  326SOL     OW 1519   1.587   0.779   3.532
  326SOL    HW1 1520   1.495   0.817   3.527
  326SOL    HW2 1521   1.647   0.826   3.467
  327SOL     OW 1522   1.013   0.105   3.632
  327SOL    HW1 1523   1.019   0.190   3.580
  327SOL    HW2 1524   1.045   0.029   3.575
  328SOL     OW 1525   0.504   0.050   3.602
  328SOL    HW1 1526   0.462  -0.007   3.532
  328SOL    HW2 1527   0.438   0.119   3.634
  329SOL     OW 1528   0.573   0.870   2.891
  329SOL    HW1 1529   0.617   0.959   2.882
  329SOL    HW2 1530   0.510   0.870   2.968
  330SOL     OW 1531   1.360   0.862   2.907
  330SOL    HW1 1532   1.285   0.862   2.841
  330SOL    HW2 1533   1.397   0.770   2.916
  331SOL     OW 1534   1.209   0.525   2.137
  331SOL    HW1 1535   1.222   0.441   2.191
  331SOL    HW2 1536   1.180   0.599   2.197
  332SOL     OW 1537   0.307   0.213   3.093
  332SOL    HW1 1538   0.284   0.250   3.183
  332SOL    HW2 1539   0.277   0.118   3.087
  333SOL     OW 1540   0.037   1.310   3.144
  333SOL    HW1 1541   0.090   1.261   3.212
  333SOL    HW2 1542   0.059   1.408   3.149
  334SOL     OW 1543   0.732   0.634   2.926
  334SOL    HW1 1544   0.791   0.608   2.850
  334SOL    HW2 1545   0.704   0.730   2.915
  335SOL     OW 1546   1.728   0.935   3.716
  335SOL    HW1 1547   1.682   0.928   3.627
  335SOL    HW2 1548   1.666   0.979   3.782
  336SOL     OW 1549   0.307   0.063   2.480
  336SOL    HW1 1550   0.296   0.157   2.513
  336SOL    HW2 1551   0.302   0.000   2.557
  337SOL     OW 1552   1.622   0.367   2.236
  337SOL    HW1 1553   1.624   0.291   2.300
  337SOL    HW2 1554   1.574   0.444   2.276
  338SOL     OW 1555   1.023   0.766   2.828
  338SOL    HW1 1556   1.038   0.787   2.924
  338SOL    HW2 1557   0.993   0.671   2.819
  339SOL     OW 1558   0.980   1.573   3.562
  339SOL    HW1 1559   0.960   1.617   3.474
  339SOL    HW2 1560   1.019   1.482   3.546
  340SOL     OW 1561   1.859   1.518   3.467
  340SOL    HW1 1562   1.873   1.545   3.372
  340SOL    HW2 1563   1.942   1.540   3.520
  341SOL     OW 1564   0.350   0.898   3.666
  341SOL    HW1 1565   0.426   0.942   3.714
  341SOL    HW2 1566   0.385   0.851   3.584
  342SOL     OW 1567   1.540   0.274   1.987
  342SOL    HW1 1568   1.479   0.199   2.010
  342SOL    HW2 1569   1.562   0.326   2.070
  343SOL     OW 1570   1.303   0.838   1.904
  343SOL    HW1 1571   1.337   0.745   1.919
  343SOL    HW2 1572   1.321   0.865   1.809
  344SOL     OW 1573   1.068   1.333   2.711
  344SOL    HW1 1574   1.075   1.249   2.656
  344SOL    HW2 1575   1.130   1.402   2.675
  345SOL     OW 1576   0.319   0.810   2.811
  345SOL    HW1 1577   0.412   0.846   2.816
  345SOL    HW2 1578   0.313   0.725   2.863
  346SOL     OW 1579   0.339   0.509   2.868
  346SOL    HW1 1580   0.287   0.426   2.851
  346SOL    HW2 1581   0.416   0.514   2.804
  347SOL     OW 1582   1.138   0.380   3.540
  347SOL    HW1 1583   1.093   0.443   3.604
  347SOL    HW2 1584   1.231   0.411   3.523
  348SOL     OW 1585   1.160   0.207   3.339
  348SOL    HW1 1586   1.160   0.271   3.416
  348SOL    HW2 1587   1.188   0.255   3.256
  349SOL     OW 1588   0.008   1.326   2.062
  349SOL    HW1 1589  -0.085   1.347   2.031
  349SOL    HW2 1590   0.018   1.227   2.075
  350SOL     OW 1591   0.088   1.801   2.789
  350SOL    HW1 1592   0.046   1.715   2.762
  350SOL    HW2 1593   0.182   1.804   2.755
  351SOL     OW 1594   0.504   1.568   2.772
  351SOL    HW1 1595   0.570   1.642   2.781
  351SOL    HW2 1596   0.548   1.489   2.730
  352SOL     OW 1597   1.002   0.796   3.100
  352SOL    HW1 1598   1.043   0.764   3.186
  352SOL    HW2 1599   0.906   0.769   3.097
  353SOL     OW 1600   0.040   0.544   2.976
  353SOL    HW1 1601   0.125   0.511   2.935
  353SOL    HW2 1602   0.053   0.559   3.074
  354SOL     OW 1603   0.189   0.520   3.584
  354SOL    HW1 1604   0.248   0.480   3.514
  354SOL    HW2 1605   0.131   0.591   3.543
  355SOL     OW 1606   1.369   0.950   3.522
  355SOL    HW1 1607   1.408   1.039   3.542
  355SOL    HW2 1608   1.379   0.930   3.425
  356SOL     OW 1609   0.815   0.572   2.187
  356SOL    HW1 1610   0.822   0.483   2.141
  356SOL    HW2 1611   0.721   0.606   2.179
  357SOL     OW 1612   1.657   0.604   3.068
  357SOL    HW1 1613   1.619   0.535   3.130
  357SOL    HW2 1614   1.739   0.568   3.024
  358SOL     OW 1615   0.252   1.564   3.606
  358SOL    HW1 1616   0.222   1.621   3.682
  358SOL    HW2 1617   0.245   1.467   3.632
  359SOL     OW 1618   0.671   0.464   3.131
  359SOL    HW1 1619   0.637   0.375   3.101
  359SOL    HW2 1620   0.697   0.518   3.051
  360SOL     OW 1621   0.930   1.678   3.327
  360SOL    HW1 1622   0.906   1.660   3.232
  360SOL    HW2 1623   0.960   1.772   3.337
  361SOL     OW 1624   0.473   0.500   2.053
  361SOL    HW1 1625   0.534   0.580   2.057
  361SOL    HW2 1626   0.378   0.531   2.060
  362SOL     OW 1627   0.159   1.137   3.328
  362SOL    HW1 1628   0.181   1.076   3.404
  362SOL    HW2 1629   0.169   1.088   3.242
  363SOL     OW 1630   1.347   1.059   3.096
  363SOL    HW1 1631   1.371   0.996   3.022
  363SOL    HW2 1632   1.257   1.099   3.078
  364SOL     OW 1633   1.302   0.855   2.171
  364SOL    HW1 1634   1.216   0.824   2.213
  364SOL    HW2 1635   1.298   0.841   2.072
  365SOL     OW 1636   1.759   1.747   3.016
  365SOL    HW1 1637   1.820   1.777   2.943
  365SOL    HW2 1638   1.721   1.658   2.994
  366SOL     OW 1639   1.252   1.731   2.990
  366SOL    HW1 1640   1.336   1.736   2.936
  366SOL    HW2 1641   1.229   1.635   3.008
  367SOL     OW 1642   0.083   1.258   2.884
  367SOL    HW1 1643   0.078   1.257   2.984
  367SOL    HW2 1644   0.000   1.217   2.846
  368SOL     OW 1645   0.688   1.662   3.578
  368SOL    HW1 1646   0.632   1.743   3.587
  368SOL    HW2 1647   0.740   1.666   3.492
  369SOL     OW 1648   1.726   0.135   2.385
  369SOL    HW1 1649   1.799   0.118   2.318
  369SOL    HW2 1650   1.695   0.048   2.423
  370SOL     OW 1651   1.388   1.573   2.339
  370SOL    HW1 1652   1.455   1.585   2.265
  370SOL    HW2 1653   1.348   1.662   2.362
  371SOL     OW 1654   0.130   1.794   3.713
  371SOL    HW1 1655   0.089   1.720   3.766
  371SOL    HW2 1656   0.194   1.845   3.771
  372SOL     OW 1657   1.280   0.927   2.534
  372SOL    HW1 1658   1.340   0.846   2.536
  372SOL    HW2 1659   1.320   0.996   2.474
  373SOL     OW 1660   0.830   1.273   3.284
  373SOL    HW1 1661   0.825   1.306   3.379
  373SOL    HW2 1662   0.744   1.292   3.238
  374SOL     OW 1663   0.672   1.616   2.016
  374SOL    HW1 1664   0.681   1.626   1.917
  374SOL    HW2 1665   0.632   1.527   2.037
  375SOL     OW 1666   1.650   1.720   3.256
  375SOL    HW1 1667   1.703   1.730   3.172
  375SOL    HW2 1668   1.623   1.810   3.290
  376SOL     OW 1669   1.841   0.175   2.825
  376SOL    HW1 1670   1.880   0.090   2.789
  376SOL    HW2 1671   1.743   0.177   2.806
  377SOL     OW 1672   0.263   0.326   2.582
  377SOL    HW1 1673   0.184   0.377   2.548
  377SOL    HW2 1674   0.254   0.311   2.680
  378SOL     OW 1675   1.194   1.612   1.893
  378SOL    HW1 1676   1.200   1.519   1.930
  378SOL    HW2 1677   1.135   1.612   1.813
  379SOL     OW 1678   0.822   1.002   3.234
  379SOL    HW1 1679   0.862   1.001   3.142
  379SOL    HW2 1680   0.832   1.094   3.274
  380SOL     OW 1681   0.916   0.910   2.153
  380SOL    HW1 1682   0.979   0.948   2.085
  380SOL    HW2 1683   0.956   0.827   2.192
  381SOL     OW 1684   1.504   1.607   1.906
  381SOL    HW1 1685   1.412   1.644   1.913
  381SOL    HW2 1686   1.542   1.627   1.816
  382SOL     OW 1687   0.372   1.288   3.352
  382SOL    HW1 1688   0.359   1.381   3.318
  382SOL    HW2 1689   0.288   1.236   3.339
  383SOL     OW 1690   1.614   1.292   3.151
  383SOL    HW1 1691   1.674   1.295   3.231
  383SOL    HW2 1692   1.539   1.356   3.164
  384SOL     OW 1693   1.039   1.098   2.558
  384SOL    HW1 1694   0.969   1.051   2.612
  384SOL    HW2 1695   1.098   1.030   2.515
  385SOL     OW 1696   1.014   0.236   2.833
  385SOL    HW1 1697   1.006   0.200   2.740
  385SOL    HW2 1698   1.012   0.160   2.898
  386SOL     OW 1699   0.590   1.487   2.353
  386SOL    HW1 1700   0.632   1.429   2.283
  386SOL    HW2 1701   0.546   1.566   2.309
  387SOL     OW 1702   1.709   0.385   3.243
  387SOL    HW1 1703   1.782   0.454   3.247
  387SOL    HW2 1704   1.737   0.310   3.184
  388SOL     OW 1705   0.255   1.348   2.152
  388SOL    HW1 1706   0.159   1.349   2.125
  388SOL    HW2 1707   0.267   1.401   2.236
  389SOL     OW 1708   0.105   1.013   3.588
  389SOL    HW1 1709   0.028   0.980   3.642
  389SOL    HW2 1710   0.190   0.983   3.630
  390SOL     OW 1711   0.672   0.203   3.351
  390SOL    HW1 1712   0.762   0.187   3.311
  390SOL    HW2 1713   0.680   0.208   3.450
  391SOL     OW 1714   0.075   0.345   1.895
  391SOL    HW1 1715  -0.017   0.317   1.866
  391SOL    HW2 1716   0.106   0.422   1.839
  392SOL     OW 1717   1.440   0.856   3.260
  392SOL    HW1 1718   1.383   0.908   3.197
  392SOL    HW2 1719   1.536   0.868   3.236
  393SOL     OW 1720   0.072   0.166   2.180
  393SOL    HW1 1721   0.055   0.249   2.126
  393SOL    HW2 1722   0.162   0.129   2.158
  394SOL     OW 1723   1.183   1.335   1.981
  394SOL    HW1 1724   1.084   1.324   1.983
  394SOL    HW2 1725   1.217   1.350   2.074
  395SOL     OW 1726   0.613   0.842   3.293
  395SOL    HW1 1727   0.669   0.923   3.276
  395SOL    HW2 1728   0.672   0.762   3.296
  396SOL     OW 1729   1.493   1.767   2.821
  396SOL    HW1 1730   1.526   1.831   2.752
  396SOL    HW2 1731   1.559   1.761   2.896
  397SOL     OW 1732   0.716   0.565   3.570
  397SOL    HW1 1733   0.735   0.630   3.644
  397SOL    HW2 1734   0.776   0.485   3.579
  398SOL     OW 1735   1.450   1.220   3.495
  398SOL    HW1 1736   1.441   1.210   3.594
  398SOL    HW2 1737   1.546   1.213   3.469
  399SOL     OW 1738   0.390   1.741   3.422
  399SOL    HW1 1739   0.299   1.782   3.420
  399SOL    HW2 1740   0.383   1.647   3.454
  400SOL     OW 1741   1.674   0.883   3.116
  400SOL    HW1 1742   1.647   0.794   3.079
  400SOL    HW2 1743   1.675   0.951   3.043
  401SOL     OW 1744   1.225   0.325   2.311
  401SOL    HW1 1745   1.290   0.251   2.300
  401SOL    HW2 1746   1.245   0.375   2.395
  402SOL     OW 1747   0.594   0.745   2.514
  402SOL    HW1 1748   0.644   0.830   2.495
  402SOL    HW2 1749   0.506   0.747   2.466
  403SOL     OW 1750   1.777   0.342   3.504
  403SOL    HW1 1751   1.760   0.373   3.410
  403SOL    HW2 1752   1.693   0.305   3.542
  404SOL     OW 1753   1.730   0.934   3.379
  404SOL    HW1 1754   1.768   1.025   3.394
  404SOL    HW2 1755   1.722   0.917   3.280
  405SOL     OW 1756   0.859   1.374   1.878
  405SOL    HW1 1757   0.813   1.389   1.966
  405SOL    HW2 1758   0.903   1.459   1.848
  406SOL     OW 1759   0.661   1.790   2.815
  406SOL    HW1 1760   0.615   1.878   2.802
  406SOL    HW2 1761   0.760   1.802   2.808
  407SOL     OW 1762   0.859   0.956   2.723
  407SOL    HW1 1763   0.913   0.887   2.771
  407SOL    HW2 1764   0.827   1.025   2.789
  408SOL     OW 1765   1.083   0.984   1.949
  408SOL    HW1 1766   1.060   1.037   1.867
  408SOL    HW2 1767   1.164   0.928   1.930
  409SOL     OW 1768   1.861   1.569   2.713
  409SOL    HW1 1769   1.790   1.557   2.643
  409SOL    HW2 1770   1.862   1.490   2.773
  410SOL     OW 1771   0.221   1.314   3.706
  410SOL    HW1 1772   0.156   1.241   3.685
  410SOL    HW2 1773   0.225   1.328   3.804
  411SOL     OW 1774   0.079   1.240   2.515
  411SOL    HW1 1775   0.078   1.193   2.603
  411SOL    HW2 1776   0.161   1.212   2.464
  412SOL     OW 1777   0.672   1.391   3.486
  412SOL    HW1 1778   0.594   1.341   3.524
  412SOL    HW2 1779   0.669   1.486   3.517
  413SOL     OW 1780   1.824   0.192   3.089
  413SOL    HW1 1781   1.820   0.102   3.133
  413SOL    HW2 1782   1.827   0.181   2.990
  414SOL     OW 1783   0.428   0.424   2.382
  414SOL    HW1 1784   0.458   0.352   2.320
  414SOL    HW2 1785   0.389   0.384   2.465
  415SOL     OW 1786   1.705   1.487   2.966
  415SOL    HW1 1787   1.612   1.462   2.939
  415SOL    HW2 1788   1.731   1.437   3.048
  416SOL     OW 1789   0.317   0.547   3.142
  416SOL    HW1 1790   0.355   0.488   3.214
  416SOL    HW2 1791   0.357   0.521   3.054
  417SOL     OW 1792   0.812   1.586   2.549
  417SOL    HW1 1793   0.844   1.596   2.455
  417SOL    HW2 1794   0.733   1.524   2.551
  418SOL     OW 1795   1.424   0.214   2.974
  418SOL    HW1 1796   1.476   0.149   3.029
  418SOL    HW2 1797   1.375   0.277   3.035
  419SOL     OW 1798   1.001   0.034   3.016
  419SOL    HW1 1799   0.938  -0.038   2.985
  419SOL    HW2 1800   1.094  -0.002   3.016
  420SOL     OW 1801   0.770   1.330   2.163
  420SOL    HW1 1802   0.724   1.243   2.180
  420SOL    HW2 1803   0.861   1.327   2.204
  421SOL     OW 1804   0.618   1.567   3.146
  421SOL    HW1 1805   0.613   1.649   3.203
  421SOL    HW2 1806   0.707   1.564   3.101
  422SOL     OW 1807   1.352   0.052   2.030
  422SOL    HW1 1808   1.387   0.011   1.946
  422SOL    HW2 1809   1.262   0.014   2.050
  423SOL     OW 1810   1.300   0.453   2.553
  423SOL    HW1 1811   1.241   0.533   2.557
  423SOL    HW2 1812   1.315   0.418   2.646
  424SOL     OW 1813   1.593   0.221   2.744
  424SOL    HW1 1814   1.509   0.220   2.798
  424SOL    HW2 1815   1.595   0.304   2.688
  425SOL     OW 1816   0.039   1.077   2.162
  425SOL    HW1 1817   0.138   1.066   2.153
  425SOL    HW2 1818  -0.001   0.991   2.194
  426SOL     OW 1819   0.875   1.646   2.199
  426SOL    HW1 1820   0.798   1.611   2.145
  426SOL    HW2 1821   0.843   1.717   2.261
  427SOL     OW 1822   0.230   0.628   3.837
  427SOL    HW1 1823   0.137   0.626   3.874
  427SOL    HW2 1824   0.231   0.589   3.745
  428SOL     OW 1825   0.225   0.275   4.720
  428SOL    HW1 1826   0.260   0.258   4.812
  428SOL    HW2 1827   0.137   0.230   4.708
  429SOL     OW 1828   0.019   0.368   4.371
  429SOL    HW1 1829  -0.063   0.411   4.410
  429SOL    HW2 1830  -0.009   0.295   4.308
  430SOL     OW 1831   0.569   1.275   4.889
  430SOL    HW1 1832   0.476   1.268   4.852
  430SOL    HW2 1833   0.580   1.364   4.933
  431SOL     OW 1834   1.555   1.511   4.427
  431SOL    HW1 1835   1.498   1.495   4.508
  431SOL    HW2 1836   1.496   1.521   4.347
  432SOL     OW 1837   1.135   0.703   4.441
  432SOL    HW1 1838   1.192   0.781   4.416
  432SOL    HW2 1839   1.075   0.729   4.517
  433SOL     OW 1840   1.755   0.607   3.955
  433SOL    HW1 1841   1.743   0.594   3.856
  433SOL    HW2 1842   1.725   0.526   4.004
  434SOL     OW 1843   0.768   1.144   4.747
  434SOL    HW1 1844   0.690   1.161   4.807
  434SOL    HW2 1845   0.802   1.231   4.711
  435SOL     OW 1846   0.850   0.798   5.547
  435SOL    HW1 1847   0.846   0.874   5.612
  435SOL    HW2 1848   0.872   0.834   5.456
  436SOL     OW 1849   0.685   1.012   4.389
  436SOL    HW1 1850   0.754   0.996   4.459
  436SOL    HW2 1851   0.612   1.069   4.427
  437SOL     OW 1852   0.686   1.161   5.527
  437SOL    HW1 1853   0.746   1.240   5.541
  437SOL    HW2 1854   0.600   1.192   5.486
  438SOL     OW 1855   0.335   1.435   4.785
  438SOL    HW1 1856   0.257   1.404   4.732
  438SOL    HW2 1857   0.393   1.493   4.728
  439SOL     OW 1858   1.460   1.505   5.063
  439SOL    HW1 1859   1.484   1.599   5.089
  439SOL    HW2 1860   1.444   1.451   5.145
  440SOL     OW 1861   0.438   0.392   5.223
  440SOL    HW1 1862   0.520   0.336   5.232
  440SOL    HW2 1863   0.357   0.334   5.227
  441SOL     OW 1864   1.603   0.447   4.461
  441SOL    HW1 1865   1.529   0.493   4.411
  441SOL    HW2 1866   1.654   0.515   4.514
  442SOL     OW 1867   0.231   1.713   4.207
  442SOL    HW1 1868   0.265   1.790   4.261
  442SOL    HW2 1869   0.275   1.713   4.117
  443SOL     OW 1870   1.127   1.341   5.414
  443SOL    HW1 1871   1.174   1.341   5.502
  443SOL    HW2 1872   1.079   1.254   5.403
  444SOL     OW 1873   0.230   1.434   4.262
  444SOL    HW1 1874   0.204   1.530   4.262
  444SOL    HW2 1875   0.159   1.380   4.307
  445SOL     OW 1876   0.240   1.091   4.610
  445SOL    HW1 1877   0.254   1.007   4.662
  445SOL    HW2 1878   0.185   1.155   4.665
  446SOL     OW 1879   0.620   1.786   5.163
  446SOL    HW1 1880   0.528   1.769   5.198
  446SOL    HW2 1881   0.648   1.878   5.189
  447SOL     OW 1882   0.606   0.964   3.847
  447SOL    HW1 1883   0.613   1.048   3.793
  447SOL    HW2 1884   0.652   0.977   3.935
  448SOL     OW 1885   1.594   0.114   5.204
  448SOL    HW1 1886   1.576   0.181   5.132
  448SOL    HW2 1887   1.591   0.160   5.293
  449SOL     OW 1888   0.122   0.643   4.287
  449SOL    HW1 1889   0.077   0.555   4.304
  449SOL    HW2 1890   0.121   0.697   4.371
  450SOL     OW 1891   1.842   1.767   4.083
  450SOL    HW1 1892   1.896   1.738   4.163
  450SOL    HW2 1893   1.872   1.857   4.054
  451SOL     OW 1894   0.027   1.596   3.841
  451SOL    HW1 1895   0.008   1.500   3.862
  451SOL    HW2 1896  -0.006   1.654   3.916
  452SOL     OW 1897   1.689   0.922   4.336
  452SOL    HW1 1898   1.784   0.893   4.344
  452SOL    HW2 1899   1.681   0.987   4.261
  453SOL     OW 1900   1.641   1.108   4.156
  453SOL    HW1 1901   1.727   1.110   4.104
  453SOL    HW2 1902   1.655   1.155   4.244
  454SOL     OW 1903   0.113   0.737   5.321
  454SOL    HW1 1904   0.201   0.724   5.366
  454SOL    HW2 1905   0.100   0.834   5.299
  455SOL     OW 1906   0.613   1.365   4.450
  455SOL    HW1 1907   0.564   1.278   4.459
  455SOL    HW2 1908   0.590   1.408   4.363
  456SOL     OW 1909   1.293   1.228   5.147
  456SOL    HW1 1910   1.330   1.155   5.089
  456SOL    HW2 1911   1.345   1.233   5.232
  457SOL     OW 1912   0.809   0.004   4.226
  457SOL    HW1 1913   0.849   0.095   4.217
  457SOL    HW2 1914   0.709   0.012   4.232
  458SOL     OW 1915   0.197   0.976   4.988
  458SOL    HW1 1916   0.286   0.931   4.974
  458SOL    HW2 1917   0.124   0.911   4.969
  459SOL     OW 1918   1.525   0.999   3.914
  459SOL    HW1 1919   1.462   0.923   3.927
  459SOL    HW2 1920   1.573   1.017   4.000
  460SOL     OW 1921   1.187   1.792   5.340
  460SOL    HW1 1922   1.211   1.852   5.264
  460SOL    HW2 1923   1.194   1.697   5.310
  461SOL     OW 1924   0.317   0.251   5.525
  461SOL    HW1 1925   0.388   0.322   5.531
  461SOL    HW2 1926   0.229   0.290   5.553
  462SOL     OW 1927   1.466   1.417   4.677
  462SOL    HW1 1928   1.407   1.423   4.757
  462SOL    HW2 1929   1.451   1.329   4.631
  463SOL     OW 1930   1.667   1.714   4.296
  463SOL    HW1 1931   1.626   1.691   4.208
  463SOL    HW2 1932   1.649   1.640   4.361
  464SOL     OW 1933   0.598   0.729   3.994
  464SOL    HW1 1934   0.622   0.798   3.926
  464SOL    HW2 1935   0.520   0.762   4.048
  465SOL     OW 1936   1.281   0.345   4.668
  465SOL    HW1 1937   1.195   0.295   4.655
  465SOL    HW2 1938   1.343   0.291   4.724
  466SOL     OW 1939   1.576   1.662   4.031
  466SOL    HW1 1940   1.665   1.708   4.034
  466SOL    HW2 1941   1.555   1.638   3.936
  467SOL     OW 1942   0.807   0.605   5.189
  467SOL    HW1 1943   0.760   0.602   5.278
  467SOL    HW2 1944   0.756   0.550   5.123
  468SOL     OW 1945   1.394   0.469   5.398
  468SOL    HW1 1946   1.374   0.512   5.486
  468SOL    HW2 1947   1.472   0.407   5.407
  469SOL     OW 1948   0.973   0.890   5.296
  469SOL    HW1 1949   1.019   0.806   5.267
  469SOL    HW2 1950   0.917   0.924   5.221
  470SOL     OW 1951   0.991   0.410   4.966
  470SOL    HW1 1952   0.914   0.444   5.020
  470SOL    HW2 1953   0.957   0.359   4.887
  471SOL     OW 1954   1.041   0.701   4.153
  471SOL    HW1 1955   1.067   0.697   4.249
  471SOL    HW2 1956   0.956   0.650   4.139
  472SOL     OW 1957   0.076   0.811   4.513
  472SOL    HW1 1958   0.175   0.799   4.522
  472SOL    HW2 1959   0.052   0.906   4.534
  473SOL     OW 1960   0.130   1.821   5.295
  473SOL    HW1 1961   0.120   1.806   5.394
  473SOL    HW2 1962   0.044   1.857   5.259
  474SOL     OW 1963   0.865   0.348   3.919
  474SOL    HW1 1964   0.924   0.411   3.870
  474SOL    HW2 1965   0.884   0.254   3.890
  475SOL     OW 1966   1.719   0.585   5.555
  475SOL    HW1 1967   1.693   0.674   5.519
  475SOL    HW2 1968   1.717   0.517   5.482
  476SOL     OW 1969   1.362   1.144   4.269
  476SOL    HW1 1970   1.445   1.115   4.221
  476SOL    HW2 1971   1.313   1.211   4.213
  477SOL     OW 1972   0.550   0.196   4.609
  477SOL    HW1 1973   0.545   0.191   4.709
  477SOL    HW2 1974   0.552   0.292   4.580
  478SOL     OW 1975   1.008   1.456   4.201
  478SOL    HW1 1976   0.962   1.528   4.149
  478SOL    HW2 1977   1.004   1.476   4.299
  479SOL     OW 1978   0.351   1.801   4.577
  479SOL    HW1 1979   0.401   1.715   4.583
  479SOL    HW2 1980   0.416   1.878   4.574
  480SOL     OW 1981   1.795   1.066   4.597
  480SOL    HW1 1982   1.733   1.051   4.521
  480SOL    HW2 1983   1.743   1.077   4.682
  481SOL     OW 1984   1.227   1.550   5.230
  481SOL    HW1 1985   1.233   1.473   5.294
  481SOL    HW2 1986   1.175   1.524   5.150
  482SOL     OW 1987   0.321   0.943   3.966
  482SOL    HW1 1988   0.403   0.982   3.924
  482SOL    HW2 1989   0.294   0.861   3.917
  483SOL     OW 1990   1.458   0.735   4.452
  483SOL    HW1 1991   1.453   0.670   4.527
  483SOL    HW2 1992   1.538   0.794   4.465
  484SOL     OW 1993   0.461   1.266   5.451
  484SOL    HW1 1994   0.411   1.267   5.365
  484SOL    HW2 1995   0.398   1.248   5.527
  485SOL     OW 1996   1.111   1.776   3.961
  485SOL    HW1 1997   1.051   1.714   4.011
  485SOL    HW2 1998   1.142   1.732   3.876
  486SOL     OW 1999   0.202   0.285   5.222
  486SOL    HW1 2000   0.122   0.345   5.209
  486SOL    HW2 2001   0.192   0.236   5.308
  487SOL     OW 2002   1.632   1.377   3.805
  487SOL    HW1 2003   1.600   1.471   3.795
  487SOL    HW2 2004   1.556   1.314   3.793
  488SOL     OW 2005   0.464   1.743   4.047
  488SOL    HW1 2006   0.497   1.782   4.133
  488SOL    HW2 2007   0.540   1.736   3.982
  489SOL     OW 2008   1.400   0.107   4.150
  489SOL    HW1 2009   1.376   0.070   4.060
  489SOL    HW2 2010   1.499   0.123   4.154
  490SOL     OW 2011   0.249   1.785   4.965
  490SOL    HW1 2012   0.306   1.720   5.015
  490SOL    HW2 2013   0.233   1.752   4.872
  491SOL     OW 2014   0.940   1.698   4.628
  491SOL    HW1 2015   1.020   1.641   4.649
  491SOL    HW2 2016   0.891   1.658   4.551
  492SOL     OW 2017   0.382   0.700   4.204
  492SOL    HW1 2018   0.427   0.610   4.201
  492SOL    HW2 2019   0.288   0.689   4.237
  493SOL     OW 2020   1.547   0.222   5.453
  493SOL    HW1 2021   1.542   0.259   5.545
  493SOL    HW2 2022   1.475   0.153   5.441
  494SOL     OW 2023   0.614   0.122   3.841
  494SOL    HW1 2024   0.712   0.100   3.848
  494SOL    HW2 2025   0.583   0.105   3.748
  495SOL     OW 2026   0.781   0.264   5.473
  495SOL    HW1 2027   0.848   0.203   5.516
  495SOL    HW2 2028   0.708   0.283   5.538
  496SOL     OW 2029   0.888   1.514   4.919
  496SOL    HW1 2030   0.865   1.489   4.825
  496SOL    HW2 2031   0.949   1.445   4.958
  497SOL     OW 2032   1.351   0.590   5.157
  497SOL    HW1 2033   1.379   0.547   5.242
  497SOL    HW2 2034   1.376   0.686   5.158
  498SOL     OW 2035   0.803   1.402   4.648
  498SOL    HW1 2036   0.893   1.416   4.606
  498SOL    HW2 2037   0.732   1.404   4.577
  499SOL     OW 2038   0.922   0.503   4.623
  499SOL    HW1 2039   0.897   0.494   4.527
  499SOL    HW2 2040   0.970   0.421   4.654
  500SOL     OW 2041   0.539   0.064   4.236
  500SOL    HW1 2042   0.458   0.065   4.294
  500SOL    HW2 2043   0.542   0.147   4.181
  501SOL     OW 2044   1.434   1.188   3.765
  501SOL    HW1 2045   1.466   1.112   3.822
  501SOL    HW2 2046   1.342   1.215   3.795
  502SOL     OW 2047   0.297   0.035   3.895
  502SOL    HW1 2048   0.346   0.119   3.874
  502SOL    HW2 2049   0.359  -0.030   3.940
  503SOL     OW 2050   0.935   0.236   4.204
  503SOL    HW1 2051   0.887   0.277   4.126
  503SOL    HW2 2052   1.034   0.234   4.185
  504SOL     OW 2053   1.076   0.683   5.188
  504SOL    HW1 2054   0.996   0.622   5.191
  504SOL    HW2 2055   1.157   0.630   5.164
  505SOL     OW 2056   1.227   1.570   4.517
  505SOL    HW1 2057   1.248   1.644   4.452
  505SOL    HW2 2058   1.295   1.570   4.590
  506SOL     OW 2059   0.459   1.152   4.465
  506SOL    HW1 2060   0.388   1.125   4.530
  506SOL    HW2 2061   0.433   1.124   4.372
  507SOL     OW 2062   1.271   1.797   4.315
  507SOL    HW1 2063   1.315   1.861   4.251
  507SOL    HW2 2064   1.221   1.849   4.385
  508SOL     OW 2065   1.032   0.549   3.740
  508SOL    HW1 2066   0.991   0.631   3.701
  508SOL    HW2 2067   1.096   0.575   3.813
  509SOL     OW 2068   0.078   0.556   5.110
  509SOL    HW1 2069   0.170   0.555   5.069
  509SOL    HW2 2070   0.072   0.630   5.177
  510SOL     OW 2071   0.561   0.222   4.871
  510SOL    HW1 2072   0.599   0.138   4.908
  510SOL    HW2 2073   0.473   0.241   4.915
  511SOL     OW 2074   0.866   0.454   4.366
  511SOL    HW1 2075   0.834   0.526   4.304
  511SOL    HW2 2076   0.890   0.373   4.313
  512SOL     OW 2077   1.017   0.039   4.477
  512SOL    HW1 2078   0.945   0.044   4.408
  512SOL    HW2 2079   0.993  -0.030   4.546
  513SOL     OW 2080   1.429   1.173   4.591
  513SOL    HW1 2081   1.374   1.089   4.584
  513SOL    HW2 2082   1.455   1.202   4.499
  514SOL     OW 2083   1.466   0.590   4.716
  514SOL    HW1 2084   1.436   0.495   4.723
  514SOL    HW2 2085   1.539   0.606   4.782
  515SOL     OW 2086   1.857   0.833   4.101
  515SOL    HW1 2087   1.899   0.769   4.165
  515SOL    HW2 2088   1.819   0.782   4.023
  516SOL     OW 2089   0.488   1.385   3.898
  516SOL    HW1 2090   0.401   1.370   3.945
  516SOL    HW2 2091   0.471   1.411   3.803
  517SOL     OW 2092   1.664   1.280   4.381
  517SOL    HW1 2093   1.763   1.288   4.395
  517SOL    HW2 2094   1.619   1.364   4.412
  518SOL     OW 2095   1.390   0.575   3.802
  518SOL    HW1 2096   1.336   0.554   3.883
  518SOL    HW2 2097   1.481   0.534   3.811
  519SOL     OW 2098   0.527   0.256   4.052
  519SOL    HW1 2099   0.554   0.197   3.977
  519SOL    HW2 2100   0.527   0.351   4.021
  520SOL     OW 2101   1.754   1.223   5.312
  520SOL    HW1 2102   1.845   1.184   5.299
  520SOL    HW2 2103   1.762   1.319   5.336
  521SOL     OW 2104   1.064   1.347   5.064
  521SOL    HW1 2105   0.984   1.324   5.119
  521SOL    HW2 2106   1.147   1.321   5.113
  522SOL     OW 2107   1.592   1.629   5.349
  522SOL    HW1 2108   1.619   1.663   5.259
  522SOL    HW2 2109   1.671   1.591   5.395
  523SOL     OW 2110   1.111   1.195   4.824
  523SOL    HW1 2111   1.071   1.239   4.905
  523SOL    HW2 2112   1.070   1.232   4.741
  524SOL     OW 2113   1.638   1.099   4.803
  524SOL    HW1 2114   1.643   1.180   4.862
  524SOL    HW2 2115   1.552   1.101   4.752
  525SOL     OW 2116   0.915   0.089   5.126
  525SOL    HW1 2117   0.940   0.069   5.031
  525SOL    HW2 2118   0.987   0.145   5.168
  526SOL     OW 2119   0.980   1.116   5.443
  526SOL    HW1 2120   0.881   1.122   5.453
  526SOL    HW2 2121   1.003   1.036   5.387
  527SOL     OW 2122   0.705   1.050   4.092
  527SOL    HW1 2123   0.691   1.057   4.191
  527SOL    HW2 2124   0.789   0.999   4.074
  528SOL     OW 2125   0.410   0.813   4.975
  528SOL    HW1 2126   0.496   0.825   5.025
  528SOL    HW2 2127   0.368   0.726   5.002
  529SOL     OW 2128   1.274   0.386   4.986
  529SOL    HW1 2129   1.295   0.460   5.050
  529SOL    HW2 2130   1.185   0.403   4.943
  530SOL     OW 2131   0.064   1.564   5.055
  530SOL    HW1 2132   0.018   1.646   5.021
  530SOL    HW2 2133   0.162   1.583   5.064
  531SOL     OW 2134   0.367   1.100   4.225
  531SOL    HW1 2135   0.360   1.183   4.169
  531SOL    HW2 2136   0.371   1.020   4.165
  532SOL     OW 2137   0.566   0.537   4.589
  532SOL    HW1 2138   0.578   0.603   4.515
  532SOL    HW2 2139   0.612   0.571   4.672
  533SOL     OW 2140   1.252   1.348   4.112
  533SOL    HW1 2141   1.302   1.425   4.152
  533SOL    HW2 2142   1.157   1.350   4.144
  534SOL     OW 2143   1.272   1.445   4.866
  534SOL    HW1 2144   1.319   1.458   4.953
  534SOL    HW2 2145   1.206   1.371   4.875
  535SOL     OW 2146   1.582   0.639   4.196
  535SOL    HW1 2147   1.551   0.700   4.269
  535SOL    HW2 2148   1.632   0.691   4.127
  536SOL     OW 2149   0.354   1.510   5.053
  536SOL    HW1 2150   0.333   1.466   4.966
  536SOL    HW2 2151   0.451   1.536   5.056
  537SOL     OW 2152   0.402   0.751   5.322
  537SOL    HW1 2153   0.470   0.806   5.275
  537SOL    HW2 2154   0.442   0.663   5.349
  538SOL     OW 2155   1.587   0.779   5.394
  538SOL    HW1 2156   1.495   0.817   5.389
  538SOL    HW2 2157   1.647   0.826   5.329
  539SOL     OW 2158   1.013   0.105   5.494
  539SOL    HW1 2159   1.019   0.190   5.442
  539SOL    HW2 2160   1.045   0.029   5.437
  540SOL     OW 2161   0.504   0.050   5.464
  540SOL    HW1 2162   0.462  -0.007   5.394
  540SOL    HW2 2163   0.438   0.119   5.496
  541SOL     OW 2164   0.573   0.870   4.753
  541SOL    HW1 2165   0.617   0.959   4.744
  541SOL    HW2 2166   0.510   0.870   4.830
  542SOL     OW 2167   1.360   0.862   4.769
  542SOL    HW1 2168   1.285   0.862   4.703
  542SOL    HW2 2169   1.397   0.770   4.778
  543SOL     OW 2170   1.209   0.525   3.999
  543SOL    HW1 2171   1.222   0.441   4.053
  543SOL    HW2 2172   1.180   0.599   4.059
  544SOL     OW 2173   0.307   0.213   4.955
  544SOL    HW1 2174   0.284   0.250   5.045
  544SOL    HW2 2175   0.277   0.118   4.949
  545SOL     OW 2176   0.037   1.310   5.006
  545SOL    HW1 2177   0.090   1.261   5.074
  545SOL    HW2 2178   0.059   1.408   5.011
  546SOL     OW 2179   0.732   0.634   4.788
  546SOL    HW1 2180   0.791   0.608   4.712
  546SOL    HW2 2181   0.704   0.730   4.777
  547SOL     OW 2182   1.728   0.935   5.578
  547SOL    HW1 2183   1.682   0.928   5.489
  547SOL    HW2 2184   1.666   0.979   5.644
  548SOL     OW 2185   0.307   0.063   4.342
  548SOL    HW1 2186   0.296   0.157   4.375
  548SOL    HW2 2187   0.302   0.000   4.419
  549SOL     OW 2188   1.622   0.367   4.098
  549SOL    HW1 2189   1.624   0.291   4.162
  549SOL    HW2 2190   1.574   0.444   4.138
  550SOL     OW 2191   1.023   0.766   4.690
  550SOL    HW1 2192   1.038   0.787   4.786
  550SOL    HW2 2193   0.993   0.671   4.681
  551SOL     OW 2194   0.980   1.573   5.424
  551SOL    HW1 2195   0.960   1.617   5.336
  551SOL    HW2 2196   1.019   1.482   5.408
  552SOL     OW 2197   0.350   0.898   5.528
  552SOL    HW1 2198   0.426   0.942   5.576
  552SOL    HW2 2199   0.385   0.851   5.446
  553SOL     OW 2200   1.540   0.274   3.849
  553SOL    HW1 2201   1.479   0.199   3.872
  553SOL    HW2 2202   1.562   0.326   3.932
  554SOL     OW 2203   1.303   0.838   3.766
  554SOL    HW1 2204   1.337   0.745   3.781
  554SOL    HW2 2205   1.321   0.865   3.671
  555SOL     OW 2206   1.068   1.333   4.573
  555SOL    HW1 2207   1.075   1.249   4.518
  555SOL    HW2 2208   1.130   1.402   4.537
  556SOL     OW 2209   0.319   0.810   4.673
  556SOL    HW1 2210   0.412   0.846   4.678
  556SOL    HW2 2211   0.313   0.725   4.725
  557SOL     OW 2212   0.339   0.509   4.730
  557SOL    HW1 2213   0.287   0.426   4.713
  557SOL    HW2 2214   0.416   0.514   4.666
  558SOL     OW 2215   1.138   0.380   5.402
  558SOL    HW1 2216   1.093   0.443   5.466
  558SOL    HW2 2217   1.231   0.411   5.385
  559SOL     OW 2218   1.160   0.207   5.201
  559SOL    HW1 2219   1.160   0.271   5.278
  559SOL    HW2 2220   1.188   0.255   5.118
  560SOL     OW 2221   0.008   1.326   3.924
  560SOL    HW1 2222  -0.085   1.347   3.893
  560SOL    HW2 2223   0.018   1.227   3.937
  561SOL     OW 2224   0.088   1.801   4.651
  561SOL    HW1 2225   0.046   1.715   4.624
  561SOL    HW2 2226   0.182   1.804   4.617
  562SOL     OW 2227   0.504   1.568   4.634
  562SOL    HW1 2228   0.570   1.642   4.643
  562SOL    HW2 2229   0.548   1.489   4.592
  563SOL     OW 2230   1.002   0.796   4.962
  563SOL    HW1 2231   1.043   0.764   5.048
  563SOL    HW2 2232   0.906   0.769   4.959
  564SOL     OW 2233   0.040   0.544   4.838
  564SOL    HW1 2234   0.125   0.511   4.797
  564SOL    HW2 2235   0.053   0.559   4.936
  565SOL     OW 2236   0.189   0.520   5.446
  565SOL    HW1 2237   0.248   0.480   5.376
  565SOL    HW2 2238   0.131   0.591   5.405
  566SOL     OW 2239   1.369   0.950   5.384
  566SOL    HW1 2240   1.408   1.039   5.404
  566SOL    HW2 2241   1.379   0.930   5.287
  567SOL     OW 2242   0.815   0.572   4.049
  567SOL    HW1 2243   0.822   0.483   4.003
  567SOL    HW2 2244   0.721   0.606   4.041
  568SOL     OW 2245   1.657   0.604   4.930
  568SOL    HW1 2246   1.619   0.535   4.992
  568SOL    HW2 2247   1.739   0.568   4.886
  569SOL     OW 2248   0.252   1.564   5.468
  569SOL    HW1 2249   0.222   1.621   5.544
  569SOL    HW2 2250   0.245   1.467   5.494
  570SOL     OW 2251   0.671   0.464   4.993
  570SOL    HW1 2252   0.637   0.375   4.963
  570SOL    HW2 2253   0.697   0.518   4.913
  571SOL     OW 2254   0.930   1.678   5.189
  571SOL    HW1 2255   0.906   1.660   5.094
  571SOL    HW2 2256   0.960   1.772   5.199
  572SOL     OW 2257   0.473   0.500   3.915
  572SOL    HW1 2258   0.534   0.580   3.919
  572SOL    HW2 2259   0.378   0.531   3.922
  573SOL     OW 2260   0.159   1.137   5.190
  573SOL    HW1 2261   0.181   1.076   5.266
  573SOL    HW2 2262   0.169   1.088   5.104
  574SOL     OW 2263   1.347   1.059   4.958
  574SOL    HW1 2264   1.371   0.996   4.884
  574SOL    HW2 2265   1.257   1.099   4.940
  575SOL     OW 2266   1.302   0.855   4.033
  575SOL    HW1 2267   1.216   0.824   4.075
  575SOL    HW2 2268   1.298   0.841   3.934
  576SOL     OW 2269   1.252   1.731   4.852
  576SOL    HW1 2270   1.336   1.736   4.798
  576SOL    HW2 2271   1.229   1.635   4.870
  577SOL     OW 2272   0.083   1.258   4.746
  577SOL    HW1 2273   0.078   1.257   4.846
  577SOL    HW2 2274   0.000   1.217   4.708
  578SOL     OW 2275   0.688   1.662   5.440
  578SOL    HW1 2276   0.632   1.743   5.449
  578SOL    HW2 2277   0.740   1.666   5.354
  579SOL     OW 2278   1.726   0.135   4.247
  579SOL    HW1 2279   1.799   0.118   4.180
  579SOL    HW2 2280   1.695   0.048   4.285
  580SOL     OW 2281   1.388   1.573   4.201
  580SOL    HW1 2282   1.455   1.585   4.127
  580SOL    HW2 2283   1.348   1.662   4.224
  581SOL     OW 2284   0.130   1.794   5.575
  581SOL    HW1 2285   0.089   1.720   5.628
  581SOL    HW2 2286   0.194   1.845   5.633
  582SOL     OW 2287   1.280   0.927   4.396
  582SOL    HW1 2288   1.340   0.846   4.398
  582SOL    HW2 2289   1.320   0.996   4.336
  583SOL     OW 2290   0.830   1.273   5.146
  583SOL    HW1 2291   0.825   1.306   5.241
  583SOL    HW2 2292   0.744   1.292   5.100
  584SOL     OW 2293   0.672   1.616   3.878
  584SOL    HW1 2294   0.681   1.626   3.779
  584SOL    HW2 2295   0.632   1.527   3.899
  585SOL     OW 2296   1.841   0.175   4.687
  585SOL    HW1 2297   1.880   0.090   4.651
  585SOL    HW2 2298   1.743   0.177   4.668
  586SOL     OW 2299   0.263   0.326   4.444
  586SOL    HW1 2300   0.184   0.377   4.410
  586SOL    HW2 2301   0.254   0.311   4.542
  587SOL     OW 2302   1.194   1.612   3.755
  587SOL    HW1 2303   1.200   1.519   3.792
  587SOL    HW2 2304   1.135   1.612   3.675
  588SOL     OW 2305   0.822   1.002   5.096
  588SOL    HW1 2306   0.862   1.001   5.004
  588SOL    HW2 2307   0.832   1.094   5.136
  589SOL     OW 2308   0.916   0.910   4.015
  589SOL    HW1 2309   0.979   0.948   3.947
  589SOL    HW2 2310   0.956   0.827   4.054
  590SOL     OW 2311   1.504   1.607   3.768
  590SOL    HW1 2312   1.412   1.644   3.775
  590SOL    HW2 2313   1.542   1.627   3.678
  591SOL     OW 2314   0.372   1.288   5.214
  591SOL    HW1 2315   0.359   1.381   5.180
  591SOL    HW2 2316   0.288   1.236   5.201
  592SOL     OW 2317   1.614   1.292   5.013
  592SOL    HW1 2318   1.674   1.295   5.093
  592SOL    HW2 2319   1.539   1.356   5.026
  593SOL     OW 2320   1.039   1.098   4.420
  593SOL    HW1 2321   0.969   1.051   4.474
  593SOL    HW2 2322   1.098   1.030   4.377
  594SOL     OW 2323   1.014   0.236   4.695
  594SOL    HW1 2324   1.006   0.200   4.602
  594SOL    HW2 2325   1.012   0.160   4.760
  595SOL     OW 2326   0.590   1.487   4.215
  595SOL    HW1 2327   0.632   1.429   4.145
  595SOL    HW2 2328   0.546   1.566   4.171
  596SOL     OW 2329   1.709   0.385   5.105
  596SOL    HW1 2330   1.782   0.454   5.109
  596SOL    HW2 2331   1.737   0.310   5.046
  597SOL     OW 2332   0.255   1.348   4.014
  597SOL    HW1 2333   0.159   1.349   3.987
  597SOL    HW2 2334   0.267   1.401   4.098
  598SOL     OW 2335   0.105   1.013   5.450
  598SOL    HW1 2336   0.028   0.980   5.504
  598SOL    HW2 2337   0.190   0.983   5.492
  599SOL     OW 2338   0.672   0.203   5.213
  599SOL    HW1 2339   0.762   0.187   5.173
  599SOL    HW2 2340   0.680   0.208   5.312
  600SOL     OW 2341   0.075   0.345   3.757
  600SOL    HW1 2342  -0.017   0.317   3.728
  600SOL    HW2 2343   0.106   0.422   3.701
  601SOL     OW 2344   1.440   0.856   5.122
  601SOL    HW1 2345   1.383   0.908   5.059
  601SOL    HW2 2346   1.536   0.868   5.098
  602SOL     OW 2347   0.072   0.166   4.042
  602SOL    HW1 2348   0.055   0.249   3.988
  602SOL    HW2 2349   0.162   0.129   4.020
  603SOL     OW 2350   1.183   1.335   3.843
  603SOL    HW1 2351   1.084   1.324   3.845
  603SOL    HW2 2352   1.217   1.350   3.936
  604SOL     OW 2353   0.613   0.842   5.155
  604SOL    HW1 2354   0.669   0.923   5.138
  604SOL    HW2 2355   0.672   0.762   5.158
  605SOL     OW 2356   0.716   0.565   5.432
  605SOL    HW1 2357   0.735   0.630   5.506
  605SOL    HW2 2358   0.776   0.485   5.441
  606SOL     OW 2359   1.450   1.220   5.357
  606SOL    HW1 2360   1.441   1.210   5.456
  606SOL    HW2 2361   1.546   1.213   5.331
  607SOL     OW 2362   0.390   1.741   5.284
  607SOL    HW1 2363   0.299   1.782   5.282
  607SOL    HW2 2364   0.383   1.647   5.316
  608SOL     OW 2365   1.674   0.883   4.978
  608SOL    HW1 2366   1.647   0.794   4.941
  608SOL    HW2 2367   1.675   0.951   4.905
  609SOL     OW 2368   1.225   0.325   4.173
  609SOL    HW1 2369   1.290   0.251   4.162
  609SOL    HW2 2370   1.245   0.375   4.257
  610SOL     OW 2371   0.594   0.745   4.376
  610SOL    HW1 2372   0.644   0.830   4.357
  610SOL    HW2 2373   0.506   0.747   4.328
  611SOL     OW 2374   1.777   0.342   5.366
  611SOL    HW1 2375   1.760   0.373   5.272
  611SOL    HW2 2376   1.693   0.305   5.404
  612SOL     OW 2377   1.730   0.934   5.241
  612SOL    HW1 2378   1.768   1.025   5.256
  612SOL    HW2 2379   1.722   0.917   5.142
  613SOL     OW 2380   0.859   1.374   3.740
  613SOL    HW1 2381   0.813   1.389   3.828
  613SOL    HW2 2382   0.903   1.459   3.710
  614SOL     OW 2383   0.661   1.790   4.677
  614SOL    HW1 2384   0.615   1.878   4.664
  614SOL    HW2 2385   0.760   1.802   4.670
  615SOL     OW 2386   0.859   0.956   4.585
  615SOL    HW1 2387   0.913   0.887   4.633
  615SOL    HW2 2388   0.827   1.025   4.651
  616SOL     OW 2389   1.083   0.984   3.811
  616SOL    HW1 2390   1.060   1.037   3.729
  616SOL    HW2 2391   1.164   0.928   3.792
  617SOL     OW 2392   1.861   1.569   4.575
  617SOL    HW1 2393   1.790   1.557   4.505
  617SOL    HW2 2394   1.862   1.490   4.635
  618SOL     OW 2395   0.221   1.314   5.568
  618SOL    HW1 2396   0.156   1.241   5.547
  618SOL    HW2 2397   0.225   1.328   5.666
  619SOL     OW 2398   0.079   1.240   4.377
  619SOL    HW1 2399   0.078   1.193   4.465
  619SOL    HW2 2400   0.161   1.212   4.326
  620SOL     OW 2401   0.672   1.391   5.348
  620SOL    HW1 2402   0.594   1.341   5.386
  620SOL    HW2 2403   0.669   1.486   5.379
  621SOL     OW 2404   1.824   0.192   4.951
  621SOL    HW1 2405   1.820   0.102   4.995
  621SOL    HW2 2406   1.827   0.181   4.852
  622SOL     OW 2407   0.428   0.424   4.244
  622SOL    HW1 2408   0.458   0.352   4.182
  622SOL    HW2 2409   0.389   0.384   4.327
  623SOL     OW 2410   1.705   1.487   4.828
  623SOL    HW1 2411   1.612   1.462   4.801
  623SOL    HW2 2412   1.731   1.437   4.910
  624SOL     OW 2413   0.317   0.547   5.004
  624SOL    HW1 2414   0.355   0.488   5.076
  624SOL    HW2 2415   0.357   0.521   4.916
  625SOL     OW 2416   0.812   1.586   4.411
  625SOL    HW1 2417   0.844   1.596   4.317
  625SOL    HW2 2418   0.733   1.524   4.413
  626SOL     OW 2419   1.424   0.214   4.836
  626SOL    HW1 2420   1.476   0.149   4.891
  626SOL    HW2 2421   1.375   0.277   4.897
  627SOL     OW 2422   1.001   0.034   4.878
  627SOL    HW1 2423   0.938  -0.038   4.847
  627SOL    HW2 2424   1.094  -0.002   4.878
  628SOL     OW 2425   0.770   1.330   4.025
  628SOL    HW1 2426   0.724   1.243   4.042
  628SOL    HW2 2427   0.861   1.327   4.066
  629SOL     OW 2428   0.618   1.567   5.008
  629SOL    HW1 2429   0.613   1.649   5.065
  629SOL    HW2 2430   0.707   1.564   4.963
  630SOL     OW 2431   1.352   0.052   3.892
  630SOL    HW1 2432   1.387   0.011   3.808
  630SOL    HW2 2433   1.262   0.014   3.912
  631SOL     OW 2434   1.300   0.453   4.415
  631SOL    HW1 2435   1.241   0.533   4.419
  631SOL    HW2 2436   1.315   0.418   4.508
  632SOL     OW 2437   1.593   0.221   4.606
  632SOL    HW1 2438   1.509   0.220   4.660
  632SOL    HW2 2439   1.595   0.304   4.550
  633SOL     OW 2440   0.039   1.077   4.024
  633SOL    HW1 2441   0.138   1.066   4.015
  633SOL    HW2 2442  -0.001   0.991   4.056
  634SOL     OW 2443   0.875   1.646   4.061
  634SOL    HW1 2444   0.798   1.611   4.007
  634SOL    HW2 2445   0.843   1.717   4.123
  635SOL     OW 2446   0.230   0.628   5.699
  635SOL    HW1 2447   0.137   0.626   5.736
  635SOL    HW2 2448   0.231   0.589   5.607
  636SOL     OW 2449   0.225   0.275   6.582
  636SOL    HW1 2450   0.260   0.258   6.674
  636SOL    HW2 2451   0.137   0.230   6.570
  637SOL     OW 2452   0.019   0.368   6.233
  637SOL    HW1 2453  -0.063   0.411   6.272
  637SOL    HW2 2454  -0.009   0.295   6.170
  638SOL     OW 2455   0.569   1.275   6.751
  638SOL    HW1 2456   0.476   1.268   6.714
  638SOL    HW2 2457   0.580   1.364   6.795
  639SOL     OW 2458   1.555   1.511   6.289
  639SOL    HW1 2459   1.498   1.495   6.370
  639SOL    HW2 2460   1.496   1.521   6.209
  640SOL     OW 2461   1.135   0.703   6.303
  640SOL    HW1 2462   1.192   0.781   6.278
  640SOL    HW2 2463   1.075   0.729   6.379
  641SOL     OW 2464   1.755   0.607   5.817
  641SOL    HW1 2465   1.743   0.594   5.718
  641SOL    HW2 2466   1.725   0.526   5.866
  642SOL     OW 2467   0.768   1.144   6.609
  642SOL    HW1 2468   0.690   1.161   6.669
  642SOL    HW2 2469   0.802   1.231   6.573
  643SOL     OW 2470   0.850   0.798   7.409
  643SOL    HW1 2471   0.846   0.874   7.474
  643SOL    HW2 2472   0.872   0.834   7.318
  644SOL     OW 2473   0.685   1.012   6.251
  644SOL    HW1 2474   0.754   0.996   6.321
  644SOL    HW2 2475   0.612   1.069   6.289
  645SOL     OW 2476   0.686   1.161   7.389
  645SOL    HW1 2477   0.746   1.240   7.403
  645SOL    HW2 2478   0.600   1.192   7.348
  646SOL     OW 2479   0.335   1.435   6.647
  646SOL    HW1 2480   0.257   1.404   6.594
  646SOL    HW2 2481   0.393   1.493   6.590
  647SOL     OW 2482   1.460   1.505   6.925
  647SOL    HW1 2483   1.484   1.599   6.951
  647SOL    HW2 2484   1.444   1.451   7.007
  648SOL     OW 2485   0.438   0.392   7.085
  648SOL    HW1 2486   0.520   0.336   7.094
  648SOL    HW2 2487   0.357   0.334   7.089
  649SOL     OW 2488   1.603   0.447   6.323
  649SOL    HW1 2489   1.529   0.493   6.273
  649SOL    HW2 2490   1.654   0.515   6.376
  650SOL     OW 2491   0.231   1.713   6.069
  650SOL    HW1 2492   0.265   1.790   6.123
  650SOL    HW2 2493   0.275   1.713   5.979
  651SOL     OW 2494   1.127   1.341   7.276
  651SOL    HW1 2495   1.174   1.341   7.364
  651SOL    HW2 2496   1.079   1.254   7.265
  652SOL     OW 2497   0.230   1.434   6.124
  652SOL    HW1 2498   0.204   1.530   6.124
  652SOL    HW2 2499   0.159   1.380   6.169
  653SOL     OW 2500   0.240   1.091   6.472
  653SOL    HW1 2501   0.254   1.007   6.524
  653SOL    HW2 2502   0.185   1.155   6.527
  654SOL     OW 2503   0.620   1.786   7.025
  654SOL    HW1 2504   0.528   1.769   7.060
  654SOL    HW2 2505   0.648   1.878   7.051
  655SOL     OW 2506   0.606   0.964   5.709
  655SOL    HW1 2507   0.613   1.048   5.655
  655SOL    HW2 2508   0.652   0.977   5.797
  656SOL     OW 2509   1.594   0.114   7.066
  656SOL    HW1 2510   1.576   0.181   6.994
  656SOL    HW2 2511   1.591   0.160   7.155
  657SOL     OW 2512   0.122   0.643   6.149
  657SOL    HW1 2513   0.077   0.555   6.166
  657SOL    HW2 2514   0.121   0.697   6.233
  658SOL     OW 2515   0.027   1.596   5.703
  658SOL    HW1 2516   0.008   1.500   5.724
  658SOL    HW2 2517  -0.006   1.654   5.778
  659SOL     OW 2518   1.689   0.922   6.198
  659SOL    HW1 2519   1.784   0.893   6.206
  659SOL    HW2 2520   1.681   0.987   6.123
  660SOL     OW 2521   1.641   1.108   6.018
  660SOL    HW1 2522   1.727   1.110   5.966
  660SOL    HW2 2523   1.655   1.155   6.106
  661SOL     OW 2524   0.113   0.737   7.183
  661SOL    HW1 2525   0.201   0.724   7.228
  661SOL    HW2 2526   0.100   0.834   7.161
  662SOL     OW 2527   0.613   1.365   6.312
  662SOL    HW1 2528   0.564   1.278   6.321
  662SOL    HW2 2529   0.590   1.408   6.225
  663SOL     OW 2530   1.293   1.228   7.009
  663SOL    HW1 2531   1.330   1.155   6.951
  663SOL    HW2 2532   1.345   1.233   7.094
  664SOL     OW 2533   0.809   0.004   6.088
  664SOL    HW1 2534   0.849   0.095   6.079
  664SOL    HW2 2535   0.709   0.012   6.094
  665SOL     OW 2536   0.197   0.976   6.850
  665SOL    HW1 2537   0.286   0.931   6.836
  665SOL    HW2 2538   0.124   0.911   6.831
  666SOL     OW 2539   1.525   0.999   5.776
  666SOL    HW1 2540   1.462   0.923   5.789
  666SOL    HW2 2541   1.573   1.017   5.862
  667SOL     OW 2542   1.187   1.792   7.202
  667SOL    HW1 2543   1.211   1.852   7.126
  667SOL    HW2 2544   1.194   1.697   7.172
  668SOL     OW 2545   0.317   0.251   7.387
  668SOL    HW1 2546   0.388   0.322   7.393
  668SOL    HW2 2547   0.229   0.290   7.415
  669SOL     OW 2548   1.466   1.417   6.539
  669SOL    HW1 2549   1.407   1.423   6.619
  669SOL    HW2 2550   1.451   1.329   6.493
  670SOL     OW 2551   0.598   0.729   5.856
  670SOL    HW1 2552   0.622   0.798   5.788
  670SOL    HW2 2553   0.520   0.762   5.910
  671SOL     OW 2554   1.281   0.345   6.530
  671SOL    HW1 2555   1.195   0.295   6.517
  671SOL    HW2 2556   1.343   0.291   6.586
  672SOL     OW 2557   0.807   0.605   7.051
  672SOL    HW1 2558   0.760   0.602   7.140
  672SOL    HW2 2559   0.756   0.550   6.985
  673SOL     OW 2560   1.394   0.469   7.260
  673SOL    HW1 2561   1.374   0.512   7.348
  673SOL    HW2 2562   1.472   0.407   7.269
  674SOL     OW 2563   0.973   0.890   7.158
  674SOL    HW1 2564   1.019   0.806   7.129
  674SOL    HW2 2565   0.917   0.924   7.083
  675SOL     OW 2566   0.991   0.410   6.828
  675SOL    HW1 2567   0.914   0.444   6.882
  675SOL    HW2 2568   0.957   0.359   6.749
  676SOL     OW 2569   1.041   0.701   6.015
  676SOL    HW1 2570   1.067   0.697   6.111
  676SOL    HW2 2571   0.956   0.650   6.001
  677SOL     OW 2572   0.076   0.811   6.375
  677SOL    HW1 2573   0.175   0.799   6.384
  677SOL    HW2 2574   0.052   0.906   6.396
  678SOL     OW 2575   0.130   1.821   7.157
  678SOL    HW1 2576   0.120   1.806   7.256
  678SOL    HW2 2577   0.044   1.857   7.121
  679SOL     OW 2578   0.865   0.348   5.781
  679SOL    HW1 2579   0.924   0.411   5.732
  679SOL    HW2 2580   0.884   0.254   5.752
  680SOL     OW 2581   1.719   0.585   7.417
  680SOL    HW1 2582   1.693   0.674   7.381
  680SOL    HW2 2583   1.717   0.517   7.344
  681SOL     OW 2584   1.362   1.144   6.131
  681SOL    HW1 2585   1.445   1.115   6.083
  681SOL    HW2 2586   1.313   1.211   6.075
  682SOL     OW 2587   0.550   0.196   6.471
  682SOL    HW1 2588   0.545   0.191   6.571
  682SOL    HW2 2589   0.552   0.292   6.442
  683SOL     OW 2590   1.008   1.456   6.063
  683SOL    HW1 2591   0.962   1.528   6.011
  683SOL    HW2 2592   1.004   1.476   6.161
  684SOL     OW 2593   0.351   1.801   6.439
  684SOL    HW1 2594   0.401   1.715   6.445
  684SOL    HW2 2595   0.416   1.878   6.436
  685SOL     OW 2596   1.795   1.066   6.459
  685SOL    HW1 2597   1.733   1.051   6.383
  685SOL    HW2 2598   1.743   1.077   6.544
  686SOL     OW 2599   1.227   1.550   7.092
  686SOL    HW1 2600   1.233   1.473   7.156
  686SOL    HW2 2601   1.175   1.524   7.012
  687SOL     OW 2602   0.321   0.943   5.828
  687SOL    HW1 2603   0.403   0.982   5.786
  687SOL    HW2 2604   0.294   0.861   5.779
  688SOL     OW 2605   1.458   0.735   6.314
  688SOL    HW1 2606   1.453   0.670   6.389
  688SOL    HW2 2607   1.538   0.794   6.327
  689SOL     OW 2608   0.461   1.266   7.313
  689SOL    HW1 2609   0.411   1.267   7.227
  689SOL    HW2 2610   0.398   1.248   7.389
  690SOL     OW 2611   1.111   1.776   5.823
  690SOL    HW1 2612   1.051   1.714   5.873
  690SOL    HW2 2613   1.142   1.732   5.738
  691SOL     OW 2614   0.202   0.285   7.084
  691SOL    HW1 2615   0.122   0.345   7.071
  691SOL    HW2 2616   0.192   0.236   7.170
  692SOL     OW 2617   1.632   1.377   5.667
  692SOL    HW1 2618   1.600   1.471   5.657
  692SOL    HW2 2619   1.556   1.314   5.655
  693SOL     OW 2620   0.464   1.743   5.909
  693SOL    HW1 2621   0.497   1.782   5.995
  693SOL    HW2 2622   0.540   1.736   5.844
  694SOL     OW 2623   1.400   0.107   6.012
  694SOL    HW1 2624   1.376   0.070   5.922
  694SOL    HW2 2625   1.499   0.123   6.016
  695SOL     OW 2626   0.249   1.785   6.827
  695SOL    HW1 2627   0.306   1.720   6.877
  695SOL    HW2 2628   0.233   1.752   6.734
  696SOL     OW 2629   0.940   1.698   6.490
  696SOL    HW1 2630   1.020   1.641   6.511
  696SOL    HW2 2631   0.891   1.658   6.413
  697SOL     OW 2632   0.382   0.700   6.066
  697SOL    HW1 2633   0.427   0.610   6.063
  697SOL    HW2 2634   0.288   0.689   6.099
  698SOL     OW 2635   1.547   0.222   7.315
  698SOL    HW1 2636   1.542   0.259   7.407
  698SOL    HW2 2637   1.475   0.153   7.303
  699SOL     OW 2638   0.614   0.122   5.703
  699SOL    HW1 2639   0.712   0.100   5.710
  699SOL    HW2 2640   0.583   0.105   5.610
  700SOL     OW 2641   0.781   0.264   7.335
  700SOL    HW1 2642   0.848   0.203   7.378
  700SOL    HW2 2643   0.708   0.283   7.400
  701SOL     OW 2644   0.888   1.514   6.781
  701SOL    HW1 2645   0.865   1.489   6.687
  701SOL    HW2 2646   0.949   1.445   6.820
  702SOL     OW 2647   1.351   0.590   7.019
  702SOL    HW1 2648   1.379   0.547   7.104
  702SOL    HW2 2649   1.376   0.686   7.020
  703SOL     OW 2650   0.803   1.402   6.510
  703SOL    HW1 2651   0.893   1.416   6.468
  703SOL    HW2 2652   0.732   1.404   6.439
  704SOL     OW 2653   0.922   0.503   6.485
  704SOL    HW1 2654   0.897   0.494   6.389
  704SOL    HW2 2655   0.970   0.421   6.516
  705SOL     OW 2656   0.539   0.064   6.098
  705SOL    HW1 2657   0.458   0.065   6.156
  705SOL    HW2 2658   0.542   0.147   6.043
  706SOL     OW 2659   1.434   1.188   5.627
  706SOL    HW1 2660   1.466   1.112   5.684
  706SOL    HW2 2661   1.342   1.215   5.657
  707SOL     OW 2662   0.297   0.035   5.757
  707SOL    HW1 2663   0.346   0.119   5.736
  707SOL    HW2 2664   0.359  -0.030   5.802
  708SOL     OW 2665   0.935   0.236   6.066
  708SOL    HW1 2666   0.887   0.277   5.988
  708SOL    HW2 2667   1.034   0.234   6.047
  709SOL     OW 2668   1.076   0.683   7.050
  709SOL    HW1 2669   0.996   0.622   7.053
  709SOL    HW2 2670   1.157   0.630   7.026
  710SOL     OW 2671   1.227   1.570   6.379
  710SOL    HW1 2672   1.248   1.644   6.314
  710SOL    HW2 2673   1.295   1.570   6.452
  711SOL     OW 2674   0.459   1.152   6.327
  711SOL    HW1 2675   0.388   1.125   6.392
  711SOL    HW2 2676   0.433   1.124   6.234
  712SOL     OW 2677   1.271   1.797   6.177
  712SOL    HW1 2678   1.315   1.861   6.113
  712SOL    HW2 2679   1.221   1.849   6.247
  713SOL     OW 2680   1.032   0.549   5.602
  713SOL    HW1 2681   0.991   0.631   5.563
  713SOL    HW2 2682   1.096   0.575   5.675
  714SOL     OW 2683   0.078   0.556   6.972
  714SOL    HW1 2684   0.170   0.555   6.931
  714SOL    HW2 2685   0.072   0.630   7.039
  715SOL     OW 2686   0.561   0.222   6.733
  715SOL    HW1 2687   0.599   0.138   6.770
  715SOL    HW2 2688   0.473   0.241   6.777
  716SOL     OW 2689   0.866   0.454   6.228
  716SOL    HW1 2690   0.834   0.526   6.166
  716SOL    HW2 2691   0.890   0.373   6.175
  717SOL     OW 2692   1.017   0.039   6.339
  717SOL    HW1 2693   0.945   0.044   6.270
  717SOL    HW2 2694   0.993  -0.030   6.408
  718SOL     OW 2695   1.429   1.173   6.453
  718SOL    HW1 2696   1.374   1.089   6.446
  718SOL    HW2 2697   1.455   1.202   6.361
  719SOL     OW 2698   1.466   0.590   6.578
  719SOL    HW1 2699   1.436   0.495   6.585
  719SOL    HW2 2700   1.539   0.606   6.644
  720SOL     OW 2701   1.857   0.833   5.963
  720SOL    HW1 2702   1.899   0.769   6.027
  720SOL    HW2 2703   1.819   0.782   5.885
  721SOL     OW 2704   0.488   1.385   5.760
  721SOL    HW1 2705   0.401   1.370   5.807
  721SOL    HW2 2706   0.471   1.411   5.665
  722SOL     OW 2707   1.664   1.280   6.243
  722SOL    HW1 2708   1.763   1.288   6.257
  722SOL    HW2 2709   1.619   1.364   6.274
  723SOL     OW 2710   1.390   0.575   5.664
  723SOL    HW1 2711   1.336   0.554   5.745
  723SOL    HW2 2712   1.481   0.534   5.673
  724SOL     OW 2713   0.527   0.256   5.914
  724SOL    HW1 2714   0.554   0.197   5.839
  724SOL    HW2 2715   0.527   0.351   5.883
  725SOL     OW 2716   1.754   1.223   7.174
  725SOL    HW1 2717   1.845   1.184   7.161
  725SOL    HW2 2718   1.762   1.319   7.198
  726SOL     OW 2719   1.064   1.347   6.926
  726SOL    HW1 2720   0.984   1.324   6.981
  726SOL    HW2 2721   1.147   1.321   6.975
  727SOL     OW 2722   1.592   1.629   7.211
  727SOL    HW1 2723   1.619   1.663   7.121
  727SOL    HW2 2724   1.671   1.591   7.257
  728SOL     OW 2725   1.111   1.195   6.686
  728SOL    HW1 2726   1.071   1.239   6.767
  728SOL    HW2 2727   1.070   1.232   6.603
  729SOL     OW 2728   1.638   1.099   6.665
  729SOL    HW1 2729   1.643   1.180   6.724
  729SOL    HW2 2730   1.552   1.101   6.614
  730SOL     OW 2731   0.915   0.089   6.988
  730SOL    HW1 2732   0.940   0.069   6.893
  730SOL    HW2 2733   0.987   0.145   7.030
  731SOL     OW 2734   0.980   1.116   7.305
  731SOL    HW1 2735   0.881   1.122   7.315
  731SOL    HW2 2736   1.003   1.036   7.249
  732SOL     OW 2737   0.705   1.050   5.954
  732SOL    HW1 2738   0.691   1.057   6.053
  732SOL    HW2 2739   0.789   0.999   5.936
  733SOL     OW 2740   0.410   0.813   6.837
  733SOL    HW1 2741   0.496   0.825   6.887
  733SOL    HW2 2742   0.368   0.726   6.864
  734SOL     OW 2743   1.274   0.386   6.848
  734SOL    HW1 2744   1.295   0.460   6.912
  734SOL    HW2 2745   1.185   0.403   6.805
  735SOL     OW 2746   0.064   1.564   6.917
  735SOL    HW1 2747   0.018   1.646   6.883
  735SOL    HW2 2748   0.162   1.583   6.926
  736SOL     OW 2749   0.367   1.100   6.087
  736SOL    HW1 2750   0.360   1.183   6.031
  736SOL    HW2 2751   0.371   1.020   6.027
  737SOL     OW 2752   0.566   0.537   6.451
  737SOL    HW1 2753   0.578   0.603   6.377
  737SOL    HW2 2754   0.612   0.571   6.534
  738SOL     OW 2755   1.252   1.348   5.974
  738SOL    HW1 2756   1.302   1.425   6.014
  738SOL    HW2 2757   1.157   1.350   6.006
  739SOL     OW 2758   1.272   1.445   6.728
  739SOL    HW1 2759   1.319   1.458   6.815
  739SOL    HW2 2760   1.206   1.371   6.737
  740SOL     OW 2761   1.582   0.639   6.058
  740SOL    HW1 2762   1.551   0.700   6.131
  740SOL    HW2 2763   1.632   0.691   5.989
  741SOL     OW 2764   0.354   1.510   6.915
  741SOL    HW1 2765   0.333   1.466   6.828
  741SOL    HW2 2766   0.451   1.536   6.918
  742SOL     OW 2767   0.402   0.751   7.184
  742SOL    HW1 2768   0.470   0.806   7.137
  742SOL    HW2 2769   0.442   0.663   7.211
  743SOL     OW 2770   1.587   0.779   7.256
  743SOL    HW1 2771   1.495   0.817   7.251
  743SOL    HW2 2772   1.647   0.826   7.191
  744SOL     OW 2773   1.013   0.105   7.356
  744SOL    HW1 2774   1.019   0.190   7.304
  744SOL    HW2 2775   1.045   0.029   7.299
  745SOL     OW 2776   0.504   0.050   7.326
  745SOL    HW1 2777   0.462  -0.007   7.256
  745SOL    HW2 2778   0.438   0.119   7.358
  746SOL     OW 2779   0.573   0.870   6.615
  746SOL    HW1 2780   0.617   0.959   6.606
  746SOL    HW2 2781   0.510   0.870   6.692
  747SOL     OW 2782   1.360   0.862   6.631
  747SOL    HW1 2783   1.285   0.862   6.565
  747SOL    HW2 2784   1.397   0.770   6.640
  748SOL     OW 2785   1.209   0.525   5.861
  748SOL    HW1 2786   1.222   0.441   5.915
  748SOL    HW2 2787   1.180   0.599   5.921
  749SOL     OW 2788   0.307   0.213   6.817
  749SOL    HW1 2789   0.284   0.250   6.907
  749SOL    HW2 2790   0.277   0.118   6.811
  750SOL     OW 2791   0.037   1.310   6.868
  750SOL    HW1 2792   0.090   1.261   6.936
  750SOL    HW2 2793   0.059   1.408   6.873
  751SOL     OW 2794   0.732   0.634   6.650
  751SOL    HW1 2795   0.791   0.608   6.574
  751SOL    HW2 2796   0.704   0.730   6.639
  752SOL     OW 2797   1.728   0.935   7.440
  752SOL    HW1 2798   1.682   0.928   7.351
  752SOL    HW2 2799   1.666   0.979   7.506
  753SOL     OW 2800   0.307   0.063   6.204
  753SOL    HW1 2801   0.296   0.157   6.237
  753SOL    HW2 2802   0.302   0.000   6.281
  754SOL     OW 2803   1.622   0.367   5.960
  754SOL    HW1 2804   1.624   0.291   6.024
  754SOL    HW2 2805   1.574   0.444   6.000
  755SOL     OW 2806   1.023   0.766   6.552
  755SOL    HW1 2807   1.038   0.787   6.648
  755SOL    HW2 2808   0.993   0.671   6.543
  756SOL     OW 2809   0.980   1.573   7.286
  756SOL    HW1 2810   0.960   1.617   7.198
  756SOL    HW2 2811   1.019   1.482   7.270
  757SOL     OW 2812   1.859   1.518   7.191
  757SOL    HW1 2813   1.873   1.545   7.096
  757SOL    HW2 2814   1.942   1.540   7.244
  758SOL     OW 2815   0.350   0.898   7.390
  758SOL    HW1 2816   0.426   0.942   7.438
  758SOL    HW2 2817   0.385   0.851   7.308
  759SOL     OW 2818   1.540   0.274   5.711
  759SOL    HW1 2819   1.479   0.199   5.734
  759SOL    HW2 2820   1.562   0.326   5.794
  760SOL     OW 2821   1.303   0.838   5.628
  760SOL    HW1 2822   1.337   0.745   5.643
  760SOL    HW2 2823   1.321   0.865   5.533
  761SOL     OW 2824   1.068   1.333   6.435
  761SOL    HW1 2825   1.075   1.249   6.380
  761SOL    HW2 2826   1.130   1.402   6.399
  762SOL     OW 2827   0.319   0.810   6.535
  762SOL    HW1 2828   0.412   0.846   6.540
  762SOL    HW2 2829   0.313   0.725   6.587
  763SOL     OW 2830   0.339   0.509   6.592
  763SOL    HW1 2831   0.287   0.426   6.575
  763SOL    HW2 2832   0.416   0.514   6.528
  764SOL     OW 2833   1.138   0.380   7.264
  764SOL    HW1 2834   1.093   0.443   7.328
  764SOL    HW2 2835   1.231   0.411   7.247
  765SOL     OW 2836   1.160   0.207   7.063
  765SOL    HW1 2837   1.160   0.271   7.140
  765SOL    HW2 2838   1.188   0.255   6.980
  766SOL     OW 2839   0.008   1.326   5.786
  766SOL    HW1 2840  -0.085   1.347   5.755
  766SOL    HW2 2841   0.018   1.227   5.799
  767SOL     OW 2842   0.088   1.801   6.513
  767SOL    HW1 2843   0.046   1.715   6.486
  767SOL    HW2 2844   0.182   1.804   6.479
  768SOL     OW 2845   0.504   1.568   6.496
  768SOL    HW1 2846   0.570   1.642   6.505
  768SOL    HW2 2847   0.548   1.489   6.454
  769SOL     OW 2848   1.002   0.796   6.824
  769SOL    HW1 2849   1.043   0.764   6.910
  769SOL    HW2 2850   0.906   0.769   6.821
  770SOL     OW 2851   0.040   0.544   6.700
  770SOL    HW1 2852   0.125   0.511   6.659
  770SOL    HW2 2853   0.053   0.559   6.798
  771SOL     OW 2854   0.189   0.520   7.308
  771SOL    HW1 2855   0.248   0.480   7.238
  771SOL    HW2 2856   0.131   0.591   7.267
  772SOL     OW 2857   1.369   0.950   7.246
  772SOL    HW1 2858   1.408   1.039   7.266
  772SOL    HW2 2859   1.379   0.930   7.149
  773SOL     OW 2860   0.815   0.572   5.911
  773SOL    HW1 2861   0.822   0.483   5.865
  773SOL    HW2 2862   0.721   0.606   5.903
  774SOL     OW 2863   1.657   0.604   6.792
  774SOL    HW1 2864   1.619   0.535   6.854
  774SOL    HW2 2865   1.739   0.568   6.748
  775SOL     OW 2866   0.252   1.564   7.330
  775SOL    HW1 2867   0.222   1.621   7.406
  775SOL    HW2 2868   0.245   1.467   7.356
  776SOL     OW 2869   0.671   0.464   6.855
  776SOL    HW1 2870   0.637   0.375   6.825
  776SOL    HW2 2871   0.697   0.518   6.775
  777SOL     OW 2872   0.930   1.678   7.051
  777SOL    HW1 2873   0.906   1.660   6.956
  777SOL    HW2 2874   0.960   1.772   7.061
  778SOL     OW 2875   0.473   0.500   5.777
  778SOL    HW1 2876   0.534   0.580   5.781
  778SOL    HW2 2877   0.378   0.531   5.784
  779SOL     OW 2878   0.159   1.137   7.052
  779SOL    HW1 2879   0.181   1.076   7.128
  779SOL    HW2 2880   0.169   1.088   6.966
  780SOL     OW 2881   1.347   1.059   6.820
  780SOL    HW1 2882   1.371   0.996   6.746
  780SOL    HW2 2883   1.257   1.099   6.802
  781SOL     OW 2884   1.302   0.855   5.895
  781SOL    HW1 2885   1.216   0.824   5.937
  781SOL    HW2 2886   1.298   0.841   5.796
  782SOL     OW 2887   1.759   1.747   6.740
  782SOL    HW1 2888   1.820   1.777   6.667
  782SOL    HW2 2889   1.721   1.658   6.718
  783SOL     OW 2890   1.252   1.731   6.714
  783SOL    HW1 2891   1.336   1.736   6.660
  783SOL    HW2 2892   1.229   1.635   6.732
  784SOL     OW 2893   0.083   1.258   6.608
  784SOL    HW1 2894   0.078   1.257   6.708
  784SOL    HW2 2895   0.000   1.217   6.570
  785SOL     OW 2896   0.688   1.662   7.302
  785SOL    HW1 2897   0.632   1.743   7.311
  785SOL    HW2 2898   0.740   1.666   7.216
  786SOL     OW 2899   1.726   0.135   6.109
  786SOL    HW1 2900   1.799   0.118   6.042
  786SOL    HW2 2901   1.695   0.048   6.147
  787SOL     OW 2902   1.388   1.573   6.063
  787SOL    HW1 2903   1.455   1.585   5.989
  787SOL    HW2 2904   1.348   1.662   6.086
  788SOL     OW 2905   0.130   1.794   7.437
  788SOL    HW1 2906   0.089   1.720   7.490
  788SOL    HW2 2907   0.194   1.845   7.495
  789SOL     OW 2908   1.280   0.927   6.258
  789SOL    HW1 2909   1.340   0.846   6.260
  789SOL    HW2 2910   1.320   0.996   6.198
  790SOL     OW 2911   0.830   1.273   7.008
  790SOL    HW1 2912   0.825   1.306   7.103
  790SOL    HW2 2913   0.744   1.292   6.962
  791SOL     OW 2914   0.672   1.616   5.740
  791SOL    HW1 2915   0.681   1.626   5.641
  791SOL    HW2 2916   0.632   1.527   5.761
  792SOL     OW 2917   1.650   1.720   6.980
  792SOL    HW1 2918   1.703   1.730   6.896
  792SOL    HW2 2919   1.623   1.810   7.014
  793SOL     OW 2920   1.841   0.175   6.549
  793SOL    HW1 2921   1.880   0.090   6.513
  793SOL    HW2 2922   1.743   0.177   6.530
  794SOL     OW 2923   0.263   0.326   6.306
  794SOL    HW1 2924   0.184   0.377   6.272
  794SOL    HW2 2925   0.254   0.311   6.404
  795SOL     OW 2926   1.194   1.612   5.617
  795SOL    HW1 2927   1.200   1.519   5.654
  795SOL    HW2 2928   1.135   1.612   5.537
  796SOL     OW 2929   0.822   1.002   6.958
  796SOL    HW1 2930   0.862   1.001   6.866
  796SOL    HW2 2931   0.832   1.094   6.998
  797SOL     OW 2932   0.916   0.910   5.877
  797SOL    HW1 2933   0.979   0.948   5.809
  797SOL    HW2 2934   0.956   0.827   5.916
  798SOL     OW 2935   1.504   1.607   5.630
  798SOL    HW1 2936   1.412   1.644   5.637
  798SOL    HW2 2937   1.542   1.627   5.540
  799SOL     OW 2938   0.372   1.288   7.076
  799SOL    HW1 2939   0.359   1.381   7.042
  799SOL    HW2 2940   0.288   1.236   7.063
  800SOL     OW 2941   1.614   1.292   6.875
  800SOL    HW1 2942   1.674   1.295   6.955
  800SOL    HW2 2943   1.539   1.356   6.888
  801SOL     OW 2944   1.039   1.098   6.282
  801SOL    HW1 2945   0.969   1.051   6.336
  801SOL    HW2 2946   1.098   1.030   6.239
  802SOL     OW 2947   1.014   0.236   6.557
  802SOL    HW1 2948   1.006   0.200   6.464
  802SOL    HW2 2949   1.012   0.160   6.622
  803SOL     OW 2950   0.590   1.487   6.077
  803SOL    HW1 2951   0.632   1.429   6.007
  803SOL    HW2 2952   0.546   1.566   6.033
  804SOL     OW 2953   1.709   0.385   6.967
  804SOL    HW1 2954   1.782   0.454   6.971
  804SOL    HW2 2955   1.737   0.310   6.908
  805SOL     OW 2956   0.255   1.348   5.876
  805SOL    HW1 2957   0.159   1.349   5.849
  805SOL    HW2 2958   0.267   1.401   5.960
  806SOL     OW 2959   0.105   1.013   7.312
  806SOL    HW1 2960   0.028   0.980   7.366
  806SOL    HW2 2961   0.190   0.983   7.354
  807SOL     OW 2962   0.672   0.203   7.075
  807SOL    HW1 2963   0.762   0.187   7.035
  807SOL    HW2 2964   0.680   0.208   7.174
  808SOL     OW 2965   0.075   0.345   5.619
  808SOL    HW1 2966  -0.017   0.317   5.590
  808SOL    HW2 2967   0.106   0.422   5.563
  809SOL     OW 2968   1.440   0.856   6.984
  809SOL    HW1 2969   1.383   0.908   6.921
  809SOL    HW2 2970   1.536   0.868   6.960
  810SOL     OW 2971   0.072   0.166   5.904
  810SOL    HW1 2972   0.055   0.249   5.850
  810SOL    HW2 2973   0.162   0.129   5.882
  811SOL     OW 2974   1.183   1.335   5.705
  811SOL    HW1 2975   1.084   1.324   5.707
  811SOL    HW2 2976   1.217   1.350   5.798
  812SOL     OW 2977   0.613   0.842   7.017
  812SOL    HW1 2978   0.669   0.923   7.000
  812SOL    HW2 2979   0.672   0.762   7.020
  813SOL     OW 2980   1.493   1.767   6.545
  813SOL    HW1 2981   1.526   1.831   6.476
  813SOL    HW2 2982   1.559   1.761   6.620
  814SOL     OW 2983   0.716   0.565   7.294
  814SOL    HW1 2984   0.735   0.630   7.368
  814SOL    HW2 2985   0.776   0.485   7.303
  815SOL     OW 2986   1.450   1.220   7.219
  815SOL    HW1 2987   1.441   1.210   7.318
  815SOL    HW2 2988   1.546   1.213   7.193
  816SOL     OW 2989   0.390   1.741   7.146
  816SOL    HW1 2990   0.299   1.782   7.144
  816SOL    HW2 2991   0.383   1.647   7.178
  817SOL     OW 2992   1.674   0.883   6.840
  817SOL    HW1 2993   1.647   0.794   6.803
  817SOL    HW2 2994   1.675   0.951   6.767
  818SOL     OW 2995   1.225   0.325   6.035
  818SOL    HW1 2996   1.290   0.251   6.024
  818SOL    HW2 2997   1.245   0.375   6.119
  819SOL     OW 2998   0.594   0.745   6.238
  819SOL    HW1 2999   0.644   0.830   6.219
  819SOL    HW2 3000   0.506   0.747   6.190
  820SOL     OW 3001   1.777   0.342   7.228
  820SOL    HW1 3002   1.760   0.373   7.134
  820SOL    HW2 3003   1.693   0.305   7.266
  821SOL     OW 3004   1.730   0.934   7.103
  821SOL    HW1 3005   1.768   1.025   7.118
  821SOL    HW2 3006   1.722   0.917   7.004
  822SOL     OW 3007   0.859   1.374   5.602
  822SOL    HW1 3008   0.813   1.389   5.690
  822SOL    HW2 3009   0.903   1.459   5.572
  823SOL     OW 3010   0.661   1.790   6.539
  823SOL    HW1 3011   0.615   1.878   6.526
  823SOL    HW2 3012   0.760   1.802   6.532
  824SOL     OW 3013   0.859   0.956   6.447
  824SOL    HW1 3014   0.913   0.887   6.495
  824SOL    HW2 3015   0.827   1.025   6.513
  825SOL     OW 3016   1.083   0.984   5.673
  825SOL    HW1 3017   1.060   1.037   5.591
  825SOL    HW2 3018   1.164   0.928   5.654
  826SOL     OW 3019   1.861   1.569   6.437
  826SOL    HW1 3020   1.790   1.557   6.367
  826SOL    HW2 3021   1.862   1.490   6.497
  827SOL     OW 3022   0.221   1.314   7.430
  827SOL    HW1 3023   0.156   1.241   7.409
  827SOL    HW2 3024   0.225   1.328   7.528
  828SOL     OW 3025   0.079   1.240   6.239
  828SOL    HW1 3026   0.078   1.193   6.327
  828SOL    HW2 3027   0.161   1.212   6.188
  829SOL     OW 3028   0.672   1.391   7.210
  829SOL    HW1 3029   0.594   1.341   7.248
  829SOL    HW2 3030   0.669   1.486   7.241
  830SOL     OW 3031   1.824   0.192   6.813
  830SOL    HW1 3032   1.820   0.102   6.857
  830SOL    HW2 3033   1.827   0.181   6.714
  831SOL     OW 3034   0.428   0.424   6.106
  831SOL    HW1 3035   0.458   0.352   6.044
  831SOL    HW2 3036   0.389   0.384   6.189
  832SOL     OW 3037   1.705   1.487   6.690
  832SOL    HW1 3038   1.612   1.462   6.663
  832SOL    HW2 3039   1.731   1.437   6.772
  833SOL     OW 3040   0.317   0.547   6.866
  833SOL    HW1 3041   0.355   0.488   6.938
  833SOL    HW2 3042   0.357   0.521   6.778
  834SOL     OW 3043   0.812   1.586   6.273
  834SOL    HW1 3044   0.844   1.596   6.179
  834SOL    HW2 3045   0.733   1.524   6.275
  835SOL     OW 3046   1.424   0.214   6.698
  835SOL    HW1 3047   1.476   0.149   6.753
  835SOL    HW2 3048   1.375   0.277   6.759
  836SOL     OW 3049   1.001   0.034   6.740
  836SOL    HW1 3050   0.938  -0.038   6.709
  836SOL    HW2 3051   1.094  -0.002   6.740
  837SOL     OW 3052   0.770   1.330   5.887
  837SOL    HW1 3053   0.724   1.243   5.904
  837SOL    HW2 3054   0.861   1.327   5.928
  838SOL     OW 3055   0.618   1.567   6.870
  838SOL    HW1 3056   0.613   1.649   6.927
  838SOL    HW2 3057   0.707   1.564   6.825
  839SOL     OW 3058   1.352   0.052   5.754
  839SOL    HW1 3059   1.387   0.011   5.670
  839SOL    HW2 3060   1.262   0.014   5.774
  840SOL     OW 3061   1.300   0.453   6.277
  840SOL    HW1 3062   1.241   0.533   6.281
  840SOL    HW2 3063   1.315   0.418   6.370
  841SOL     OW 3064   1.593   0.221   6.468
  841SOL    HW1 3065   1.509   0.220   6.522
  841SOL    HW2 3066   1.595   0.304   6.412
  842SOL     OW 3067   0.039   1.077   5.886
  842SOL    HW1 3068   0.138   1.066   5.877
  842SOL    HW2 3069  -0.001   0.991   5.918
  843SOL     OW 3070   0.875   1.646   5.923
  843SOL    HW1 3071   0.798   1.611   5.869
  843SOL    HW2 3072   0.843   1.717   5.985
  844SOL     OW 3073   0.230   0.628   7.561
  844SOL    HW1 3074   0.137   0.626   7.598
  844SOL    HW2 3075   0.231   0.589   7.469
  845SOL     OW 3076   0.225   0.275   8.444
  845SOL    HW1 3077   0.260   0.258   8.536
  845SOL    HW2 3078   0.137   0.230   8.432
  846SOL     OW 3079   0.019   0.368   8.095
  846SOL    HW1 3080  -0.063   0.411   8.134
  846SOL    HW2 3081  -0.009   0.295   8.032
  847SOL     OW 3082   0.569   1.275   8.613
  847SOL    HW1 3083   0.476   1.268   8.576
  847SOL    HW2 3084   0.580   1.364   8.657
  848SOL     OW 3085   1.555   1.511   8.151
  848SOL    HW1 3086   1.498   1.495   8.232
  848SOL    HW2 3087   1.496   1.521   8.071
  849SOL     OW 3088   1.135   0.703   8.165
  849SOL    HW1 3089   1.192   0.781   8.140
  849SOL    HW2 3090   1.075   0.729   8.241
  850SOL     OW 3091   1.755   0.607   7.679
  850SOL    HW1 3092   1.743   0.594   7.580
  850SOL    HW2 3093   1.725   0.526   7.728
  851SOL     OW 3094   0.768   1.144   8.471
  851SOL    HW1 3095   0.690   1.161   8.531
  851SOL    HW2 3096   0.802   1.231   8.435
  852SOL     OW 3097   0.850   0.798   9.271
  852SOL    HW1 3098   0.846   0.874   9.336
  852SOL    HW2 3099   0.872   0.834   9.180
  853SOL     OW 3100   0.685   1.012   8.113
  853SOL    HW1 3101   0.754   0.996   8.183
  853SOL    HW2 3102   0.612   1.069   8.151
  854SOL     OW 3103   0.686   1.161   9.251
  854SOL    HW1 3104   0.746   1.240   9.265
  854SOL    HW2 3105   0.600   1.192   9.210
  855SOL     OW 3106   0.335   1.435   8.509
  855SOL    HW1 3107   0.257   1.404   8.456
  855SOL    HW2 3108   0.393   1.493   8.452
  856SOL     OW 3109   1.460   1.505   8.787
  856SOL    HW1 3110   1.484   1.599   8.813
  856SOL    HW2 3111   1.444   1.451   8.869
  857SOL     OW 3112   0.438   0.392   8.947
  857SOL    HW1 3113   0.520   0.336   8.956
  857SOL    HW2 3114   0.357   0.334   8.951
  858SOL     OW 3115   1.603   0.447   8.185
  858SOL    HW1 3116   1.529   0.493   8.135
  858SOL    HW2 3117   1.654   0.515   8.238
  859SOL     OW 3118   0.231   1.713   7.931
  859SOL    HW1 3119   0.265   1.790   7.985
  859SOL    HW2 3120   0.275   1.713   7.841
  860SOL     OW 3121   1.127   1.341   9.138
  860SOL    HW1 3122   1.174   1.341   9.226
  860SOL    HW2 3123   1.079   1.254   9.127
  861SOL     OW 3124   0.230   1.434   7.986
  861SOL    HW1 3125   0.204   1.530   7.986
  861SOL    HW2 3126   0.159   1.380   8.031
  862SOL     OW 3127   0.240   1.091   8.334
  862SOL    HW1 3128   0.254   1.007   8.386
  862SOL    HW2 3129   0.185   1.155   8.389
  863SOL     OW 3130   0.620   1.786   8.887
  863SOL    HW1 3131   0.528   1.769   8.922
  863SOL    HW2 3132   0.648   1.878   8.913
  864SOL     OW 3133   0.606   0.964   7.571
  864SOL    HW1 3134   0.613   1.048   7.517
  864SOL    HW2 3135   0.652   0.977   7.659
  865SOL     OW 3136   1.594   0.114   8.928
  865SOL    HW1 3137   1.576   0.181   8.856
  865SOL    HW2 3138   1.591   0.160   9.017
  866SOL     OW 3139   0.122   0.643   8.011
  866SOL    HW1 3140   0.077   0.555   8.028
  866SOL    HW2 3141   0.121   0.697   8.095
  867SOL     OW 3142   1.842   1.767   7.807
  867SOL    HW1 3143   1.896   1.738   7.887
  867SOL    HW2 3144   1.872   1.857   7.778
  868SOL     OW 3145   0.027   1.596   7.565
  868SOL    HW1 3146   0.008   1.500   7.586
  868SOL    HW2 3147  -0.006   1.654   7.640
  869SOL     OW 3148   1.689   0.922   8.060
  869SOL    HW1 3149   1.784   0.893   8.068
  869SOL    HW2 3150   1.681   0.987   7.985
  870SOL     OW 3151   1.641   1.108   7.880
  870SOL    HW1 3152   1.727   1.110   7.828
  870SOL    HW2 3153   1.655   1.155   7.968
  871SOL     OW 3154   0.113   0.737   9.045
  871SOL    HW1 3155   0.201   0.724   9.090
  871SOL    HW2 3156   0.100   0.834   9.023
  872SOL     OW 3157   0.613   1.365   8.174
  872SOL    HW1 3158   0.564   1.278   8.183
  872SOL    HW2 3159   0.590   1.408   8.087
  873SOL     OW 3160   1.293   1.228   8.871
  873SOL    HW1 3161   1.330   1.155   8.813
  873SOL    HW2 3162   1.345   1.233   8.956
  874SOL     OW 3163   0.809   0.004   7.950
  874SOL    HW1 3164   0.849   0.095   7.941
  874SOL    HW2 3165   0.709   0.012   7.956
  875SOL     OW 3166   0.197   0.976   8.712
  875SOL    HW1 3167   0.286   0.931   8.698
  875SOL    HW2 3168   0.124   0.911   8.693
  876SOL     OW 3169   1.525   0.999   7.638
  876SOL    HW1 3170   1.462   0.923   7.651
  876SOL    HW2 3171   1.573   1.017   7.724
  877SOL     OW 3172   1.187   1.792   9.064
  877SOL    HW1 3173   1.211   1.852   8.988
  877SOL    HW2 3174   1.194   1.697   9.034
  878SOL     OW 3175   0.317   0.251   9.249
  878SOL    HW1 3176   0.388   0.322   9.255
  878SOL    HW2 3177   0.229   0.290   9.277
  879SOL     OW 3178   1.466   1.417   8.401
  879SOL    HW1 3179   1.407   1.423   8.481
  879SOL    HW2 3180   1.451   1.329   8.355
  880SOL     OW 3181   1.667   1.714   8.020
  880SOL    HW1 3182   1.626   1.691   7.932
  880SOL    HW2 3183   1.649   1.640   8.085
  881SOL     OW 3184   0.598   0.729   7.718
  881SOL    HW1 3185   0.622   0.798   7.650
  881SOL    HW2 3186   0.520   0.762   7.772
  882SOL     OW 3187   1.281   0.345   8.392
  882SOL    HW1 3188   1.195   0.295   8.379
  882SOL    HW2 3189   1.343   0.291   8.448
  883SOL     OW 3190   1.576   1.662   7.755
  883SOL    HW1 3191   1.665   1.708   7.758
  883SOL    HW2 3192   1.555   1.638   7.660
  884SOL     OW 3193   0.807   0.605   8.913
  884SOL    HW1 3194   0.760   0.602   9.002
  884SOL    HW2 3195   0.756   0.550   8.847
  885SOL     OW 3196   1.394   0.469   9.122
  885SOL    HW1 3197   1.374   0.512   9.210
  885SOL    HW2 3198   1.472   0.407   9.131
  886SOL     OW 3199   0.973   0.890   9.020
  886SOL    HW1 3200   1.019   0.806   8.991
  886SOL    HW2 3201   0.917   0.924   8.945
  887SOL     OW 3202   0.991   0.410   8.690
  887SOL    HW1 3203   0.914   0.444   8.744
  887SOL    HW2 3204   0.957   0.359   8.611
  888SOL     OW 3205   1.041   0.701   7.877
  888SOL    HW1 3206   1.067   0.697   7.973
  888SOL    HW2 3207   0.956   0.650   7.863
  889SOL     OW 3208   0.076   0.811   8.237
  889SOL    HW1 3209   0.175   0.799   8.246
  889SOL    HW2 3210   0.052   0.906   8.258
  890SOL     OW 3211   0.130   1.821   9.019
  890SOL    HW1 3212   0.120   1.806   9.118
  890SOL    HW2 3213   0.044   1.857   8.983
  891SOL     OW 3214   0.865   0.348   7.643
  891SOL    HW1 3215   0.924   0.411   7.594
  891SOL    HW2 3216   0.884   0.254   7.614
  892SOL     OW 3217   1.719   0.585   9.279
  892SOL    HW1 3218   1.693   0.674   9.243
  892SOL    HW2 3219   1.717   0.517   9.206
  893SOL     OW 3220   1.362   1.144   7.993
  893SOL    HW1 3221   1.445   1.115   7.945
  893SOL    HW2 3222   1.313   1.211   7.937
  894SOL     OW 3223   0.550   0.196   8.333
  894SOL    HW1 3224   0.545   0.191   8.433
  894SOL    HW2 3225   0.552   0.292   8.304
  895SOL     OW 3226   1.008   1.456   7.925
  895SOL    HW1 3227   0.962   1.528   7.873
  895SOL    HW2 3228   1.004   1.476   8.023
  896SOL     OW 3229   0.351   1.801   8.301
  896SOL    HW1 3230   0.401   1.715   8.307
  896SOL    HW2 3231   0.416   1.878   8.298
  897SOL     OW 3232   1.795   1.066   8.321
  897SOL    HW1 3233   1.733   1.051   8.245
  897SOL    HW2 3234   1.743   1.077   8.406
  898SOL     OW 3235   1.227   1.550   8.954
  898SOL    HW1 3236   1.233   1.473   9.018
  898SOL    HW2 3237   1.175   1.524   8.874
  899SOL     OW 3238   0.321   0.943   7.690
  899SOL    HW1 3239   0.403   0.982   7.648
  899SOL    HW2 3240   0.294   0.861   7.641
  900SOL     OW 3241   1.458   0.735   8.176
  900SOL    HW1 3242   1.453   0.670   8.251
  900SOL    HW2 3243   1.538   0.794   8.189
  901SOL     OW 3244   0.461   1.266   9.175
  901SOL    HW1 3245   0.411   1.267   9.089
  901SOL    HW2 3246   0.398   1.248   9.251
  902SOL     OW 3247   1.111   1.776   7.685
  902SOL    HW1 3248   1.051   1.714   7.735
  902SOL    HW2 3249   1.142   1.732   7.600
  903SOL     OW 3250   0.202   0.285   8.946
  903SOL    HW1 3251   0.122   0.345   8.933
  903SOL    HW2 3252   0.192   0.236   9.032
  904SOL     OW 3253   1.632   1.377   7.529
  904SOL    HW1 3254   1.600   1.471   7.519
  904SOL    HW2 3255   1.556   1.314   7.517
  905SOL     OW 3256   0.464   1.743   7.771
  905SOL    HW1 3257   0.497   1.782   7.857
  905SOL    HW2 3258   0.540   1.736   7.706
  906SOL     OW 3259   1.400   0.107   7.874
  906SOL    HW1 3260   1.376   0.070   7.784
  906SOL    HW2 3261   1.499   0.123   7.878
  907SOL     OW 3262   0.249   1.785   8.689
  907SOL    HW1 3263   0.306   1.720   8.739
  907SOL    HW2 3264   0.233   1.752   8.596
  908SOL     OW 3265   0.940   1.698   8.352
  908SOL    HW1 3266   1.020   1.641   8.373
  908SOL    HW2 3267   0.891   1.658   8.275
  909SOL     OW 3268   0.382   0.700   7.928
  909SOL    HW1 3269   0.427   0.610   7.925
  909SOL    HW2 3270   0.288   0.689   7.961
  910SOL     OW 3271   1.547   0.222   9.177
  910SOL    HW1 3272   1.542   0.259   9.269
  910SOL    HW2 3273   1.475   0.153   9.165
  911SOL     OW 3274   0.614   0.122   7.565
  911SOL    HW1 3275   0.712   0.100   7.572
  911SOL    HW2 3276   0.583   0.105   7.472
  912SOL     OW 3277   0.781   0.264   9.197
  912SOL    HW1 3278   0.848   0.203   9.240
  912SOL    HW2 3279   0.708   0.283   9.262
  913SOL     OW 3280   0.888   1.514   8.643
  913SOL    HW1 3281   0.865   1.489   8.549
  913SOL    HW2 3282   0.949   1.445   8.682
  914SOL     OW 3283   1.351   0.590   8.881
  914SOL    HW1 3284   1.379   0.547   8.966
  914SOL    HW2 3285   1.376   0.686   8.882
  915SOL     OW 3286   0.803   1.402   8.372
  915SOL    HW1 3287   0.893   1.416   8.330
  915SOL    HW2 3288   0.732   1.404   8.301
  916SOL     OW 3289   0.922   0.503   8.347
  916SOL    HW1 3290   0.897   0.494   8.251
  916SOL    HW2 3291   0.970   0.421   8.378
  917SOL     OW 3292   0.539   0.064   7.960
  917SOL    HW1 3293   0.458   0.065   8.018
  917SOL    HW2 3294   0.542   0.147   7.905
  918SOL     OW 3295   1.434   1.188   7.489
  918SOL    HW1 3296   1.466   1.112   7.546
  918SOL    HW2 3297   1.342   1.215   7.519
  919SOL     OW 3298   0.297   0.035   7.619
  919SOL    HW1 3299   0.346   0.119   7.598
  919SOL    HW2 3300   0.359  -0.030   7.664
  920SOL     OW 3301   0.935   0.236   7.928
  920SOL    HW1 3302   0.887   0.277   7.850
  920SOL    HW2 3303   1.034   0.234   7.909
  921SOL     OW 3304   1.076   0.683   8.912
  921SOL    HW1 3305   0.996   0.622   8.915
  921SOL    HW2 3306   1.157   0.630   8.888
  922SOL     OW 3307   1.227   1.570   8.241
  922SOL    HW1 3308   1.248   1.644   8.176
  922SOL    HW2 3309   1.295   1.570   8.314
  923SOL     OW 3310   0.459   1.152   8.189
  923SOL    HW1 3311   0.388   1.125   8.254
  923SOL    HW2 3312   0.433   1.124   8.096
  924SOL     OW 3313   1.271   1.797   8.039
  924SOL    HW1 3314   1.315   1.861   7.975
  924SOL    HW2 3315   1.221   1.849   8.109
  925SOL     OW 3316   1.032   0.549   7.464
  925SOL    HW1 3317   0.991   0.631   7.425
  925SOL    HW2 3318   1.096   0.575   7.537
  926SOL     OW 3319   0.078   0.556   8.834
  926SOL    HW1 3320   0.170   0.555   8.793
  926SOL    HW2 3321   0.072   0.630   8.901
  927SOL     OW 3322   0.561   0.222   8.595
  927SOL    HW1 3323   0.599   0.138   8.632
  927SOL    HW2 3324   0.473   0.241   8.639
  928SOL     OW 3325   0.866   0.454   8.090
  928SOL    HW1 3326   0.834   0.526   8.028
  928SOL    HW2 3327   0.890   0.373   8.037
  929SOL     OW 3328   1.017   0.039   8.201
  929SOL    HW1 3329   0.945   0.044   8.132
  929SOL    HW2 3330   0.993  -0.030   8.270
  930SOL     OW 3331   1.429   1.173   8.315
  930SOL    HW1 3332   1.374   1.089   8.308
  930SOL    HW2 3333   1.455   1.202   8.223
  931SOL     OW 3334   1.466   0.590   8.440
  931SOL    HW1 3335   1.436   0.495   8.447
  931SOL    HW2 3336   1.539   0.606   8.506
  932SOL     OW 3337   1.857   0.833   7.825
  932SOL    HW1 3338   1.899   0.769   7.889
  932SOL    HW2 3339   1.819   0.782   7.747
  933SOL     OW 3340   0.488   1.385   7.622
  933SOL    HW1 3341   0.401   1.370   7.669
  933SOL    HW2 3342   0.471   1.411   7.527
  934SOL     OW 3343   1.664   1.280   8.105
  934SOL    HW1 3344   1.763   1.288   8.119
  934SOL    HW2 3345   1.619   1.364   8.136
  935SOL     OW 3346   1.390   0.575   7.526
  935SOL    HW1 3347   1.336   0.554   7.607
  935SOL    HW2 3348   1.481   0.534   7.535
  936SOL     OW 3349   0.527   0.256   7.776
  936SOL    HW1 3350   0.554   0.197   7.701
  936SOL    HW2 3351   0.527   0.351   7.745
  937SOL     OW 3352   1.754   1.223   9.036
  937SOL    HW1 3353   1.845   1.184   9.023
  937SOL    HW2 3354   1.762   1.319   9.060
  938SOL     OW 3355   1.064   1.347   8.788
  938SOL    HW1 3356   0.984   1.324   8.843
  938SOL    HW2 3357   1.147   1.321   8.837
  939SOL     OW 3358   1.592   1.629   9.073
  939SOL    HW1 3359   1.619   1.663   8.983
  939SOL    HW2 3360   1.671   1.591   9.119
  940SOL     OW 3361   1.111   1.195   8.548
  940SOL    HW1 3362   1.071   1.239   8.629
  940SOL    HW2 3363   1.070   1.232   8.465
  941SOL     OW 3364   1.638   1.099   8.527
  941SOL    HW1 3365   1.643   1.180   8.586
  941SOL    HW2 3366   1.552   1.101   8.476
  942SOL     OW 3367   0.915   0.089   8.850
  942SOL    HW1 3368   0.940   0.069   8.755
  942SOL    HW2 3369   0.987   0.145   8.892
  943SOL     OW 3370   0.980   1.116   9.167
  943SOL    HW1 3371   0.881   1.122   9.177
  943SOL    HW2 3372   1.003   1.036   9.111
  944SOL     OW 3373   0.705   1.050   7.816
  944SOL    HW1 3374   0.691   1.057   7.915
  944SOL    HW2 3375   0.789   0.999   7.798
  945SOL     OW 3376   0.410   0.813   8.699
  945SOL    HW1 3377   0.496   0.825   8.749
  945SOL    HW2 3378   0.368   0.726   8.726
  946SOL     OW 3379   1.274   0.386   8.710
  946SOL    HW1 3380   1.295   0.460   8.774
  946SOL    HW2 3381   1.185   0.403   8.667
  947SOL     OW 3382   0.064   1.564   8.779
  947SOL    HW1 3383   0.018   1.646   8.745
  947SOL    HW2 3384   0.162   1.583   8.788
  948SOL     OW 3385   0.367   1.100   7.949
  948SOL    HW1 3386   0.360   1.183   7.893
  948SOL    HW2 3387   0.371   1.020   7.889
  949SOL     OW 3388   0.566   0.537   8.313
  949SOL    HW1 3389   0.578   0.603   8.239
  949SOL    HW2 3390   0.612   0.571   8.396
  950SOL     OW 3391   1.252   1.348   7.836
  950SOL    HW1 3392   1.302   1.425   7.876
  950SOL    HW2 3393   1.157   1.350   7.868
  951SOL     OW 3394   1.272   1.445   8.590
  951SOL    HW1 3395   1.319   1.458   8.677
  951SOL    HW2 3396   1.206   1.371   8.599
  952SOL     OW 3397   1.582   0.639   7.920
  952SOL    HW1 3398   1.551   0.700   7.993
  952SOL    HW2 3399   1.632   0.691   7.851
  953SOL     OW 3400   0.354   1.510   8.777
  953SOL    HW1 3401   0.333   1.466   8.690
  953SOL    HW2 3402   0.451   1.536   8.780
  954SOL     OW 3403   0.402   0.751   9.046
  954SOL    HW1 3404   0.470   0.806   8.999
  954SOL    HW2 3405   0.442   0.663   9.073
  955SOL     OW 3406   1.587   0.779   9.118
  955SOL    HW1 3407   1.495   0.817   9.113
  955SOL    HW2 3408   1.647   0.826   9.053
  956SOL     OW 3409   1.013   0.105   9.218
  956SOL    HW1 3410   1.019   0.190   9.166
  956SOL    HW2 3411   1.045   0.029   9.161
  957SOL     OW 3412   0.504   0.050   9.188
  957SOL    HW1 3413   0.462  -0.007   9.118
  957SOL    HW2 3414   0.438   0.119   9.220
  958SOL     OW 3415   0.573   0.870   8.477
  958SOL    HW1 3416   0.617   0.959   8.468
  958SOL    HW2 3417   0.510   0.870   8.554
  959SOL     OW 3418   1.360   0.862   8.493
  959SOL    HW1 3419   1.285   0.862   8.427
  959SOL    HW2 3420   1.397   0.770   8.502
  960SOL     OW 3421   1.209   0.525   7.723
  960SOL    HW1 3422   1.222   0.441   7.777
  960SOL    HW2 3423   1.180   0.599   7.783
  961SOL     OW 3424   0.307   0.213   8.679
  961SOL    HW1 3425   0.284   0.250   8.769
  961SOL    HW2 3426   0.277   0.118   8.673
  962SOL     OW 3427   0.037   1.310   8.730
  962SOL    HW1 3428   0.090   1.261   8.798
  962SOL    HW2 3429   0.059   1.408   8.735
  963SOL     OW 3430   0.732   0.634   8.512
  963SOL    HW1 3431   0.791   0.608   8.436
  963SOL    HW2 3432   0.704   0.730   8.501
  964SOL     OW 3433   1.728   0.935   9.302
  964SOL    HW1 3434   1.682   0.928   9.213
  964SOL    HW2 3435   1.666   0.979   9.368
  965SOL     OW 3436   0.307   0.063   8.066
  965SOL    HW1 3437   0.296   0.157   8.099
  965SOL    HW2 3438   0.302   0.000   8.143
  966SOL     OW 3439   1.622   0.367   7.822
  966SOL    HW1 3440   1.624   0.291   7.886
  966SOL    HW2 3441   1.574   0.444   7.862
  967SOL     OW 3442   1.023   0.766   8.414
  967SOL    HW1 3443   1.038   0.787   8.510
  967SOL    HW2 3444   0.993   0.671   8.405
  968SOL     OW 3445   0.980   1.573   9.148
  968SOL    HW1 3446   0.960   1.617   9.060
  968SOL    HW2 3447   1.019   1.482   9.132
  969SOL     OW 3448   1.859   1.518   9.053
  969SOL    HW1 3449   1.873   1.545   8.958
  969SOL    HW2 3450   1.942   1.540   9.106
  970SOL     OW 3451   0.350   0.898   9.252
  970SOL    HW1 3452   0.426   0.942   9.300
  970SOL    HW2 3453   0.385   0.851   9.170
  971SOL     OW 3454   1.540   0.274   7.573
  971SOL    HW1 3455   1.479   0.199   7.596
  971SOL    HW2 3456   1.562   0.326   7.656
  972SOL     OW 3457   1.303   0.838   7.490
  972SOL    HW1 3458   1.337   0.745   7.505
  972SOL    HW2 3459   1.321   0.865   7.395
  973SOL     OW 3460   1.068   1.333   8.297
  973SOL    HW1 3461   1.075   1.249   8.242
  973SOL    HW2 3462   1.130   1.402   8.261
  974SOL     OW 3463   0.319   0.810   8.397
  974SOL    HW1 3464   0.412   0.846   8.402
  974SOL    HW2 3465   0.313   0.725   8.449
  975SOL     OW 3466   0.339   0.509   8.454
  975SOL    HW1 3467   0.287   0.426   8.437
  975SOL    HW2 3468   0.416   0.514   8.390
  976SOL     OW 3469   1.138   0.380   9.126
  976SOL    HW1 3470   1.093   0.443   9.190
  976SOL    HW2 3471   1.231   0.411   9.109
  977SOL     OW 3472   1.160   0.207   8.925
  977SOL    HW1 3473   1.160   0.271   9.002
  977SOL    HW2 3474   1.188   0.255   8.842
  978SOL     OW 3475   0.008   1.326   7.648
  978SOL    HW1 3476  -0.085   1.347   7.617
  978SOL    HW2 3477   0.018   1.227   7.661
  979SOL     OW 3478   0.088   1.801   8.375
  979SOL    HW1 3479   0.046   1.715   8.348
  979SOL    HW2 3480   0.182   1.804   8.341
  980SOL     OW 3481   0.504   1.568   8.358
  980SOL    HW1 3482   0.570   1.642   8.367
  980SOL    HW2 3483   0.548   1.489   8.316
  981SOL     OW 3484   1.002   0.796   8.686
  981SOL    HW1 3485   1.043   0.764   8.772
  981SOL    HW2 3486   0.906   0.769   8.683
  982SOL     OW 3487   0.040   0.544   8.562
  982SOL    HW1 3488   0.125   0.511   8.521
  982SOL    HW2 3489   0.053   0.559   8.660
  983SOL     OW 3490   0.189   0.520   9.170
  983SOL    HW1 3491   0.248   0.480   9.100
  983SOL    HW2 3492   0.131   0.591   9.129
  984SOL     OW 3493   1.369   0.950   9.108
  984SOL    HW1 3494   1.408   1.039   9.128
  984SOL    HW2 3495   1.379   0.930   9.011
  985SOL     OW 3496   0.815   0.572   7.773
  985SOL    HW1 3497   0.822   0.483   7.727
  985SOL    HW2 3498   0.721   0.606   7.765
  986SOL     OW 3499   1.657   0.604   8.654
  986SOL    HW1 3500   1.619   0.535   8.716
  986SOL    HW2 3501   1.739   0.568   8.610
  987SOL     OW 3502   0.252   1.564   9.192
  987SOL    HW1 3503   0.222   1.621   9.268
  987SOL    HW2 3504   0.245   1.467   9.218
  988SOL     OW 3505   0.671   0.464   8.717
  988SOL    HW1 3506   0.637   0.375   8.687
  988SOL    HW2 3507   0.697   0.518   8.637
  989SOL     OW 3508   0.930   1.678   8.913
  989SOL    HW1 3509   0.906   1.660   8.818
  989SOL    HW2 3510   0.960   1.772   8.923
  990SOL     OW 3511   0.473   0.500   7.639
  990SOL    HW1 3512   0.534   0.580   7.643
  990SOL    HW2 3513   0.378   0.531   7.646
  991SOL     OW 3514   0.159   1.137   8.914
  991SOL    HW1 3515   0.181   1.076   8.990
  991SOL    HW2 3516   0.169   1.088   8.828
  992SOL     OW 3517   1.347   1.059   8.682
  992SOL    HW1 3518   1.371   0.996   8.608
  992SOL    HW2 3519   1.257   1.099   8.664
  993SOL     OW 3520   1.302   0.855   7.757
  993SOL    HW1 3521   1.216   0.824   7.799
  993SOL    HW2 3522   1.298   0.841   7.658
  994SOL     OW 3523   1.759   1.747   8.602
  994SOL    HW1 3524   1.820   1.777   8.529
  994SOL    HW2 3525   1.721   1.658   8.580
  995SOL     OW 3526   1.252   1.731   8.576
  995SOL    HW1 3527   1.336   1.736   8.522
  995SOL    HW2 3528   1.229   1.635   8.594
  996SOL     OW 3529   0.083   1.258   8.470
  996SOL    HW1 3530   0.078   1.257   8.570
  996SOL    HW2 3531   0.000   1.217   8.432
  997SOL     OW 3532   0.688   1.662   9.164
  997SOL    HW1 3533   0.632   1.743   9.173
  997SOL    HW2 3534   0.740   1.666   9.078
  998SOL     OW 3535   1.726   0.135   7.971
  998SOL    HW1 3536   1.799   0.118   7.904
  998SOL    HW2 3537   1.695   0.048   8.009
  999SOL     OW 3538   1.388   1.573   7.925
  999SOL    HW1 3539   1.455   1.585   7.851
  999SOL    HW2 3540   1.348   1.662   7.948
 1000SOL     OW 3541   0.130   1.794   9.299
 1000SOL    HW1 3542   0.089   1.720   9.352
 1000SOL    HW2 3543   0.194   1.845   9.357
 1001SOL     OW 3544   1.280   0.927   8.120
 1001SOL    HW1 3545   1.340   0.846   8.122
 1001SOL    HW2 3546   1.320   0.996   8.060
 1002SOL     OW 3547   0.830   1.273   8.870
 1002SOL    HW1 3548   0.825   1.306   8.965
 1002SOL    HW2 3549   0.744   1.292   8.824
 1003SOL     OW 3550   0.672   1.616   7.602
 1003SOL    HW1 3551   0.681   1.626   7.503
 1003SOL    HW2 3552   0.632   1.527   7.623
 1004SOL     OW 3553   1.650   1.720   8.842
 1004SOL    HW1 3554   1.703   1.730   8.758
 1004SOL    HW2 3555   1.623   1.810   8.876
 1005SOL     OW 3556   1.841   0.175   8.411
 1005SOL    HW1 3557   1.880   0.090   8.375
 1005SOL    HW2 3558   1.743   0.177   8.392
 1006SOL     OW 3559   0.263   0.326   8.168
 1006SOL    HW1 3560   0.184   0.377   8.134
 1006SOL    HW2 3561   0.254   0.311   8.266
 1007SOL     OW 3562   1.194   1.612   7.479
 1007SOL    HW1 3563   1.200   1.519   7.516
 1007SOL    HW2 3564   1.135   1.612   7.399
 1008SOL     OW 3565   0.822   1.002   8.820
 1008SOL    HW1 3566   0.862   1.001   8.728
 1008SOL    HW2 3567   0.832   1.094   8.860
 1009SOL     OW 3568   0.916   0.910   7.739
 1009SOL    HW1 3569   0.979   0.948   7.671
 1009SOL    HW2 3570   0.956   0.827   7.778
 1010SOL     OW 3571   1.504   1.607   7.492
 1010SOL    HW1 3572   1.412   1.644   7.499
 1010SOL    HW2 3573   1.542   1.627   7.402
 1011SOL     OW 3574   0.372   1.288   8.938
 1011SOL    HW1 3575   0.359   1.381   8.904
 1011SOL    HW2 3576   0.288   1.236   8.925
 1012SOL     OW 3577   1.614   1.292   8.737
 1012SOL    HW1 3578   1.674   1.295   8.817
 1012SOL    HW2 3579   1.539   1.356   8.750
 1013SOL     OW 3580   1.039   1.098   8.144
 1013SOL    HW1 3581   0.969   1.051   8.198
 1013SOL    HW2 3582   1.098   1.030   8.101
 1014SOL     OW 3583   1.014   0.236   8.419
 1014SOL    HW1 3584   1.006   0.200   8.326
 1014SOL    HW2 3585   1.012   0.160   8.484
 1015SOL     OW 3586   0.590   1.487   7.939
 1015SOL    HW1 3587   0.632   1.429   7.869
 1015SOL    HW2 3588   0.546   1.566   7.895
 1016SOL     OW 3589   1.709   0.385   8.829
 1016SOL    HW1 3590   1.782   0.454   8.833
 1016SOL    HW2 3591   1.737   0.310   8.770
 1017SOL     OW 3592   0.255   1.348   7.738
 1017SOL    HW1 3593   0.159   1.349   7.711
 1017SOL    HW2 3594   0.267   1.401   7.822
 1018SOL     OW 3595   0.105   1.013   9.174
 1018SOL    HW1 3596   0.028   0.980   9.228
 1018SOL    HW2 3597   0.190   0.983   9.216
 1019SOL     OW 3598   0.672   0.203   8.937
 1019SOL    HW1 3599   0.762   0.187   8.897
 1019SOL    HW2 3600   0.680   0.208   9.036
 1020SOL     OW 3601   0.075   0.345   7.481
 1020SOL    HW1 3602  -0.017   0.317   7.452
 1020SOL    HW2 3603   0.106   0.422   7.425
 1021SOL     OW 3604   1.440   0.856   8.846
 1021SOL    HW1 3605   1.383   0.908   8.783
 1021SOL    HW2 3606   1.536   0.868   8.822
 1022SOL     OW 3607   0.072   0.166   7.766
 1022SOL    HW1 3608   0.055   0.249   7.712
 1022SOL    HW2 3609   0.162   0.129   7.744
 1023SOL     OW 3610   1.183   1.335   7.567
 1023SOL    HW1 3611   1.084   1.324   7.569
 1023SOL    HW2 3612   1.217   1.350   7.660
 1024SOL     OW 3613   0.613   0.842   8.879
 1024SOL    HW1 3614   0.669   0.923   8.862
 1024SOL    HW2 3615   0.672   0.762   8.882
 1025SOL     OW 3616   1.493   1.767   8.407
 1025SOL    HW1 3617   1.526   1.831   8.338
 1025SOL    HW2 3618   1.559   1.761   8.482
 1026SOL     OW 3619   0.716   0.565   9.156
 1026SOL    HW1 3620   0.735   0.630   9.230
 1026SOL    HW2 3621   0.776   0.485   9.165
 1027SOL     OW 3622   1.450   1.220   9.081
 1027SOL    HW1 3623   1.441   1.210   9.180
 1027SOL    HW2 3624   1.546   1.213   9.055
 1028SOL     OW 3625   0.390   1.741   9.008
 1028SOL    HW1 3626   0.299   1.782   9.006
 1028SOL    HW2 3627   0.383   1.647   9.040
 1029SOL     OW 3628   1.674   0.883   8.702
 1029SOL    HW1 3629   1.647   0.794   8.665
 1029SOL    HW2 3630   1.675   0.951   8.629
 1030SOL     OW 3631   1.225   0.325   7.897
 1030SOL    HW1 3632   1.290   0.251   7.886
 1030SOL    HW2 3633   1.245   0.375   7.981
 1031SOL     OW 3634   0.594   0.745   8.100
 1031SOL    HW1 3635   0.644   0.830   8.081
 1031SOL    HW2 3636   0.506   0.747   8.052
 1032SOL     OW 3637   1.777   0.342   9.090
 1032SOL    HW1 3638   1.760   0.373   8.996
 1032SOL    HW2 3639   1.693   0.305   9.128
 1033SOL     OW 3640   1.730   0.934   8.965
 1033SOL    HW1 3641   1.768   1.025   8.980
 1033SOL    HW2 3642   1.722   0.917   8.866
 1034SOL     OW 3643   0.859   1.374   7.464
 1034SOL    HW1 3644   0.813   1.389   7.552
 1034SOL    HW2 3645   0.903   1.459   7.434
 1035SOL     OW 3646   0.661   1.790   8.401
 1035SOL    HW1 3647   0.615   1.878   8.388
 1035SOL    HW2 3648   0.760   1.802   8.394
 1036SOL     OW 3649   0.859   0.956   8.309
 1036SOL    HW1 3650   0.913   0.887   8.357
 1036SOL    HW2 3651   0.827   1.025   8.375
 1037SOL     OW 3652   1.083   0.984   7.535
 1037SOL    HW1 3653   1.060   1.037   7.453
 1037SOL    HW2 3654   1.164   0.928   7.516
 1038SOL     OW 3655   1.861   1.569   8.299
 1038SOL    HW1 3656   1.790   1.557   8.229
 1038SOL    HW2 3657   1.862   1.490   8.359
 1039SOL     OW 3658   0.221   1.314   9.292
 1039SOL    HW1 3659   0.156   1.241   9.271
 1039SOL    HW2 3660   0.225   1.328   9.390
 1040SOL     OW 3661   0.079   1.240   8.101
 1040SOL    HW1 3662   0.078   1.193   8.189
 1040SOL    HW2 3663   0.161   1.212   8.050
 1041SOL     OW 3664   0.672   1.391   9.072
 1041SOL    HW1 3665   0.594   1.341   9.110
 1041SOL    HW2 3666   0.669   1.486   9.103
 1042SOL     OW 3667   1.824   0.192   8.675
 1042SOL    HW1 3668   1.820   0.102   8.719
 1042SOL    HW2 3669   1.827   0.181   8.576
 1043SOL     OW 3670   0.428   0.424   7.968
 1043SOL    HW1 3671   0.458   0.352   7.906
 1043SOL    HW2 3672   0.389   0.384   8.051
 1044SOL     OW 3673   1.705   1.487   8.552
 1044SOL    HW1 3674   1.612   1.462   8.525
 1044SOL    HW2 3675   1.731   1.437   8.634
 1045SOL     OW 3676   0.317   0.547   8.728
 1045SOL    HW1 3677   0.355   0.488   8.800
 1045SOL    HW2 3678   0.357   0.521   8.640
 1046SOL     OW 3679   0.812   1.586   8.135
 1046SOL    HW1 3680   0.844   1.596   8.041
 1046SOL    HW2 3681   0.733   1.524   8.137
 1047SOL     OW 3682   1.424   0.214   8.560
 1047SOL    HW1 3683   1.476   0.149   8.615
 1047SOL    HW2 3684   1.375   0.277   8.621
 1048SOL     OW 3685   1.001   0.034   8.602
 1048SOL    HW1 3686   0.938  -0.038   8.571
 1048SOL    HW2 3687   1.094  -0.002   8.602
 1049SOL     OW 3688   0.770   1.330   7.749
 1049SOL    HW1 3689   0.724   1.243   7.766
 1049SOL    HW2 3690   0.861   1.327   7.790
 1050SOL     OW 3691   0.618   1.567   8.732
 1050SOL    HW1 3692   0.613   1.649   8.789
 1050SOL    HW2 3693   0.707   1.564   8.687
 1051SOL     OW 3694   1.352   0.052   7.616
 1051SOL    HW1 3695   1.387   0.011   7.532
 1051SOL    HW2 3696   1.262   0.014   7.636
 1052SOL     OW 3697   1.300   0.453   8.139
 1052SOL    HW1 3698   1.241   0.533   8.143
 1052SOL    HW2 3699   1.315   0.418   8.232
 1053SOL     OW 3700   1.593   0.221   8.330
 1053SOL    HW1 3701   1.509   0.220   8.384
 1053SOL    HW2 3702   1.595   0.304   8.274
 1054SOL     OW 3703   0.039   1.077   7.748
 1054SOL    HW1 3704   0.138   1.066   7.739
 1054SOL    HW2 3705  -0.001   0.991   7.780
 1055SOL     OW 3706   0.875   1.646   7.785
 1055SOL    HW1 3707   0.798   1.611   7.731
 1055SOL    HW2 3708   0.843   1.717   7.847
 1056SOL     OW 3709   0.230   0.628   9.423
 1056SOL    HW1 3710   0.137   0.626   9.460
 1056SOL    HW2 3711   0.231   0.589   9.331
 1057SOL     OW 3712   0.225   0.275  10.306
 1057SOL    HW1 3713   0.260   0.258  10.398
 1057SOL    HW2 3714   0.137   0.230  10.294
 1058SOL     OW 3715   0.019   0.368   9.957
 1058SOL    HW1 3716  -0.063   0.411   9.996
 1058SOL    HW2 3717  -0.009   0.295   9.894
 1059SOL     OW 3718   0.569   1.275  10.475
 1059SOL    HW1 3719   0.476   1.268  10.438
 1059SOL    HW2 3720   0.580   1.364  10.519
 1060SOL     OW 3721   1.555   1.511  10.013
 1060SOL    HW1 3722   1.498   1.495  10.094
 1060SOL    HW2 3723   1.496   1.521   9.933
 1061SOL     OW 3724   1.135   0.703  10.027
 1061SOL    HW1 3725   1.192   0.781  10.002
 1061SOL    HW2 3726   1.075   0.729  10.103
 1062SOL     OW 3727   1.755   0.607   9.541
 1062SOL    HW1 3728   1.743   0.594   9.442
 1062SOL    HW2 3729   1.725   0.526   9.590
 1063SOL     OW 3730   0.768   1.144  10.333
 1063SOL    HW1 3731   0.690   1.161  10.393
 1063SOL    HW2 3732   0.802   1.231  10.297
 1064SOL     OW 3733   0.850   0.798  11.133
 1064SOL    HW1 3734   0.846   0.874  11.198
 1064SOL    HW2 3735   0.872   0.834  11.042
 1065SOL     OW 3736   0.685   1.012   9.975
 1065SOL    HW1 3737   0.754   0.996  10.045
 1065SOL    HW2 3738   0.612   1.069  10.013
 1066SOL     OW 3739   0.335   1.435  10.371
 1066SOL    HW1 3740   0.257   1.404  10.318
 1066SOL    HW2 3741   0.393   1.493  10.314
 1067SOL     OW 3742   1.460   1.505  10.649
 1067SOL    HW1 3743   1.484   1.599  10.675
 1067SOL    HW2 3744   1.444   1.451  10.731
 1068SOL     OW 3745   0.438   0.392  10.809
 1068SOL    HW1 3746   0.520   0.336  10.818
 1068SOL    HW2 3747   0.357   0.334  10.813
 1069SOL     OW 3748   1.603   0.447  10.047
 1069SOL    HW1 3749   1.529   0.493   9.997
 1069SOL    HW2 3750   1.654   0.515  10.100
 1070SOL     OW 3751   0.231   1.713   9.793
 1070SOL    HW1 3752   0.265   1.790   9.847
 1070SOL    HW2 3753   0.275   1.713   9.703
 1071SOL     OW 3754   0.230   1.434   9.848
 1071SOL    HW1 3755   0.204   1.530   9.848
 1071SOL    HW2 3756   0.159   1.380   9.893
 1072SOL     OW 3757   0.240   1.091  10.196
 1072SOL    HW1 3758   0.254   1.007  10.248
 1072SOL    HW2 3759   0.185   1.155  10.251
 1073SOL     OW 3760   0.620   1.786  10.749
 1073SOL    HW1 3761   0.528   1.769  10.784
 1073SOL    HW2 3762   0.648   1.878  10.775
 1074SOL     OW 3763   0.606   0.964   9.433
 1074SOL    HW1 3764   0.613   1.048   9.379
 1074SOL    HW2 3765   0.652   0.977   9.521
 1075SOL     OW 3766   1.594   0.114  10.790
 1075SOL    HW1 3767   1.576   0.181  10.718
 1075SOL    HW2 3768   1.591   0.160  10.879
 1076SOL     OW 3769   0.122   0.643   9.873
 1076SOL    HW1 3770   0.077   0.555   9.890
 1076SOL    HW2 3771   0.121   0.697   9.957
 1077SOL     OW 3772   1.842   1.767   9.669
 1077SOL    HW1 3773   1.896   1.738   9.749
 1077SOL    HW2 3774   1.872   1.857   9.640
 1078SOL     OW 3775   0.027   1.596   9.427
 1078SOL    HW1 3776   0.008   1.500   9.448
 1078SOL    HW2 3777  -0.006   1.654   9.502
 1079SOL     OW 3778   1.689   0.922   9.922
 1079SOL    HW1 3779   1.784   0.893   9.930
 1079SOL    HW2 3780   1.681   0.987   9.847
 1080SOL     OW 3781   1.641   1.108   9.742
 1080SOL    HW1 3782   1.727   1.110   9.690
 1080SOL    HW2 3783   1.655   1.155   9.830
 1081SOL     OW 3784   0.113   0.737  10.907
 1081SOL    HW1 3785   0.201   0.724  10.952
 1081SOL    HW2 3786   0.100   0.834  10.885
 1082SOL     OW 3787   0.613   1.365  10.036
 1082SOL    HW1 3788   0.564   1.278  10.045
 1082SOL    HW2 3789   0.590   1.408   9.949
 1083SOL     OW 3790   1.293   1.228  10.733
 1083SOL    HW1 3791   1.330   1.155  10.675
 1083SOL    HW2 3792   1.345   1.233  10.818
 1084SOL     OW 3793   0.809   0.004   9.812
 1084SOL    HW1 3794   0.849   0.095   9.803
 1084SOL    HW2 3795   0.709   0.012   9.818
 1085SOL     OW 3796   0.197   0.976  10.574
 1085SOL    HW1 3797   0.286   0.931  10.560
 1085SOL    HW2 3798   0.124   0.911  10.555
 1086SOL     OW 3799   1.525   0.999   9.500
 1086SOL    HW1 3800   1.462   0.923   9.513
 1086SOL    HW2 3801   1.573   1.017   9.586
 1087SOL     OW 3802   1.187   1.792  10.926
 1087SOL    HW1 3803   1.211   1.852  10.850
 1087SOL    HW2 3804   1.194   1.697  10.896
 1088SOL     OW 3805   0.317   0.251  11.111
 1088SOL    HW1 3806   0.388   0.322  11.117
 1088SOL    HW2 3807   0.229   0.290  11.139
 1089SOL     OW 3808   1.466   1.417  10.263
 1089SOL    HW1 3809   1.407   1.423  10.343
 1089SOL    HW2 3810   1.451   1.329  10.217
 1090SOL     OW 3811   1.667   1.714   9.882
 1090SOL    HW1 3812   1.626   1.691   9.794
 1090SOL    HW2 3813   1.649   1.640   9.947
 1091SOL     OW 3814   0.598   0.729   9.580
 1091SOL    HW1 3815   0.622   0.798   9.512
 1091SOL    HW2 3816   0.520   0.762   9.634
 1092SOL     OW 3817   1.281   0.345  10.254
 1092SOL    HW1 3818   1.195   0.295  10.241
 1092SOL    HW2 3819   1.343   0.291  10.310
 1093SOL     OW 3820   1.576   1.662   9.617
 1093SOL    HW1 3821   1.665   1.708   9.620
 1093SOL    HW2 3822   1.555   1.638   9.522
 1094SOL     OW 3823   0.807   0.605  10.775
 1094SOL    HW1 3824   0.760   0.602  10.864
 1094SOL    HW2 3825   0.756   0.550  10.709
 1095SOL     OW 3826   0.973   0.890  10.882
 1095SOL    HW1 3827   1.019   0.806  10.853
 1095SOL    HW2 3828   0.917   0.924  10.807
 1096SOL     OW 3829   0.991   0.410  10.552
 1096SOL    HW1 3830   0.914   0.444  10.606
 1096SOL    HW2 3831   0.957   0.359  10.473
 1097SOL     OW 3832   1.041   0.701   9.739
 1097SOL    HW1 3833   1.067   0.697   9.835
 1097SOL    HW2 3834   0.956   0.650   9.725
 1098SOL     OW 3835   0.076   0.811  10.099
 1098SOL    HW1 3836   0.175   0.799  10.108
 1098SOL    HW2 3837   0.052   0.906  10.120
 1099SOL     OW 3838   0.130   1.821  10.881
 1099SOL    HW1 3839   0.120   1.806  10.980
 1099SOL    HW2 3840   0.044   1.857  10.845
 1100SOL     OW 3841   0.865   0.348   9.505
 1100SOL    HW1 3842   0.924   0.411   9.456
 1100SOL    HW2 3843   0.884   0.254   9.476
 1101SOL     OW 3844   1.362   1.144   9.855
 1101SOL    HW1 3845   1.445   1.115   9.807
 1101SOL    HW2 3846   1.313   1.211   9.799
 1102SOL     OW 3847   0.550   0.196  10.195
 1102SOL    HW1 3848   0.545   0.191  10.295
 1102SOL    HW2 3849   0.552   0.292  10.166
 1103SOL     OW 3850   1.008   1.456   9.787
 1103SOL    HW1 3851   0.962   1.528   9.735
 1103SOL    HW2 3852   1.004   1.476   9.885
 1104SOL     OW 3853   0.351   1.801  10.163
 1104SOL    HW1 3854   0.401   1.715  10.169
 1104SOL    HW2 3855   0.416   1.878  10.160
 1105SOL     OW 3856   1.795   1.066  10.183
 1105SOL    HW1 3857   1.733   1.051  10.107
 1105SOL    HW2 3858   1.743   1.077  10.268
 1106SOL     OW 3859   1.227   1.550  10.816
 1106SOL    HW1 3860   1.233   1.473  10.880
 1106SOL    HW2 3861   1.175   1.524  10.736
 1107SOL     OW 3862   0.321   0.943   9.552
 1107SOL    HW1 3863   0.403   0.982   9.510
 1107SOL    HW2 3864   0.294   0.861   9.503
 1108SOL     OW 3865   1.458   0.735  10.038
 1108SOL    HW1 3866   1.453   0.670  10.113
 1108SOL    HW2 3867   1.538   0.794  10.051
 1109SOL     OW 3868   0.461   1.266  11.037
 1109SOL    HW1 3869   0.411   1.267  10.951
 1109SOL    HW2 3870   0.398   1.248  11.113
 1110SOL     OW 3871   1.111   1.776   9.547
 1110SOL    HW1 3872   1.051   1.714   9.597
 1110SOL    HW2 3873   1.142   1.732   9.462
 1111SOL     OW 3874   0.202   0.285  10.808
 1111SOL    HW1 3875   0.122   0.345  10.795
 1111SOL    HW2 3876   0.192   0.236  10.894
 1112SOL     OW 3877   1.632   1.377   9.391
 1112SOL    HW1 3878   1.600   1.471   9.381
 1112SOL    HW2 3879   1.556   1.314   9.379
 1113SOL     OW 3880   0.464   1.743   9.633
 1113SOL    HW1 3881   0.497   1.782   9.719
 1113SOL    HW2 3882   0.540   1.736   9.568
 1114SOL     OW 3883   1.400   0.107   9.736
 1114SOL    HW1 3884   1.376   0.070   9.646
 1114SOL    HW2 3885   1.499   0.123   9.740
 1115SOL     OW 3886   0.249   1.785  10.551
 1115SOL    HW1 3887   0.306   1.720  10.601
 1115SOL    HW2 3888   0.233   1.752  10.458
 1116SOL     OW 3889   0.940   1.698  10.214
 1116SOL    HW1 3890   1.020   1.641  10.235
 1116SOL    HW2 3891   0.891   1.658  10.137
 1117SOL     OW 3892   0.382   0.700   9.790
 1117SOL    HW1 3893   0.427   0.610   9.787
 1117SOL    HW2 3894   0.288   0.689   9.823
 1118SOL     OW 3895   0.614   0.122   9.427
 1118SOL    HW1 3896   0.712   0.100   9.434
 1118SOL    HW2 3897   0.583   0.105   9.334
 1119SOL     OW 3898   0.781   0.264  11.059
 1119SOL    HW1 3899   0.848   0.203  11.102
 1119SOL    HW2 3900   0.708   0.283  11.124
 1120SOL     OW 3901   0.888   1.514  10.505
 1120SOL    HW1 3902   0.865   1.489  10.411
 1120SOL    HW2 3903   0.949   1.445  10.544
 1121SOL     OW 3904   1.351   0.590  10.743
 1121SOL    HW1 3905   1.379   0.547  10.828
 1121SOL    HW2 3906   1.376   0.686  10.744
 1122SOL     OW 3907   0.803   1.402  10.234
 1122SOL    HW1 3908   0.893   1.416  10.192
 1122SOL    HW2 3909   0.732   1.404  10.163
 1123SOL     OW 3910   0.922   0.503  10.209
 1123SOL    HW1 3911   0.897   0.494  10.113
 1123SOL    HW2 3912   0.970   0.421  10.240
 1124SOL     OW 3913   0.539   0.064   9.822
 1124SOL    HW1 3914   0.458   0.065   9.880
 1124SOL    HW2 3915   0.542   0.147   9.767
 1125SOL     OW 3916   1.434   1.188   9.351
 1125SOL    HW1 3917   1.466   1.112   9.408
 1125SOL    HW2 3918   1.342   1.215   9.381
 1126SOL     OW 3919   0.297   0.035   9.481
 1126SOL    HW1 3920   0.346   0.119   9.460
 1126SOL    HW2 3921   0.359  -0.030   9.526
 1127SOL     OW 3922   0.935   0.236   9.790
 1127SOL    HW1 3923   0.887   0.277   9.712
 1127SOL    HW2 3924   1.034   0.234   9.771
 1128SOL     OW 3925   1.076   0.683  10.774
 1128SOL    HW1 3926   0.996   0.622  10.777
 1128SOL    HW2 3927   1.157   0.630  10.750
 1129SOL     OW 3928   1.227   1.570  10.103
 1129SOL    HW1 3929   1.248   1.644  10.038
 1129SOL    HW2 3930   1.295   1.570  10.176
 1130SOL     OW 3931   0.459   1.152  10.051
 1130SOL    HW1 3932   0.388   1.125  10.116
 1130SOL    HW2 3933   0.433   1.124   9.958
 1131SOL     OW 3934   1.271   1.797   9.901
 1131SOL    HW1 3935   1.315   1.861   9.837
 1131SOL    HW2 3936   1.221   1.849   9.971
 1132SOL     OW 3937   1.032   0.549   9.326
 1132SOL    HW1 3938   0.991   0.631   9.287
 1132SOL    HW2 3939   1.096   0.575   9.399
 1133SOL     OW 3940   0.078   0.556  10.696
 1133SOL    HW1 3941   0.170   0.555  10.655
 1133SOL    HW2 3942   0.072   0.630  10.763
 1134SOL     OW 3943   0.561   0.222  10.457
 1134SOL    HW1 3944   0.599   0.138  10.494
 1134SOL    HW2 3945   0.473   0.241  10.501
 1135SOL     OW 3946   0.866   0.454   9.952
 1135SOL    HW1 3947   0.834   0.526   9.890
 1135SOL    HW2 3948   0.890   0.373   9.899
 1136SOL     OW 3949   1.017   0.039  10.063
 1136SOL    HW1 3950   0.945   0.044   9.994
 1136SOL    HW2 3951   0.993  -0.030  10.132
 1137SOL     OW 3952   1.429   1.173  10.177
 1137SOL    HW1 3953   1.374   1.089  10.170
 1137SOL    HW2 3954   1.455   1.202  10.085
 1138SOL     OW 3955   1.466   0.590  10.302
 1138SOL    HW1 3956   1.436   0.495  10.309
 1138SOL    HW2 3957   1.539   0.606  10.368
 1139SOL     OW 3958   1.857   0.833   9.687
 1139SOL    HW1 3959   1.899   0.769   9.751
 1139SOL    HW2 3960   1.819   0.782   9.609
 1140SOL     OW 3961   0.488   1.385   9.484
 1140SOL    HW1 3962   0.401   1.370   9.531
 1140SOL    HW2 3963   0.471   1.411   9.389
 1141SOL     OW 3964   1.664   1.280   9.967
 1141SOL    HW1 3965   1.763   1.288   9.981
 1141SOL    HW2 3966   1.619   1.364   9.998
 1142SOL     OW 3967   1.390   0.575   9.388
 1142SOL    HW1 3968   1.336   0.554   9.469
 1142SOL    HW2 3969   1.481   0.534   9.397
 1143SOL     OW 3970   0.527   0.256   9.638
 1143SOL    HW1 3971   0.554   0.197   9.563
 1143SOL    HW2 3972   0.527   0.351   9.607
 1144SOL     OW 3973   1.754   1.223  10.898
 1144SOL    HW1 3974   1.845   1.184  10.885
 1144SOL    HW2 3975   1.762   1.319  10.922
 1145SOL     OW 3976   1.064   1.347  10.650
 1145SOL    HW1 3977   0.984   1.324  10.705
 1145SOL    HW2 3978   1.147   1.321  10.699
 1146SOL     OW 3979   1.111   1.195  10.410
 1146SOL    HW1 3980   1.071   1.239  10.491
 1146SOL    HW2 3981   1.070   1.232  10.327
 1147SOL     OW 3982   1.638   1.099  10.389
 1147SOL    HW1 3983   1.643   1.180  10.448
 1147SOL    HW2 3984   1.552   1.101  10.338
 1148SOL     OW 3985   0.915   0.089  10.712
 1148SOL    HW1 3986   0.940   0.069  10.617
 1148SOL    HW2 3987   0.987   0.145  10.754
 1149SOL     OW 3988   0.705   1.050   9.678
 1149SOL    HW1 3989   0.691   1.057   9.777
 1149SOL    HW2 3990   0.789   0.999   9.660
 1150SOL     OW 3991   0.410   0.813  10.561
 1150SOL    HW1 3992   0.496   0.825  10.611
 1150SOL    HW2 3993   0.368   0.726  10.588
 1151SOL     OW 3994   1.274   0.386  10.572
 1151SOL    HW1 3995   1.295   0.460  10.636
 1151SOL    HW2 3996   1.185   0.403  10.529
 1152SOL     OW 3997   0.064   1.564  10.641
 1152SOL    HW1 3998   0.018   1.646  10.607
 1152SOL    HW2 3999   0.162   1.583  10.650
 1153SOL     OW 4000   0.367   1.100   9.811
 1153SOL    HW1 4001   0.360   1.183   9.755
 1153SOL    HW2 4002   0.371   1.020   9.751
 1154SOL     OW 4003   0.566   0.537  10.175
 1154SOL    HW1 4004   0.578   0.603  10.101
 1154SOL    HW2 4005   0.612   0.571  10.258
 1155SOL     OW 4006   1.252   1.348   9.698
 1155SOL    HW1 4007   1.302   1.425   9.738
 1155SOL    HW2 4008   1.157   1.350   9.730
 1156SOL     OW 4009   1.272   1.445  10.452
 1156SOL    HW1 4010   1.319   1.458  10.539
 1156SOL    HW2 4011   1.206   1.371  10.461
 1157SOL     OW 4012   1.582   0.639   9.782
 1157SOL    HW1 4013   1.551   0.700   9.855
 1157SOL    HW2 4014   1.632   0.691   9.713
 1158SOL     OW 4015   0.354   1.510  10.639
 1158SOL    HW1 4016   0.333   1.466  10.552
 1158SOL    HW2 4017   0.451   1.536  10.642
 1159SOL     OW 4018   0.402   0.751  10.908
 1159SOL    HW1 4019   0.470   0.806  10.861
 1159SOL    HW2 4020   0.442   0.663  10.935
 1160SOL     OW 4021   1.587   0.779  10.980
 1160SOL    HW1 4022   1.495   0.817  10.975
 1160SOL    HW2 4023   1.647   0.826  10.915
 1161SOL     OW 4024   0.573   0.870  10.339
 1161SOL    HW1 4025   0.617   0.959  10.330
 1161SOL    HW2 4026   0.510   0.870  10.416
 1162SOL     OW 4027   1.360   0.862  10.355
 1162SOL    HW1 4028   1.285   0.862  10.289
 1162SOL    HW2 4029   1.397   0.770  10.364
 1163SOL     OW 4030   1.209   0.525   9.585
 1163SOL    HW1 4031   1.222   0.441   9.639
 1163SOL    HW2 4032   1.180   0.599   9.645
 1164SOL     OW 4033   0.307   0.213  10.541
 1164SOL    HW1 4034   0.284   0.250  10.631
 1164SOL    HW2 4035   0.277   0.118  10.535
 1165SOL     OW 4036   0.037   1.310  10.592
 1165SOL    HW1 4037   0.090   1.261  10.660
 1165SOL    HW2 4038   0.059   1.408  10.597
 1166SOL     OW 4039   0.732   0.634  10.374
 1166SOL    HW1 4040   0.791   0.608  10.298
 1166SOL    HW2 4041   0.704   0.730  10.363
 1167SOL     OW 4042   0.307   0.063   9.928
 1167SOL    HW1 4043   0.296   0.157   9.961
 1167SOL    HW2 4044   0.302   0.000  10.005
 1168SOL     OW 4045   1.622   0.367   9.684
 1168SOL    HW1 4046   1.624   0.291   9.748
 1168SOL    HW2 4047   1.574   0.444   9.724
 1169SOL     OW 4048   1.023   0.766  10.276
 1169SOL    HW1 4049   1.038   0.787  10.372
 1169SOL    HW2 4050   0.993   0.671  10.267
 1170SOL     OW 4051   0.980   1.573  11.010
 1170SOL    HW1 4052   0.960   1.617  10.922
 1170SOL    HW2 4053   1.019   1.482  10.994
 1171SOL     OW 4054   1.859   1.518  10.915
 1171SOL    HW1 4055   1.873   1.545  10.820
 1171SOL    HW2 4056   1.942   1.540  10.968
 1172SOL     OW 4057   0.350   0.898  11.114
 1172SOL    HW1 4058   0.426   0.942  11.162
 1172SOL    HW2 4059   0.385   0.851  11.032
 1173SOL     OW 4060   1.540   0.274   9.435
 1173SOL    HW1 4061   1.479   0.199   9.458
 1173SOL    HW2 4062   1.562   0.326   9.518
 1174SOL     OW 4063   1.303   0.838   9.352
 1174SOL    HW1 4064   1.337   0.745   9.367
 1174SOL    HW2 4065   1.321   0.865   9.257
 1175SOL     OW 4066   1.068   1.333  10.159
 1175SOL    HW1 4067   1.075   1.249  10.104
 1175SOL    HW2 4068   1.130   1.402  10.123
 1176SOL     OW 4069   0.319   0.810  10.259
 1176SOL    HW1 4070   0.412   0.846  10.264
 1176SOL    HW2 4071   0.313   0.725  10.311
 1177SOL     OW 4072   0.339   0.509  10.316
 1177SOL    HW1 4073   0.287   0.426  10.299
 1177SOL    HW2 4074   0.416   0.514  10.252
 1178SOL     OW 4075   1.160   0.207  10.787
 1178SOL    HW1 4076   1.160   0.271  10.864
 1178SOL    HW2 4077   1.188   0.255  10.704
 1179SOL     OW 4078   0.008   1.326   9.510
 1179SOL    HW1 4079  -0.085   1.347   9.479
 1179SOL    HW2 4080   0.018   1.227   9.523
 1180SOL     OW 4081   0.088   1.801  10.237
 1180SOL    HW1 4082   0.046   1.715  10.210
 1180SOL    HW2 4083   0.182   1.804  10.203
 1181SOL     OW 4084   0.504   1.568  10.220
 1181SOL    HW1 4085   0.570   1.642  10.229
 1181SOL    HW2 4086   0.548   1.489  10.178
 1182SOL     OW 4087   1.002   0.796  10.548
 1182SOL    HW1 4088   1.043   0.764  10.634
 1182SOL    HW2 4089   0.906   0.769  10.545
 1183SOL     OW 4090   0.040   0.544  10.424
 1183SOL    HW1 4091   0.125   0.511  10.383
 1183SOL    HW2 4092   0.053   0.559  10.522
 1184SOL     OW 4093   0.815   0.572   9.635
 1184SOL    HW1 4094   0.822   0.483   9.589
 1184SOL    HW2 4095   0.721   0.606   9.627
 1185SOL     OW 4096   1.657   0.604  10.516
 1185SOL    HW1 4097   1.619   0.535  10.578
 1185SOL    HW2 4098   1.739   0.568  10.472
 1186SOL     OW 4099   0.252   1.564  11.054
 1186SOL    HW1 4100   0.222   1.621  11.130
 1186SOL    HW2 4101   0.245   1.467  11.080
 1187SOL     OW 4102   0.671   0.464  10.579
 1187SOL    HW1 4103   0.637   0.375  10.549
 1187SOL    HW2 4104   0.697   0.518  10.499
 1188SOL     OW 4105   0.930   1.678  10.775
 1188SOL    HW1 4106   0.906   1.660  10.680
 1188SOL    HW2 4107   0.960   1.772  10.785
 1189SOL     OW 4108   0.473   0.500   9.501
 1189SOL    HW1 4109   0.534   0.580   9.505
 1189SOL    HW2 4110   0.378   0.531   9.508
 1190SOL     OW 4111   0.159   1.137  10.776
 1190SOL    HW1 4112   0.181   1.076  10.852
 1190SOL    HW2 4113   0.169   1.088  10.690
 1191SOL     OW 4114   1.347   1.059  10.544
 1191SOL    HW1 4115   1.371   0.996  10.470
 1191SOL    HW2 4116   1.257   1.099  10.526
 1192SOL     OW 4117   1.302   0.855   9.619
 1192SOL    HW1 4118   1.216   0.824   9.661
 1192SOL    HW2 4119   1.298   0.841   9.520
 1193SOL     OW 4120   1.759   1.747  10.464
 1193SOL    HW1 4121   1.820   1.777  10.391
 1193SOL    HW2 4122   1.721   1.658  10.442
 1194SOL     OW 4123   1.252   1.731  10.438
 1194SOL    HW1 4124   1.336   1.736  10.384
 1194SOL    HW2 4125   1.229   1.635  10.456
 1195SOL     OW 4126   0.083   1.258  10.332
 1195SOL    HW1 4127   0.078   1.257  10.432
 1195SOL    HW2 4128   0.000   1.217  10.294
 1196SOL     OW 4129   1.726   0.135   9.833
 1196SOL    HW1 4130   1.799   0.118   9.766
 1196SOL    HW2 4131   1.695   0.048   9.871
 1197SOL     OW 4132   1.388   1.573   9.787
 1197SOL    HW1 4133   1.455   1.585   9.713
 1197SOL    HW2 4134   1.348   1.662   9.810
 1198SOL     OW 4135   1.280   0.927   9.982
 1198SOL    HW1 4136   1.340   0.846   9.984
 1198SOL    HW2 4137   1.320   0.996   9.922
 1199SOL     OW 4138   0.830   1.273  10.732
 1199SOL    HW1 4139   0.825   1.306  10.827
 1199SOL    HW2 4140   0.744   1.292  10.686
 1200SOL     OW 4141   0.672   1.616   9.464
 1200SOL    HW1 4142   0.681   1.626   9.365
 1200SOL    HW2 4143   0.632   1.527   9.485
 1201SOL     OW 4144   1.650   1.720  10.704
 1201SOL    HW1 4145   1.703   1.730  10.620
 1201SOL    HW2 4146   1.623   1.810  10.738
 1202SOL     OW 4147   1.841   0.175  10.273
 1202SOL    HW1 4148   1.880   0.090  10.237
 1202SOL    HW2 4149   1.743   0.177  10.254
 1203SOL     OW 4150   0.263   0.326  10.030
 1203SOL    HW1 4151   0.184   0.377   9.996
 1203SOL    HW2 4152   0.254   0.311  10.128
 1204SOL     OW 4153   1.194   1.612   9.341
 1204SOL    HW1 4154   1.200   1.519   9.378
 1204SOL    HW2 4155   1.135   1.612   9.261
 1205SOL     OW 4156   0.822   1.002  10.682
 1205SOL    HW1 4157   0.862   1.001  10.590
 1205SOL    HW2 4158   0.832   1.094  10.722
 1206SOL     OW 4159   0.916   0.910   9.601
 1206SOL    HW1 4160   0.979   0.948   9.533
 1206SOL    HW2 4161   0.956   0.827   9.640
 1207SOL     OW 4162   1.504   1.607   9.354
 1207SOL    HW1 4163   1.412   1.644   9.361
 1207SOL    HW2 4164   1.542   1.627   9.264
 1208SOL     OW 4165   0.372   1.288  10.800
 1208SOL    HW1 4166   0.359   1.381  10.766
 1208SOL    HW2 4167   0.288   1.236  10.787
 1209SOL     OW 4168   1.614   1.292  10.599
 1209SOL    HW1 4169   1.674   1.295  10.679
 1209SOL    HW2 4170   1.539   1.356  10.612
 1210SOL     OW 4171   1.039   1.098  10.006
 1210SOL    HW1 4172   0.969   1.051  10.060
 1210SOL    HW2 4173   1.098   1.030   9.963
 1211SOL     OW 4174   1.014   0.236  10.281
 1211SOL    HW1 4175   1.006   0.200  10.188
 1211SOL    HW2 4176   1.012   0.160  10.346
 1212SOL     OW 4177   0.590   1.487   9.801
 1212SOL    HW1 4178   0.632   1.429   9.731
 1212SOL    HW2 4179   0.546   1.566   9.757
 1213SOL     OW 4180   1.709   0.385  10.691
 1213SOL    HW1 4181   1.782   0.454  10.695
 1213SOL    HW2 4182   1.737   0.310  10.632
 1214SOL     OW 4183   0.255   1.348   9.600
 1214SOL    HW1 4184   0.159   1.349   9.573
 1214SOL    HW2 4185   0.267   1.401   9.684
 1215SOL     OW 4186   0.105   1.013  11.036
 1215SOL    HW1 4187   0.028   0.980  11.090
 1215SOL    HW2 4188   0.190   0.983  11.078
 1216SOL     OW 4189   0.672   0.203  10.799
 1216SOL    HW1 4190   0.762   0.187  10.759
 1216SOL    HW2 4191   0.680   0.208  10.898
 1217SOL     OW 4192   0.075   0.345   9.343
 1217SOL    HW1 4193  -0.017   0.317   9.314
 1217SOL    HW2 4194   0.106   0.422   9.287
 1218SOL     OW 4195   1.440   0.856  10.708
 1218SOL    HW1 4196   1.383   0.908  10.645
 1218SOL    HW2 4197   1.536   0.868  10.684
 1219SOL     OW 4198   0.072   0.166   9.628
 1219SOL    HW1 4199   0.055   0.249   9.574
 1219SOL    HW2 4200   0.162   0.129   9.606
 1220SOL     OW 4201   1.183   1.335   9.429
 1220SOL    HW1 4202   1.084   1.324   9.431
 1220SOL    HW2 4203   1.217   1.350   9.522
 1221SOL     OW 4204   0.613   0.842  10.741
 1221SOL    HW1 4205   0.669   0.923  10.724
 1221SOL    HW2 4206   0.672   0.762  10.744
 1222SOL     OW 4207   1.493   1.767  10.269
 1222SOL    HW1 4208   1.526   1.831  10.200
 1222SOL    HW2 4209   1.559   1.761  10.344
 1223SOL     OW 4210   0.716   0.565  11.018
 1223SOL    HW1 4211   0.735   0.630  11.092
 1223SOL    HW2 4212   0.776   0.485  11.027
 1224SOL     OW 4213   0.390   1.741  10.870
 1224SOL    HW1 4214   0.299   1.782  10.868
 1224SOL    HW2 4215   0.383   1.647  10.902
 1225SOL     OW 4216   1.674   0.883  10.564
 1225SOL    HW1 4217   1.647   0.794  10.527
 1225SOL    HW2 4218   1.675   0.951  10.491
 1226SOL     OW 4219   1.225   0.325   9.759
 1226SOL    HW1 4220   1.290   0.251   9.748
 1226SOL    HW2 4221   1.245   0.375   9.843
 1227SOL     OW 4222   0.594   0.745   9.962
 1227SOL    HW1 4223   0.644   0.830   9.943
 1227SOL    HW2 4224   0.506   0.747   9.914
 1228SOL     OW 4225   1.777   0.342  10.952
 1228SOL    HW1 4226   1.760   0.373  10.858
 1228SOL    HW2 4227   1.693   0.305  10.990
 1229SOL     OW 4228   1.730   0.934  10.827
 1229SOL    HW1 4229   1.768   1.025  10.842
 1229SOL    HW2 4230   1.722   0.917  10.728
 1230SOL     OW 4231   0.859   1.374   9.326
 1230SOL    HW1 4232   0.813   1.389   9.414
 1230SOL    HW2 4233   0.903   1.459   9.296
 1231SOL     OW 4234   0.661   1.790  10.263
 1231SOL    HW1 4235   0.615   1.878  10.250
 1231SOL    HW2 4236   0.760   1.802  10.256
 1232SOL     OW 4237   0.859   0.956  10.171
 1232SOL    HW1 4238   0.913   0.887  10.219
 1232SOL    HW2 4239   0.827   1.025  10.237
 1233SOL     OW 4240   1.083   0.984   9.397
 1233SOL    HW1 4241   1.060   1.037   9.315
 1233SOL    HW2 4242   1.164   0.928   9.378
 1234SOL     OW 4243   1.861   1.569  10.161
 1234SOL    HW1 4244   1.790   1.557  10.091
 1234SOL    HW2 4245   1.862   1.490  10.221
 1235SOL     OW 4246   0.079   1.240   9.963
 1235SOL    HW1 4247   0.078   1.193  10.051
 1235SOL    HW2 4248   0.161   1.212   9.912
 1236SOL     OW 4249   0.672   1.391  10.934
 1236SOL    HW1 4250   0.594   1.341  10.972
 1236SOL    HW2 4251   0.669   1.486  10.965
 1237SOL     OW 4252   1.824   0.192  10.537
 1237SOL    HW1 4253   1.820   0.102  10.581
 1237SOL    HW2 4254   1.827   0.181  10.438
 1238SOL     OW 4255   0.428   0.424   9.830
 1238SOL    HW1 4256   0.458   0.352   9.768
 1238SOL    HW2 4257   0.389   0.384   9.913
 1239SOL     OW 4258   1.705   1.487  10.414
 1239SOL    HW1 4259   1.612   1.462  10.387
 1239SOL    HW2 4260   1.731   1.437  10.496
 1240SOL     OW 4261   0.317   0.547  10.590
 1240SOL    HW1 4262   0.355   0.488  10.662
 1240SOL    HW2 4263   0.357   0.521  10.502
 1241SOL     OW 4264   0.812   1.586   9.997
 1241SOL    HW1 4265   0.844   1.596   9.903
 1241SOL    HW2 4266   0.733   1.524   9.999
 1242SOL     OW 4267   1.424   0.214  10.422
 1242SOL    HW1 4268   1.476   0.149  10.477
 1242SOL    HW2 4269   1.375   0.277  10.483
 1243SOL     OW 4270   1.001   0.034  10.464
 1243SOL    HW1 4271   0.938  -0.038  10.433
 1243SOL    HW2 4272   1.094  -0.002  10.464
 1244SOL     OW 4273   0.770   1.330   9.611
 1244SOL    HW1 4274   0.724   1.243   9.628
 1244SOL    HW2 4275   0.861   1.327   9.652
 1245SOL     OW 4276   0.618   1.567  10.594
 1245SOL    HW1 4277   0.613   1.649  10.651
 1245SOL    HW2 4278   0.707   1.564  10.549
 1246SOL     OW 4279   1.352   0.052   9.478
 1246SOL    HW1 4280   1.387   0.011   9.394
 1246SOL    HW2 4281   1.262   0.014   9.498
 1247SOL     OW 4282   1.300   0.453  10.001
 1247SOL    HW1 4283   1.241   0.533  10.005
 1247SOL    HW2 4284   1.315   0.418  10.094
 1248SOL     OW 4285   1.593   0.221  10.192
 1248SOL    HW1 4286   1.509   0.220  10.246
 1248SOL    HW2 4287   1.595   0.304  10.136
 1249SOL     OW 4288   0.039   1.077   9.610
 1249SOL    HW1 4289   0.138   1.066   9.601
 1249SOL    HW2 4290  -0.001   0.991   9.642
 1250SOL     OW 4291   0.875   1.646   9.647
 1250SOL    HW1 4292   0.798   1.611   9.593
 1250SOL    HW2 4293   0.843   1.717   9.709
 1251SOL     OW 4294   0.230   2.490   0.113
 1251SOL    HW1 4295   0.137   2.488   0.150
 1251SOL    HW2 4296   0.231   2.451   0.021
 1252SOL     OW 4297   0.225   2.137   0.996
 1252SOL    HW1 4298   0.260   2.120   1.088
 1252SOL    HW2 4299   0.137   2.092   0.984
 1253SOL     OW 4300   0.019   2.230   0.647
 1253SOL    HW1 4301  -0.063   2.273   0.686
 1253SOL    HW2 4302  -0.009   2.157   0.584
 1254SOL     OW 4303   0.569   3.137   1.165
 1254SOL    HW1 4304   0.476   3.130   1.128
 1254SOL    HW2 4305   0.580   3.226   1.209
 1255SOL     OW 4306   1.555   3.373   0.703
 1255SOL    HW1 4307   1.498   3.357   0.784
 1255SOL    HW2 4308   1.496   3.383   0.623
 1256SOL     OW 4309   1.135   2.565   0.717
 1256SOL    HW1 4310   1.192   2.643   0.692
 1256SOL    HW2 4311   1.075   2.591   0.793
 1257SOL     OW 4312   1.755   2.469   0.231
 1257SOL    HW1 4313   1.743   2.456   0.132
 1257SOL    HW2 4314   1.725   2.388   0.280
 1258SOL     OW 4315   0.768   3.006   1.023
 1258SOL    HW1 4316   0.690   3.023   1.083
 1258SOL    HW2 4317   0.802   3.093   0.987
 1259SOL     OW 4318   0.850   2.660   1.823
 1259SOL    HW1 4319   0.846   2.736   1.888
 1259SOL    HW2 4320   0.872   2.696   1.732
 1260SOL     OW 4321   0.685   2.874   0.665
 1260SOL    HW1 4322   0.754   2.858   0.735
 1260SOL    HW2 4323   0.612   2.931   0.703
 1261SOL     OW 4324   0.686   3.023   1.803
 1261SOL    HW1 4325   0.746   3.102   1.817
 1261SOL    HW2 4326   0.600   3.054   1.762
 1262SOL     OW 4327   0.335   3.297   1.061
 1262SOL    HW1 4328   0.257   3.266   1.008
 1262SOL    HW2 4329   0.393   3.355   1.004
 1263SOL     OW 4330   1.460   3.367   1.339
 1263SOL    HW1 4331   1.484   3.461   1.365
 1263SOL    HW2 4332   1.444   3.313   1.421
 1264SOL     OW 4333   0.438   2.254   1.499
 1264SOL    HW1 4334   0.520   2.198   1.508
 1264SOL    HW2 4335   0.357   2.196   1.503
 1265SOL     OW 4336   1.603   2.309   0.737
 1265SOL    HW1 4337   1.529   2.355   0.687
 1265SOL    HW2 4338   1.654   2.377   0.790
 1266SOL     OW 4339   0.231   3.575   0.483
 1266SOL    HW1 4340   0.265   3.652   0.537
 1266SOL    HW2 4341   0.275   3.575   0.393
 1267SOL     OW 4342   1.127   3.203   1.690
 1267SOL    HW1 4343   1.174   3.203   1.778
 1267SOL    HW2 4344   1.079   3.116   1.679
 1268SOL     OW 4345   0.230   3.296   0.538
 1268SOL    HW1 4346   0.204   3.392   0.538
 1268SOL    HW2 4347   0.159   3.242   0.583
 1269SOL     OW 4348   0.240   2.953   0.886
 1269SOL    HW1 4349   0.254   2.869   0.938
 1269SOL    HW2 4350   0.185   3.017   0.941
 1270SOL     OW 4351   0.620   3.648   1.439
 1270SOL    HW1 4352   0.528   3.631   1.474
 1270SOL    HW2 4353   0.648   3.740   1.465
 1271SOL     OW 4354   0.606   2.826   0.123
 1271SOL    HW1 4355   0.613   2.910   0.069
 1271SOL    HW2 4356   0.652   2.839   0.211
 1272SOL     OW 4357   1.594   1.976   1.480
 1272SOL    HW1 4358   1.576   2.043   1.408
 1272SOL    HW2 4359   1.591   2.022   1.569
 1273SOL     OW 4360   0.122   2.505   0.563
 1273SOL    HW1 4361   0.077   2.417   0.580
 1273SOL    HW2 4362   0.121   2.559   0.647
 1274SOL     OW 4363   1.842   3.629   0.359
 1274SOL    HW1 4364   1.896   3.600   0.439
 1274SOL    HW2 4365   1.872   3.719   0.330
 1275SOL     OW 4366   0.027   3.458   0.117
 1275SOL    HW1 4367   0.008   3.362   0.138
 1275SOL    HW2 4368  -0.006   3.516   0.192
 1276SOL     OW 4369   1.689   2.784   0.612
 1276SOL    HW1 4370   1.784   2.755   0.620
 1276SOL    HW2 4371   1.681   2.849   0.537
 1277SOL     OW 4372   1.641   2.970   0.432
 1277SOL    HW1 4373   1.727   2.972   0.380
 1277SOL    HW2 4374   1.655   3.017   0.520
 1278SOL     OW 4375   0.113   2.599   1.597
 1278SOL    HW1 4376   0.201   2.586   1.642
 1278SOL    HW2 4377   0.100   2.696   1.575
 1279SOL     OW 4378   0.613   3.227   0.726
 1279SOL    HW1 4379   0.564   3.140   0.735
 1279SOL    HW2 4380   0.590   3.270   0.639
 1280SOL     OW 4381   1.293   3.090   1.423
 1280SOL    HW1 4382   1.330   3.017   1.365
 1280SOL    HW2 4383   1.345   3.095   1.508
 1281SOL     OW 4384   0.809   1.866   0.502
 1281SOL    HW1 4385   0.849   1.957   0.493
 1281SOL    HW2 4386   0.709   1.874   0.508
 1282SOL     OW 4387   0.197   2.838   1.264
 1282SOL    HW1 4388   0.286   2.793   1.250
 1282SOL    HW2 4389   0.124   2.773   1.245
 1283SOL     OW 4390   1.525   2.861   0.190
 1283SOL    HW1 4391   1.462   2.785   0.203
 1283SOL    HW2 4392   1.573   2.879   0.276
 1284SOL     OW 4393   1.187   3.654   1.616
 1284SOL    HW1 4394   1.211   3.714   1.540
 1284SOL    HW2 4395   1.194   3.559   1.586
 1285SOL     OW 4396   0.317   2.113   1.801
 1285SOL    HW1 4397   0.388   2.184   1.807
 1285SOL    HW2 4398   0.229   2.152   1.829
 1286SOL     OW 4399   1.466   3.279   0.953
 1286SOL    HW1 4400   1.407   3.285   1.033
 1286SOL    HW2 4401   1.451   3.191   0.907
 1287SOL     OW 4402   1.667   3.576   0.572
 1287SOL    HW1 4403   1.626   3.553   0.484
 1287SOL    HW2 4404   1.649   3.502   0.637
 1288SOL     OW 4405   0.598   2.591   0.270
 1288SOL    HW1 4406   0.622   2.660   0.202
 1288SOL    HW2 4407   0.520   2.624   0.324
 1289SOL     OW 4408   1.281   2.207   0.944
 1289SOL    HW1 4409   1.195   2.157   0.931
 1289SOL    HW2 4410   1.343   2.153   1.000
 1290SOL     OW 4411   1.576   3.524   0.307
 1290SOL    HW1 4412   1.665   3.570   0.310
 1290SOL    HW2 4413   1.555   3.500   0.212
 1291SOL     OW 4414   0.807   2.467   1.465
 1291SOL    HW1 4415   0.760   2.464   1.554
 1291SOL    HW2 4416   0.756   2.412   1.399
 1292SOL     OW 4417   1.394   2.331   1.674
 1292SOL    HW1 4418   1.374   2.374   1.762
 1292SOL    HW2 4419   1.472   2.269   1.683
 1293SOL     OW 4420   0.973   2.752   1.572
 1293SOL    HW1 4421   1.019   2.668   1.543
 1293SOL    HW2 4422   0.917   2.786   1.497
 1294SOL     OW 4423   0.991   2.272   1.242
 1294SOL    HW1 4424   0.914   2.306   1.296
 1294SOL    HW2 4425   0.957   2.221   1.163
 1295SOL     OW 4426   1.041   2.563   0.429
 1295SOL    HW1 4427   1.067   2.559   0.525
 1295SOL    HW2 4428   0.956   2.512   0.415
 1296SOL     OW 4429   0.076   2.673   0.789
 1296SOL    HW1 4430   0.175   2.661   0.798
 1296SOL    HW2 4431   0.052   2.768   0.810
 1297SOL     OW 4432   0.130   3.683   1.571
 1297SOL    HW1 4433   0.120   3.668   1.670
 1297SOL    HW2 4434   0.044   3.719   1.535
 1298SOL     OW 4435   0.865   2.210   0.195
 1298SOL    HW1 4436   0.924   2.273   0.146
 1298SOL    HW2 4437   0.884   2.116   0.166
 1299SOL     OW 4438   1.719   2.447   1.831
 1299SOL    HW1 4439   1.693   2.536   1.795
 1299SOL    HW2 4440   1.717   2.379   1.758
 1300SOL     OW 4441   1.362   3.006   0.545
 1300SOL    HW1 4442   1.445   2.977   0.497
 1300SOL    HW2 4443   1.313   3.073   0.489
 1301SOL     OW 4444   0.550   2.058   0.885
 1301SOL    HW1 4445   0.545   2.053   0.985
 1301SOL    HW2 4446   0.552   2.154   0.856
 1302SOL     OW 4447   1.008   3.318   0.477
 1302SOL    HW1 4448   0.962   3.390   0.425
 1302SOL    HW2 4449   1.004   3.338   0.575
 1303SOL     OW 4450   0.351   3.663   0.853
 1303SOL    HW1 4451   0.401   3.577   0.859
 1303SOL    HW2 4452   0.416   3.740   0.850
 1304SOL     OW 4453   1.795   2.928   0.873
 1304SOL    HW1 4454   1.733   2.913   0.797
 1304SOL    HW2 4455   1.743   2.939   0.958
 1305SOL     OW 4456   1.227   3.412   1.506
 1305SOL    HW1 4457   1.233   3.335   1.570
 1305SOL    HW2 4458   1.175   3.386   1.426
 1306SOL     OW 4459   0.321   2.805   0.242
 1306SOL    HW1 4460   0.403   2.844   0.200
 1306SOL    HW2 4461   0.294   2.723   0.193
 1307SOL     OW 4462   1.458   2.597   0.728
 1307SOL    HW1 4463   1.453   2.532   0.803
 1307SOL    HW2 4464   1.538   2.656   0.741
 1308SOL     OW 4465   0.461   3.128   1.727
 1308SOL    HW1 4466   0.411   3.129   1.641
 1308SOL    HW2 4467   0.398   3.110   1.803
 1309SOL     OW 4468   1.111   3.638   0.237
 1309SOL    HW1 4469   1.051   3.576   0.287
 1309SOL    HW2 4470   1.142   3.594   0.152
 1310SOL     OW 4471   0.202   2.147   1.498
 1310SOL    HW1 4472   0.122   2.207   1.485
 1310SOL    HW2 4473   0.192   2.098   1.584
 1311SOL     OW 4474   1.632   3.239   0.081
 1311SOL    HW1 4475   1.600   3.333   0.071
 1311SOL    HW2 4476   1.556   3.176   0.069
 1312SOL     OW 4477   0.464   3.605   0.323
 1312SOL    HW1 4478   0.497   3.644   0.409
 1312SOL    HW2 4479   0.540   3.598   0.258
 1313SOL     OW 4480   1.400   1.969   0.426
 1313SOL    HW1 4481   1.376   1.932   0.336
 1313SOL    HW2 4482   1.499   1.985   0.430
 1314SOL     OW 4483   0.249   3.647   1.241
 1314SOL    HW1 4484   0.306   3.582   1.291
 1314SOL    HW2 4485   0.233   3.614   1.148
 1315SOL     OW 4486   0.940   3.560   0.904
 1315SOL    HW1 4487   1.020   3.503   0.925
 1315SOL    HW2 4488   0.891   3.520   0.827
 1316SOL     OW 4489   0.382   2.562   0.480
 1316SOL    HW1 4490   0.427   2.472   0.477
 1316SOL    HW2 4491   0.288   2.551   0.513
 1317SOL     OW 4492   1.547   2.084   1.729
 1317SOL    HW1 4493   1.542   2.121   1.821
 1317SOL    HW2 4494   1.475   2.015   1.717
 1318SOL     OW 4495   0.614   1.984   0.117
 1318SOL    HW1 4496   0.712   1.962   0.124
 1318SOL    HW2 4497   0.583   1.967   0.024
 1319SOL     OW 4498   0.781   2.126   1.749
 1319SOL    HW1 4499   0.848   2.065   1.792
 1319SOL    HW2 4500   0.708   2.145   1.814
 1320SOL     OW 4501   0.888   3.376   1.195
 1320SOL    HW1 4502   0.865   3.351   1.101
 1320SOL    HW2 4503   0.949   3.307   1.234
 1321SOL     OW 4504   1.351   2.452   1.433
 1321SOL    HW1 4505   1.379   2.409   1.518
 1321SOL    HW2 4506   1.376   2.548   1.434
 1322SOL     OW 4507   0.803   3.264   0.924
 1322SOL    HW1 4508   0.893   3.278   0.882
 1322SOL    HW2 4509   0.732   3.266   0.853
 1323SOL     OW 4510   0.922   2.365   0.899
 1323SOL    HW1 4511   0.897   2.356   0.803
 1323SOL    HW2 4512   0.970   2.283   0.930
 1324SOL     OW 4513   0.539   1.926   0.512
 1324SOL    HW1 4514   0.458   1.927   0.570
 1324SOL    HW2 4515   0.542   2.009   0.457
 1325SOL     OW 4516   1.434   3.050   0.041
 1325SOL    HW1 4517   1.466   2.974   0.098
 1325SOL    HW2 4518   1.342   3.077   0.071
 1326SOL     OW 4519   0.297   1.897   0.171
 1326SOL    HW1 4520   0.346   1.981   0.150
 1326SOL    HW2 4521   0.359   1.832   0.216
 1327SOL     OW 4522   0.935   2.098   0.480
 1327SOL    HW1 4523   0.887   2.139   0.402
 1327SOL    HW2 4524   1.034   2.096   0.461
 1328SOL     OW 4525   1.076   2.545   1.464
 1328SOL    HW1 4526   0.996   2.484   1.467
 1328SOL    HW2 4527   1.157   2.492   1.440
 1329SOL     OW 4528   1.227   3.432   0.793
 1329SOL    HW1 4529   1.248   3.506   0.728
 1329SOL    HW2 4530   1.295   3.432   0.866
 1330SOL     OW 4531   0.459   3.014   0.741
 1330SOL    HW1 4532   0.388   2.987   0.806
 1330SOL    HW2 4533   0.433   2.986   0.648
 1331SOL     OW 4534   1.271   3.659   0.591
 1331SOL    HW1 4535   1.315   3.723   0.527
 1331SOL    HW2 4536   1.221   3.711   0.661
 1332SOL     OW 4537   1.032   2.411   0.016
 1332SOL    HW1 4538   0.991   2.493  -0.023
 1332SOL    HW2 4539   1.096   2.437   0.089
 1333SOL     OW 4540   0.078   2.418   1.386
 1333SOL    HW1 4541   0.170   2.417   1.345
 1333SOL    HW2 4542   0.072   2.492   1.453
 1334SOL     OW 4543   0.561   2.084   1.147
 1334SOL    HW1 4544   0.599   2.000   1.184
 1334SOL    HW2 4545   0.473   2.103   1.191
 1335SOL     OW 4546   0.866   2.316   0.642
 1335SOL    HW1 4547   0.834   2.388   0.580
 1335SOL    HW2 4548   0.890   2.235   0.589
 1336SOL     OW 4549   1.017   1.901   0.753
 1336SOL    HW1 4550   0.945   1.906   0.684
 1336SOL    HW2 4551   0.993   1.832   0.822
 1337SOL     OW 4552   1.429   3.035   0.867
 1337SOL    HW1 4553   1.374   2.951   0.860
 1337SOL    HW2 4554   1.455   3.064   0.775
 1338SOL     OW 4555   1.466   2.452   0.992
 1338SOL    HW1 4556   1.436   2.357   0.999
 1338SOL    HW2 4557   1.539   2.468   1.058
 1339SOL     OW 4558   1.857   2.695   0.377
 1339SOL    HW1 4559   1.899   2.631   0.441
 1339SOL    HW2 4560   1.819   2.644   0.299
 1340SOL     OW 4561   0.488   3.247   0.174
 1340SOL    HW1 4562   0.401   3.232   0.221
 1340SOL    HW2 4563   0.471   3.273   0.079
 1341SOL     OW 4564   1.664   3.142   0.657
 1341SOL    HW1 4565   1.763   3.150   0.671
 1341SOL    HW2 4566   1.619   3.226   0.688
 1342SOL     OW 4567   1.390   2.437   0.078
 1342SOL    HW1 4568   1.336   2.416   0.159
 1342SOL    HW2 4569   1.481   2.396   0.087
 1343SOL     OW 4570   0.527   2.118   0.328
 1343SOL    HW1 4571   0.554   2.059   0.253
 1343SOL    HW2 4572   0.527   2.213   0.297
 1344SOL     OW 4573   1.754   3.085   1.588
 1344SOL    HW1 4574   1.845   3.046   1.575
 1344SOL    HW2 4575   1.762   3.181   1.612
 1345SOL     OW 4576   1.064   3.209   1.340
 1345SOL    HW1 4577   0.984   3.186   1.395
 1345SOL    HW2 4578   1.147   3.183   1.389
 1346SOL     OW 4579   1.592   3.491   1.625
 1346SOL    HW1 4580   1.619   3.525   1.535
 1346SOL    HW2 4581   1.671   3.453   1.671
 1347SOL     OW 4582   1.111   3.057   1.100
 1347SOL    HW1 4583   1.071   3.101   1.181
 1347SOL    HW2 4584   1.070   3.094   1.017
 1348SOL     OW 4585   1.638   2.961   1.079
 1348SOL    HW1 4586   1.643   3.042   1.138
 1348SOL    HW2 4587   1.552   2.963   1.028
 1349SOL     OW 4588   0.915   1.951   1.402
 1349SOL    HW1 4589   0.940   1.931   1.307
 1349SOL    HW2 4590   0.987   2.007   1.444
 1350SOL     OW 4591   0.980   2.978   1.719
 1350SOL    HW1 4592   0.881   2.984   1.729
 1350SOL    HW2 4593   1.003   2.898   1.663
 1351SOL     OW 4594   0.705   2.912   0.368
 1351SOL    HW1 4595   0.691   2.919   0.467
 1351SOL    HW2 4596   0.789   2.861   0.350
 1352SOL     OW 4597   0.410   2.675   1.251
 1352SOL    HW1 4598   0.496   2.687   1.301
 1352SOL    HW2 4599   0.368   2.588   1.278
 1353SOL     OW 4600   1.274   2.248   1.262
 1353SOL    HW1 4601   1.295   2.322   1.326
 1353SOL    HW2 4602   1.185   2.265   1.219
 1354SOL     OW 4603   0.064   3.426   1.331
 1354SOL    HW1 4604   0.018   3.508   1.297
 1354SOL    HW2 4605   0.162   3.445   1.340
 1355SOL     OW 4606   0.367   2.962   0.501
 1355SOL    HW1 4607   0.360   3.045   0.445
 1355SOL    HW2 4608   0.371   2.882   0.441
 1356SOL     OW 4609   0.566   2.399   0.865
 1356SOL    HW1 4610   0.578   2.465   0.791
 1356SOL    HW2 4611   0.612   2.433   0.948
 1357SOL     OW 4612   1.252   3.210   0.388
 1357SOL    HW1 4613   1.302   3.287   0.428
 1357SOL    HW2 4614   1.157   3.212   0.420
 1358SOL     OW 4615   1.272   3.307   1.142
 1358SOL    HW1 4616   1.319   3.320   1.229
 1358SOL    HW2 4617   1.206   3.233   1.151
 1359SOL     OW 4618   1.582   2.501   0.472
 1359SOL    HW1 4619   1.551   2.562   0.545
 1359SOL    HW2 4620   1.632   2.553   0.403
 1360SOL     OW 4621   0.354   3.372   1.329
 1360SOL    HW1 4622   0.333   3.328   1.242
 1360SOL    HW2 4623   0.451   3.398   1.332
 1361SOL     OW 4624   0.402   2.613   1.598
 1361SOL    HW1 4625   0.470   2.668   1.551
 1361SOL    HW2 4626   0.442   2.525   1.625
 1362SOL     OW 4627   1.587   2.641   1.670
 1362SOL    HW1 4628   1.495   2.679   1.665
 1362SOL    HW2 4629   1.647   2.688   1.605
 1363SOL     OW 4630   1.013   1.967   1.770
 1363SOL    HW1 4631   1.019   2.052   1.718
 1363SOL    HW2 4632   1.045   1.891   1.713
 1364SOL     OW 4633   0.504   1.912   1.740
 1364SOL    HW1 4634   0.462   1.855   1.670
 1364SOL    HW2 4635   0.438   1.981   1.772
 1365SOL     OW 4636   0.573   2.732   1.029
 1365SOL    HW1 4637   0.617   2.821   1.020
 1365SOL    HW2 4638   0.510   2.732   1.106
 1366SOL     OW 4639   1.360   2.724   1.045
 1366SOL    HW1 4640   1.285   2.724   0.979
 1366SOL    HW2 4641   1.397   2.632   1.054
 1367SOL     OW 4642   1.209   2.387   0.275
 1367SOL    HW1 4643   1.222   2.303   0.329
 1367SOL    HW2 4644   1.180   2.461   0.335
 1368SOL     OW 4645   0.307   2.075   1.231
 1368SOL    HW1 4646   0.284   2.112   1.321
 1368SOL    HW2 4647   0.277   1.980   1.225
 1369SOL     OW 4648   0.037   3.172   1.282
 1369SOL    HW1 4649   0.090   3.123   1.350
 1369SOL    HW2 4650   0.059   3.270   1.287
 1370SOL     OW 4651   0.732   2.496   1.064
 1370SOL    HW1 4652   0.791   2.470   0.988
 1370SOL    HW2 4653   0.704   2.592   1.053
 1371SOL     OW 4654   1.728   2.797   1.854
 1371SOL    HW1 4655   1.682   2.790   1.765
 1371SOL    HW2 4656   1.666   2.841   1.920
 1372SOL     OW 4657   0.307   1.925   0.618
 1372SOL    HW1 4658   0.296   2.019   0.651
 1372SOL    HW2 4659   0.302   1.862   0.695
 1373SOL     OW 4660   1.622   2.229   0.374
 1373SOL    HW1 4661   1.624   2.153   0.438
 1373SOL    HW2 4662   1.574   2.306   0.414
 1374SOL     OW 4663   1.023   2.628   0.966
 1374SOL    HW1 4664   1.038   2.649   1.062
 1374SOL    HW2 4665   0.993   2.533   0.957
 1375SOL     OW 4666   0.980   3.435   1.700
 1375SOL    HW1 4667   0.960   3.479   1.612
 1375SOL    HW2 4668   1.019   3.344   1.684
 1376SOL     OW 4669   1.859   3.380   1.605
 1376SOL    HW1 4670   1.873   3.407   1.510
 1376SOL    HW2 4671   1.942   3.402   1.658
 1377SOL     OW 4672   0.350   2.760   1.804
 1377SOL    HW1 4673   0.426   2.804   1.852
 1377SOL    HW2 4674   0.385   2.713   1.722
 1378SOL     OW 4675   1.540   2.136   0.125
 1378SOL    HW1 4676   1.479   2.061   0.148
 1378SOL    HW2 4677   1.562   2.188   0.208
 1379SOL     OW 4678   1.303   2.700   0.042
 1379SOL    HW1 4679   1.337   2.607   0.057
 1379SOL    HW2 4680   1.321   2.727  -0.053
 1380SOL     OW 4681   1.068   3.195   0.849
 1380SOL    HW1 4682   1.075   3.111   0.794
 1380SOL    HW2 4683   1.130   3.264   0.813
 1381SOL     OW 4684   0.319   2.672   0.949
 1381SOL    HW1 4685   0.412   2.708   0.954
 1381SOL    HW2 4686   0.313   2.587   1.001
 1382SOL     OW 4687   0.339   2.371   1.006
 1382SOL    HW1 4688   0.287   2.288   0.989
 1382SOL    HW2 4689   0.416   2.376   0.942
 1383SOL     OW 4690   1.138   2.242   1.678
 1383SOL    HW1 4691   1.093   2.305   1.742
 1383SOL    HW2 4692   1.231   2.273   1.661
 1384SOL     OW 4693   1.160   2.069   1.477
 1384SOL    HW1 4694   1.160   2.133   1.554
 1384SOL    HW2 4695   1.188   2.117   1.394
 1385SOL     OW 4696   0.008   3.188   0.200
 1385SOL    HW1 4697  -0.085   3.209   0.169
 1385SOL    HW2 4698   0.018   3.089   0.213
 1386SOL     OW 4699   0.088   3.663   0.927
 1386SOL    HW1 4700   0.046   3.577   0.900
 1386SOL    HW2 4701   0.182   3.666   0.893
 1387SOL     OW 4702   0.504   3.430   0.910
 1387SOL    HW1 4703   0.570   3.504   0.919
 1387SOL    HW2 4704   0.548   3.351   0.868
 1388SOL     OW 4705   1.002   2.658   1.238
 1388SOL    HW1 4706   1.043   2.626   1.324
 1388SOL    HW2 4707   0.906   2.631   1.235
 1389SOL     OW 4708   0.040   2.406   1.114
 1389SOL    HW1 4709   0.125   2.373   1.073
 1389SOL    HW2 4710   0.053   2.421   1.212
 1390SOL     OW 4711   0.189   2.382   1.722
 1390SOL    HW1 4712   0.248   2.342   1.652
 1390SOL    HW2 4713   0.131   2.453   1.681
 1391SOL     OW 4714   1.369   2.812   1.660
 1391SOL    HW1 4715   1.408   2.901   1.680
 1391SOL    HW2 4716   1.379   2.792   1.563
 1392SOL     OW 4717   0.815   2.434   0.325
 1392SOL    HW1 4718   0.822   2.345   0.279
 1392SOL    HW2 4719   0.721   2.468   0.317
 1393SOL     OW 4720   1.657   2.466   1.206
 1393SOL    HW1 4721   1.619   2.397   1.268
 1393SOL    HW2 4722   1.739   2.430   1.162
 1394SOL     OW 4723   0.252   3.426   1.744
 1394SOL    HW1 4724   0.222   3.483   1.820
 1394SOL    HW2 4725   0.245   3.329   1.770
 1395SOL     OW 4726   0.671   2.326   1.269
 1395SOL    HW1 4727   0.637   2.237   1.239
 1395SOL    HW2 4728   0.697   2.380   1.189
 1396SOL     OW 4729   0.930   3.540   1.465
 1396SOL    HW1 4730   0.906   3.522   1.370
 1396SOL    HW2 4731   0.960   3.634   1.475
 1397SOL     OW 4732   0.473   2.362   0.191
 1397SOL    HW1 4733   0.534   2.442   0.195
 1397SOL    HW2 4734   0.378   2.393   0.198
 1398SOL     OW 4735   0.159   2.999   1.466
 1398SOL    HW1 4736   0.181   2.938   1.542
 1398SOL    HW2 4737   0.169   2.950   1.380
 1399SOL     OW 4738   1.347   2.921   1.234
 1399SOL    HW1 4739   1.371   2.858   1.160
 1399SOL    HW2 4740   1.257   2.961   1.216
 1400SOL     OW 4741   1.302   2.717   0.309
 1400SOL    HW1 4742   1.216   2.686   0.351
 1400SOL    HW2 4743   1.298   2.703   0.210
 1401SOL     OW 4744   1.759   3.609   1.154
 1401SOL    HW1 4745   1.820   3.639   1.081
 1401SOL    HW2 4746   1.721   3.520   1.132
 1402SOL     OW 4747   1.252   3.593   1.128
 1402SOL    HW1 4748   1.336   3.598   1.074
 1402SOL    HW2 4749   1.229   3.497   1.146
 1403SOL     OW 4750   0.083   3.120   1.022
 1403SOL    HW1 4751   0.078   3.119   1.122
 1403SOL    HW2 4752   0.000   3.079   0.984
 1404SOL     OW 4753   0.688   3.524   1.716
 1404SOL    HW1 4754   0.632   3.605   1.725
 1404SOL    HW2 4755   0.740   3.528   1.630
 1405SOL     OW 4756   0.903   1.948   0.133
 1405SOL    HW1 4757   0.954   1.949   0.047
 1405SOL    HW2 4758   0.959   1.906   0.204
 1406SOL     OW 4759   1.726   1.997   0.523
 1406SOL    HW1 4760   1.799   1.980   0.456
 1406SOL    HW2 4761   1.695   1.910   0.561
 1407SOL     OW 4762   1.388   3.435   0.477
 1407SOL    HW1 4763   1.455   3.447   0.403
 1407SOL    HW2 4764   1.348   3.524   0.500
 1408SOL     OW 4765   0.130   3.656   1.851
 1408SOL    HW1 4766   0.089   3.582   1.904
 1408SOL    HW2 4767   0.194   3.707   1.909
 1409SOL     OW 4768   1.280   2.789   0.672
 1409SOL    HW1 4769   1.340   2.708   0.674
 1409SOL    HW2 4770   1.320   2.858   0.612
 1410SOL     OW 4771   0.830   3.135   1.422
 1410SOL    HW1 4772   0.825   3.168   1.517
 1410SOL    HW2 4773   0.744   3.154   1.376
 1411SOL     OW 4774   0.672   3.478   0.154
 1411SOL    HW1 4775   0.681   3.488   0.055
 1411SOL    HW2 4776   0.632   3.389   0.175
 1412SOL     OW 4777   1.650   3.582   1.394
 1412SOL    HW1 4778   1.703   3.592   1.310
 1412SOL    HW2 4779   1.623   3.672   1.428
 1413SOL     OW 4780   1.841   2.037   0.963
 1413SOL    HW1 4781   1.880   1.952   0.927
 1413SOL    HW2 4782   1.743   2.039   0.944
 1414SOL     OW 4783   0.263   2.188   0.720
 1414SOL    HW1 4784   0.184   2.239   0.686
 1414SOL    HW2 4785   0.254   2.173   0.818
 1415SOL     OW 4786   1.194   3.474   0.031
 1415SOL    HW1 4787   1.200   3.381   0.068
 1415SOL    HW2 4788   1.135   3.474  -0.049
 1416SOL     OW 4789   0.822   2.864   1.372
 1416SOL    HW1 4790   0.862   2.863   1.280
 1416SOL    HW2 4791   0.832   2.956   1.412
 1417SOL     OW 4792   0.916   2.772   0.291
 1417SOL    HW1 4793   0.979   2.810   0.223
 1417SOL    HW2 4794   0.956   2.689   0.330
 1418SOL     OW 4795   1.504   3.469   0.044
 1418SOL    HW1 4796   1.412   3.506   0.051
 1418SOL    HW2 4797   1.542   3.489  -0.046
 1419SOL     OW 4798   0.372   3.150   1.490
 1419SOL    HW1 4799   0.359   3.243   1.456
 1419SOL    HW2 4800   0.288   3.098   1.477
 1420SOL     OW 4801   1.614   3.154   1.289
 1420SOL    HW1 4802   1.674   3.157   1.369
 1420SOL    HW2 4803   1.539   3.218   1.302
 1421SOL     OW 4804   1.039   2.960   0.696
 1421SOL    HW1 4805   0.969   2.913   0.750
 1421SOL    HW2 4806   1.098   2.892   0.653
 1422SOL     OW 4807   1.014   2.098   0.971
 1422SOL    HW1 4808   1.006   2.062   0.878
 1422SOL    HW2 4809   1.012   2.022   1.036
 1423SOL     OW 4810   0.590   3.349   0.491
 1423SOL    HW1 4811   0.632   3.291   0.421
 1423SOL    HW2 4812   0.546   3.428   0.447
 1424SOL     OW 4813   1.709   2.247   1.381
 1424SOL    HW1 4814   1.782   2.316   1.385
 1424SOL    HW2 4815   1.737   2.172   1.322
 1425SOL     OW 4816   0.255   3.210   0.290
 1425SOL    HW1 4817   0.159   3.211   0.263
 1425SOL    HW2 4818   0.267   3.263   0.374
 1426SOL     OW 4819   0.105   2.875   1.726
 1426SOL    HW1 4820   0.028   2.842   1.780
 1426SOL    HW2 4821   0.190   2.845   1.768
 1427SOL     OW 4822   0.672   2.065   1.489
 1427SOL    HW1 4823   0.762   2.049   1.449
 1427SOL    HW2 4824   0.680   2.070   1.588
 1428SOL     OW 4825   0.075   2.207   0.033
 1428SOL    HW1 4826  -0.017   2.179   0.004
 1428SOL    HW2 4827   0.106   2.284  -0.023
 1429SOL     OW 4828   1.440   2.718   1.398
 1429SOL    HW1 4829   1.383   2.770   1.335
 1429SOL    HW2 4830   1.536   2.730   1.374
 1430SOL     OW 4831   0.072   2.028   0.318
 1430SOL    HW1 4832   0.055   2.111   0.264
 1430SOL    HW2 4833   0.162   1.991   0.296
 1431SOL     OW 4834   1.183   3.197   0.119
 1431SOL    HW1 4835   1.084   3.186   0.121
 1431SOL    HW2 4836   1.217   3.212   0.212
 1432SOL     OW 4837   0.613   2.704   1.431
 1432SOL    HW1 4838   0.669   2.785   1.414
 1432SOL    HW2 4839   0.672   2.624   1.434
 1433SOL     OW 4840   1.493   3.629   0.959
 1433SOL    HW1 4841   1.526   3.693   0.890
 1433SOL    HW2 4842   1.559   3.623   1.034
 1434SOL     OW 4843   0.716   2.427   1.708
 1434SOL    HW1 4844   0.735   2.492   1.782
 1434SOL    HW2 4845   0.776   2.347   1.717
 1435SOL     OW 4846   1.450   3.082   1.633
 1435SOL    HW1 4847   1.441   3.072   1.732
 1435SOL    HW2 4848   1.546   3.075   1.607
 1436SOL     OW 4849   0.390   3.603   1.560
 1436SOL    HW1 4850   0.299   3.644   1.558
 1436SOL    HW2 4851   0.383   3.509   1.592
 1437SOL     OW 4852   1.674   2.745   1.254
 1437SOL    HW1 4853   1.647   2.656   1.217
 1437SOL    HW2 4854   1.675   2.813   1.181
 1438SOL     OW 4855   1.225   2.187   0.449
 1438SOL    HW1 4856   1.290   2.113   0.438
 1438SOL    HW2 4857   1.245   2.237   0.533
 1439SOL     OW 4858   0.594   2.607   0.652
 1439SOL    HW1 4859   0.644   2.692   0.633
 1439SOL    HW2 4860   0.506   2.609   0.604
 1440SOL     OW 4861   1.777   2.204   1.642
 1440SOL    HW1 4862   1.760   2.235   1.548
 1440SOL    HW2 4863   1.693   2.167   1.680
 1441SOL     OW 4864   1.730   2.796   1.517
 1441SOL    HW1 4865   1.768   2.887   1.532
 1441SOL    HW2 4866   1.722   2.779   1.418
 1442SOL     OW 4867   0.859   3.236   0.016
 1442SOL    HW1 4868   0.813   3.251   0.104
 1442SOL    HW2 4869   0.903   3.321  -0.014
 1443SOL     OW 4870   0.661   3.652   0.953
 1443SOL    HW1 4871   0.615   3.740   0.940
 1443SOL    HW2 4872   0.760   3.664   0.946
 1444SOL     OW 4873   0.859   2.818   0.861
 1444SOL    HW1 4874   0.913   2.749   0.909
 1444SOL    HW2 4875   0.827   2.887   0.927
 1445SOL     OW 4876   1.083   2.846   0.087
 1445SOL    HW1 4877   1.060   2.899   0.005
 1445SOL    HW2 4878   1.164   2.790   0.068
 1446SOL     OW 4879   1.861   3.431   0.851
 1446SOL    HW1 4880   1.790   3.419   0.781
 1446SOL    HW2 4881   1.862   3.352   0.911
 1447SOL     OW 4882   0.221   3.176   1.844
 1447SOL    HW1 4883   0.156   3.103   1.823
 1447SOL    HW2 4884   0.225   3.190   1.942
 1448SOL     OW 4885   0.079   3.102   0.653
 1448SOL    HW1 4886   0.078   3.055   0.741
 1448SOL    HW2 4887   0.161   3.074   0.602
 1449SOL     OW 4888   0.672   3.253   1.624
 1449SOL    HW1 4889   0.594   3.203   1.662
 1449SOL    HW2 4890   0.669   3.348   1.655
 1450SOL     OW 4891   1.824   2.054   1.227
 1450SOL    HW1 4892   1.820   1.964   1.271
 1450SOL    HW2 4893   1.827   2.043   1.128
 1451SOL     OW 4894   0.428   2.286   0.520
 1451SOL    HW1 4895   0.458   2.214   0.458
 1451SOL    HW2 4896   0.389   2.246   0.603
 1452SOL     OW 4897   1.705   3.349   1.104
 1452SOL    HW1 4898   1.612   3.324   1.077
 1452SOL    HW2 4899   1.731   3.299   1.186
 1453SOL     OW 4900   0.317   2.409   1.280
 1453SOL    HW1 4901   0.355   2.350   1.352
 1453SOL    HW2 4902   0.357   2.383   1.192
 1454SOL     OW 4903   0.812   3.448   0.687
 1454SOL    HW1 4904   0.844   3.458   0.593
 1454SOL    HW2 4905   0.733   3.386   0.689
 1455SOL     OW 4906   1.424   2.076   1.112
 1455SOL    HW1 4907   1.476   2.011   1.167
 1455SOL    HW2 4908   1.375   2.139   1.173
 1456SOL     OW 4909   1.001   1.896   1.154
 1456SOL    HW1 4910   0.938   1.824   1.123
 1456SOL    HW2 4911   1.094   1.860   1.154
 1457SOL     OW 4912   0.770   3.192   0.301
 1457SOL    HW1 4913   0.724   3.105   0.318
 1457SOL    HW2 4914   0.861   3.189   0.342
 1458SOL     OW 4915   0.618   3.429   1.284
 1458SOL    HW1 4916   0.613   3.511   1.341
 1458SOL    HW2 4917   0.707   3.426   1.239
 1459SOL     OW 4918   1.352   1.914   0.168
 1459SOL    HW1 4919   1.387   1.873   0.084
 1459SOL    HW2 4920   1.262   1.876   0.188
 1460SOL     OW 4921   1.300   2.315   0.691
 1460SOL    HW1 4922   1.241   2.395   0.695
 1460SOL    HW2 4923   1.315   2.280   0.784
 1461SOL     OW 4924   1.593   2.083   0.882
 1461SOL    HW1 4925   1.509   2.082   0.936
 1461SOL    HW2 4926   1.595   2.166   0.826
 1462SOL     OW 4927   0.039   2.939   0.300
 1462SOL    HW1 4928   0.138   2.928   0.291
 1462SOL    HW2 4929  -0.001   2.853   0.332
 1463SOL     OW 4930   0.875   3.508   0.337
 1463SOL    HW1 4931   0.798   3.473   0.283
 1463SOL    HW2 4932   0.843   3.579   0.399
 1464SOL     OW 4933   0.230   2.490   1.975
 1464SOL    HW1 4934   0.137   2.488   2.012
 1464SOL    HW2 4935   0.231   2.451   1.883
 1465SOL     OW 4936   0.225   2.137   2.858
 1465SOL    HW1 4937   0.260   2.120   2.950
 1465SOL    HW2 4938   0.137   2.092   2.846
 1466SOL     OW 4939   0.019   2.230   2.509
 1466SOL    HW1 4940  -0.063   2.273   2.548
 1466SOL    HW2 4941  -0.009   2.157   2.446
 1467SOL     OW 4942   0.569   3.137   3.027
 1467SOL    HW1 4943   0.476   3.130   2.990
 1467SOL    HW2 4944   0.580   3.226   3.071
 1468SOL     OW 4945   1.555   3.373   2.565
 1468SOL    HW1 4946   1.498   3.357   2.646
 1468SOL    HW2 4947   1.496   3.383   2.485
 1469SOL     OW 4948   1.135   2.565   2.579
 1469SOL    HW1 4949   1.192   2.643   2.554
 1469SOL    HW2 4950   1.075   2.591   2.655
 1470SOL     OW 4951   1.755   2.469   2.093
 1470SOL    HW1 4952   1.743   2.456   1.994
 1470SOL    HW2 4953   1.725   2.388   2.142
 1471SOL     OW 4954   0.768   3.006   2.885
 1471SOL    HW1 4955   0.690   3.023   2.945
 1471SOL    HW2 4956   0.802   3.093   2.849
 1472SOL     OW 4957   0.850   2.660   3.685
 1472SOL    HW1 4958   0.846   2.736   3.750
 1472SOL    HW2 4959   0.872   2.696   3.594
 1473SOL     OW 4960   0.685   2.874   2.527
 1473SOL    HW1 4961   0.754   2.858   2.597
 1473SOL    HW2 4962   0.612   2.931   2.565
 1474SOL     OW 4963   0.686   3.023   3.665
 1474SOL    HW1 4964   0.746   3.102   3.679
 1474SOL    HW2 4965   0.600   3.054   3.624
 1475SOL     OW 4966   0.335   3.297   2.923
 1475SOL    HW1 4967   0.257   3.266   2.870
 1475SOL    HW2 4968   0.393   3.355   2.866
 1476SOL     OW 4969   1.460   3.367   3.201
 1476SOL    HW1 4970   1.484   3.461   3.227
 1476SOL    HW2 4971   1.444   3.313   3.283
 1477SOL     OW 4972   0.438   2.254   3.361
 1477SOL    HW1 4973   0.520   2.198   3.370
 1477SOL    HW2 4974   0.357   2.196   3.365
 1478SOL     OW 4975   1.603   2.309   2.599
 1478SOL    HW1 4976   1.529   2.355   2.549
 1478SOL    HW2 4977   1.654   2.377   2.652
 1479SOL     OW 4978   0.231   3.575   2.345
 1479SOL    HW1 4979   0.265   3.652   2.399
 1479SOL    HW2 4980   0.275   3.575   2.255
 1480SOL     OW 4981   1.127   3.203   3.552
 1480SOL    HW1 4982   1.174   3.203   3.640
 1480SOL    HW2 4983   1.079   3.116   3.541
 1481SOL     OW 4984   0.230   3.296   2.400
 1481SOL    HW1 4985   0.204   3.392   2.400
 1481SOL    HW2 4986   0.159   3.242   2.445
 1482SOL     OW 4987   0.240   2.953   2.748
 1482SOL    HW1 4988   0.254   2.869   2.800
 1482SOL    HW2 4989   0.185   3.017   2.803
 1483SOL     OW 4990   0.620   3.648   3.301
 1483SOL    HW1 4991   0.528   3.631   3.336
 1483SOL    HW2 4992   0.648   3.740   3.327
 1484SOL     OW 4993   0.606   2.826   1.985
 1484SOL    HW1 4994   0.613   2.910   1.931
 1484SOL    HW2 4995   0.652   2.839   2.073
 1485SOL     OW 4996   1.594   1.976   3.342
 1485SOL    HW1 4997   1.576   2.043   3.270
 1485SOL    HW2 4998   1.591   2.022   3.431
 1486SOL     OW 4999   0.122   2.505   2.425
 1486SOL    HW1 5000   0.077   2.417   2.442
 1486SOL    HW2 5001   0.121   2.559   2.509
 1487SOL     OW 5002   1.842   3.629   2.221
 1487SOL    HW1 5003   1.896   3.600   2.301
 1487SOL    HW2 5004   1.872   3.719   2.192
 1488SOL     OW 5005   0.027   3.458   1.979
 1488SOL    HW1 5006   0.008   3.362   2.000
 1488SOL    HW2 5007  -0.006   3.516   2.054
 1489SOL     OW 5008   1.689   2.784   2.474
 1489SOL    HW1 5009   1.784   2.755   2.482
 1489SOL    HW2 5010   1.681   2.849   2.399
 1490SOL     OW 5011   1.641   2.970   2.294
 1490SOL    HW1 5012   1.727   2.972   2.242
 1490SOL    HW2 5013   1.655   3.017   2.382
 1491SOL     OW 5014   0.113   2.599   3.459
 1491SOL    HW1 5015   0.201   2.586   3.504
 1491SOL    HW2 5016   0.100   2.696   3.437
 1492SOL     OW 5017   0.613   3.227   2.588
 1492SOL    HW1 5018   0.564   3.140   2.597
 1492SOL    HW2 5019   0.590   3.270   2.501
 1493SOL     OW 5020   1.293   3.090   3.285
 1493SOL    HW1 5021   1.330   3.017   3.227
 1493SOL    HW2 5022   1.345   3.095   3.370
 1494SOL     OW 5023   0.809   1.866   2.364
 1494SOL    HW1 5024   0.849   1.957   2.355
 1494SOL    HW2 5025   0.709   1.874   2.370
 1495SOL     OW 5026   0.197   2.838   3.126
 1495SOL    HW1 5027   0.286   2.793   3.112
 1495SOL    HW2 5028   0.124   2.773   3.107
 1496SOL     OW 5029   1.525   2.861   2.052
 1496SOL    HW1 5030   1.462   2.785   2.065
 1496SOL    HW2 5031   1.573   2.879   2.138
 1497SOL     OW 5032   1.187   3.654   3.478
 1497SOL    HW1 5033   1.211   3.714   3.402
 1497SOL    HW2 5034   1.194   3.559   3.448
 1498SOL     OW 5035   0.317   2.113   3.663
 1498SOL    HW1 5036   0.388   2.184   3.669
 1498SOL    HW2 5037   0.229   2.152   3.691
 1499SOL     OW 5038   1.466   3.279   2.815
 1499SOL    HW1 5039   1.407   3.285   2.895
 1499SOL    HW2 5040   1.451   3.191   2.769
 1500SOL     OW 5041   1.667   3.576   2.434
 1500SOL    HW1 5042   1.626   3.553   2.346
 1500SOL    HW2 5043   1.649   3.502   2.499
 1501SOL     OW 5044   0.598   2.591   2.132
 1501SOL    HW1 5045   0.622   2.660   2.064
 1501SOL    HW2 5046   0.520   2.624   2.186
 1502SOL     OW 5047   1.281   2.207   2.806
 1502SOL    HW1 5048   1.195   2.157   2.793
 1502SOL    HW2 5049   1.343   2.153   2.862
 1503SOL     OW 5050   1.576   3.524   2.169
 1503SOL    HW1 5051   1.665   3.570   2.172
 1503SOL    HW2 5052   1.555   3.500   2.074
 1504SOL     OW 5053   0.807   2.467   3.327
 1504SOL    HW1 5054   0.760   2.464   3.416
 1504SOL    HW2 5055   0.756   2.412   3.261
 1505SOL     OW 5056   1.394   2.331   3.536
 1505SOL    HW1 5057   1.374   2.374   3.624
 1505SOL    HW2 5058   1.472   2.269   3.545
 1506SOL     OW 5059   0.973   2.752   3.434
 1506SOL    HW1 5060   1.019   2.668   3.405
 1506SOL    HW2 5061   0.917   2.786   3.359
 1507SOL     OW 5062   0.991   2.272   3.104
 1507SOL    HW1 5063   0.914   2.306   3.158
 1507SOL    HW2 5064   0.957   2.221   3.025
 1508SOL     OW 5065   1.041   2.563   2.291
 1508SOL    HW1 5066   1.067   2.559   2.387
 1508SOL    HW2 5067   0.956   2.512   2.277
 1509SOL     OW 5068   0.076   2.673   2.651
 1509SOL    HW1 5069   0.175   2.661   2.660
 1509SOL    HW2 5070   0.052   2.768   2.672
 1510SOL     OW 5071   0.130   3.683   3.433
 1510SOL    HW1 5072   0.120   3.668   3.532
 1510SOL    HW2 5073   0.044   3.719   3.397
 1511SOL     OW 5074   0.865   2.210   2.057
 1511SOL    HW1 5075   0.924   2.273   2.008
 1511SOL    HW2 5076   0.884   2.116   2.028
 1512SOL     OW 5077   1.719   2.447   3.693
 1512SOL    HW1 5078   1.693   2.536   3.657
 1512SOL    HW2 5079   1.717   2.379   3.620
 1513SOL     OW 5080   1.362   3.006   2.407
 1513SOL    HW1 5081   1.445   2.977   2.359
 1513SOL    HW2 5082   1.313   3.073   2.351
 1514SOL     OW 5083   0.550   2.058   2.747
 1514SOL    HW1 5084   0.545   2.053   2.847
 1514SOL    HW2 5085   0.552   2.154   2.718
 1515SOL     OW 5086   1.008   3.318   2.339
 1515SOL    HW1 5087   0.962   3.390   2.287
 1515SOL    HW2 5088   1.004   3.338   2.437
 1516SOL     OW 5089   0.351   3.663   2.715
 1516SOL    HW1 5090   0.401   3.577   2.721
 1516SOL    HW2 5091   0.416   3.740   2.712
 1517SOL     OW 5092   1.795   2.928   2.735
 1517SOL    HW1 5093   1.733   2.913   2.659
 1517SOL    HW2 5094   1.743   2.939   2.820
 1518SOL     OW 5095   1.227   3.412   3.368
 1518SOL    HW1 5096   1.233   3.335   3.432
 1518SOL    HW2 5097   1.175   3.386   3.288
 1519SOL     OW 5098   0.321   2.805   2.104
 1519SOL    HW1 5099   0.403   2.844   2.062
 1519SOL    HW2 5100   0.294   2.723   2.055
 1520SOL     OW 5101   1.458   2.597   2.590
 1520SOL    HW1 5102   1.453   2.532   2.665
 1520SOL    HW2 5103   1.538   2.656   2.603
 1521SOL     OW 5104   0.461   3.128   3.589
 1521SOL    HW1 5105   0.411   3.129   3.503
 1521SOL    HW2 5106   0.398   3.110   3.665
 1522SOL     OW 5107   1.111   3.638   2.099
 1522SOL    HW1 5108   1.051   3.576   2.149
 1522SOL    HW2 5109   1.142   3.594   2.014
 1523SOL     OW 5110   0.202   2.147   3.360
 1523SOL    HW1 5111   0.122   2.207   3.347
 1523SOL    HW2 5112   0.192   2.098   3.446
 1524SOL     OW 5113   1.632   3.239   1.943
 1524SOL    HW1 5114   1.600   3.333   1.933
 1524SOL    HW2 5115   1.556   3.176   1.931
 1525SOL     OW 5116   0.464   3.605   2.185
 1525SOL    HW1 5117   0.497   3.644   2.271
 1525SOL    HW2 5118   0.540   3.598   2.120
 1526SOL     OW 5119   1.400   1.969   2.288
 1526SOL    HW1 5120   1.376   1.932   2.198
 1526SOL    HW2 5121   1.499   1.985   2.292
 1527SOL     OW 5122   0.249   3.647   3.103
 1527SOL    HW1 5123   0.306   3.582   3.153
 1527SOL    HW2 5124   0.233   3.614   3.010
 1528SOL     OW 5125   0.940   3.560   2.766
 1528SOL    HW1 5126   1.020   3.503   2.787
 1528SOL    HW2 5127   0.891   3.520   2.689
 1529SOL     OW 5128   0.382   2.562   2.342
 1529SOL    HW1 5129   0.427   2.472   2.339
 1529SOL    HW2 5130   0.288   2.551   2.375
 1530SOL     OW 5131   1.547   2.084   3.591
 1530SOL    HW1 5132   1.542   2.121   3.683
 1530SOL    HW2 5133   1.475   2.015   3.579
 1531SOL     OW 5134   0.614   1.984   1.979
 1531SOL    HW1 5135   0.712   1.962   1.986
 1531SOL    HW2 5136   0.583   1.967   1.886
 1532SOL     OW 5137   0.781   2.126   3.611
 1532SOL    HW1 5138   0.848   2.065   3.654
 1532SOL    HW2 5139   0.708   2.145   3.676
 1533SOL     OW 5140   0.888   3.376   3.057
 1533SOL    HW1 5141   0.865   3.351   2.963
 1533SOL    HW2 5142   0.949   3.307   3.096
 1534SOL     OW 5143   1.351   2.452   3.295
 1534SOL    HW1 5144   1.379   2.409   3.380
 1534SOL    HW2 5145   1.376   2.548   3.296
 1535SOL     OW 5146   0.803   3.264   2.786
 1535SOL    HW1 5147   0.893   3.278   2.744
 1535SOL    HW2 5148   0.732   3.266   2.715
 1536SOL     OW 5149   0.922   2.365   2.761
 1536SOL    HW1 5150   0.897   2.356   2.665
 1536SOL    HW2 5151   0.970   2.283   2.792
 1537SOL     OW 5152   0.539   1.926   2.374
 1537SOL    HW1 5153   0.458   1.927   2.432
 1537SOL    HW2 5154   0.542   2.009   2.319
 1538SOL     OW 5155   1.434   3.050   1.903
 1538SOL    HW1 5156   1.466   2.974   1.960
 1538SOL    HW2 5157   1.342   3.077   1.933
 1539SOL     OW 5158   0.297   1.897   2.033
 1539SOL    HW1 5159   0.346   1.981   2.012
 1539SOL    HW2 5160   0.359   1.832   2.078
 1540SOL     OW 5161   0.935   2.098   2.342
 1540SOL    HW1 5162   0.887   2.139   2.264
 1540SOL    HW2 5163   1.034   2.096   2.323
 1541SOL     OW 5164   1.076   2.545   3.326
 1541SOL    HW1 5165   0.996   2.484   3.329
 1541SOL    HW2 5166   1.157   2.492   3.302
 1542SOL     OW 5167   1.227   3.432   2.655
 1542SOL    HW1 5168   1.248   3.506   2.590
 1542SOL    HW2 5169   1.295   3.432   2.728
 1543SOL     OW 5170   0.459   3.014   2.603
 1543SOL    HW1 5171   0.388   2.987   2.668
 1543SOL    HW2 5172   0.433   2.986   2.510
 1544SOL     OW 5173   1.271   3.659   2.453
 1544SOL    HW1 5174   1.315   3.723   2.389
 1544SOL    HW2 5175   1.221   3.711   2.523
 1545SOL     OW 5176   1.032   2.411   1.878
 1545SOL    HW1 5177   0.991   2.493   1.839
 1545SOL    HW2 5178   1.096   2.437   1.951
 1546SOL     OW 5179   0.078   2.418   3.248
 1546SOL    HW1 5180   0.170   2.417   3.207
 1546SOL    HW2 5181   0.072   2.492   3.315
 1547SOL     OW 5182   0.561   2.084   3.009
 1547SOL    HW1 5183   0.599   2.000   3.046
 1547SOL    HW2 5184   0.473   2.103   3.053
 1548SOL     OW 5185   0.866   2.316   2.504
 1548SOL    HW1 5186   0.834   2.388   2.442
 1548SOL    HW2 5187   0.890   2.235   2.451
 1549SOL     OW 5188   1.017   1.901   2.615
 1549SOL    HW1 5189   0.945   1.906   2.546
 1549SOL    HW2 5190   0.993   1.832   2.684
 1550SOL     OW 5191   1.429   3.035   2.729
 1550SOL    HW1 5192   1.374   2.951   2.722
 1550SOL    HW2 5193   1.455   3.064   2.637
 1551SOL     OW 5194   1.466   2.452   2.854
 1551SOL    HW1 5195   1.436   2.357   2.861
 1551SOL    HW2 5196   1.539   2.468   2.920
 1552SOL     OW 5197   1.857   2.695   2.239
 1552SOL    HW1 5198   1.899   2.631   2.303
 1552SOL    HW2 5199   1.819   2.644   2.161
 1553SOL     OW 5200   0.488   3.247   2.036
 1553SOL    HW1 5201   0.401   3.232   2.083
 1553SOL    HW2 5202   0.471   3.273   1.941
 1554SOL     OW 5203   1.664   3.142   2.519
 1554SOL    HW1 5204   1.763   3.150   2.533
 1554SOL    HW2 5205   1.619   3.226   2.550
 1555SOL     OW 5206   1.390   2.437   1.940
 1555SOL    HW1 5207   1.336   2.416   2.021
 1555SOL    HW2 5208   1.481   2.396   1.949
 1556SOL     OW 5209   0.527   2.118   2.190
 1556SOL    HW1 5210   0.554   2.059   2.115
 1556SOL    HW2 5211   0.527   2.213   2.159
 1557SOL     OW 5212   1.754   3.085   3.450
 1557SOL    HW1 5213   1.845   3.046   3.437
 1557SOL    HW2 5214   1.762   3.181   3.474
 1558SOL     OW 5215   1.064   3.209   3.202
 1558SOL    HW1 5216   0.984   3.186   3.257
 1558SOL    HW2 5217   1.147   3.183   3.251
 1559SOL     OW 5218   1.592   3.491   3.487
 1559SOL    HW1 5219   1.619   3.525   3.397
 1559SOL    HW2 5220   1.671   3.453   3.533
 1560SOL     OW 5221   1.111   3.057   2.962
 1560SOL    HW1 5222   1.071   3.101   3.043
 1560SOL    HW2 5223   1.070   3.094   2.879
 1561SOL     OW 5224   1.638   2.961   2.941
 1561SOL    HW1 5225   1.643   3.042   3.000
 1561SOL    HW2 5226   1.552   2.963   2.890
 1562SOL     OW 5227   0.915   1.951   3.264
 1562SOL    HW1 5228   0.940   1.931   3.169
 1562SOL    HW2 5229   0.987   2.007   3.306
 1563SOL     OW 5230   0.980   2.978   3.581
 1563SOL    HW1 5231   0.881   2.984   3.591
 1563SOL    HW2 5232   1.003   2.898   3.525
 1564SOL     OW 5233   0.705   2.912   2.230
 1564SOL    HW1 5234   0.691   2.919   2.329
 1564SOL    HW2 5235   0.789   2.861   2.212
 1565SOL     OW 5236   0.410   2.675   3.113
 1565SOL    HW1 5237   0.496   2.687   3.163
 1565SOL    HW2 5238   0.368   2.588   3.140
 1566SOL     OW 5239   1.274   2.248   3.124
 1566SOL    HW1 5240   1.295   2.322   3.188
 1566SOL    HW2 5241   1.185   2.265   3.081
 1567SOL     OW 5242   0.064   3.426   3.193
 1567SOL    HW1 5243   0.018   3.508   3.159
 1567SOL    HW2 5244   0.162   3.445   3.202
 1568SOL     OW 5245   0.367   2.962   2.363
 1568SOL    HW1 5246   0.360   3.045   2.307
 1568SOL    HW2 5247   0.371   2.882   2.303
 1569SOL     OW 5248   0.566   2.399   2.727
 1569SOL    HW1 5249   0.578   2.465   2.653
 1569SOL    HW2 5250   0.612   2.433   2.810
 1570SOL     OW 5251   1.252   3.210   2.250
 1570SOL    HW1 5252   1.302   3.287   2.290
 1570SOL    HW2 5253   1.157   3.212   2.282
 1571SOL     OW 5254   1.272   3.307   3.004
 1571SOL    HW1 5255   1.319   3.320   3.091
 1571SOL    HW2 5256   1.206   3.233   3.013
 1572SOL     OW 5257   1.582   2.501   2.334
 1572SOL    HW1 5258   1.551   2.562   2.407
 1572SOL    HW2 5259   1.632   2.553   2.265
 1573SOL     OW 5260   0.354   3.372   3.191
 1573SOL    HW1 5261   0.333   3.328   3.104
 1573SOL    HW2 5262   0.451   3.398   3.194
 1574SOL     OW 5263   0.402   2.613   3.460
 1574SOL    HW1 5264   0.470   2.668   3.413
 1574SOL    HW2 5265   0.442   2.525   3.487
 1575SOL     OW 5266   1.587   2.641   3.532
 1575SOL    HW1 5267   1.495   2.679   3.527
 1575SOL    HW2 5268   1.647   2.688   3.467
 1576SOL     OW 5269   1.013   1.967   3.632
 1576SOL    HW1 5270   1.019   2.052   3.580
 1576SOL    HW2 5271   1.045   1.891   3.575
 1577SOL     OW 5272   0.504   1.912   3.602
 1577SOL    HW1 5273   0.462   1.855   3.532
 1577SOL    HW2 5274   0.438   1.981   3.634
 1578SOL     OW 5275   0.573   2.732   2.891
 1578SOL    HW1 5276   0.617   2.821   2.882
 1578SOL    HW2 5277   0.510   2.732   2.968
 1579SOL     OW 5278   1.360   2.724   2.907
 1579SOL    HW1 5279   1.285   2.724   2.841
 1579SOL    HW2 5280   1.397   2.632   2.916
 1580SOL     OW 5281   1.209   2.387   2.137
 1580SOL    HW1 5282   1.222   2.303   2.191
 1580SOL    HW2 5283   1.180   2.461   2.197
 1581SOL     OW 5284   0.307   2.075   3.093
 1581SOL    HW1 5285   0.284   2.112   3.183
 1581SOL    HW2 5286   0.277   1.980   3.087
 1582SOL     OW 5287   0.037   3.172   3.144
 1582SOL    HW1 5288   0.090   3.123   3.212
 1582SOL    HW2 5289   0.059   3.270   3.149
 1583SOL     OW 5290   0.732   2.496   2.926
 1583SOL    HW1 5291   0.791   2.470   2.850
 1583SOL    HW2 5292   0.704   2.592   2.915
 1584SOL     OW 5293   1.728   2.797   3.716
 1584SOL    HW1 5294   1.682   2.790   3.627
 1584SOL    HW2 5295   1.666   2.841   3.782
 1585SOL     OW 5296   0.307   1.925   2.480
 1585SOL    HW1 5297   0.296   2.019   2.513
 1585SOL    HW2 5298   0.302   1.862   2.557
 1586SOL     OW 5299   1.622   2.229   2.236
 1586SOL    HW1 5300   1.624   2.153   2.300
 1586SOL    HW2 5301   1.574   2.306   2.276
 1587SOL     OW 5302   1.023   2.628   2.828
 1587SOL    HW1 5303   1.038   2.649   2.924
 1587SOL    HW2 5304   0.993   2.533   2.819
 1588SOL     OW 5305   0.980   3.435   3.562
 1588SOL    HW1 5306   0.960   3.479   3.474
 1588SOL    HW2 5307   1.019   3.344   3.546
 1589SOL     OW 5308   1.859   3.380   3.467
 1589SOL    HW1 5309   1.873   3.407   3.372
 1589SOL    HW2 5310   1.942   3.402   3.520
 1590SOL     OW 5311   0.350   2.760   3.666
 1590SOL    HW1 5312   0.426   2.804   3.714
 1590SOL    HW2 5313   0.385   2.713   3.584
 1591SOL     OW 5314   1.540   2.136   1.987
 1591SOL    HW1 5315   1.479   2.061   2.010
 1591SOL    HW2 5316   1.562   2.188   2.070
 1592SOL     OW 5317   1.303   2.700   1.904
 1592SOL    HW1 5318   1.337   2.607   1.919
 1592SOL    HW2 5319   1.321   2.727   1.809
 1593SOL     OW 5320   1.068   3.195   2.711
 1593SOL    HW1 5321   1.075   3.111   2.656
 1593SOL    HW2 5322   1.130   3.264   2.675
 1594SOL     OW 5323   0.319   2.672   2.811
 1594SOL    HW1 5324   0.412   2.708   2.816
 1594SOL    HW2 5325   0.313   2.587   2.863
 1595SOL     OW 5326   0.339   2.371   2.868
 1595SOL    HW1 5327   0.287   2.288   2.851
 1595SOL    HW2 5328   0.416   2.376   2.804
 1596SOL     OW 5329   1.138   2.242   3.540
 1596SOL    HW1 5330   1.093   2.305   3.604
 1596SOL    HW2 5331   1.231   2.273   3.523
 1597SOL     OW 5332   1.160   2.069   3.339
 1597SOL    HW1 5333   1.160   2.133   3.416
 1597SOL    HW2 5334   1.188   2.117   3.256
 1598SOL     OW 5335   0.008   3.188   2.062
 1598SOL    HW1 5336  -0.085   3.209   2.031
 1598SOL    HW2 5337   0.018   3.089   2.075
 1599SOL     OW 5338   0.088   3.663   2.789
 1599SOL    HW1 5339   0.046   3.577   2.762
 1599SOL    HW2 5340   0.182   3.666   2.755
 1600SOL     OW 5341   0.504   3.430   2.772
 1600SOL    HW1 5342   0.570   3.504   2.781
 1600SOL    HW2 5343   0.548   3.351   2.730
 1601SOL     OW 5344   1.002   2.658   3.100
 1601SOL    HW1 5345   1.043   2.626   3.186
 1601SOL    HW2 5346   0.906   2.631   3.097
 1602SOL     OW 5347   0.040   2.406   2.976
 1602SOL    HW1 5348   0.125   2.373   2.935
 1602SOL    HW2 5349   0.053   2.421   3.074
 1603SOL     OW 5350   0.189   2.382   3.584
 1603SOL    HW1 5351   0.248   2.342   3.514
 1603SOL    HW2 5352   0.131   2.453   3.543
 1604SOL     OW 5353   1.369   2.812   3.522
 1604SOL    HW1 5354   1.408   2.901   3.542
 1604SOL    HW2 5355   1.379   2.792   3.425
 1605SOL     OW 5356   0.815   2.434   2.187
 1605SOL    HW1 5357   0.822   2.345   2.141
 1605SOL    HW2 5358   0.721   2.468   2.179
 1606SOL     OW 5359   1.657   2.466   3.068
 1606SOL    HW1 5360   1.619   2.397   3.130
 1606SOL    HW2 5361   1.739   2.430   3.024
 1607SOL     OW 5362   0.252   3.426   3.606
 1607SOL    HW1 5363   0.222   3.483   3.682
 1607SOL    HW2 5364   0.245   3.329   3.632
 1608SOL     OW 5365   0.671   2.326   3.131
 1608SOL    HW1 5366   0.637   2.237   3.101
 1608SOL    HW2 5367   0.697   2.380   3.051
 1609SOL     OW 5368   0.930   3.540   3.327
 1609SOL    HW1 5369   0.906   3.522   3.232
 1609SOL    HW2 5370   0.960   3.634   3.337
 1610SOL     OW 5371   0.473   2.362   2.053
 1610SOL    HW1 5372   0.534   2.442   2.057
 1610SOL    HW2 5373   0.378   2.393   2.060
 1611SOL     OW 5374   0.159   2.999   3.328
 1611SOL    HW1 5375   0.181   2.938   3.404
 1611SOL    HW2 5376   0.169   2.950   3.242
 1612SOL     OW 5377   1.347   2.921   3.096
 1612SOL    HW1 5378   1.371   2.858   3.022
 1612SOL    HW2 5379   1.257   2.961   3.078
 1613SOL     OW 5380   1.302   2.717   2.171
 1613SOL    HW1 5381   1.216   2.686   2.213
 1613SOL    HW2 5382   1.298   2.703   2.072
 1614SOL     OW 5383   1.759   3.609   3.016
 1614SOL    HW1 5384   1.820   3.639   2.943
 1614SOL    HW2 5385   1.721   3.520   2.994
 1615SOL     OW 5386   1.252   3.593   2.990
 1615SOL    HW1 5387   1.336   3.598   2.936
 1615SOL    HW2 5388   1.229   3.497   3.008
 1616SOL     OW 5389   0.083   3.120   2.884
 1616SOL    HW1 5390   0.078   3.119   2.984
 1616SOL    HW2 5391   0.000   3.079   2.846
 1617SOL     OW 5392   0.688   3.524   3.578
 1617SOL    HW1 5393   0.632   3.605   3.587
 1617SOL    HW2 5394   0.740   3.528   3.492
 1618SOL     OW 5395   1.726   1.997   2.385
 1618SOL    HW1 5396   1.799   1.980   2.318
 1618SOL    HW2 5397   1.695   1.910   2.423
 1619SOL     OW 5398   1.388   3.435   2.339
 1619SOL    HW1 5399   1.455   3.447   2.265
 1619SOL    HW2 5400   1.348   3.524   2.362
 1620SOL     OW 5401   0.130   3.656   3.713
 1620SOL    HW1 5402   0.089   3.582   3.766
 1620SOL    HW2 5403   0.194   3.707   3.771
 1621SOL     OW 5404   1.280   2.789   2.534
 1621SOL    HW1 5405   1.340   2.708   2.536
 1621SOL    HW2 5406   1.320   2.858   2.474
 1622SOL     OW 5407   0.830   3.135   3.284
 1622SOL    HW1 5408   0.825   3.168   3.379
 1622SOL    HW2 5409   0.744   3.154   3.238
 1623SOL     OW 5410   0.672   3.478   2.016
 1623SOL    HW1 5411   0.681   3.488   1.917
 1623SOL    HW2 5412   0.632   3.389   2.037
 1624SOL     OW 5413   1.650   3.582   3.256
 1624SOL    HW1 5414   1.703   3.592   3.172
 1624SOL    HW2 5415   1.623   3.672   3.290
 1625SOL     OW 5416   1.841   2.037   2.825
 1625SOL    HW1 5417   1.880   1.952   2.789
 1625SOL    HW2 5418   1.743   2.039   2.806
 1626SOL     OW 5419   0.263   2.188   2.582
 1626SOL    HW1 5420   0.184   2.239   2.548
 1626SOL    HW2 5421   0.254   2.173   2.680
 1627SOL     OW 5422   1.194   3.474   1.893
 1627SOL    HW1 5423   1.200   3.381   1.930
 1627SOL    HW2 5424   1.135   3.474   1.813
 1628SOL     OW 5425   0.822   2.864   3.234
 1628SOL    HW1 5426   0.862   2.863   3.142
 1628SOL    HW2 5427   0.832   2.956   3.274
 1629SOL     OW 5428   0.916   2.772   2.153
 1629SOL    HW1 5429   0.979   2.810   2.085
 1629SOL    HW2 5430   0.956   2.689   2.192
 1630SOL     OW 5431   1.504   3.469   1.906
 1630SOL    HW1 5432   1.412   3.506   1.913
 1630SOL    HW2 5433   1.542   3.489   1.816
 1631SOL     OW 5434   0.372   3.150   3.352
 1631SOL    HW1 5435   0.359   3.243   3.318
 1631SOL    HW2 5436   0.288   3.098   3.339
 1632SOL     OW 5437   1.614   3.154   3.151
 1632SOL    HW1 5438   1.674   3.157   3.231
 1632SOL    HW2 5439   1.539   3.218   3.164
 1633SOL     OW 5440   1.039   2.960   2.558
 1633SOL    HW1 5441   0.969   2.913   2.612
 1633SOL    HW2 5442   1.098   2.892   2.515
 1634SOL     OW 5443   1.014   2.098   2.833
 1634SOL    HW1 5444   1.006   2.062   2.740
 1634SOL    HW2 5445   1.012   2.022   2.898
 1635SOL     OW 5446   0.590   3.349   2.353
 1635SOL    HW1 5447   0.632   3.291   2.283
 1635SOL    HW2 5448   0.546   3.428   2.309
 1636SOL     OW 5449   1.709   2.247   3.243
 1636SOL    HW1 5450   1.782   2.316   3.247
 1636SOL    HW2 5451   1.737   2.172   3.184
 1637SOL     OW 5452   0.255   3.210   2.152
 1637SOL    HW1 5453   0.159   3.211   2.125
 1637SOL    HW2 5454   0.267   3.263   2.236
 1638SOL     OW 5455   0.105   2.875   3.588
 1638SOL    HW1 5456   0.028   2.842   3.642
 1638SOL    HW2 5457   0.190   2.845   3.630
 1639SOL     OW 5458   0.672   2.065   3.351
 1639SOL    HW1 5459   0.762   2.049   3.311
 1639SOL    HW2 5460   0.680   2.070   3.450
 1640SOL     OW 5461   0.075   2.207   1.895
 1640SOL    HW1 5462  -0.017   2.179   1.866
 1640SOL    HW2 5463   0.106   2.284   1.839
 1641SOL     OW 5464   1.440   2.718   3.260
 1641SOL    HW1 5465   1.383   2.770   3.197
 1641SOL    HW2 5466   1.536   2.730   3.236
 1642SOL     OW 5467   0.072   2.028   2.180
 1642SOL    HW1 5468   0.055   2.111   2.126
 1642SOL    HW2 5469   0.162   1.991   2.158
 1643SOL     OW 5470   1.183   3.197   1.981
 1643SOL    HW1 5471   1.084   3.186   1.983
 1643SOL    HW2 5472   1.217   3.212   2.074
 1644SOL     OW 5473   0.613   2.704   3.293
 1644SOL    HW1 5474   0.669   2.785   3.276
 1644SOL    HW2 5475   0.672   2.624   3.296
 1645SOL     OW 5476   1.493   3.629   2.821
 1645SOL    HW1 5477   1.526   3.693   2.752
 1645SOL    HW2 5478   1.559   3.623   2.896
 1646SOL     OW 5479   0.716   2.427   3.570
 1646SOL    HW1 5480   0.735   2.492   3.644
 1646SOL    HW2 5481   0.776   2.347   3.579
 1647SOL     OW 5482   1.450   3.082   3.495
 1647SOL    HW1 5483   1.441   3.072   3.594
 1647SOL    HW2 5484   1.546   3.075   3.469
 1648SOL     OW 5485   0.390   3.603   3.422
 1648SOL    HW1 5486   0.299   3.644   3.420
 1648SOL    HW2 5487   0.383   3.509   3.454
 1649SOL     OW 5488   1.674   2.745   3.116
 1649SOL    HW1 5489   1.647   2.656   3.079
 1649SOL    HW2 5490   1.675   2.813   3.043
 1650SOL     OW 5491   1.225   2.187   2.311
 1650SOL    HW1 5492   1.290   2.113   2.300
 1650SOL    HW2 5493   1.245   2.237   2.395
 1651SOL     OW 5494   0.594   2.607   2.514
 1651SOL    HW1 5495   0.644   2.692   2.495
 1651SOL    HW2 5496   0.506   2.609   2.466
 1652SOL     OW 5497   1.777   2.204   3.504
 1652SOL    HW1 5498   1.760   2.235   3.410
 1652SOL    HW2 5499   1.693   2.167   3.542
 1653SOL     OW 5500   1.730   2.796   3.379
 1653SOL    HW1 5501   1.768   2.887   3.394
 1653SOL    HW2 5502   1.722   2.779   3.280
 1654SOL     OW 5503   0.859   3.236   1.878
 1654SOL    HW1 5504   0.813   3.251   1.966
 1654SOL    HW2 5505   0.903   3.321   1.848
 1655SOL     OW 5506   0.661   3.652   2.815
 1655SOL    HW1 5507   0.615   3.740   2.802
 1655SOL    HW2 5508   0.760   3.664   2.808
 1656SOL     OW 5509   0.859   2.818   2.723
 1656SOL    HW1 5510   0.913   2.749   2.771
 1656SOL    HW2 5511   0.827   2.887   2.789
 1657SOL     OW 5512   1.083   2.846   1.949
 1657SOL    HW1 5513   1.060   2.899   1.867
 1657SOL    HW2 5514   1.164   2.790   1.930
 1658SOL     OW 5515   1.861   3.431   2.713
 1658SOL    HW1 5516   1.790   3.419   2.643
 1658SOL    HW2 5517   1.862   3.352   2.773
 1659SOL     OW 5518   0.221   3.176   3.706
 1659SOL    HW1 5519   0.156   3.103   3.685
 1659SOL    HW2 5520   0.225   3.190   3.804
 1660SOL     OW 5521   0.079   3.102   2.515
 1660SOL    HW1 5522   0.078   3.055   2.603
 1660SOL    HW2 5523   0.161   3.074   2.464
 1661SOL     OW 5524   0.672   3.253   3.486
 1661SOL    HW1 5525   0.594   3.203   3.524
 1661SOL    HW2 5526   0.669   3.348   3.517
 1662SOL     OW 5527   1.824   2.054   3.089
 1662SOL    HW1 5528   1.820   1.964   3.133
 1662SOL    HW2 5529   1.827   2.043   2.990
 1663SOL     OW 5530   0.428   2.286   2.382
 1663SOL    HW1 5531   0.458   2.214   2.320
 1663SOL    HW2 5532   0.389   2.246   2.465
 1664SOL     OW 5533   1.705   3.349   2.966
 1664SOL    HW1 5534   1.612   3.324   2.939
 1664SOL    HW2 5535   1.731   3.299   3.048
 1665SOL     OW 5536   0.317   2.409   3.142
 1665SOL    HW1 5537   0.355   2.350   3.214
 1665SOL    HW2 5538   0.357   2.383   3.054
 1666SOL     OW 5539   0.812   3.448   2.549
 1666SOL    HW1 5540   0.844   3.458   2.455
 1666SOL    HW2 5541   0.733   3.386   2.551
 1667SOL     OW 5542   1.424   2.076   2.974
 1667SOL    HW1 5543   1.476   2.011   3.029
 1667SOL    HW2 5544   1.375   2.139   3.035
 1668SOL     OW 5545   1.001   1.896   3.016
 1668SOL    HW1 5546   0.938   1.824   2.985
 1668SOL    HW2 5547   1.094   1.860   3.016
 1669SOL     OW 5548   0.770   3.192   2.163
 1669SOL    HW1 5549   0.724   3.105   2.180
 1669SOL    HW2 5550   0.861   3.189   2.204
 1670SOL     OW 5551   0.618   3.429   3.146
 1670SOL    HW1 5552   0.613   3.511   3.203
 1670SOL    HW2 5553   0.707   3.426   3.101
 1671SOL     OW 5554   1.352   1.914   2.030
 1671SOL    HW1 5555   1.387   1.873   1.946
 1671SOL    HW2 5556   1.262   1.876   2.050
 1672SOL     OW 5557   1.300   2.315   2.553
 1672SOL    HW1 5558   1.241   2.395   2.557
 1672SOL    HW2 5559   1.315   2.280   2.646
 1673SOL     OW 5560   1.593   2.083   2.744
 1673SOL    HW1 5561   1.509   2.082   2.798
 1673SOL    HW2 5562   1.595   2.166   2.688
 1674SOL     OW 5563   0.039   2.939   2.162
 1674SOL    HW1 5564   0.138   2.928   2.153
 1674SOL    HW2 5565  -0.001   2.853   2.194
 1675SOL     OW 5566   0.875   3.508   2.199
 1675SOL    HW1 5567   0.798   3.473   2.145
 1675SOL    HW2 5568   0.843   3.579   2.261
 1676SOL     OW 5569   0.230   2.490   3.837
 1676SOL    HW1 5570   0.137   2.488   3.874
 1676SOL    HW2 5571   0.231   2.451   3.745
 1677SOL     OW 5572   0.225   2.137   4.720
 1677SOL    HW1 5573   0.260   2.120   4.812
 1677SOL    HW2 5574   0.137   2.092   4.708
 1678SOL     OW 5575   0.019   2.230   4.371
 1678SOL    HW1 5576  -0.063   2.273   4.410
 1678SOL    HW2 5577  -0.009   2.157   4.308
 1679SOL     OW 5578   0.569   3.137   4.889
 1679SOL    HW1 5579   0.476   3.130   4.852
 1679SOL    HW2 5580   0.580   3.226   4.933
 1680SOL     OW 5581   1.555   3.373   4.427
 1680SOL    HW1 5582   1.498   3.357   4.508
 1680SOL    HW2 5583   1.496   3.383   4.347
 1681SOL     OW 5584   1.135   2.565   4.441
 1681SOL    HW1 5585   1.192   2.643   4.416
 1681SOL    HW2 5586   1.075   2.591   4.517
 1682SOL     OW 5587   1.755   2.469   3.955
 1682SOL    HW1 5588   1.743   2.456   3.856
 1682SOL    HW2 5589   1.725   2.388   4.004
 1683SOL     OW 5590   0.768   3.006   4.747
 1683SOL    HW1 5591   0.690   3.023   4.807
 1683SOL    HW2 5592   0.802   3.093   4.711
 1684SOL     OW 5593   0.850   2.660   5.547
 1684SOL    HW1 5594   0.846   2.736   5.612
 1684SOL    HW2 5595   0.872   2.696   5.456
 1685SOL     OW 5596   0.685   2.874   4.389
 1685SOL    HW1 5597   0.754   2.858   4.459
 1685SOL    HW2 5598   0.612   2.931   4.427
 1686SOL     OW 5599   0.686   3.023   5.527
 1686SOL    HW1 5600   0.746   3.102   5.541
 1686SOL    HW2 5601   0.600   3.054   5.486
 1687SOL     OW 5602   0.335   3.297   4.785
 1687SOL    HW1 5603   0.257   3.266   4.732
 1687SOL    HW2 5604   0.393   3.355   4.728
 1688SOL     OW 5605   1.460   3.367   5.063
 1688SOL    HW1 5606   1.484   3.461   5.089
 1688SOL    HW2 5607   1.444   3.313   5.145
 1689SOL     OW 5608   0.438   2.254   5.223
 1689SOL    HW1 5609   0.520   2.198   5.232
 1689SOL    HW2 5610   0.357   2.196   5.227
 1690SOL     OW 5611   1.603   2.309   4.461
 1690SOL    HW1 5612   1.529   2.355   4.411
 1690SOL    HW2 5613   1.654   2.377   4.514
 1691SOL     OW 5614   0.231   3.575   4.207
 1691SOL    HW1 5615   0.265   3.652   4.261
 1691SOL    HW2 5616   0.275   3.575   4.117
 1692SOL     OW 5617   1.127   3.203   5.414
 1692SOL    HW1 5618   1.174   3.203   5.502
 1692SOL    HW2 5619   1.079   3.116   5.403
 1693SOL     OW 5620   0.230   3.296   4.262
 1693SOL    HW1 5621   0.204   3.392   4.262
 1693SOL    HW2 5622   0.159   3.242   4.307
 1694SOL     OW 5623   0.240   2.953   4.610
 1694SOL    HW1 5624   0.254   2.869   4.662
 1694SOL    HW2 5625   0.185   3.017   4.665
 1695SOL     OW 5626   0.620   3.648   5.163
 1695SOL    HW1 5627   0.528   3.631   5.198
 1695SOL    HW2 5628   0.648   3.740   5.189
 1696SOL     OW 5629   0.606   2.826   3.847
 1696SOL    HW1 5630   0.613   2.910   3.793
 1696SOL    HW2 5631   0.652   2.839   3.935
 1697SOL     OW 5632   0.122   2.505   4.287
 1697SOL    HW1 5633   0.077   2.417   4.304
 1697SOL    HW2 5634   0.121   2.559   4.371
 1698SOL     OW 5635   1.842   3.629   4.083
 1698SOL    HW1 5636   1.896   3.600   4.163
 1698SOL    HW2 5637   1.872   3.719   4.054
 1699SOL     OW 5638   0.027   3.458   3.841
 1699SOL    HW1 5639   0.008   3.362   3.862
 1699SOL    HW2 5640  -0.006   3.516   3.916
 1700SOL     OW 5641   1.689   2.784   4.336
 1700SOL    HW1 5642   1.784   2.755   4.344
 1700SOL    HW2 5643   1.681   2.849   4.261
 1701SOL     OW 5644   1.641   2.970   4.156
 1701SOL    HW1 5645   1.727   2.972   4.104
 1701SOL    HW2 5646   1.655   3.017   4.244
 1702SOL     OW 5647   0.113   2.599   5.321
 1702SOL    HW1 5648   0.201   2.586   5.366
 1702SOL    HW2 5649   0.100   2.696   5.299
 1703SOL     OW 5650   0.613   3.227   4.450
 1703SOL    HW1 5651   0.564   3.140   4.459
 1703SOL    HW2 5652   0.590   3.270   4.363
 1704SOL     OW 5653   1.293   3.090   5.147
 1704SOL    HW1 5654   1.330   3.017   5.089
 1704SOL    HW2 5655   1.345   3.095   5.232
 1705SOL     OW 5656   0.809   1.866   4.226
 1705SOL    HW1 5657   0.849   1.957   4.217
 1705SOL    HW2 5658   0.709   1.874   4.232
 1706SOL     OW 5659   0.197   2.838   4.988
 1706SOL    HW1 5660   0.286   2.793   4.974
 1706SOL    HW2 5661   0.124   2.773   4.969
 1707SOL     OW 5662   1.525   2.861   3.914
 1707SOL    HW1 5663   1.462   2.785   3.927
 1707SOL    HW2 5664   1.573   2.879   4.000
 1708SOL     OW 5665   1.187   3.654   5.340
 1708SOL    HW1 5666   1.211   3.714   5.264
 1708SOL    HW2 5667   1.194   3.559   5.310
 1709SOL     OW 5668   0.317   2.113   5.525
 1709SOL    HW1 5669   0.388   2.184   5.531
 1709SOL    HW2 5670   0.229   2.152   5.553
 1710SOL     OW 5671   1.466   3.279   4.677
 1710SOL    HW1 5672   1.407   3.285   4.757
 1710SOL    HW2 5673   1.451   3.191   4.631
 1711SOL     OW 5674   1.667   3.576   4.296
 1711SOL    HW1 5675   1.626   3.553   4.208
 1711SOL    HW2 5676   1.649   3.502   4.361
 1712SOL     OW 5677   0.598   2.591   3.994
 1712SOL    HW1 5678   0.622   2.660   3.926
 1712SOL    HW2 5679   0.520   2.624   4.048
 1713SOL     OW 5680   1.281   2.207   4.668
 1713SOL    HW1 5681   1.195   2.157   4.655
 1713SOL    HW2 5682   1.343   2.153   4.724
 1714SOL     OW 5683   1.576   3.524   4.031
 1714SOL    HW1 5684   1.665   3.570   4.034
 1714SOL    HW2 5685   1.555   3.500   3.936
 1715SOL     OW 5686   0.807   2.467   5.189
 1715SOL    HW1 5687   0.760   2.464   5.278
 1715SOL    HW2 5688   0.756   2.412   5.123
 1716SOL     OW 5689   0.973   2.752   5.296
 1716SOL    HW1 5690   1.019   2.668   5.267
 1716SOL    HW2 5691   0.917   2.786   5.221
 1717SOL     OW 5692   0.991   2.272   4.966
 1717SOL    HW1 5693   0.914   2.306   5.020
 1717SOL    HW2 5694   0.957   2.221   4.887
 1718SOL     OW 5695   1.041   2.563   4.153
 1718SOL    HW1 5696   1.067   2.559   4.249
 1718SOL    HW2 5697   0.956   2.512   4.139
 1719SOL     OW 5698   0.076   2.673   4.513
 1719SOL    HW1 5699   0.175   2.661   4.522
 1719SOL    HW2 5700   0.052   2.768   4.534
 1720SOL     OW 5701   0.130   3.683   5.295
 1720SOL    HW1 5702   0.120   3.668   5.394
 1720SOL    HW2 5703   0.044   3.719   5.259
 1721SOL     OW 5704   0.865   2.210   3.919
 1721SOL    HW1 5705   0.924   2.273   3.870
 1721SOL    HW2 5706   0.884   2.116   3.890
 1722SOL     OW 5707   1.719   2.447   5.555
 1722SOL    HW1 5708   1.693   2.536   5.519
 1722SOL    HW2 5709   1.717   2.379   5.482
 1723SOL     OW 5710   1.362   3.006   4.269
 1723SOL    HW1 5711   1.445   2.977   4.221
 1723SOL    HW2 5712   1.313   3.073   4.213
 1724SOL     OW 5713   0.550   2.058   4.609
 1724SOL    HW1 5714   0.545   2.053   4.709
 1724SOL    HW2 5715   0.552   2.154   4.580
 1725SOL     OW 5716   1.008   3.318   4.201
 1725SOL    HW1 5717   0.962   3.390   4.149
 1725SOL    HW2 5718   1.004   3.338   4.299
 1726SOL     OW 5719   0.351   3.663   4.577
 1726SOL    HW1 5720   0.401   3.577   4.583
 1726SOL    HW2 5721   0.416   3.740   4.574
 1727SOL     OW 5722   1.795   2.928   4.597
 1727SOL    HW1 5723   1.733   2.913   4.521
 1727SOL    HW2 5724   1.743   2.939   4.682
 1728SOL     OW 5725   1.227   3.412   5.230
 1728SOL    HW1 5726   1.233   3.335   5.294
 1728SOL    HW2 5727   1.175   3.386   5.150
 1729SOL     OW 5728   0.321   2.805   3.966
 1729SOL    HW1 5729   0.403   2.844   3.924
 1729SOL    HW2 5730   0.294   2.723   3.917
 1730SOL     OW 5731   1.458   2.597   4.452
 1730SOL    HW1 5732   1.453   2.532   4.527
 1730SOL    HW2 5733   1.538   2.656   4.465
 1731SOL     OW 5734   0.461   3.128   5.451
 1731SOL    HW1 5735   0.411   3.129   5.365
 1731SOL    HW2 5736   0.398   3.110   5.527
 1732SOL     OW 5737   1.111   3.638   3.961
 1732SOL    HW1 5738   1.051   3.576   4.011
 1732SOL    HW2 5739   1.142   3.594   3.876
 1733SOL     OW 5740   0.202   2.147   5.222
 1733SOL    HW1 5741   0.122   2.207   5.209
 1733SOL    HW2 5742   0.192   2.098   5.308
 1734SOL     OW 5743   1.632   3.239   3.805
 1734SOL    HW1 5744   1.600   3.333   3.795
 1734SOL    HW2 5745   1.556   3.176   3.793
 1735SOL     OW 5746   0.464   3.605   4.047
 1735SOL    HW1 5747   0.497   3.644   4.133
 1735SOL    HW2 5748   0.540   3.598   3.982
 1736SOL     OW 5749   1.400   1.969   4.150
 1736SOL    HW1 5750   1.376   1.932   4.060
 1736SOL    HW2 5751   1.499   1.985   4.154
 1737SOL     OW 5752   0.249   3.647   4.965
 1737SOL    HW1 5753   0.306   3.582   5.015
 1737SOL    HW2 5754   0.233   3.614   4.872
 1738SOL     OW 5755   0.940   3.560   4.628
 1738SOL    HW1 5756   1.020   3.503   4.649
 1738SOL    HW2 5757   0.891   3.520   4.551
 1739SOL     OW 5758   0.382   2.562   4.204
 1739SOL    HW1 5759   0.427   2.472   4.201
 1739SOL    HW2 5760   0.288   2.551   4.237
 1740SOL     OW 5761   0.614   1.984   3.841
 1740SOL    HW1 5762   0.712   1.962   3.848
 1740SOL    HW2 5763   0.583   1.967   3.748
 1741SOL     OW 5764   0.781   2.126   5.473
 1741SOL    HW1 5765   0.848   2.065   5.516
 1741SOL    HW2 5766   0.708   2.145   5.538
 1742SOL     OW 5767   0.888   3.376   4.919
 1742SOL    HW1 5768   0.865   3.351   4.825
 1742SOL    HW2 5769   0.949   3.307   4.958
 1743SOL     OW 5770   0.803   3.264   4.648
 1743SOL    HW1 5771   0.893   3.278   4.606
 1743SOL    HW2 5772   0.732   3.266   4.577
 1744SOL     OW 5773   0.922   2.365   4.623
 1744SOL    HW1 5774   0.897   2.356   4.527
 1744SOL    HW2 5775   0.970   2.283   4.654
 1745SOL     OW 5776   0.539   1.926   4.236
 1745SOL    HW1 5777   0.458   1.927   4.294
 1745SOL    HW2 5778   0.542   2.009   4.181
 1746SOL     OW 5779   1.434   3.050   3.765
 1746SOL    HW1 5780   1.466   2.974   3.822
 1746SOL    HW2 5781   1.342   3.077   3.795
 1747SOL     OW 5782   0.297   1.897   3.895
 1747SOL    HW1 5783   0.346   1.981   3.874
 1747SOL    HW2 5784   0.359   1.832   3.940
 1748SOL     OW 5785   0.935   2.098   4.204
 1748SOL    HW1 5786   0.887   2.139   4.126
 1748SOL    HW2 5787   1.034   2.096   4.185
 1749SOL     OW 5788   1.076   2.545   5.188
 1749SOL    HW1 5789   0.996   2.484   5.191
 1749SOL    HW2 5790   1.157   2.492   5.164
 1750SOL     OW 5791   1.227   3.432   4.517
 1750SOL    HW1 5792   1.248   3.506   4.452
 1750SOL    HW2 5793   1.295   3.432   4.590
 1751SOL     OW 5794   0.459   3.014   4.465
 1751SOL    HW1 5795   0.388   2.987   4.530
 1751SOL    HW2 5796   0.433   2.986   4.372
 1752SOL     OW 5797   1.271   3.659   4.315
 1752SOL    HW1 5798   1.315   3.723   4.251
 1752SOL    HW2 5799   1.221   3.711   4.385
 1753SOL     OW 5800   1.032   2.411   3.740
 1753SOL    HW1 5801   0.991   2.493   3.701
 1753SOL    HW2 5802   1.096   2.437   3.813
 1754SOL     OW 5803   0.078   2.418   5.110
 1754SOL    HW1 5804   0.170   2.417   5.069
 1754SOL    HW2 5805   0.072   2.492   5.177
 1755SOL     OW 5806   0.561   2.084   4.871
 1755SOL    HW1 5807   0.599   2.000   4.908
 1755SOL    HW2 5808   0.473   2.103   4.915
 1756SOL     OW 5809   0.866   2.316   4.366
 1756SOL    HW1 5810   0.834   2.388   4.304
 1756SOL    HW2 5811   0.890   2.235   4.313
 1757SOL     OW 5812   1.017   1.901   4.477
 1757SOL    HW1 5813   0.945   1.906   4.408
 1757SOL    HW2 5814   0.993   1.832   4.546
 1758SOL     OW 5815   1.429   3.035   4.591
 1758SOL    HW1 5816   1.374   2.951   4.584
 1758SOL    HW2 5817   1.455   3.064   4.499
 1759SOL     OW 5818   1.857   2.695   4.101
 1759SOL    HW1 5819   1.899   2.631   4.165
 1759SOL    HW2 5820   1.819   2.644   4.023
 1760SOL     OW 5821   0.488   3.247   3.898
 1760SOL    HW1 5822   0.401   3.232   3.945
 1760SOL    HW2 5823   0.471   3.273   3.803
 1761SOL     OW 5824   1.664   3.142   4.381
 1761SOL    HW1 5825   1.763   3.150   4.395
 1761SOL    HW2 5826   1.619   3.226   4.412
 1762SOL     OW 5827   1.390   2.437   3.802
 1762SOL    HW1 5828   1.336   2.416   3.883
 1762SOL    HW2 5829   1.481   2.396   3.811
 1763SOL     OW 5830   0.527   2.118   4.052
 1763SOL    HW1 5831   0.554   2.059   3.977
 1763SOL    HW2 5832   0.527   2.213   4.021
 1764SOL     OW 5833   1.754   3.085   5.312
 1764SOL    HW1 5834   1.845   3.046   5.299
 1764SOL    HW2 5835   1.762   3.181   5.336
 1765SOL     OW 5836   1.064   3.209   5.064
 1765SOL    HW1 5837   0.984   3.186   5.119
 1765SOL    HW2 5838   1.147   3.183   5.113
 1766SOL     OW 5839   1.592   3.491   5.349
 1766SOL    HW1 5840   1.619   3.525   5.259
 1766SOL    HW2 5841   1.671   3.453   5.395
 1767SOL     OW 5842   1.111   3.057   4.824
 1767SOL    HW1 5843   1.071   3.101   4.905
 1767SOL    HW2 5844   1.070   3.094   4.741
 1768SOL     OW 5845   1.638   2.961   4.803
 1768SOL    HW1 5846   1.643   3.042   4.862
 1768SOL    HW2 5847   1.552   2.963   4.752
 1769SOL     OW 5848   0.915   1.951   5.126
 1769SOL    HW1 5849   0.940   1.931   5.031
 1769SOL    HW2 5850   0.987   2.007   5.168
 1770SOL     OW 5851   0.980   2.978   5.443
 1770SOL    HW1 5852   0.881   2.984   5.453
 1770SOL    HW2 5853   1.003   2.898   5.387
 1771SOL     OW 5854   0.705   2.912   4.092
 1771SOL    HW1 5855   0.691   2.919   4.191
 1771SOL    HW2 5856   0.789   2.861   4.074
 1772SOL     OW 5857   0.410   2.675   4.975
 1772SOL    HW1 5858   0.496   2.687   5.025
 1772SOL    HW2 5859   0.368   2.588   5.002
 1773SOL     OW 5860   1.274   2.248   4.986
 1773SOL    HW1 5861   1.295   2.322   5.050
 1773SOL    HW2 5862   1.185   2.265   4.943
 1774SOL     OW 5863   0.064   3.426   5.055
 1774SOL    HW1 5864   0.018   3.508   5.021
 1774SOL    HW2 5865   0.162   3.445   5.064
 1775SOL     OW 5866   0.367   2.962   4.225
 1775SOL    HW1 5867   0.360   3.045   4.169
 1775SOL    HW2 5868   0.371   2.882   4.165
 1776SOL     OW 5869   0.566   2.399   4.589
 1776SOL    HW1 5870   0.578   2.465   4.515
 1776SOL    HW2 5871   0.612   2.433   4.672
 1777SOL     OW 5872   1.252   3.210   4.112
 1777SOL    HW1 5873   1.302   3.287   4.152
 1777SOL    HW2 5874   1.157   3.212   4.144
 1778SOL     OW 5875   1.272   3.307   4.866
 1778SOL    HW1 5876   1.319   3.320   4.953
 1778SOL    HW2 5877   1.206   3.233   4.875
 1779SOL     OW 5878   1.582   2.501   4.196
 1779SOL    HW1 5879   1.551   2.562   4.269
 1779SOL    HW2 5880   1.632   2.553   4.127
 1780SOL     OW 5881   0.354   3.372   5.053
 1780SOL    HW1 5882   0.333   3.328   4.966
 1780SOL    HW2 5883   0.451   3.398   5.056
 1781SOL     OW 5884   0.402   2.613   5.322
 1781SOL    HW1 5885   0.470   2.668   5.275
 1781SOL    HW2 5886   0.442   2.525   5.349
 1782SOL     OW 5887   1.013   1.967   5.494
 1782SOL    HW1 5888   1.019   2.052   5.442
 1782SOL    HW2 5889   1.045   1.891   5.437
 1783SOL     OW 5890   0.504   1.912   5.464
 1783SOL    HW1 5891   0.462   1.855   5.394
 1783SOL    HW2 5892   0.438   1.981   5.496
 1784SOL     OW 5893   0.573   2.732   4.753
 1784SOL    HW1 5894   0.617   2.821   4.744
 1784SOL    HW2 5895   0.510   2.732   4.830
 1785SOL     OW 5896   1.360   2.724   4.769
 1785SOL    HW1 5897   1.285   2.724   4.703
 1785SOL    HW2 5898   1.397   2.632   4.778
 1786SOL     OW 5899   1.209   2.387   3.999
 1786SOL    HW1 5900   1.222   2.303   4.053
 1786SOL    HW2 5901   1.180   2.461   4.059
 1787SOL     OW 5902   0.307   2.075   4.955
 1787SOL    HW1 5903   0.284   2.112   5.045
 1787SOL    HW2 5904   0.277   1.980   4.949
 1788SOL     OW 5905   0.037   3.172   5.006
 1788SOL    HW1 5906   0.090   3.123   5.074
 1788SOL    HW2 5907   0.059   3.270   5.011
 1789SOL     OW 5908   0.732   2.496   4.788
 1789SOL    HW1 5909   0.791   2.470   4.712
 1789SOL    HW2 5910   0.704   2.592   4.777
 1790SOL     OW 5911   1.728   2.797   5.578
 1790SOL    HW1 5912   1.682   2.790   5.489
 1790SOL    HW2 5913   1.666   2.841   5.644
 1791SOL     OW 5914   0.307   1.925   4.342
 1791SOL    HW1 5915   0.296   2.019   4.375
 1791SOL    HW2 5916   0.302   1.862   4.419
 1792SOL     OW 5917   1.622   2.229   4.098
 1792SOL    HW1 5918   1.624   2.153   4.162
 1792SOL    HW2 5919   1.574   2.306   4.138
 1793SOL     OW 5920   1.023   2.628   4.690
 1793SOL    HW1 5921   1.038   2.649   4.786
 1793SOL    HW2 5922   0.993   2.533   4.681
 1794SOL     OW 5923   0.980   3.435   5.424
 1794SOL    HW1 5924   0.960   3.479   5.336
 1794SOL    HW2 5925   1.019   3.344   5.408
 1795SOL     OW 5926   1.859   3.380   5.329
 1795SOL    HW1 5927   1.873   3.407   5.234
 1795SOL    HW2 5928   1.942   3.402   5.382
 1796SOL     OW 5929   0.350   2.760   5.528
 1796SOL    HW1 5930   0.426   2.804   5.576
 1796SOL    HW2 5931   0.385   2.713   5.446
 1797SOL     OW 5932   1.540   2.136   3.849
 1797SOL    HW1 5933   1.479   2.061   3.872
 1797SOL    HW2 5934   1.562   2.188   3.932
 1798SOL     OW 5935   1.303   2.700   3.766
 1798SOL    HW1 5936   1.337   2.607   3.781
 1798SOL    HW2 5937   1.321   2.727   3.671
 1799SOL     OW 5938   1.068   3.195   4.573
 1799SOL    HW1 5939   1.075   3.111   4.518
 1799SOL    HW2 5940   1.130   3.264   4.537
 1800SOL     OW 5941   0.319   2.672   4.673
 1800SOL    HW1 5942   0.412   2.708   4.678
 1800SOL    HW2 5943   0.313   2.587   4.725
 1801SOL     OW 5944   0.339   2.371   4.730
 1801SOL    HW1 5945   0.287   2.288   4.713
 1801SOL    HW2 5946   0.416   2.376   4.666
 1802SOL     OW 5947   1.138   2.242   5.402
 1802SOL    HW1 5948   1.093   2.305   5.466
 1802SOL    HW2 5949   1.231   2.273   5.385
 1803SOL     OW 5950   1.160   2.069   5.201
 1803SOL    HW1 5951   1.160   2.133   5.278
 1803SOL    HW2 5952   1.188   2.117   5.118
 1804SOL     OW 5953   0.008   3.188   3.924
 1804SOL    HW1 5954  -0.085   3.209   3.893
 1804SOL    HW2 5955   0.018   3.089   3.937
 1805SOL     OW 5956   0.088   3.663   4.651
 1805SOL    HW1 5957   0.046   3.577   4.624
 1805SOL    HW2 5958   0.182   3.666   4.617
 1806SOL     OW 5959   0.504   3.430   4.634
 1806SOL    HW1 5960   0.570   3.504   4.643
 1806SOL    HW2 5961   0.548   3.351   4.592
 1807SOL     OW 5962   1.002   2.658   4.962
 1807SOL    HW1 5963   1.043   2.626   5.048
 1807SOL    HW2 5964   0.906   2.631   4.959
 1808SOL     OW 5965   0.040   2.406   4.838
 1808SOL    HW1 5966   0.125   2.373   4.797
 1808SOL    HW2 5967   0.053   2.421   4.936
 1809SOL     OW 5968   0.189   2.382   5.446
 1809SOL    HW1 5969   0.248   2.342   5.376
 1809SOL    HW2 5970   0.131   2.453   5.405
 1810SOL     OW 5971   1.369   2.812   5.384
 1810SOL    HW1 5972   1.408   2.901   5.404
 1810SOL    HW2 5973   1.379   2.792   5.287
 1811SOL     OW 5974   0.815   2.434   4.049
 1811SOL    HW1 5975   0.822   2.345   4.003
 1811SOL    HW2 5976   0.721   2.468   4.041
 1812SOL     OW 5977   0.252   3.426   5.468
 1812SOL    HW1 5978   0.222   3.483   5.544
 1812SOL    HW2 5979   0.245   3.329   5.494
 1813SOL     OW 5980   0.671   2.326   4.993
 1813SOL    HW1 5981   0.637   2.237   4.963
 1813SOL    HW2 5982   0.697   2.380   4.913
 1814SOL     OW 5983   0.930   3.540   5.189
 1814SOL    HW1 5984   0.906   3.522   5.094
 1814SOL    HW2 5985   0.960   3.634   5.199
 1815SOL     OW 5986   0.473   2.362   3.915
 1815SOL    HW1 5987   0.534   2.442   3.919
 1815SOL    HW2 5988   0.378   2.393   3.922
 1816SOL     OW 5989   0.159   2.999   5.190
 1816SOL    HW1 5990   0.181   2.938   5.266
 1816SOL    HW2 5991   0.169   2.950   5.104
 1817SOL     OW 5992   1.347   2.921   4.958
 1817SOL    HW1 5993   1.371   2.858   4.884
 1817SOL    HW2 5994   1.257   2.961   4.940
 1818SOL     OW 5995   1.302   2.717   4.033
 1818SOL    HW1 5996   1.216   2.686   4.075
 1818SOL    HW2 5997   1.298   2.703   3.934
 1819SOL     OW 5998   1.759   3.609   4.878
 1819SOL    HW1 5999   1.820   3.639   4.805
 1819SOL    HW2 6000   1.721   3.520   4.856
 1820SOL     OW 6001   1.252   3.593   4.852
 1820SOL    HW1 6002   1.336   3.598   4.798
 1820SOL    HW2 6003   1.229   3.497   4.870
 1821SOL     OW 6004   0.083   3.120   4.746
 1821SOL    HW1 6005   0.078   3.119   4.846
 1821SOL    HW2 6006   0.000   3.079   4.708
 1822SOL     OW 6007   0.688   3.524   5.440
 1822SOL    HW1 6008   0.632   3.605   5.449
 1822SOL    HW2 6009   0.740   3.528   5.354
 1823SOL     OW 6010   1.726   1.997   4.247
 1823SOL    HW1 6011   1.799   1.980   4.180
 1823SOL    HW2 6012   1.695   1.910   4.285
 1824SOL     OW 6013   1.388   3.435   4.201
 1824SOL    HW1 6014   1.455   3.447   4.127
 1824SOL    HW2 6015   1.348   3.524   4.224
 1825SOL     OW 6016   0.130   3.656   5.575
 1825SOL    HW1 6017   0.089   3.582   5.628
 1825SOL    HW2 6018   0.194   3.707   5.633
 1826SOL     OW 6019   1.280   2.789   4.396
 1826SOL    HW1 6020   1.340   2.708   4.398
 1826SOL    HW2 6021   1.320   2.858   4.336
 1827SOL     OW 6022   0.830   3.135   5.146
 1827SOL    HW1 6023   0.825   3.168   5.241
 1827SOL    HW2 6024   0.744   3.154   5.100
 1828SOL     OW 6025   0.672   3.478   3.878
 1828SOL    HW1 6026   0.681   3.488   3.779
 1828SOL    HW2 6027   0.632   3.389   3.899
 1829SOL     OW 6028   1.650   3.582   5.118
 1829SOL    HW1 6029   1.703   3.592   5.034
 1829SOL    HW2 6030   1.623   3.672   5.152
 1830SOL     OW 6031   0.263   2.188   4.444
 1830SOL    HW1 6032   0.184   2.239   4.410
 1830SOL    HW2 6033   0.254   2.173   4.542
 1831SOL     OW 6034   1.194   3.474   3.755
 1831SOL    HW1 6035   1.200   3.381   3.792
 1831SOL    HW2 6036   1.135   3.474   3.675
 1832SOL     OW 6037   0.822   2.864   5.096
 1832SOL    HW1 6038   0.862   2.863   5.004
 1832SOL    HW2 6039   0.832   2.956   5.136
 1833SOL     OW 6040   0.916   2.772   4.015
 1833SOL    HW1 6041   0.979   2.810   3.947
 1833SOL    HW2 6042   0.956   2.689   4.054
 1834SOL     OW 6043   1.504   3.469   3.768
 1834SOL    HW1 6044   1.412   3.506   3.775
 1834SOL    HW2 6045   1.542   3.489   3.678
 1835SOL     OW 6046   0.372   3.150   5.214
 1835SOL    HW1 6047   0.359   3.243   5.180
 1835SOL    HW2 6048   0.288   3.098   5.201
 1836SOL     OW 6049   1.614   3.154   5.013
 1836SOL    HW1 6050   1.674   3.157   5.093
 1836SOL    HW2 6051   1.539   3.218   5.026
 1837SOL     OW 6052   1.039   2.960   4.420
 1837SOL    HW1 6053   0.969   2.913   4.474
 1837SOL    HW2 6054   1.098   2.892   4.377
 1838SOL     OW 6055   1.014   2.098   4.695
 1838SOL    HW1 6056   1.006   2.062   4.602
 1838SOL    HW2 6057   1.012   2.022   4.760
 1839SOL     OW 6058   0.590   3.349   4.215
 1839SOL    HW1 6059   0.632   3.291   4.145
 1839SOL    HW2 6060   0.546   3.428   4.171
 1840SOL     OW 6061   0.255   3.210   4.014
 1840SOL    HW1 6062   0.159   3.211   3.987
 1840SOL    HW2 6063   0.267   3.263   4.098
 1841SOL     OW 6064   0.105   2.875   5.450
 1841SOL    HW1 6065   0.028   2.842   5.504
 1841SOL    HW2 6066   0.190   2.845   5.492
 1842SOL     OW 6067   0.672   2.065   5.213
 1842SOL    HW1 6068   0.762   2.049   5.173
 1842SOL    HW2 6069   0.680   2.070   5.312
 1843SOL     OW 6070   0.075   2.207   3.757
 1843SOL    HW1 6071  -0.017   2.179   3.728
 1843SOL    HW2 6072   0.106   2.284   3.701
 1844SOL     OW 6073   0.072   2.028   4.042
 1844SOL    HW1 6074   0.055   2.111   3.988
 1844SOL    HW2 6075   0.162   1.991   4.020
 1845SOL     OW 6076   1.183   3.197   3.843
 1845SOL    HW1 6077   1.084   3.186   3.845
 1845SOL    HW2 6078   1.217   3.212   3.936
 1846SOL     OW 6079   0.613   2.704   5.155
 1846SOL    HW1 6080   0.669   2.785   5.138
 1846SOL    HW2 6081   0.672   2.624   5.158
 1847SOL     OW 6082   1.493   3.629   4.683
 1847SOL    HW1 6083   1.526   3.693   4.614
 1847SOL    HW2 6084   1.559   3.623   4.758
 1848SOL     OW 6085   0.716   2.427   5.432
 1848SOL    HW1 6086   0.735   2.492   5.506
 1848SOL    HW2 6087   0.776   2.347   5.441
 1849SOL     OW 6088   1.450   3.082   5.357
 1849SOL    HW1 6089   1.441   3.072   5.456
 1849SOL    HW2 6090   1.546   3.075   5.331
 1850SOL     OW 6091   0.390   3.603   5.284
 1850SOL    HW1 6092   0.299   3.644   5.282
 1850SOL    HW2 6093   0.383   3.509   5.316
 1851SOL     OW 6094   1.225   2.187   4.173
 1851SOL    HW1 6095   1.290   2.113   4.162
 1851SOL    HW2 6096   1.245   2.237   4.257
 1852SOL     OW 6097   0.594   2.607   4.376
 1852SOL    HW1 6098   0.644   2.692   4.357
 1852SOL    HW2 6099   0.506   2.609   4.328
 1853SOL     OW 6100   0.859   3.236   3.740
 1853SOL    HW1 6101   0.813   3.251   3.828
 1853SOL    HW2 6102   0.903   3.321   3.710
 1854SOL     OW 6103   0.661   3.652   4.677
 1854SOL    HW1 6104   0.615   3.740   4.664
 1854SOL    HW2 6105   0.760   3.664   4.670
 1855SOL     OW 6106   0.859   2.818   4.585
 1855SOL    HW1 6107   0.913   2.749   4.633
 1855SOL    HW2 6108   0.827   2.887   4.651
 1856SOL     OW 6109   1.083   2.846   3.811
 1856SOL    HW1 6110   1.060   2.899   3.729
 1856SOL    HW2 6111   1.164   2.790   3.792
 1857SOL     OW 6112   1.861   3.431   4.575
 1857SOL    HW1 6113   1.790   3.419   4.505
 1857SOL    HW2 6114   1.862   3.352   4.635
 1858SOL     OW 6115   0.221   3.176   5.568
 1858SOL    HW1 6116   0.156   3.103   5.547
 1858SOL    HW2 6117   0.225   3.190   5.666
 1859SOL     OW 6118   0.079   3.102   4.377
 1859SOL    HW1 6119   0.078   3.055   4.465
 1859SOL    HW2 6120   0.161   3.074   4.326
 1860SOL     OW 6121   0.672   3.253   5.348
 1860SOL    HW1 6122   0.594   3.203   5.386
 1860SOL    HW2 6123   0.669   3.348   5.379
 1861SOL     OW 6124   0.428   2.286   4.244
 1861SOL    HW1 6125   0.458   2.214   4.182
 1861SOL    HW2 6126   0.389   2.246   4.327
 1862SOL     OW 6127   1.705   3.349   4.828
 1862SOL    HW1 6128   1.612   3.324   4.801
 1862SOL    HW2 6129   1.731   3.299   4.910
 1863SOL     OW 6130   0.317   2.409   5.004
 1863SOL    HW1 6131   0.355   2.350   5.076
 1863SOL    HW2 6132   0.357   2.383   4.916
 1864SOL     OW 6133   0.812   3.448   4.411
 1864SOL    HW1 6134   0.844   3.458   4.317
 1864SOL    HW2 6135   0.733   3.386   4.413
 1865SOL     OW 6136   1.001   1.896   4.878
 1865SOL    HW1 6137   0.938   1.824   4.847
 1865SOL    HW2 6138   1.094   1.860   4.878
 1866SOL     OW 6139   0.770   3.192   4.025
 1866SOL    HW1 6140   0.724   3.105   4.042
 1866SOL    HW2 6141   0.861   3.189   4.066
 1867SOL     OW 6142   0.618   3.429   5.008
 1867SOL    HW1 6143   0.613   3.511   5.065
 1867SOL    HW2 6144   0.707   3.426   4.963
 1868SOL     OW 6145   1.352   1.914   3.892
 1868SOL    HW1 6146   1.387   1.873   3.808
 1868SOL    HW2 6147   1.262   1.876   3.912
 1869SOL     OW 6148   1.300   2.315   4.415
 1869SOL    HW1 6149   1.241   2.395   4.419
 1869SOL    HW2 6150   1.315   2.280   4.508
 1870SOL     OW 6151   1.593   2.083   4.606
 1870SOL    HW1 6152   1.509   2.082   4.660
 1870SOL    HW2 6153   1.595   2.166   4.550
 1871SOL     OW 6154   0.039   2.939   4.024
 1871SOL    HW1 6155   0.138   2.928   4.015
 1871SOL    HW2 6156  -0.001   2.853   4.056
 1872SOL     OW 6157   0.875   3.508   4.061
 1872SOL    HW1 6158   0.798   3.473   4.007
 1872SOL    HW2 6159   0.843   3.579   4.123
 1873SOL     OW 6160   0.230   2.490   5.699
 1873SOL    HW1 6161   0.137   2.488   5.736
 1873SOL    HW2 6162   0.231   2.451   5.607
 1874SOL     OW 6163   0.225   2.137   6.582
 1874SOL    HW1 6164   0.260   2.120   6.674
 1874SOL    HW2 6165   0.137   2.092   6.570
 1875SOL     OW 6166   0.019   2.230   6.233
 1875SOL    HW1 6167  -0.063   2.273   6.272
 1875SOL    HW2 6168  -0.009   2.157   6.170
 1876SOL     OW 6169   0.569   3.137   6.751
 1876SOL    HW1 6170   0.476   3.130   6.714
 1876SOL    HW2 6171   0.580   3.226   6.795
 1877SOL     OW 6172   1.555   3.373   6.289
 1877SOL    HW1 6173   1.498   3.357   6.370
 1877SOL    HW2 6174   1.496   3.383   6.209
 1878SOL     OW 6175   1.135   2.565   6.303
 1878SOL    HW1 6176   1.192   2.643   6.278
 1878SOL    HW2 6177   1.075   2.591   6.379
 1879SOL     OW 6178   0.768   3.006   6.609
 1879SOL    HW1 6179   0.690   3.023   6.669
 1879SOL    HW2 6180   0.802   3.093   6.573
 1880SOL     OW 6181   0.850   2.660   7.409
 1880SOL    HW1 6182   0.846   2.736   7.474
 1880SOL    HW2 6183   0.872   2.696   7.318
 1881SOL     OW 6184   0.685   2.874   6.251
 1881SOL    HW1 6185   0.754   2.858   6.321
 1881SOL    HW2 6186   0.612   2.931   6.289
 1882SOL     OW 6187   0.686   3.023   7.389
 1882SOL    HW1 6188   0.746   3.102   7.403
 1882SOL    HW2 6189   0.600   3.054   7.348
 1883SOL     OW 6190   0.335   3.297   6.647
 1883SOL    HW1 6191   0.257   3.266   6.594
 1883SOL    HW2 6192   0.393   3.355   6.590
 1884SOL     OW 6193   1.460   3.367   6.925
 1884SOL    HW1 6194   1.484   3.461   6.951
 1884SOL    HW2 6195   1.444   3.313   7.007
 1885SOL     OW 6196   0.438   2.254   7.085
 1885SOL    HW1 6197   0.520   2.198   7.094
 1885SOL    HW2 6198   0.357   2.196   7.089
 1886SOL     OW 6199   0.231   3.575   6.069
 1886SOL    HW1 6200   0.265   3.652   6.123
 1886SOL    HW2 6201   0.275   3.575   5.979
 1887SOL     OW 6202   1.127   3.203   7.276
 1887SOL    HW1 6203   1.174   3.203   7.364
 1887SOL    HW2 6204   1.079   3.116   7.265
 1888SOL     OW 6205   0.230   3.296   6.124
 1888SOL    HW1 6206   0.204   3.392   6.124
 1888SOL    HW2 6207   0.159   3.242   6.169
 1889SOL     OW 6208   0.240   2.953   6.472
 1889SOL    HW1 6209   0.254   2.869   6.524
 1889SOL    HW2 6210   0.185   3.017   6.527
 1890SOL     OW 6211   0.620   3.648   7.025
 1890SOL    HW1 6212   0.528   3.631   7.060
 1890SOL    HW2 6213   0.648   3.740   7.051
 1891SOL     OW 6214   0.606   2.826   5.709
 1891SOL    HW1 6215   0.613   2.910   5.655
 1891SOL    HW2 6216   0.652   2.839   5.797
 1892SOL     OW 6217   1.594   1.976   7.066
 1892SOL    HW1 6218   1.576   2.043   6.994
 1892SOL    HW2 6219   1.591   2.022   7.155
 1893SOL     OW 6220   0.122   2.505   6.149
 1893SOL    HW1 6221   0.077   2.417   6.166
 1893SOL    HW2 6222   0.121   2.559   6.233
 1894SOL     OW 6223   1.842   3.629   5.945
 1894SOL    HW1 6224   1.896   3.600   6.025
 1894SOL    HW2 6225   1.872   3.719   5.916
 1895SOL     OW 6226   0.027   3.458   5.703
 1895SOL    HW1 6227   0.008   3.362   5.724
 1895SOL    HW2 6228  -0.006   3.516   5.778
 1896SOL     OW 6229   1.641   2.970   6.018
 1896SOL    HW1 6230   1.727   2.972   5.966
 1896SOL    HW2 6231   1.655   3.017   6.106
 1897SOL     OW 6232   0.113   2.599   7.183
 1897SOL    HW1 6233   0.201   2.586   7.228
 1897SOL    HW2 6234   0.100   2.696   7.161
 1898SOL     OW 6235   0.613   3.227   6.312
 1898SOL    HW1 6236   0.564   3.140   6.321
 1898SOL    HW2 6237   0.590   3.270   6.225
 1899SOL     OW 6238   1.293   3.090   7.009
 1899SOL    HW1 6239   1.330   3.017   6.951
 1899SOL    HW2 6240   1.345   3.095   7.094
 1900SOL     OW 6241   0.809   1.866   6.088
 1900SOL    HW1 6242   0.849   1.957   6.079
 1900SOL    HW2 6243   0.709   1.874   6.094
 1901SOL     OW 6244   0.197   2.838   6.850
 1901SOL    HW1 6245   0.286   2.793   6.836
 1901SOL    HW2 6246   0.124   2.773   6.831
 1902SOL     OW 6247   1.525   2.861   5.776
 1902SOL    HW1 6248   1.462   2.785   5.789
 1902SOL    HW2 6249   1.573   2.879   5.862
 1903SOL     OW 6250   1.187   3.654   7.202
 1903SOL    HW1 6251   1.211   3.714   7.126
 1903SOL    HW2 6252   1.194   3.559   7.172
 1904SOL     OW 6253   0.317   2.113   7.387
 1904SOL    HW1 6254   0.388   2.184   7.393
 1904SOL    HW2 6255   0.229   2.152   7.415
 1905SOL     OW 6256   1.466   3.279   6.539
 1905SOL    HW1 6257   1.407   3.285   6.619
 1905SOL    HW2 6258   1.451   3.191   6.493
 1906SOL     OW 6259   1.667   3.576   6.158
 1906SOL    HW1 6260   1.626   3.553   6.070
 1906SOL    HW2 6261   1.649   3.502   6.223
 1907SOL     OW 6262   0.598   2.591   5.856
 1907SOL    HW1 6263   0.622   2.660   5.788
 1907SOL    HW2 6264   0.520   2.624   5.910
 1908SOL     OW 6265   1.281   2.207   6.530
 1908SOL    HW1 6266   1.195   2.157   6.517
 1908SOL    HW2 6267   1.343   2.153   6.586
 1909SOL     OW 6268   1.576   3.524   5.893
 1909SOL    HW1 6269   1.665   3.570   5.896
 1909SOL    HW2 6270   1.555   3.500   5.798
 1910SOL     OW 6271   0.807   2.467   7.051
 1910SOL    HW1 6272   0.760   2.464   7.140
 1910SOL    HW2 6273   0.756   2.412   6.985
 1911SOL     OW 6274   1.394   2.331   7.260
 1911SOL    HW1 6275   1.374   2.374   7.348
 1911SOL    HW2 6276   1.472   2.269   7.269
 1912SOL     OW 6277   0.973   2.752   7.158
 1912SOL    HW1 6278   1.019   2.668   7.129
 1912SOL    HW2 6279   0.917   2.786   7.083
 1913SOL     OW 6280   0.991   2.272   6.828
 1913SOL    HW1 6281   0.914   2.306   6.882
 1913SOL    HW2 6282   0.957   2.221   6.749
 1914SOL     OW 6283   1.041   2.563   6.015
 1914SOL    HW1 6284   1.067   2.559   6.111
 1914SOL    HW2 6285   0.956   2.512   6.001
 1915SOL     OW 6286   0.076   2.673   6.375
 1915SOL    HW1 6287   0.175   2.661   6.384
 1915SOL    HW2 6288   0.052   2.768   6.396
 1916SOL     OW 6289   0.130   3.683   7.157
 1916SOL    HW1 6290   0.120   3.668   7.256
 1916SOL    HW2 6291   0.044   3.719   7.121
 1917SOL     OW 6292   0.865   2.210   5.781
 1917SOL    HW1 6293   0.924   2.273   5.732
 1917SOL    HW2 6294   0.884   2.116   5.752
 1918SOL     OW 6295   1.719   2.447   7.417
 1918SOL    HW1 6296   1.693   2.536   7.381
 1918SOL    HW2 6297   1.717   2.379   7.344
 1919SOL     OW 6298   1.362   3.006   6.131
 1919SOL    HW1 6299   1.445   2.977   6.083
 1919SOL    HW2 6300   1.313   3.073   6.075
 1920SOL     OW 6301   0.550   2.058   6.471
 1920SOL    HW1 6302   0.545   2.053   6.571
 1920SOL    HW2 6303   0.552   2.154   6.442
 1921SOL     OW 6304   1.008   3.318   6.063
 1921SOL    HW1 6305   0.962   3.390   6.011
 1921SOL    HW2 6306   1.004   3.338   6.161
 1922SOL     OW 6307   0.351   3.663   6.439
 1922SOL    HW1 6308   0.401   3.577   6.445
 1922SOL    HW2 6309   0.416   3.740   6.436
 1923SOL     OW 6310   1.795   2.928   6.459
 1923SOL    HW1 6311   1.733   2.913   6.383
 1923SOL    HW2 6312   1.743   2.939   6.544
 1924SOL     OW 6313   1.227   3.412   7.092
 1924SOL    HW1 6314   1.233   3.335   7.156
 1924SOL    HW2 6315   1.175   3.386   7.012
 1925SOL     OW 6316   0.321   2.805   5.828
 1925SOL    HW1 6317   0.403   2.844   5.786
 1925SOL    HW2 6318   0.294   2.723   5.779
 1926SOL     OW 6319   1.458   2.597   6.314
 1926SOL    HW1 6320   1.453   2.532   6.389
 1926SOL    HW2 6321   1.538   2.656   6.327
 1927SOL     OW 6322   0.461   3.128   7.313
 1927SOL    HW1 6323   0.411   3.129   7.227
 1927SOL    HW2 6324   0.398   3.110   7.389
 1928SOL     OW 6325   1.111   3.638   5.823
 1928SOL    HW1 6326   1.051   3.576   5.873
 1928SOL    HW2 6327   1.142   3.594   5.738
 1929SOL     OW 6328   0.202   2.147   7.084
 1929SOL    HW1 6329   0.122   2.207   7.071
 1929SOL    HW2 6330   0.192   2.098   7.170
 1930SOL     OW 6331   1.632   3.239   5.667
 1930SOL    HW1 6332   1.600   3.333   5.657
 1930SOL    HW2 6333   1.556   3.176   5.655
 1931SOL     OW 6334   0.464   3.605   5.909
 1931SOL    HW1 6335   0.497   3.644   5.995
 1931SOL    HW2 6336   0.540   3.598   5.844
 1932SOL     OW 6337   0.249   3.647   6.827
 1932SOL    HW1 6338   0.306   3.582   6.877
 1932SOL    HW2 6339   0.233   3.614   6.734
 1933SOL     OW 6340   0.940   3.560   6.490
 1933SOL    HW1 6341   1.020   3.503   6.511
 1933SOL    HW2 6342   0.891   3.520   6.413
 1934SOL     OW 6343   0.382   2.562   6.066
 1934SOL    HW1 6344   0.427   2.472   6.063
 1934SOL    HW2 6345   0.288   2.551   6.099
 1935SOL     OW 6346   1.547   2.084   7.315
 1935SOL    HW1 6347   1.542   2.121   7.407
 1935SOL    HW2 6348   1.475   2.015   7.303
 1936SOL     OW 6349   0.614   1.984   5.703
 1936SOL    HW1 6350   0.712   1.962   5.710
 1936SOL    HW2 6351   0.583   1.967   5.610
 1937SOL     OW 6352   0.781   2.126   7.335
 1937SOL    HW1 6353   0.848   2.065   7.378
 1937SOL    HW2 6354   0.708   2.145   7.400
 1938SOL     OW 6355   0.888   3.376   6.781
 1938SOL    HW1 6356   0.865   3.351   6.687
 1938SOL    HW2 6357   0.949   3.307   6.820
 1939SOL     OW 6358   1.351   2.452   7.019
 1939SOL    HW1 6359   1.379   2.409   7.104
 1939SOL    HW2 6360   1.376   2.548   7.020
 1940SOL     OW 6361   0.803   3.264   6.510
 1940SOL    HW1 6362   0.893   3.278   6.468
 1940SOL    HW2 6363   0.732   3.266   6.439
 1941SOL     OW 6364   0.922   2.365   6.485
 1941SOL    HW1 6365   0.897   2.356   6.389
 1941SOL    HW2 6366   0.970   2.283   6.516
 1942SOL     OW 6367   0.539   1.926   6.098
 1942SOL    HW1 6368   0.458   1.927   6.156
 1942SOL    HW2 6369   0.542   2.009   6.043
 1943SOL     OW 6370   1.434   3.050   5.627
 1943SOL    HW1 6371   1.466   2.974   5.684
 1943SOL    HW2 6372   1.342   3.077   5.657
 1944SOL     OW 6373   0.297   1.897   5.757
 1944SOL    HW1 6374   0.346   1.981   5.736
 1944SOL    HW2 6375   0.359   1.832   5.802
 1945SOL     OW 6376   0.935   2.098   6.066
 1945SOL    HW1 6377   0.887   2.139   5.988
 1945SOL    HW2 6378   1.034   2.096   6.047
 1946SOL     OW 6379   1.076   2.545   7.050
 1946SOL    HW1 6380   0.996   2.484   7.053
 1946SOL    HW2 6381   1.157   2.492   7.026
 1947SOL     OW 6382   1.227   3.432   6.379
 1947SOL    HW1 6383   1.248   3.506   6.314
 1947SOL    HW2 6384   1.295   3.432   6.452
 1948SOL     OW 6385   0.459   3.014   6.327
 1948SOL    HW1 6386   0.388   2.987   6.392
 1948SOL    HW2 6387   0.433   2.986   6.234
 1949SOL     OW 6388   1.271   3.659   6.177
 1949SOL    HW1 6389   1.315   3.723   6.113
 1949SOL    HW2 6390   1.221   3.711   6.247
 1950SOL     OW 6391   1.032   2.411   5.602
 1950SOL    HW1 6392   0.991   2.493   5.563
 1950SOL    HW2 6393   1.096   2.437   5.675
 1951SOL     OW 6394   0.078   2.418   6.972
 1951SOL    HW1 6395   0.170   2.417   6.931
 1951SOL    HW2 6396   0.072   2.492   7.039
 1952SOL     OW 6397   0.561   2.084   6.733
 1952SOL    HW1 6398   0.599   2.000   6.770
 1952SOL    HW2 6399   0.473   2.103   6.777
 1953SOL     OW 6400   0.866   2.316   6.228
 1953SOL    HW1 6401   0.834   2.388   6.166
 1953SOL    HW2 6402   0.890   2.235   6.175
 1954SOL     OW 6403   1.017   1.901   6.339
 1954SOL    HW1 6404   0.945   1.906   6.270
 1954SOL    HW2 6405   0.993   1.832   6.408
 1955SOL     OW 6406   1.429   3.035   6.453
 1955SOL    HW1 6407   1.374   2.951   6.446
 1955SOL    HW2 6408   1.455   3.064   6.361
 1956SOL     OW 6409   1.466   2.452   6.578
 1956SOL    HW1 6410   1.436   2.357   6.585
 1956SOL    HW2 6411   1.539   2.468   6.644
 1957SOL     OW 6412   0.488   3.247   5.760
 1957SOL    HW1 6413   0.401   3.232   5.807
 1957SOL    HW2 6414   0.471   3.273   5.665
 1958SOL     OW 6415   1.664   3.142   6.243
 1958SOL    HW1 6416   1.763   3.150   6.257
 1958SOL    HW2 6417   1.619   3.226   6.274
 1959SOL     OW 6418   1.390   2.437   5.664
 1959SOL    HW1 6419   1.336   2.416   5.745
 1959SOL    HW2 6420   1.481   2.396   5.673
 1960SOL     OW 6421   0.527   2.118   5.914
 1960SOL    HW1 6422   0.554   2.059   5.839
 1960SOL    HW2 6423   0.527   2.213   5.883
 1961SOL     OW 6424   1.754   3.085   7.174
 1961SOL    HW1 6425   1.845   3.046   7.161
 1961SOL    HW2 6426   1.762   3.181   7.198
 1962SOL     OW 6427   1.064   3.209   6.926
 1962SOL    HW1 6428   0.984   3.186   6.981
 1962SOL    HW2 6429   1.147   3.183   6.975
 1963SOL     OW 6430   1.592   3.491   7.211
 1963SOL    HW1 6431   1.619   3.525   7.121
 1963SOL    HW2 6432   1.671   3.453   7.257
 1964SOL     OW 6433   1.111   3.057   6.686
 1964SOL    HW1 6434   1.071   3.101   6.767
 1964SOL    HW2 6435   1.070   3.094   6.603
 1965SOL     OW 6436   1.638   2.961   6.665
 1965SOL    HW1 6437   1.643   3.042   6.724
 1965SOL    HW2 6438   1.552   2.963   6.614
 1966SOL     OW 6439   0.915   1.951   6.988
 1966SOL    HW1 6440   0.940   1.931   6.893
 1966SOL    HW2 6441   0.987   2.007   7.030
 1967SOL     OW 6442   0.980   2.978   7.305
 1967SOL    HW1 6443   0.881   2.984   7.315
 1967SOL    HW2 6444   1.003   2.898   7.249
 1968SOL     OW 6445   0.705   2.912   5.954
 1968SOL    HW1 6446   0.691   2.919   6.053
 1968SOL    HW2 6447   0.789   2.861   5.936
 1969SOL     OW 6448   0.410   2.675   6.837
 1969SOL    HW1 6449   0.496   2.687   6.887
 1969SOL    HW2 6450   0.368   2.588   6.864
 1970SOL     OW 6451   1.274   2.248   6.848
 1970SOL    HW1 6452   1.295   2.322   6.912
 1970SOL    HW2 6453   1.185   2.265   6.805
 1971SOL     OW 6454   0.064   3.426   6.917
 1971SOL    HW1 6455   0.018   3.508   6.883
 1971SOL    HW2 6456   0.162   3.445   6.926
 1972SOL     OW 6457   0.367   2.962   6.087
 1972SOL    HW1 6458   0.360   3.045   6.031
 1972SOL    HW2 6459   0.371   2.882   6.027
 1973SOL     OW 6460   0.566   2.399   6.451
 1973SOL    HW1 6461   0.578   2.465   6.377
 1973SOL    HW2 6462   0.612   2.433   6.534
 1974SOL     OW 6463   1.252   3.210   5.974
 1974SOL    HW1 6464   1.302   3.287   6.014
 1974SOL    HW2 6465   1.157   3.212   6.006
 1975SOL     OW 6466   1.272   3.307   6.728
 1975SOL    HW1 6467   1.319   3.320   6.815
 1975SOL    HW2 6468   1.206   3.233   6.737
 1976SOL     OW 6469   0.354   3.372   6.915
 1976SOL    HW1 6470   0.333   3.328   6.828
 1976SOL    HW2 6471   0.451   3.398   6.918
 1977SOL     OW 6472   0.402   2.613   7.184
 1977SOL    HW1 6473   0.470   2.668   7.137
 1977SOL    HW2 6474   0.442   2.525   7.211
 1978SOL     OW 6475   1.587   2.641   7.256
 1978SOL    HW1 6476   1.495   2.679   7.251
 1978SOL    HW2 6477   1.647   2.688   7.191
 1979SOL     OW 6478   1.013   1.967   7.356
 1979SOL    HW1 6479   1.019   2.052   7.304
 1979SOL    HW2 6480   1.045   1.891   7.299
 1980SOL     OW 6481   0.504   1.912   7.326
 1980SOL    HW1 6482   0.462   1.855   7.256
 1980SOL    HW2 6483   0.438   1.981   7.358
 1981SOL     OW 6484   0.573   2.732   6.615
 1981SOL    HW1 6485   0.617   2.821   6.606
 1981SOL    HW2 6486   0.510   2.732   6.692
 1982SOL     OW 6487   1.360   2.724   6.631
 1982SOL    HW1 6488   1.285   2.724   6.565
 1982SOL    HW2 6489   1.397   2.632   6.640
 1983SOL     OW 6490   1.209   2.387   5.861
 1983SOL    HW1 6491   1.222   2.303   5.915
 1983SOL    HW2 6492   1.180   2.461   5.921
 1984SOL     OW 6493   0.307   2.075   6.817
 1984SOL    HW1 6494   0.284   2.112   6.907
 1984SOL    HW2 6495   0.277   1.980   6.811
 1985SOL     OW 6496   0.037   3.172   6.868
 1985SOL    HW1 6497   0.090   3.123   6.936
 1985SOL    HW2 6498   0.059   3.270   6.873
 1986SOL     OW 6499   0.732   2.496   6.650
 1986SOL    HW1 6500   0.791   2.470   6.574
 1986SOL    HW2 6501   0.704   2.592   6.639
 1987SOL     OW 6502   1.728   2.797   7.440
 1987SOL    HW1 6503   1.682   2.790   7.351
 1987SOL    HW2 6504   1.666   2.841   7.506
 1988SOL     OW 6505   0.307   1.925   6.204
 1988SOL    HW1 6506   0.296   2.019   6.237
 1988SOL    HW2 6507   0.302   1.862   6.281
 1989SOL     OW 6508   1.023   2.628   6.552
 1989SOL    HW1 6509   1.038   2.649   6.648
 1989SOL    HW2 6510   0.993   2.533   6.543
 1990SOL     OW 6511   0.980   3.435   7.286
 1990SOL    HW1 6512   0.960   3.479   7.198
 1990SOL    HW2 6513   1.019   3.344   7.270
 1991SOL     OW 6514   1.859   3.380   7.191
 1991SOL    HW1 6515   1.873   3.407   7.096
 1991SOL    HW2 6516   1.942   3.402   7.244
 1992SOL     OW 6517   0.350   2.760   7.390
 1992SOL    HW1 6518   0.426   2.804   7.438
 1992SOL    HW2 6519   0.385   2.713   7.308
 1993SOL     OW 6520   1.303   2.700   5.628
 1993SOL    HW1 6521   1.337   2.607   5.643
 1993SOL    HW2 6522   1.321   2.727   5.533
 1994SOL     OW 6523   1.068   3.195   6.435
 1994SOL    HW1 6524   1.075   3.111   6.380
 1994SOL    HW2 6525   1.130   3.264   6.399
 1995SOL     OW 6526   0.319   2.672   6.535
 1995SOL    HW1 6527   0.412   2.708   6.540
 1995SOL    HW2 6528   0.313   2.587   6.587
 1996SOL     OW 6529   0.339   2.371   6.592
 1996SOL    HW1 6530   0.287   2.288   6.575
 1996SOL    HW2 6531   0.416   2.376   6.528
 1997SOL     OW 6532   1.138   2.242   7.264
 1997SOL    HW1 6533   1.093   2.305   7.328
 1997SOL    HW2 6534   1.231   2.273   7.247
 1998SOL     OW 6535   1.160   2.069   7.063
 1998SOL    HW1 6536   1.160   2.133   7.140
 1998SOL    HW2 6537   1.188   2.117   6.980
 1999SOL     OW 6538   0.008   3.188   5.786
 1999SOL    HW1 6539  -0.085   3.209   5.755
 1999SOL    HW2 6540   0.018   3.089   5.799
 2000SOL     OW 6541   0.088   3.663   6.513
 2000SOL    HW1 6542   0.046   3.577   6.486
 2000SOL    HW2 6543   0.182   3.666   6.479
 2001SOL     OW 6544   0.504   3.430   6.496
 2001SOL    HW1 6545   0.570   3.504   6.505
 2001SOL    HW2 6546   0.548   3.351   6.454
 2002SOL     OW 6547   1.002   2.658   6.824
 2002SOL    HW1 6548   1.043   2.626   6.910
 2002SOL    HW2 6549   0.906   2.631   6.821
 2003SOL     OW 6550   0.040   2.406   6.700
 2003SOL    HW1 6551   0.125   2.373   6.659
 2003SOL    HW2 6552   0.053   2.421   6.798
 2004SOL     OW 6553   0.189   2.382   7.308
 2004SOL    HW1 6554   0.248   2.342   7.238
 2004SOL    HW2 6555   0.131   2.453   7.267
 2005SOL     OW 6556   1.369   2.812   7.246
 2005SOL    HW1 6557   1.408   2.901   7.266
 2005SOL    HW2 6558   1.379   2.792   7.149
 2006SOL     OW 6559   0.815   2.434   5.911
 2006SOL    HW1 6560   0.822   2.345   5.865
 2006SOL    HW2 6561   0.721   2.468   5.903
 2007SOL     OW 6562   1.657   2.466   6.792
 2007SOL    HW1 6563   1.619   2.397   6.854
 2007SOL    HW2 6564   1.739   2.430   6.748
 2008SOL     OW 6565   0.252   3.426   7.330
 2008SOL    HW1 6566   0.222   3.483   7.406
 2008SOL    HW2 6567   0.245   3.329   7.356
 2009SOL     OW 6568   0.671   2.326   6.855
 2009SOL    HW1 6569   0.637   2.237   6.825
 2009SOL    HW2 6570   0.697   2.380   6.775
 2010SOL     OW 6571   0.930   3.540   7.051
 2010SOL    HW1 6572   0.906   3.522   6.956
 2010SOL    HW2 6573   0.960   3.634   7.061
 2011SOL     OW 6574   0.473   2.362   5.777
 2011SOL    HW1 6575   0.534   2.442   5.781
 2011SOL    HW2 6576   0.378   2.393   5.784
 2012SOL     OW 6577   0.159   2.999   7.052
 2012SOL    HW1 6578   0.181   2.938   7.128
 2012SOL    HW2 6579   0.169   2.950   6.966
 2013SOL     OW 6580   1.347   2.921   6.820
 2013SOL    HW1 6581   1.371   2.858   6.746
 2013SOL    HW2 6582   1.257   2.961   6.802
 2014SOL     OW 6583   1.302   2.717   5.895
 2014SOL    HW1 6584   1.216   2.686   5.937
 2014SOL    HW2 6585   1.298   2.703   5.796
 2015SOL     OW 6586   1.759   3.609   6.740
 2015SOL    HW1 6587   1.820   3.639   6.667
 2015SOL    HW2 6588   1.721   3.520   6.718
 2016SOL     OW 6589   1.252   3.593   6.714
 2016SOL    HW1 6590   1.336   3.598   6.660
 2016SOL    HW2 6591   1.229   3.497   6.732
 2017SOL     OW 6592   0.083   3.120   6.608
 2017SOL    HW1 6593   0.078   3.119   6.708
 2017SOL    HW2 6594   0.000   3.079   6.570
 2018SOL     OW 6595   0.688   3.524   7.302
 2018SOL    HW1 6596   0.632   3.605   7.311
 2018SOL    HW2 6597   0.740   3.528   7.216
 2019SOL     OW 6598   1.388   3.435   6.063
 2019SOL    HW1 6599   1.455   3.447   5.989
 2019SOL    HW2 6600   1.348   3.524   6.086
 2020SOL     OW 6601   0.130   3.656   7.437
 2020SOL    HW1 6602   0.089   3.582   7.490
 2020SOL    HW2 6603   0.194   3.707   7.495
 2021SOL     OW 6604   1.280   2.789   6.258
 2021SOL    HW1 6605   1.340   2.708   6.260
 2021SOL    HW2 6606   1.320   2.858   6.198
 2022SOL     OW 6607   0.830   3.135   7.008
 2022SOL    HW1 6608   0.825   3.168   7.103
 2022SOL    HW2 6609   0.744   3.154   6.962
 2023SOL     OW 6610   0.672   3.478   5.740
 2023SOL    HW1 6611   0.681   3.488   5.641
 2023SOL    HW2 6612   0.632   3.389   5.761
 2024SOL     OW 6613   1.650   3.582   6.980
 2024SOL    HW1 6614   1.703   3.592   6.896
 2024SOL    HW2 6615   1.623   3.672   7.014
 2025SOL     OW 6616   1.841   2.037   6.549
 2025SOL    HW1 6617   1.880   1.952   6.513
 2025SOL    HW2 6618   1.743   2.039   6.530
 2026SOL     OW 6619   0.263   2.188   6.306
 2026SOL    HW1 6620   0.184   2.239   6.272
 2026SOL    HW2 6621   0.254   2.173   6.404
 2027SOL     OW 6622   1.194   3.474   5.617
 2027SOL    HW1 6623   1.200   3.381   5.654
 2027SOL    HW2 6624   1.135   3.474   5.537
 2028SOL     OW 6625   0.822   2.864   6.958
 2028SOL    HW1 6626   0.862   2.863   6.866
 2028SOL    HW2 6627   0.832   2.956   6.998
 2029SOL     OW 6628   0.916   2.772   5.877
 2029SOL    HW1 6629   0.979   2.810   5.809
 2029SOL    HW2 6630   0.956   2.689   5.916
 2030SOL     OW 6631   1.504   3.469   5.630
 2030SOL    HW1 6632   1.412   3.506   5.637
 2030SOL    HW2 6633   1.542   3.489   5.540
 2031SOL     OW 6634   0.372   3.150   7.076
 2031SOL    HW1 6635   0.359   3.243   7.042
 2031SOL    HW2 6636   0.288   3.098   7.063
 2032SOL     OW 6637   1.614   3.154   6.875
 2032SOL    HW1 6638   1.674   3.157   6.955
 2032SOL    HW2 6639   1.539   3.218   6.888
 2033SOL     OW 6640   1.039   2.960   6.282
 2033SOL    HW1 6641   0.969   2.913   6.336
 2033SOL    HW2 6642   1.098   2.892   6.239
 2034SOL     OW 6643   1.014   2.098   6.557
 2034SOL    HW1 6644   1.006   2.062   6.464
 2034SOL    HW2 6645   1.012   2.022   6.622
 2035SOL     OW 6646   0.590   3.349   6.077
 2035SOL    HW1 6647   0.632   3.291   6.007
 2035SOL    HW2 6648   0.546   3.428   6.033
 2036SOL     OW 6649   1.709   2.247   6.967
 2036SOL    HW1 6650   1.782   2.316   6.971
 2036SOL    HW2 6651   1.737   2.172   6.908
 2037SOL     OW 6652   0.255   3.210   5.876
 2037SOL    HW1 6653   0.159   3.211   5.849
 2037SOL    HW2 6654   0.267   3.263   5.960
 2038SOL     OW 6655   0.105   2.875   7.312
 2038SOL    HW1 6656   0.028   2.842   7.366
 2038SOL    HW2 6657   0.190   2.845   7.354
 2039SOL     OW 6658   0.672   2.065   7.075
 2039SOL    HW1 6659   0.762   2.049   7.035
 2039SOL    HW2 6660   0.680   2.070   7.174
 2040SOL     OW 6661   0.075   2.207   5.619
 2040SOL    HW1 6662  -0.017   2.179   5.590
 2040SOL    HW2 6663   0.106   2.284   5.563
 2041SOL     OW 6664   1.440   2.718   6.984
 2041SOL    HW1 6665   1.383   2.770   6.921
 2041SOL    HW2 6666   1.536   2.730   6.960
 2042SOL     OW 6667   0.072   2.028   5.904
 2042SOL    HW1 6668   0.055   2.111   5.850
 2042SOL    HW2 6669   0.162   1.991   5.882
 2043SOL     OW 6670   1.183   3.197   5.705
 2043SOL    HW1 6671   1.084   3.186   5.707
 2043SOL    HW2 6672   1.217   3.212   5.798
 2044SOL     OW 6673   0.613   2.704   7.017
 2044SOL    HW1 6674   0.669   2.785   7.000
 2044SOL    HW2 6675   0.672   2.624   7.020
 2045SOL     OW 6676   1.493   3.629   6.545
 2045SOL    HW1 6677   1.526   3.693   6.476
 2045SOL    HW2 6678   1.559   3.623   6.620
 2046SOL     OW 6679   0.716   2.427   7.294
 2046SOL    HW1 6680   0.735   2.492   7.368
 2046SOL    HW2 6681   0.776   2.347   7.303
 2047SOL     OW 6682   1.450   3.082   7.219
 2047SOL    HW1 6683   1.441   3.072   7.318
 2047SOL    HW2 6684   1.546   3.075   7.193
 2048SOL     OW 6685   0.390   3.603   7.146
 2048SOL    HW1 6686   0.299   3.644   7.144
 2048SOL    HW2 6687   0.383   3.509   7.178
 2049SOL     OW 6688   1.674   2.745   6.840
 2049SOL    HW1 6689   1.647   2.656   6.803
 2049SOL    HW2 6690   1.675   2.813   6.767
 2050SOL     OW 6691   1.225   2.187   6.035
 2050SOL    HW1 6692   1.290   2.113   6.024
 2050SOL    HW2 6693   1.245   2.237   6.119
 2051SOL     OW 6694   0.594   2.607   6.238
 2051SOL    HW1 6695   0.644   2.692   6.219
 2051SOL    HW2 6696   0.506   2.609   6.190
 2052SOL     OW 6697   1.777   2.204   7.228
 2052SOL    HW1 6698   1.760   2.235   7.134
 2052SOL    HW2 6699   1.693   2.167   7.266
 2053SOL     OW 6700   1.730   2.796   7.103
 2053SOL    HW1 6701   1.768   2.887   7.118
 2053SOL    HW2 6702   1.722   2.779   7.004
 2054SOL     OW 6703   0.859   3.236   5.602
 2054SOL    HW1 6704   0.813   3.251   5.690
 2054SOL    HW2 6705   0.903   3.321   5.572
 2055SOL     OW 6706   0.661   3.652   6.539
 2055SOL    HW1 6707   0.615   3.740   6.526
 2055SOL    HW2 6708   0.760   3.664   6.532
 2056SOL     OW 6709   0.859   2.818   6.447
 2056SOL    HW1 6710   0.913   2.749   6.495
 2056SOL    HW2 6711   0.827   2.887   6.513
 2057SOL     OW 6712   1.083   2.846   5.673
 2057SOL    HW1 6713   1.060   2.899   5.591
 2057SOL    HW2 6714   1.164   2.790   5.654
 2058SOL     OW 6715   1.861   3.431   6.437
 2058SOL    HW1 6716   1.790   3.419   6.367
 2058SOL    HW2 6717   1.862   3.352   6.497
 2059SOL     OW 6718   0.221   3.176   7.430
 2059SOL    HW1 6719   0.156   3.103   7.409
 2059SOL    HW2 6720   0.225   3.190   7.528
 2060SOL     OW 6721   0.079   3.102   6.239
 2060SOL    HW1 6722   0.078   3.055   6.327
 2060SOL    HW2 6723   0.161   3.074   6.188
 2061SOL     OW 6724   0.672   3.253   7.210
 2061SOL    HW1 6725   0.594   3.203   7.248
 2061SOL    HW2 6726   0.669   3.348   7.241
 2062SOL     OW 6727   1.824   2.054   6.813
 2062SOL    HW1 6728   1.820   1.964   6.857
 2062SOL    HW2 6729   1.827   2.043   6.714
 2063SOL     OW 6730   0.428   2.286   6.106
 2063SOL    HW1 6731   0.458   2.214   6.044
 2063SOL    HW2 6732   0.389   2.246   6.189
 2064SOL     OW 6733   1.705   3.349   6.690
 2064SOL    HW1 6734   1.612   3.324   6.663
 2064SOL    HW2 6735   1.731   3.299   6.772
 2065SOL     OW 6736   0.317   2.409   6.866
 2065SOL    HW1 6737   0.355   2.350   6.938
 2065SOL    HW2 6738   0.357   2.383   6.778
 2066SOL     OW 6739   0.812   3.448   6.273
 2066SOL    HW1 6740   0.844   3.458   6.179
 2066SOL    HW2 6741   0.733   3.386   6.275
 2067SOL     OW 6742   1.424   2.076   6.698
 2067SOL    HW1 6743   1.476   2.011   6.753
 2067SOL    HW2 6744   1.375   2.139   6.759
 2068SOL     OW 6745   1.001   1.896   6.740
 2068SOL    HW1 6746   0.938   1.824   6.709
 2068SOL    HW2 6747   1.094   1.860   6.740
 2069SOL     OW 6748   0.770   3.192   5.887
 2069SOL    HW1 6749   0.724   3.105   5.904
 2069SOL    HW2 6750   0.861   3.189   5.928
 2070SOL     OW 6751   0.618   3.429   6.870
 2070SOL    HW1 6752   0.613   3.511   6.927
 2070SOL    HW2 6753   0.707   3.426   6.825
 2071SOL     OW 6754   1.352   1.914   5.754
 2071SOL    HW1 6755   1.387   1.873   5.670
 2071SOL    HW2 6756   1.262   1.876   5.774
 2072SOL     OW 6757   1.300   2.315   6.277
 2072SOL    HW1 6758   1.241   2.395   6.281
 2072SOL    HW2 6759   1.315   2.280   6.370
 2073SOL     OW 6760   0.039   2.939   5.886
 2073SOL    HW1 6761   0.138   2.928   5.877
 2073SOL    HW2 6762  -0.001   2.853   5.918
 2074SOL     OW 6763   0.875   3.508   5.923
 2074SOL    HW1 6764   0.798   3.473   5.869
 2074SOL    HW2 6765   0.843   3.579   5.985
 2075SOL     OW 6766   0.230   2.490   7.561
 2075SOL    HW1 6767   0.137   2.488   7.598
 2075SOL    HW2 6768   0.231   2.451   7.469
 2076SOL     OW 6769   0.225   2.137   8.444
 2076SOL    HW1 6770   0.260   2.120   8.536
 2076SOL    HW2 6771   0.137   2.092   8.432
 2077SOL     OW 6772   0.019   2.230   8.095
 2077SOL    HW1 6773  -0.063   2.273   8.134
 2077SOL    HW2 6774  -0.009   2.157   8.032
 2078SOL     OW 6775   0.569   3.137   8.613
 2078SOL    HW1 6776   0.476   3.130   8.576
 2078SOL    HW2 6777   0.580   3.226   8.657
 2079SOL     OW 6778   1.555   3.373   8.151
 2079SOL    HW1 6779   1.498   3.357   8.232
 2079SOL    HW2 6780   1.496   3.383   8.071
 2080SOL     OW 6781   1.135   2.565   8.165
 2080SOL    HW1 6782   1.192   2.643   8.140
 2080SOL    HW2 6783   1.075   2.591   8.241
 2081SOL     OW 6784   1.755   2.469   7.679
 2081SOL    HW1 6785   1.743   2.456   7.580
 2081SOL    HW2 6786   1.725   2.388   7.728
 2082SOL     OW 6787   0.768   3.006   8.471
 2082SOL    HW1 6788   0.690   3.023   8.531
 2082SOL    HW2 6789   0.802   3.093   8.435
 2083SOL     OW 6790   0.850   2.660   9.271
 2083SOL    HW1 6791   0.846   2.736   9.336
 2083SOL    HW2 6792   0.872   2.696   9.180
 2084SOL     OW 6793   0.685   2.874   8.113
 2084SOL    HW1 6794   0.754   2.858   8.183
 2084SOL    HW2 6795   0.612   2.931   8.151
 2085SOL     OW 6796   0.686   3.023   9.251
 2085SOL    HW1 6797   0.746   3.102   9.265
 2085SOL    HW2 6798   0.600   3.054   9.210
 2086SOL     OW 6799   0.335   3.297   8.509
 2086SOL    HW1 6800   0.257   3.266   8.456
 2086SOL    HW2 6801   0.393   3.355   8.452
 2087SOL     OW 6802   1.460   3.367   8.787
 2087SOL    HW1 6803   1.484   3.461   8.813
 2087SOL    HW2 6804   1.444   3.313   8.869
 2088SOL     OW 6805   0.438   2.254   8.947
 2088SOL    HW1 6806   0.520   2.198   8.956
 2088SOL    HW2 6807   0.357   2.196   8.951
 2089SOL     OW 6808   1.603   2.309   8.185
 2089SOL    HW1 6809   1.529   2.355   8.135
 2089SOL    HW2 6810   1.654   2.377   8.238
 2090SOL     OW 6811   0.231   3.575   7.931
 2090SOL    HW1 6812   0.265   3.652   7.985
 2090SOL    HW2 6813   0.275   3.575   7.841
 2091SOL     OW 6814   1.127   3.203   9.138
 2091SOL    HW1 6815   1.174   3.203   9.226
 2091SOL    HW2 6816   1.079   3.116   9.127
 2092SOL     OW 6817   0.230   3.296   7.986
 2092SOL    HW1 6818   0.204   3.392   7.986
 2092SOL    HW2 6819   0.159   3.242   8.031
 2093SOL     OW 6820   0.240   2.953   8.334
 2093SOL    HW1 6821   0.254   2.869   8.386
 2093SOL    HW2 6822   0.185   3.017   8.389
 2094SOL     OW 6823   0.620   3.648   8.887
 2094SOL    HW1 6824   0.528   3.631   8.922
 2094SOL    HW2 6825   0.648   3.740   8.913
 2095SOL     OW 6826   0.606   2.826   7.571
 2095SOL    HW1 6827   0.613   2.910   7.517
 2095SOL    HW2 6828   0.652   2.839   7.659
 2096SOL     OW 6829   1.594   1.976   8.928
 2096SOL    HW1 6830   1.576   2.043   8.856
 2096SOL    HW2 6831   1.591   2.022   9.017
 2097SOL     OW 6832   0.122   2.505   8.011
 2097SOL    HW1 6833   0.077   2.417   8.028
 2097SOL    HW2 6834   0.121   2.559   8.095
 2098SOL     OW 6835   1.842   3.629   7.807
 2098SOL    HW1 6836   1.896   3.600   7.887
 2098SOL    HW2 6837   1.872   3.719   7.778
 2099SOL     OW 6838   0.027   3.458   7.565
 2099SOL    HW1 6839   0.008   3.362   7.586
 2099SOL    HW2 6840  -0.006   3.516   7.640
 2100SOL     OW 6841   1.689   2.784   8.060
 2100SOL    HW1 6842   1.784   2.755   8.068
 2100SOL    HW2 6843   1.681   2.849   7.985
 2101SOL     OW 6844   1.641   2.970   7.880
 2101SOL    HW1 6845   1.727   2.972   7.828
 2101SOL    HW2 6846   1.655   3.017   7.968
 2102SOL     OW 6847   0.113   2.599   9.045
 2102SOL    HW1 6848   0.201   2.586   9.090
 2102SOL    HW2 6849   0.100   2.696   9.023
 2103SOL     OW 6850   0.613   3.227   8.174
 2103SOL    HW1 6851   0.564   3.140   8.183
 2103SOL    HW2 6852   0.590   3.270   8.087
 2104SOL     OW 6853   1.293   3.090   8.871
 2104SOL    HW1 6854   1.330   3.017   8.813
 2104SOL    HW2 6855   1.345   3.095   8.956
 2105SOL     OW 6856   0.809   1.866   7.950
 2105SOL    HW1 6857   0.849   1.957   7.941
 2105SOL    HW2 6858   0.709   1.874   7.956
 2106SOL     OW 6859   0.197   2.838   8.712
 2106SOL    HW1 6860   0.286   2.793   8.698
 2106SOL    HW2 6861   0.124   2.773   8.693
 2107SOL     OW 6862   1.525   2.861   7.638
 2107SOL    HW1 6863   1.462   2.785   7.651
 2107SOL    HW2 6864   1.573   2.879   7.724
 2108SOL     OW 6865   1.187   3.654   9.064
 2108SOL    HW1 6866   1.211   3.714   8.988
 2108SOL    HW2 6867   1.194   3.559   9.034
 2109SOL     OW 6868   0.317   2.113   9.249
 2109SOL    HW1 6869   0.388   2.184   9.255
 2109SOL    HW2 6870   0.229   2.152   9.277
 2110SOL     OW 6871   1.466   3.279   8.401
 2110SOL    HW1 6872   1.407   3.285   8.481
 2110SOL    HW2 6873   1.451   3.191   8.355
 2111SOL     OW 6874   1.667   3.576   8.020
 2111SOL    HW1 6875   1.626   3.553   7.932
 2111SOL    HW2 6876   1.649   3.502   8.085
 2112SOL     OW 6877   0.598   2.591   7.718
 2112SOL    HW1 6878   0.622   2.660   7.650
 2112SOL    HW2 6879   0.520   2.624   7.772
 2113SOL     OW 6880   1.281   2.207   8.392
 2113SOL    HW1 6881   1.195   2.157   8.379
 2113SOL    HW2 6882   1.343   2.153   8.448
 2114SOL     OW 6883   1.576   3.524   7.755
 2114SOL    HW1 6884   1.665   3.570   7.758
 2114SOL    HW2 6885   1.555   3.500   7.660
 2115SOL     OW 6886   0.807   2.467   8.913
 2115SOL    HW1 6887   0.760   2.464   9.002
 2115SOL    HW2 6888   0.756   2.412   8.847
 2116SOL     OW 6889   1.394   2.331   9.122
 2116SOL    HW1 6890   1.374   2.374   9.210
 2116SOL    HW2 6891   1.472   2.269   9.131
 2117SOL     OW 6892   0.973   2.752   9.020
 2117SOL    HW1 6893   1.019   2.668   8.991
 2117SOL    HW2 6894   0.917   2.786   8.945
 2118SOL     OW 6895   0.991   2.272   8.690
 2118SOL    HW1 6896   0.914   2.306   8.744
 2118SOL    HW2 6897   0.957   2.221   8.611
 2119SOL     OW 6898   1.041   2.563   7.877
 2119SOL    HW1 6899   1.067   2.559   7.973
 2119SOL    HW2 6900   0.956   2.512   7.863
 2120SOL     OW 6901   0.076   2.673   8.237
 2120SOL    HW1 6902   0.175   2.661   8.246
 2120SOL    HW2 6903   0.052   2.768   8.258
 2121SOL     OW 6904   0.130   3.683   9.019
 2121SOL    HW1 6905   0.120   3.668   9.118
 2121SOL    HW2 6906   0.044   3.719   8.983
 2122SOL     OW 6907   0.865   2.210   7.643
 2122SOL    HW1 6908   0.924   2.273   7.594
 2122SOL    HW2 6909   0.884   2.116   7.614
 2123SOL     OW 6910   1.719   2.447   9.279
 2123SOL    HW1 6911   1.693   2.536   9.243
 2123SOL    HW2 6912   1.717   2.379   9.206
 2124SOL     OW 6913   1.362   3.006   7.993
 2124SOL    HW1 6914   1.445   2.977   7.945
 2124SOL    HW2 6915   1.313   3.073   7.937
 2125SOL     OW 6916   0.550   2.058   8.333
 2125SOL    HW1 6917   0.545   2.053   8.433
 2125SOL    HW2 6918   0.552   2.154   8.304
 2126SOL     OW 6919   1.008   3.318   7.925
 2126SOL    HW1 6920   0.962   3.390   7.873
 2126SOL    HW2 6921   1.004   3.338   8.023
 2127SOL     OW 6922   0.351   3.663   8.301
 2127SOL    HW1 6923   0.401   3.577   8.307
 2127SOL    HW2 6924   0.416   3.740   8.298
 2128SOL     OW 6925   1.795   2.928   8.321
 2128SOL    HW1 6926   1.733   2.913   8.245
 2128SOL    HW2 6927   1.743   2.939   8.406
 2129SOL     OW 6928   1.227   3.412   8.954
 2129SOL    HW1 6929   1.233   3.335   9.018
 2129SOL    HW2 6930   1.175   3.386   8.874
 2130SOL     OW 6931   0.321   2.805   7.690
 2130SOL    HW1 6932   0.403   2.844   7.648
 2130SOL    HW2 6933   0.294   2.723   7.641
 2131SOL     OW 6934   1.458   2.597   8.176
 2131SOL    HW1 6935   1.453   2.532   8.251
 2131SOL    HW2 6936   1.538   2.656   8.189
 2132SOL     OW 6937   0.461   3.128   9.175
 2132SOL    HW1 6938   0.411   3.129   9.089
 2132SOL    HW2 6939   0.398   3.110   9.251
 2133SOL     OW 6940   1.111   3.638   7.685
 2133SOL    HW1 6941   1.051   3.576   7.735
 2133SOL    HW2 6942   1.142   3.594   7.600
 2134SOL     OW 6943   0.202   2.147   8.946
 2134SOL    HW1 6944   0.122   2.207   8.933
 2134SOL    HW2 6945   0.192   2.098   9.032
 2135SOL     OW 6946   1.632   3.239   7.529
 2135SOL    HW1 6947   1.600   3.333   7.519
 2135SOL    HW2 6948   1.556   3.176   7.517
 2136SOL     OW 6949   0.464   3.605   7.771
 2136SOL    HW1 6950   0.497   3.644   7.857
 2136SOL    HW2 6951   0.540   3.598   7.706
 2137SOL     OW 6952   1.400   1.969   7.874
 2137SOL    HW1 6953   1.376   1.932   7.784
 2137SOL    HW2 6954   1.499   1.985   7.878
 2138SOL     OW 6955   0.249   3.647   8.689
 2138SOL    HW1 6956   0.306   3.582   8.739
 2138SOL    HW2 6957   0.233   3.614   8.596
 2139SOL     OW 6958   0.940   3.560   8.352
 2139SOL    HW1 6959   1.020   3.503   8.373
 2139SOL    HW2 6960   0.891   3.520   8.275
 2140SOL     OW 6961   0.382   2.562   7.928
 2140SOL    HW1 6962   0.427   2.472   7.925
 2140SOL    HW2 6963   0.288   2.551   7.961
 2141SOL     OW 6964   1.547   2.084   9.177
 2141SOL    HW1 6965   1.542   2.121   9.269
 2141SOL    HW2 6966   1.475   2.015   9.165
 2142SOL     OW 6967   0.614   1.984   7.565
 2142SOL    HW1 6968   0.712   1.962   7.572
 2142SOL    HW2 6969   0.583   1.967   7.472
 2143SOL     OW 6970   0.781   2.126   9.197
 2143SOL    HW1 6971   0.848   2.065   9.240
 2143SOL    HW2 6972   0.708   2.145   9.262
 2144SOL     OW 6973   0.888   3.376   8.643
 2144SOL    HW1 6974   0.865   3.351   8.549
 2144SOL    HW2 6975   0.949   3.307   8.682
 2145SOL     OW 6976   1.351   2.452   8.881
 2145SOL    HW1 6977   1.379   2.409   8.966
 2145SOL    HW2 6978   1.376   2.548   8.882
 2146SOL     OW 6979   0.803   3.264   8.372
 2146SOL    HW1 6980   0.893   3.278   8.330
 2146SOL    HW2 6981   0.732   3.266   8.301
 2147SOL     OW 6982   0.922   2.365   8.347
 2147SOL    HW1 6983   0.897   2.356   8.251
 2147SOL    HW2 6984   0.970   2.283   8.378
 2148SOL     OW 6985   0.539   1.926   7.960
 2148SOL    HW1 6986   0.458   1.927   8.018
 2148SOL    HW2 6987   0.542   2.009   7.905
 2149SOL     OW 6988   1.434   3.050   7.489
 2149SOL    HW1 6989   1.466   2.974   7.546
 2149SOL    HW2 6990   1.342   3.077   7.519
 2150SOL     OW 6991   0.297   1.897   7.619
 2150SOL    HW1 6992   0.346   1.981   7.598
 2150SOL    HW2 6993   0.359   1.832   7.664
 2151SOL     OW 6994   0.935   2.098   7.928
 2151SOL    HW1 6995   0.887   2.139   7.850
 2151SOL    HW2 6996   1.034   2.096   7.909
 2152SOL     OW 6997   1.076   2.545   8.912
 2152SOL    HW1 6998   0.996   2.484   8.915
 2152SOL    HW2 6999   1.157   2.492   8.888
 2153SOL     OW 7000   1.227   3.432   8.241
 2153SOL    HW1 7001   1.248   3.506   8.176
 2153SOL    HW2 7002   1.295   3.432   8.314
 2154SOL     OW 7003   0.459   3.014   8.189
 2154SOL    HW1 7004   0.388   2.987   8.254
 2154SOL    HW2 7005   0.433   2.986   8.096
 2155SOL     OW 7006   1.271   3.659   8.039
 2155SOL    HW1 7007   1.315   3.723   7.975
 2155SOL    HW2 7008   1.221   3.711   8.109
 2156SOL     OW 7009   1.032   2.411   7.464
 2156SOL    HW1 7010   0.991   2.493   7.425
 2156SOL    HW2 7011   1.096   2.437   7.537
 2157SOL     OW 7012   0.078   2.418   8.834
 2157SOL    HW1 7013   0.170   2.417   8.793
 2157SOL    HW2 7014   0.072   2.492   8.901
 2158SOL     OW 7015   0.561   2.084   8.595
 2158SOL    HW1 7016   0.599   2.000   8.632
 2158SOL    HW2 7017   0.473   2.103   8.639
 2159SOL     OW 7018   0.866   2.316   8.090
 2159SOL    HW1 7019   0.834   2.388   8.028
 2159SOL    HW2 7020   0.890   2.235   8.037
 2160SOL     OW 7021   1.017   1.901   8.201
 2160SOL    HW1 7022   0.945   1.906   8.132
 2160SOL    HW2 7023   0.993   1.832   8.270
 2161SOL     OW 7024   1.429   3.035   8.315
 2161SOL    HW1 7025   1.374   2.951   8.308
 2161SOL    HW2 7026   1.455   3.064   8.223
 2162SOL     OW 7027   1.466   2.452   8.440
 2162SOL    HW1 7028   1.436   2.357   8.447
 2162SOL    HW2 7029   1.539   2.468   8.506
 2163SOL     OW 7030   1.857   2.695   7.825
 2163SOL    HW1 7031   1.899   2.631   7.889
 2163SOL    HW2 7032   1.819   2.644   7.747
 2164SOL     OW 7033   0.488   3.247   7.622
 2164SOL    HW1 7034   0.401   3.232   7.669
 2164SOL    HW2 7035   0.471   3.273   7.527
 2165SOL     OW 7036   1.664   3.142   8.105
 2165SOL    HW1 7037   1.763   3.150   8.119
 2165SOL    HW2 7038   1.619   3.226   8.136
 2166SOL     OW 7039   1.390   2.437   7.526
 2166SOL    HW1 7040   1.336   2.416   7.607
 2166SOL    HW2 7041   1.481   2.396   7.535
 2167SOL     OW 7042   0.527   2.118   7.776
 2167SOL    HW1 7043   0.554   2.059   7.701
 2167SOL    HW2 7044   0.527   2.213   7.745
 2168SOL     OW 7045   1.754   3.085   9.036
 2168SOL    HW1 7046   1.845   3.046   9.023
 2168SOL    HW2 7047   1.762   3.181   9.060
 2169SOL     OW 7048   1.064   3.209   8.788
 2169SOL    HW1 7049   0.984   3.186   8.843
 2169SOL    HW2 7050   1.147   3.183   8.837
 2170SOL     OW 7051   1.592   3.491   9.073
 2170SOL    HW1 7052   1.619   3.525   8.983
 2170SOL    HW2 7053   1.671   3.453   9.119
 2171SOL     OW 7054   1.111   3.057   8.548
 2171SOL    HW1 7055   1.071   3.101   8.629
 2171SOL    HW2 7056   1.070   3.094   8.465
 2172SOL     OW 7057   1.638   2.961   8.527
 2172SOL    HW1 7058   1.643   3.042   8.586
 2172SOL    HW2 7059   1.552   2.963   8.476
 2173SOL     OW 7060   0.915   1.951   8.850
 2173SOL    HW1 7061   0.940   1.931   8.755
 2173SOL    HW2 7062   0.987   2.007   8.892
 2174SOL     OW 7063   0.980   2.978   9.167
 2174SOL    HW1 7064   0.881   2.984   9.177
 2174SOL    HW2 7065   1.003   2.898   9.111
 2175SOL     OW 7066   0.705   2.912   7.816
 2175SOL    HW1 7067   0.691   2.919   7.915
 2175SOL    HW2 7068   0.789   2.861   7.798
 2176SOL     OW 7069   0.410   2.675   8.699
 2176SOL    HW1 7070   0.496   2.687   8.749
 2176SOL    HW2 7071   0.368   2.588   8.726
 2177SOL     OW 7072   1.274   2.248   8.710
 2177SOL    HW1 7073   1.295   2.322   8.774
 2177SOL    HW2 7074   1.185   2.265   8.667
 2178SOL     OW 7075   0.064   3.426   8.779
 2178SOL    HW1 7076   0.018   3.508   8.745
 2178SOL    HW2 7077   0.162   3.445   8.788
 2179SOL     OW 7078   0.367   2.962   7.949
 2179SOL    HW1 7079   0.360   3.045   7.893
 2179SOL    HW2 7080   0.371   2.882   7.889
 2180SOL     OW 7081   0.566   2.399   8.313
 2180SOL    HW1 7082   0.578   2.465   8.239
 2180SOL    HW2 7083   0.612   2.433   8.396
 2181SOL     OW 7084   1.252   3.210   7.836
 2181SOL    HW1 7085   1.302   3.287   7.876
 2181SOL    HW2 7086   1.157   3.212   7.868
 2182SOL     OW 7087   1.272   3.307   8.590
 2182SOL    HW1 7088   1.319   3.320   8.677
 2182SOL    HW2 7089   1.206   3.233   8.599
 2183SOL     OW 7090   1.582   2.501   7.920
 2183SOL    HW1 7091   1.551   2.562   7.993
 2183SOL    HW2 7092   1.632   2.553   7.851
 2184SOL     OW 7093   0.354   3.372   8.777
 2184SOL    HW1 7094   0.333   3.328   8.690
 2184SOL    HW2 7095   0.451   3.398   8.780
 2185SOL     OW 7096   0.402   2.613   9.046
 2185SOL    HW1 7097   0.470   2.668   8.999
 2185SOL    HW2 7098   0.442   2.525   9.073
 2186SOL     OW 7099   1.587   2.641   9.118
 2186SOL    HW1 7100   1.495   2.679   9.113
 2186SOL    HW2 7101   1.647   2.688   9.053
 2187SOL     OW 7102   1.013   1.967   9.218
 2187SOL    HW1 7103   1.019   2.052   9.166
 2187SOL    HW2 7104   1.045   1.891   9.161
 2188SOL     OW 7105   0.504   1.912   9.188
 2188SOL    HW1 7106   0.462   1.855   9.118
 2188SOL    HW2 7107   0.438   1.981   9.220
 2189SOL     OW 7108   0.573   2.732   8.477
 2189SOL    HW1 7109   0.617   2.821   8.468
 2189SOL    HW2 7110   0.510   2.732   8.554
 2190SOL     OW 7111   1.360   2.724   8.493
 2190SOL    HW1 7112   1.285   2.724   8.427
 2190SOL    HW2 7113   1.397   2.632   8.502
 2191SOL     OW 7114   1.209   2.387   7.723
 2191SOL    HW1 7115   1.222   2.303   7.777
 2191SOL    HW2 7116   1.180   2.461   7.783
 2192SOL     OW 7117   0.307   2.075   8.679
 2192SOL    HW1 7118   0.284   2.112   8.769
 2192SOL    HW2 7119   0.277   1.980   8.673
 2193SOL     OW 7120   0.037   3.172   8.730
 2193SOL    HW1 7121   0.090   3.123   8.798
 2193SOL    HW2 7122   0.059   3.270   8.735
 2194SOL     OW 7123   0.732   2.496   8.512
 2194SOL    HW1 7124   0.791   2.470   8.436
 2194SOL    HW2 7125   0.704   2.592   8.501
 2195SOL     OW 7126   1.728   2.797   9.302
 2195SOL    HW1 7127   1.682   2.790   9.213
 2195SOL    HW2 7128   1.666   2.841   9.368
 2196SOL     OW 7129   0.307   1.925   8.066
 2196SOL    HW1 7130   0.296   2.019   8.099
 2196SOL    HW2 7131   0.302   1.862   8.143
 2197SOL     OW 7132   1.622   2.229   7.822
 2197SOL    HW1 7133   1.624   2.153   7.886
 2197SOL    HW2 7134   1.574   2.306   7.862
 2198SOL     OW 7135   1.023   2.628   8.414
 2198SOL    HW1 7136   1.038   2.649   8.510
 2198SOL    HW2 7137   0.993   2.533   8.405
 2199SOL     OW 7138   0.980   3.435   9.148
 2199SOL    HW1 7139   0.960   3.479   9.060
 2199SOL    HW2 7140   1.019   3.344   9.132
 2200SOL     OW 7141   1.859   3.380   9.053
 2200SOL    HW1 7142   1.873   3.407   8.958
 2200SOL    HW2 7143   1.942   3.402   9.106
 2201SOL     OW 7144   0.350   2.760   9.252
 2201SOL    HW1 7145   0.426   2.804   9.300
 2201SOL    HW2 7146   0.385   2.713   9.170
 2202SOL     OW 7147   1.540   2.136   7.573
 2202SOL    HW1 7148   1.479   2.061   7.596
 2202SOL    HW2 7149   1.562   2.188   7.656
 2203SOL     OW 7150   1.303   2.700   7.490
 2203SOL    HW1 7151   1.337   2.607   7.505
 2203SOL    HW2 7152   1.321   2.727   7.395
 2204SOL     OW 7153   1.068   3.195   8.297
 2204SOL    HW1 7154   1.075   3.111   8.242
 2204SOL    HW2 7155   1.130   3.264   8.261
 2205SOL     OW 7156   0.319   2.672   8.397
 2205SOL    HW1 7157   0.412   2.708   8.402
 2205SOL    HW2 7158   0.313   2.587   8.449
 2206SOL     OW 7159   0.339   2.371   8.454
 2206SOL    HW1 7160   0.287   2.288   8.437
 2206SOL    HW2 7161   0.416   2.376   8.390
 2207SOL     OW 7162   1.138   2.242   9.126
 2207SOL    HW1 7163   1.093   2.305   9.190
 2207SOL    HW2 7164   1.231   2.273   9.109
 2208SOL     OW 7165   1.160   2.069   8.925
 2208SOL    HW1 7166   1.160   2.133   9.002
 2208SOL    HW2 7167   1.188   2.117   8.842
 2209SOL     OW 7168   0.008   3.188   7.648
 2209SOL    HW1 7169  -0.085   3.209   7.617
 2209SOL    HW2 7170   0.018   3.089   7.661
 2210SOL     OW 7171   0.088   3.663   8.375
 2210SOL    HW1 7172   0.046   3.577   8.348
 2210SOL    HW2 7173   0.182   3.666   8.341
 2211SOL     OW 7174   0.504   3.430   8.358
 2211SOL    HW1 7175   0.570   3.504   8.367
 2211SOL    HW2 7176   0.548   3.351   8.316
 2212SOL     OW 7177   1.002   2.658   8.686
 2212SOL    HW1 7178   1.043   2.626   8.772
 2212SOL    HW2 7179   0.906   2.631   8.683
 2213SOL     OW 7180   0.040   2.406   8.562
 2213SOL    HW1 7181   0.125   2.373   8.521
 2213SOL    HW2 7182   0.053   2.421   8.660
 2214SOL     OW 7183   0.189   2.382   9.170
 2214SOL    HW1 7184   0.248   2.342   9.100
 2214SOL    HW2 7185   0.131   2.453   9.129
 2215SOL     OW 7186   1.369   2.812   9.108
 2215SOL    HW1 7187   1.408   2.901   9.128
 2215SOL    HW2 7188   1.379   2.792   9.011
 2216SOL     OW 7189   0.815   2.434   7.773
 2216SOL    HW1 7190   0.822   2.345   7.727
 2216SOL    HW2 7191   0.721   2.468   7.765
 2217SOL     OW 7192   1.657   2.466   8.654
 2217SOL    HW1 7193   1.619   2.397   8.716
 2217SOL    HW2 7194   1.739   2.430   8.610
 2218SOL     OW 7195   0.252   3.426   9.192
 2218SOL    HW1 7196   0.222   3.483   9.268
 2218SOL    HW2 7197   0.245   3.329   9.218
 2219SOL     OW 7198   0.671   2.326   8.717
 2219SOL    HW1 7199   0.637   2.237   8.687
 2219SOL    HW2 7200   0.697   2.380   8.637
 2220SOL     OW 7201   0.930   3.540   8.913
 2220SOL    HW1 7202   0.906   3.522   8.818
 2220SOL    HW2 7203   0.960   3.634   8.923
 2221SOL     OW 7204   0.473   2.362   7.639
 2221SOL    HW1 7205   0.534   2.442   7.643
 2221SOL    HW2 7206   0.378   2.393   7.646
 2222SOL     OW 7207   0.159   2.999   8.914
 2222SOL    HW1 7208   0.181   2.938   8.990
 2222SOL    HW2 7209   0.169   2.950   8.828
 2223SOL     OW 7210   1.347   2.921   8.682
 2223SOL    HW1 7211   1.371   2.858   8.608
 2223SOL    HW2 7212   1.257   2.961   8.664
 2224SOL     OW 7213   1.302   2.717   7.757
 2224SOL    HW1 7214   1.216   2.686   7.799
 2224SOL    HW2 7215   1.298   2.703   7.658
 2225SOL     OW 7216   1.759   3.609   8.602
 2225SOL    HW1 7217   1.820   3.639   8.529
 2225SOL    HW2 7218   1.721   3.520   8.580
 2226SOL     OW 7219   1.252   3.593   8.576
 2226SOL    HW1 7220   1.336   3.598   8.522
 2226SOL    HW2 7221   1.229   3.497   8.594
 2227SOL     OW 7222   0.083   3.120   8.470
 2227SOL    HW1 7223   0.078   3.119   8.570
 2227SOL    HW2 7224   0.000   3.079   8.432
 2228SOL     OW 7225   0.688   3.524   9.164
 2228SOL    HW1 7226   0.632   3.605   9.173
 2228SOL    HW2 7227   0.740   3.528   9.078
 2229SOL     OW 7228   1.726   1.997   7.971
 2229SOL    HW1 7229   1.799   1.980   7.904
 2229SOL    HW2 7230   1.695   1.910   8.009
 2230SOL     OW 7231   1.388   3.435   7.925
 2230SOL    HW1 7232   1.455   3.447   7.851
 2230SOL    HW2 7233   1.348   3.524   7.948
 2231SOL     OW 7234   0.130   3.656   9.299
 2231SOL    HW1 7235   0.089   3.582   9.352
 2231SOL    HW2 7236   0.194   3.707   9.357
 2232SOL     OW 7237   1.280   2.789   8.120
 2232SOL    HW1 7238   1.340   2.708   8.122
 2232SOL    HW2 7239   1.320   2.858   8.060
 2233SOL     OW 7240   0.830   3.135   8.870
 2233SOL    HW1 7241   0.825   3.168   8.965
 2233SOL    HW2 7242   0.744   3.154   8.824
 2234SOL     OW 7243   0.672   3.478   7.602
 2234SOL    HW1 7244   0.681   3.488   7.503
 2234SOL    HW2 7245   0.632   3.389   7.623
 2235SOL     OW 7246   1.650   3.582   8.842
 2235SOL    HW1 7247   1.703   3.592   8.758
 2235SOL    HW2 7248   1.623   3.672   8.876
 2236SOL     OW 7249   1.841   2.037   8.411
 2236SOL    HW1 7250   1.880   1.952   8.375
 2236SOL    HW2 7251   1.743   2.039   8.392
 2237SOL     OW 7252   0.263   2.188   8.168
 2237SOL    HW1 7253   0.184   2.239   8.134
 2237SOL    HW2 7254   0.254   2.173   8.266
 2238SOL     OW 7255   1.194   3.474   7.479
 2238SOL    HW1 7256   1.200   3.381   7.516
 2238SOL    HW2 7257   1.135   3.474   7.399
 2239SOL     OW 7258   0.822   2.864   8.820
 2239SOL    HW1 7259   0.862   2.863   8.728
 2239SOL    HW2 7260   0.832   2.956   8.860
 2240SOL     OW 7261   0.916   2.772   7.739
 2240SOL    HW1 7262   0.979   2.810   7.671
 2240SOL    HW2 7263   0.956   2.689   7.778
 2241SOL     OW 7264   1.504   3.469   7.492
 2241SOL    HW1 7265   1.412   3.506   7.499
 2241SOL    HW2 7266   1.542   3.489   7.402
 2242SOL     OW 7267   0.372   3.150   8.938
 2242SOL    HW1 7268   0.359   3.243   8.904
 2242SOL    HW2 7269   0.288   3.098   8.925
 2243SOL     OW 7270   1.614   3.154   8.737
 2243SOL    HW1 7271   1.674   3.157   8.817
 2243SOL    HW2 7272   1.539   3.218   8.750
 2244SOL     OW 7273   1.039   2.960   8.144
 2244SOL    HW1 7274   0.969   2.913   8.198
 2244SOL    HW2 7275   1.098   2.892   8.101
 2245SOL     OW 7276   1.014   2.098   8.419
 2245SOL    HW1 7277   1.006   2.062   8.326
 2245SOL    HW2 7278   1.012   2.022   8.484
 2246SOL     OW 7279   0.590   3.349   7.939
 2246SOL    HW1 7280   0.632   3.291   7.869
 2246SOL    HW2 7281   0.546   3.428   7.895
 2247SOL     OW 7282   1.709   2.247   8.829
 2247SOL    HW1 7283   1.782   2.316   8.833
 2247SOL    HW2 7284   1.737   2.172   8.770
 2248SOL     OW 7285   0.255   3.210   7.738
 2248SOL    HW1 7286   0.159   3.211   7.711
 2248SOL    HW2 7287   0.267   3.263   7.822
 2249SOL     OW 7288   0.105   2.875   9.174
 2249SOL    HW1 7289   0.028   2.842   9.228
 2249SOL    HW2 7290   0.190   2.845   9.216
 2250SOL     OW 7291   0.672   2.065   8.937
 2250SOL    HW1 7292   0.762   2.049   8.897
 2250SOL    HW2 7293   0.680   2.070   9.036
 2251SOL     OW 7294   0.075   2.207   7.481
 2251SOL    HW1 7295  -0.017   2.179   7.452
 2251SOL    HW2 7296   0.106   2.284   7.425
 2252SOL     OW 7297   1.440   2.718   8.846
 2252SOL    HW1 7298   1.383   2.770   8.783
 2252SOL    HW2 7299   1.536   2.730   8.822
 2253SOL     OW 7300   0.072   2.028   7.766
 2253SOL    HW1 7301   0.055   2.111   7.712
 2253SOL    HW2 7302   0.162   1.991   7.744
 2254SOL     OW 7303   1.183   3.197   7.567
 2254SOL    HW1 7304   1.084   3.186   7.569
 2254SOL    HW2 7305   1.217   3.212   7.660
 2255SOL     OW 7306   0.613   2.704   8.879
 2255SOL    HW1 7307   0.669   2.785   8.862
 2255SOL    HW2 7308   0.672   2.624   8.882
 2256SOL     OW 7309   1.493   3.629   8.407
 2256SOL    HW1 7310   1.526   3.693   8.338
 2256SOL    HW2 7311   1.559   3.623   8.482
 2257SOL     OW 7312   0.716   2.427   9.156
 2257SOL    HW1 7313   0.735   2.492   9.230
 2257SOL    HW2 7314   0.776   2.347   9.165
 2258SOL     OW 7315   1.450   3.082   9.081
 2258SOL    HW1 7316   1.441   3.072   9.180
 2258SOL    HW2 7317   1.546   3.075   9.055
 2259SOL     OW 7318   0.390   3.603   9.008
 2259SOL    HW1 7319   0.299   3.644   9.006
 2259SOL    HW2 7320   0.383   3.509   9.040
 2260SOL     OW 7321   1.674   2.745   8.702
 2260SOL    HW1 7322   1.647   2.656   8.665
 2260SOL    HW2 7323   1.675   2.813   8.629
 2261SOL     OW 7324   1.225   2.187   7.897
 2261SOL    HW1 7325   1.290   2.113   7.886
 2261SOL    HW2 7326   1.245   2.237   7.981
 2262SOL     OW 7327   0.594   2.607   8.100
 2262SOL    HW1 7328   0.644   2.692   8.081
 2262SOL    HW2 7329   0.506   2.609   8.052
 2263SOL     OW 7330   1.777   2.204   9.090
 2263SOL    HW1 7331   1.760   2.235   8.996
 2263SOL    HW2 7332   1.693   2.167   9.128
 2264SOL     OW 7333   1.730   2.796   8.965
 2264SOL    HW1 7334   1.768   2.887   8.980
 2264SOL    HW2 7335   1.722   2.779   8.866
 2265SOL     OW 7336   0.859   3.236   7.464
 2265SOL    HW1 7337   0.813   3.251   7.552
 2265SOL    HW2 7338   0.903   3.321   7.434
 2266SOL     OW 7339   0.661   3.652   8.401
 2266SOL    HW1 7340   0.615   3.740   8.388
 2266SOL    HW2 7341   0.760   3.664   8.394
 2267SOL     OW 7342   0.859   2.818   8.309
 2267SOL    HW1 7343   0.913   2.749   8.357
 2267SOL    HW2 7344   0.827   2.887   8.375
 2268SOL     OW 7345   1.083   2.846   7.535
 2268SOL    HW1 7346   1.060   2.899   7.453
 2268SOL    HW2 7347   1.164   2.790   7.516
 2269SOL     OW 7348   1.861   3.431   8.299
 2269SOL    HW1 7349   1.790   3.419   8.229
 2269SOL    HW2 7350   1.862   3.352   8.359
 2270SOL     OW 7351   0.221   3.176   9.292
 2270SOL    HW1 7352   0.156   3.103   9.271
 2270SOL    HW2 7353   0.225   3.190   9.390
 2271SOL     OW 7354   0.079   3.102   8.101
 2271SOL    HW1 7355   0.078   3.055   8.189
 2271SOL    HW2 7356   0.161   3.074   8.050
 2272SOL     OW 7357   0.672   3.253   9.072
 2272SOL    HW1 7358   0.594   3.203   9.110
 2272SOL    HW2 7359   0.669   3.348   9.103
 2273SOL     OW 7360   1.824   2.054   8.675
 2273SOL    HW1 7361   1.820   1.964   8.719
 2273SOL    HW2 7362   1.827   2.043   8.576
 2274SOL     OW 7363   0.428   2.286   7.968
 2274SOL    HW1 7364   0.458   2.214   7.906
 2274SOL    HW2 7365   0.389   2.246   8.051
 2275SOL     OW 7366   1.705   3.349   8.552
 2275SOL    HW1 7367   1.612   3.324   8.525
 2275SOL    HW2 7368   1.731   3.299   8.634
 2276SOL     OW 7369   0.317   2.409   8.728
 2276SOL    HW1 7370   0.355   2.350   8.800
 2276SOL    HW2 7371   0.357   2.383   8.640
 2277SOL     OW 7372   0.812   3.448   8.135
 2277SOL    HW1 7373   0.844   3.458   8.041
 2277SOL    HW2 7374   0.733   3.386   8.137
 2278SOL     OW 7375   1.424   2.076   8.560
 2278SOL    HW1 7376   1.476   2.011   8.615
 2278SOL    HW2 7377   1.375   2.139   8.621
 2279SOL     OW 7378   1.001   1.896   8.602
 2279SOL    HW1 7379   0.938   1.824   8.571
 2279SOL    HW2 7380   1.094   1.860   8.602
 2280SOL     OW 7381   0.770   3.192   7.749
 2280SOL    HW1 7382   0.724   3.105   7.766
 2280SOL    HW2 7383   0.861   3.189   7.790
 2281SOL     OW 7384   0.618   3.429   8.732
 2281SOL    HW1 7385   0.613   3.511   8.789
 2281SOL    HW2 7386   0.707   3.426   8.687
 2282SOL     OW 7387   1.352   1.914   7.616
 2282SOL    HW1 7388   1.387   1.873   7.532
 2282SOL    HW2 7389   1.262   1.876   7.636
 2283SOL     OW 7390   1.300   2.315   8.139
 2283SOL    HW1 7391   1.241   2.395   8.143
 2283SOL    HW2 7392   1.315   2.280   8.232
 2284SOL     OW 7393   1.593   2.083   8.330
 2284SOL    HW1 7394   1.509   2.082   8.384
 2284SOL    HW2 7395   1.595   2.166   8.274
 2285SOL     OW 7396   0.039   2.939   7.748
 2285SOL    HW1 7397   0.138   2.928   7.739
 2285SOL    HW2 7398  -0.001   2.853   7.780
 2286SOL     OW 7399   0.875   3.508   7.785
 2286SOL    HW1 7400   0.798   3.473   7.731
 2286SOL    HW2 7401   0.843   3.579   7.847
 2287SOL     OW 7402   0.230   2.490   9.423
 2287SOL    HW1 7403   0.137   2.488   9.460
 2287SOL    HW2 7404   0.231   2.451   9.331
 2288SOL     OW 7405   0.225   2.137  10.306
 2288SOL    HW1 7406   0.260   2.120  10.398
 2288SOL    HW2 7407   0.137   2.092  10.294
 2289SOL     OW 7408   0.019   2.230   9.957
 2289SOL    HW1 7409  -0.063   2.273   9.996
 2289SOL    HW2 7410  -0.009   2.157   9.894
 2290SOL     OW 7411   0.569   3.137  10.475
 2290SOL    HW1 7412   0.476   3.130  10.438
 2290SOL    HW2 7413   0.580   3.226  10.519
 2291SOL     OW 7414   1.555   3.373  10.013
 2291SOL    HW1 7415   1.498   3.357  10.094
 2291SOL    HW2 7416   1.496   3.383   9.933
 2292SOL     OW 7417   1.135   2.565  10.027
 2292SOL    HW1 7418   1.192   2.643  10.002
 2292SOL    HW2 7419   1.075   2.591  10.103
 2293SOL     OW 7420   1.755   2.469   9.541
 2293SOL    HW1 7421   1.743   2.456   9.442
 2293SOL    HW2 7422   1.725   2.388   9.590
 2294SOL     OW 7423   0.768   3.006  10.333
 2294SOL    HW1 7424   0.690   3.023  10.393
 2294SOL    HW2 7425   0.802   3.093  10.297
 2295SOL     OW 7426   0.850   2.660  11.133
 2295SOL    HW1 7427   0.846   2.736  11.198
 2295SOL    HW2 7428   0.872   2.696  11.042
 2296SOL     OW 7429   0.685   2.874   9.975
 2296SOL    HW1 7430   0.754   2.858  10.045
 2296SOL    HW2 7431   0.612   2.931  10.013
 2297SOL     OW 7432   0.335   3.297  10.371
 2297SOL    HW1 7433   0.257   3.266  10.318
 2297SOL    HW2 7434   0.393   3.355  10.314
 2298SOL     OW 7435   1.460   3.367  10.649
 2298SOL    HW1 7436   1.484   3.461  10.675
 2298SOL    HW2 7437   1.444   3.313  10.731
 2299SOL     OW 7438   0.438   2.254  10.809
 2299SOL    HW1 7439   0.520   2.198  10.818
 2299SOL    HW2 7440   0.357   2.196  10.813
 2300SOL     OW 7441   1.603   2.309  10.047
 2300SOL    HW1 7442   1.529   2.355   9.997
 2300SOL    HW2 7443   1.654   2.377  10.100
 2301SOL     OW 7444   0.231   3.575   9.793
 2301SOL    HW1 7445   0.265   3.652   9.847
 2301SOL    HW2 7446   0.275   3.575   9.703
 2302SOL     OW 7447   0.230   3.296   9.848
 2302SOL    HW1 7448   0.204   3.392   9.848
 2302SOL    HW2 7449   0.159   3.242   9.893
 2303SOL     OW 7450   0.240   2.953  10.196
 2303SOL    HW1 7451   0.254   2.869  10.248
 2303SOL    HW2 7452   0.185   3.017  10.251
 2304SOL     OW 7453   0.620   3.648  10.749
 2304SOL    HW1 7454   0.528   3.631  10.784
 2304SOL    HW2 7455   0.648   3.740  10.775
 2305SOL     OW 7456   0.606   2.826   9.433
 2305SOL    HW1 7457   0.613   2.910   9.379
 2305SOL    HW2 7458   0.652   2.839   9.521
 2306SOL     OW 7459   1.594   1.976  10.790
 2306SOL    HW1 7460   1.576   2.043  10.718
 2306SOL    HW2 7461   1.591   2.022  10.879
 2307SOL     OW 7462   0.122   2.505   9.873
 2307SOL    HW1 7463   0.077   2.417   9.890
 2307SOL    HW2 7464   0.121   2.559   9.957
 2308SOL     OW 7465   1.842   3.629   9.669
 2308SOL    HW1 7466   1.896   3.600   9.749
 2308SOL    HW2 7467   1.872   3.719   9.640
 2309SOL     OW 7468   0.027   3.458   9.427
 2309SOL    HW1 7469   0.008   3.362   9.448
 2309SOL    HW2 7470  -0.006   3.516   9.502
 2310SOL     OW 7471   1.689   2.784   9.922
 2310SOL    HW1 7472   1.784   2.755   9.930
 2310SOL    HW2 7473   1.681   2.849   9.847
 2311SOL     OW 7474   1.641   2.970   9.742
 2311SOL    HW1 7475   1.727   2.972   9.690
 2311SOL    HW2 7476   1.655   3.017   9.830
 2312SOL     OW 7477   0.113   2.599  10.907
 2312SOL    HW1 7478   0.201   2.586  10.952
 2312SOL    HW2 7479   0.100   2.696  10.885
 2313SOL     OW 7480   0.613   3.227  10.036
 2313SOL    HW1 7481   0.564   3.140  10.045
 2313SOL    HW2 7482   0.590   3.270   9.949
 2314SOL     OW 7483   1.293   3.090  10.733
 2314SOL    HW1 7484   1.330   3.017  10.675
 2314SOL    HW2 7485   1.345   3.095  10.818
 2315SOL     OW 7486   0.809   1.866   9.812
 2315SOL    HW1 7487   0.849   1.957   9.803
 2315SOL    HW2 7488   0.709   1.874   9.818
 2316SOL     OW 7489   0.197   2.838  10.574
 2316SOL    HW1 7490   0.286   2.793  10.560
 2316SOL    HW2 7491   0.124   2.773  10.555
 2317SOL     OW 7492   1.525   2.861   9.500
 2317SOL    HW1 7493   1.462   2.785   9.513
 2317SOL    HW2 7494   1.573   2.879   9.586
 2318SOL     OW 7495   1.187   3.654  10.926
 2318SOL    HW1 7496   1.211   3.714  10.850
 2318SOL    HW2 7497   1.194   3.559  10.896
 2319SOL     OW 7498   0.317   2.113  11.111
 2319SOL    HW1 7499   0.388   2.184  11.117
 2319SOL    HW2 7500   0.229   2.152  11.139
 2320SOL     OW 7501   1.466   3.279  10.263
 2320SOL    HW1 7502   1.407   3.285  10.343
 2320SOL    HW2 7503   1.451   3.191  10.217
 2321SOL     OW 7504   1.667   3.576   9.882
 2321SOL    HW1 7505   1.626   3.553   9.794
 2321SOL    HW2 7506   1.649   3.502   9.947
 2322SOL     OW 7507   0.598   2.591   9.580
 2322SOL    HW1 7508   0.622   2.660   9.512
 2322SOL    HW2 7509   0.520   2.624   9.634
 2323SOL     OW 7510   1.281   2.207  10.254
 2323SOL    HW1 7511   1.195   2.157  10.241
 2323SOL    HW2 7512   1.343   2.153  10.310
 2324SOL     OW 7513   1.576   3.524   9.617
 2324SOL    HW1 7514   1.665   3.570   9.620
 2324SOL    HW2 7515   1.555   3.500   9.522
 2325SOL     OW 7516   0.807   2.467  10.775
 2325SOL    HW1 7517   0.760   2.464  10.864
 2325SOL    HW2 7518   0.756   2.412  10.709
 2326SOL     OW 7519   0.973   2.752  10.882
 2326SOL    HW1 7520   1.019   2.668  10.853
 2326SOL    HW2 7521   0.917   2.786  10.807
 2327SOL     OW 7522   0.991   2.272  10.552
 2327SOL    HW1 7523   0.914   2.306  10.606
 2327SOL    HW2 7524   0.957   2.221  10.473
 2328SOL     OW 7525   1.041   2.563   9.739
 2328SOL    HW1 7526   1.067   2.559   9.835
 2328SOL    HW2 7527   0.956   2.512   9.725
 2329SOL     OW 7528   0.076   2.673  10.099
 2329SOL    HW1 7529   0.175   2.661  10.108
 2329SOL    HW2 7530   0.052   2.768  10.120
 2330SOL     OW 7531   0.130   3.683  10.881
 2330SOL    HW1 7532   0.120   3.668  10.980
 2330SOL    HW2 7533   0.044   3.719  10.845
 2331SOL     OW 7534   0.865   2.210   9.505
 2331SOL    HW1 7535   0.924   2.273   9.456
 2331SOL    HW2 7536   0.884   2.116   9.476
 2332SOL     OW 7537   1.362   3.006   9.855
 2332SOL    HW1 7538   1.445   2.977   9.807
 2332SOL    HW2 7539   1.313   3.073   9.799
 2333SOL     OW 7540   0.550   2.058  10.195
 2333SOL    HW1 7541   0.545   2.053  10.295
 2333SOL    HW2 7542   0.552   2.154  10.166
 2334SOL     OW 7543   1.008   3.318   9.787
 2334SOL    HW1 7544   0.962   3.390   9.735
 2334SOL    HW2 7545   1.004   3.338   9.885
 2335SOL     OW 7546   0.351   3.663  10.163
 2335SOL    HW1 7547   0.401   3.577  10.169
 2335SOL    HW2 7548   0.416   3.740  10.160
 2336SOL     OW 7549   1.795   2.928  10.183
 2336SOL    HW1 7550   1.733   2.913  10.107
 2336SOL    HW2 7551   1.743   2.939  10.268
 2337SOL     OW 7552   1.227   3.412  10.816
 2337SOL    HW1 7553   1.233   3.335  10.880
 2337SOL    HW2 7554   1.175   3.386  10.736
 2338SOL     OW 7555   0.321   2.805   9.552
 2338SOL    HW1 7556   0.403   2.844   9.510
 2338SOL    HW2 7557   0.294   2.723   9.503
 2339SOL     OW 7558   1.458   2.597  10.038
 2339SOL    HW1 7559   1.453   2.532  10.113
 2339SOL    HW2 7560   1.538   2.656  10.051
 2340SOL     OW 7561   0.461   3.128  11.037
 2340SOL    HW1 7562   0.411   3.129  10.951
 2340SOL    HW2 7563   0.398   3.110  11.113
 2341SOL     OW 7564   1.111   3.638   9.547
 2341SOL    HW1 7565   1.051   3.576   9.597
 2341SOL    HW2 7566   1.142   3.594   9.462
 2342SOL     OW 7567   0.202   2.147  10.808
 2342SOL    HW1 7568   0.122   2.207  10.795
 2342SOL    HW2 7569   0.192   2.098  10.894
 2343SOL     OW 7570   1.632   3.239   9.391
 2343SOL    HW1 7571   1.600   3.333   9.381
 2343SOL    HW2 7572   1.556   3.176   9.379
 2344SOL     OW 7573   0.464   3.605   9.633
 2344SOL    HW1 7574   0.497   3.644   9.719
 2344SOL    HW2 7575   0.540   3.598   9.568
 2345SOL     OW 7576   1.400   1.969   9.736
 2345SOL    HW1 7577   1.376   1.932   9.646
 2345SOL    HW2 7578   1.499   1.985   9.740
 2346SOL     OW 7579   0.249   3.647  10.551
 2346SOL    HW1 7580   0.306   3.582  10.601
 2346SOL    HW2 7581   0.233   3.614  10.458
 2347SOL     OW 7582   0.940   3.560  10.214
 2347SOL    HW1 7583   1.020   3.503  10.235
 2347SOL    HW2 7584   0.891   3.520  10.137
 2348SOL     OW 7585   0.382   2.562   9.790
 2348SOL    HW1 7586   0.427   2.472   9.787
 2348SOL    HW2 7587   0.288   2.551   9.823
 2349SOL     OW 7588   0.614   1.984   9.427
 2349SOL    HW1 7589   0.712   1.962   9.434
 2349SOL    HW2 7590   0.583   1.967   9.334
 2350SOL     OW 7591   0.781   2.126  11.059
 2350SOL    HW1 7592   0.848   2.065  11.102
 2350SOL    HW2 7593   0.708   2.145  11.124
 2351SOL     OW 7594   0.888   3.376  10.505
 2351SOL    HW1 7595   0.865   3.351  10.411
 2351SOL    HW2 7596   0.949   3.307  10.544
 2352SOL     OW 7597   1.351   2.452  10.743
 2352SOL    HW1 7598   1.379   2.409  10.828
 2352SOL    HW2 7599   1.376   2.548  10.744
 2353SOL     OW 7600   0.803   3.264  10.234
 2353SOL    HW1 7601   0.893   3.278  10.192
 2353SOL    HW2 7602   0.732   3.266  10.163
 2354SOL     OW 7603   0.922   2.365  10.209
 2354SOL    HW1 7604   0.897   2.356  10.113
 2354SOL    HW2 7605   0.970   2.283  10.240
 2355SOL     OW 7606   0.539   1.926   9.822
 2355SOL    HW1 7607   0.458   1.927   9.880
 2355SOL    HW2 7608   0.542   2.009   9.767
 2356SOL     OW 7609   1.434   3.050   9.351
 2356SOL    HW1 7610   1.466   2.974   9.408
 2356SOL    HW2 7611   1.342   3.077   9.381
 2357SOL     OW 7612   0.297   1.897   9.481
 2357SOL    HW1 7613   0.346   1.981   9.460
 2357SOL    HW2 7614   0.359   1.832   9.526
 2358SOL     OW 7615   0.935   2.098   9.790
 2358SOL    HW1 7616   0.887   2.139   9.712
 2358SOL    HW2 7617   1.034   2.096   9.771
 2359SOL     OW 7618   1.076   2.545  10.774
 2359SOL    HW1 7619   0.996   2.484  10.777
 2359SOL    HW2 7620   1.157   2.492  10.750
 2360SOL     OW 7621   1.227   3.432  10.103
 2360SOL    HW1 7622   1.248   3.506  10.038
 2360SOL    HW2 7623   1.295   3.432  10.176
 2361SOL     OW 7624   0.459   3.014  10.051
 2361SOL    HW1 7625   0.388   2.987  10.116
 2361SOL    HW2 7626   0.433   2.986   9.958
 2362SOL     OW 7627   1.271   3.659   9.901
 2362SOL    HW1 7628   1.315   3.723   9.837
 2362SOL    HW2 7629   1.221   3.711   9.971
 2363SOL     OW 7630   1.032   2.411   9.326
 2363SOL    HW1 7631   0.991   2.493   9.287
 2363SOL    HW2 7632   1.096   2.437   9.399
 2364SOL     OW 7633   0.078   2.418  10.696
 2364SOL    HW1 7634   0.170   2.417  10.655
 2364SOL    HW2 7635   0.072   2.492  10.763
 2365SOL     OW 7636   0.561   2.084  10.457
 2365SOL    HW1 7637   0.599   2.000  10.494
 2365SOL    HW2 7638   0.473   2.103  10.501
 2366SOL     OW 7639   0.866   2.316   9.952
 2366SOL    HW1 7640   0.834   2.388   9.890
 2366SOL    HW2 7641   0.890   2.235   9.899
 2367SOL     OW 7642   1.017   1.901  10.063
 2367SOL    HW1 7643   0.945   1.906   9.994
 2367SOL    HW2 7644   0.993   1.832  10.132
 2368SOL     OW 7645   1.429   3.035  10.177
 2368SOL    HW1 7646   1.374   2.951  10.170
 2368SOL    HW2 7647   1.455   3.064  10.085
 2369SOL     OW 7648   1.466   2.452  10.302
 2369SOL    HW1 7649   1.436   2.357  10.309
 2369SOL    HW2 7650   1.539   2.468  10.368
 2370SOL     OW 7651   1.857   2.695   9.687
 2370SOL    HW1 7652   1.899   2.631   9.751
 2370SOL    HW2 7653   1.819   2.644   9.609
 2371SOL     OW 7654   0.488   3.247   9.484
 2371SOL    HW1 7655   0.401   3.232   9.531
 2371SOL    HW2 7656   0.471   3.273   9.389
 2372SOL     OW 7657   1.664   3.142   9.967
 2372SOL    HW1 7658   1.763   3.150   9.981
 2372SOL    HW2 7659   1.619   3.226   9.998
 2373SOL     OW 7660   1.390   2.437   9.388
 2373SOL    HW1 7661   1.336   2.416   9.469
 2373SOL    HW2 7662   1.481   2.396   9.397
 2374SOL     OW 7663   0.527   2.118   9.638
 2374SOL    HW1 7664   0.554   2.059   9.563
 2374SOL    HW2 7665   0.527   2.213   9.607
 2375SOL     OW 7666   1.754   3.085  10.898
 2375SOL    HW1 7667   1.845   3.046  10.885
 2375SOL    HW2 7668   1.762   3.181  10.922
 2376SOL     OW 7669   1.064   3.209  10.650
 2376SOL    HW1 7670   0.984   3.186  10.705
 2376SOL    HW2 7671   1.147   3.183  10.699
 2377SOL     OW 7672   1.111   3.057  10.410
 2377SOL    HW1 7673   1.071   3.101  10.491
 2377SOL    HW2 7674   1.070   3.094  10.327
 2378SOL     OW 7675   1.638   2.961  10.389
 2378SOL    HW1 7676   1.643   3.042  10.448
 2378SOL    HW2 7677   1.552   2.963  10.338
 2379SOL     OW 7678   0.915   1.951  10.712
 2379SOL    HW1 7679   0.940   1.931  10.617
 2379SOL    HW2 7680   0.987   2.007  10.754
 2380SOL     OW 7681   0.705   2.912   9.678
 2380SOL    HW1 7682   0.691   2.919   9.777
 2380SOL    HW2 7683   0.789   2.861   9.660
 2381SOL     OW 7684   0.410   2.675  10.561
 2381SOL    HW1 7685   0.496   2.687  10.611
 2381SOL    HW2 7686   0.368   2.588  10.588
 2382SOL     OW 7687   1.274   2.248  10.572
 2382SOL    HW1 7688   1.295   2.322  10.636
 2382SOL    HW2 7689   1.185   2.265  10.529
 2383SOL     OW 7690   0.064   3.426  10.641
 2383SOL    HW1 7691   0.018   3.508  10.607
 2383SOL    HW2 7692   0.162   3.445  10.650
 2384SOL     OW 7693   0.367   2.962   9.811
 2384SOL    HW1 7694   0.360   3.045   9.755
 2384SOL    HW2 7695   0.371   2.882   9.751
 2385SOL     OW 7696   0.566   2.399  10.175
 2385SOL    HW1 7697   0.578   2.465  10.101
 2385SOL    HW2 7698   0.612   2.433  10.258
 2386SOL     OW 7699   1.252   3.210   9.698
 2386SOL    HW1 7700   1.302   3.287   9.738
 2386SOL    HW2 7701   1.157   3.212   9.730
 2387SOL     OW 7702   1.272   3.307  10.452
 2387SOL    HW1 7703   1.319   3.320  10.539
 2387SOL    HW2 7704   1.206   3.233  10.461
 2388SOL     OW 7705   1.582   2.501   9.782
 2388SOL    HW1 7706   1.551   2.562   9.855
 2388SOL    HW2 7707   1.632   2.553   9.713
 2389SOL     OW 7708   0.354   3.372  10.639
 2389SOL    HW1 7709   0.333   3.328  10.552
 2389SOL    HW2 7710   0.451   3.398  10.642
 2390SOL     OW 7711   0.402   2.613  10.908
 2390SOL    HW1 7712   0.470   2.668  10.861
 2390SOL    HW2 7713   0.442   2.525  10.935
 2391SOL     OW 7714   1.587   2.641  10.980
 2391SOL    HW1 7715   1.495   2.679  10.975
 2391SOL    HW2 7716   1.647   2.688  10.915
 2392SOL     OW 7717   0.573   2.732  10.339
 2392SOL    HW1 7718   0.617   2.821  10.330
 2392SOL    HW2 7719   0.510   2.732  10.416
 2393SOL     OW 7720   1.360   2.724  10.355
 2393SOL    HW1 7721   1.285   2.724  10.289
 2393SOL    HW2 7722   1.397   2.632  10.364
 2394SOL     OW 7723   1.209   2.387   9.585
 2394SOL    HW1 7724   1.222   2.303   9.639
 2394SOL    HW2 7725   1.180   2.461   9.645
 2395SOL     OW 7726   0.307   2.075  10.541
 2395SOL    HW1 7727   0.284   2.112  10.631
 2395SOL    HW2 7728   0.277   1.980  10.535
 2396SOL     OW 7729   0.037   3.172  10.592
 2396SOL    HW1 7730   0.090   3.123  10.660
 2396SOL    HW2 7731   0.059   3.270  10.597
 2397SOL     OW 7732   0.732   2.496  10.374
 2397SOL    HW1 7733   0.791   2.470  10.298
 2397SOL    HW2 7734   0.704   2.592  10.363
 2398SOL     OW 7735   0.307   1.925   9.928
 2398SOL    HW1 7736   0.296   2.019   9.961
 2398SOL    HW2 7737   0.302   1.862  10.005
 2399SOL     OW 7738   1.622   2.229   9.684
 2399SOL    HW1 7739   1.624   2.153   9.748
 2399SOL    HW2 7740   1.574   2.306   9.724
 2400SOL     OW 7741   1.023   2.628  10.276
 2400SOL    HW1 7742   1.038   2.649  10.372
 2400SOL    HW2 7743   0.993   2.533  10.267
 2401SOL     OW 7744   0.980   3.435  11.010
 2401SOL    HW1 7745   0.960   3.479  10.922
 2401SOL    HW2 7746   1.019   3.344  10.994
 2402SOL     OW 7747   1.859   3.380  10.915
 2402SOL    HW1 7748   1.873   3.407  10.820
 2402SOL    HW2 7749   1.942   3.402  10.968
 2403SOL     OW 7750   0.350   2.760  11.114
 2403SOL    HW1 7751   0.426   2.804  11.162
 2403SOL    HW2 7752   0.385   2.713  11.032
 2404SOL     OW 7753   1.540   2.136   9.435
 2404SOL    HW1 7754   1.479   2.061   9.458
 2404SOL    HW2 7755   1.562   2.188   9.518
 2405SOL     OW 7756   1.303   2.700   9.352
 2405SOL    HW1 7757   1.337   2.607   9.367
 2405SOL    HW2 7758   1.321   2.727   9.257
 2406SOL     OW 7759   1.068   3.195  10.159
 2406SOL    HW1 7760   1.075   3.111  10.104
 2406SOL    HW2 7761   1.130   3.264  10.123
 2407SOL     OW 7762   0.319   2.672  10.259
 2407SOL    HW1 7763   0.412   2.708  10.264
 2407SOL    HW2 7764   0.313   2.587  10.311
 2408SOL     OW 7765   0.339   2.371  10.316
 2408SOL    HW1 7766   0.287   2.288  10.299
 2408SOL    HW2 7767   0.416   2.376  10.252
 2409SOL     OW 7768   1.160   2.069  10.787
 2409SOL    HW1 7769   1.160   2.133  10.864
 2409SOL    HW2 7770   1.188   2.117  10.704
 2410SOL     OW 7771   0.008   3.188   9.510
 2410SOL    HW1 7772  -0.085   3.209   9.479
 2410SOL    HW2 7773   0.018   3.089   9.523
 2411SOL     OW 7774   0.088   3.663  10.237
 2411SOL    HW1 7775   0.046   3.577  10.210
 2411SOL    HW2 7776   0.182   3.666  10.203
 2412SOL     OW 7777   0.504   3.430  10.220
 2412SOL    HW1 7778   0.570   3.504  10.229
 2412SOL    HW2 7779   0.548   3.351  10.178
 2413SOL     OW 7780   1.002   2.658  10.548
 2413SOL    HW1 7781   1.043   2.626  10.634
 2413SOL    HW2 7782   0.906   2.631  10.545
 2414SOL     OW 7783   0.040   2.406  10.424
 2414SOL    HW1 7784   0.125   2.373  10.383
 2414SOL    HW2 7785   0.053   2.421  10.522
 2415SOL     OW 7786   0.815   2.434   9.635
 2415SOL    HW1 7787   0.822   2.345   9.589
 2415SOL    HW2 7788   0.721   2.468   9.627
 2416SOL     OW 7789   1.657   2.466  10.516
 2416SOL    HW1 7790   1.619   2.397  10.578
 2416SOL    HW2 7791   1.739   2.430  10.472
 2417SOL     OW 7792   0.252   3.426  11.054
 2417SOL    HW1 7793   0.222   3.483  11.130
 2417SOL    HW2 7794   0.245   3.329  11.080
 2418SOL     OW 7795   0.671   2.326  10.579
 2418SOL    HW1 7796   0.637   2.237  10.549
 2418SOL    HW2 7797   0.697   2.380  10.499
 2419SOL     OW 7798   0.930   3.540  10.775
 2419SOL    HW1 7799   0.906   3.522  10.680
 2419SOL    HW2 7800   0.960   3.634  10.785
 2420SOL     OW 7801   0.473   2.362   9.501
 2420SOL    HW1 7802   0.534   2.442   9.505
 2420SOL    HW2 7803   0.378   2.393   9.508
 2421SOL     OW 7804   0.159   2.999  10.776
 2421SOL    HW1 7805   0.181   2.938  10.852
 2421SOL    HW2 7806   0.169   2.950  10.690
 2422SOL     OW 7807   1.347   2.921  10.544
 2422SOL    HW1 7808   1.371   2.858  10.470
 2422SOL    HW2 7809   1.257   2.961  10.526
 2423SOL     OW 7810   1.302   2.717   9.619
 2423SOL    HW1 7811   1.216   2.686   9.661
 2423SOL    HW2 7812   1.298   2.703   9.520
 2424SOL     OW 7813   1.759   3.609  10.464
 2424SOL    HW1 7814   1.820   3.639  10.391
 2424SOL    HW2 7815   1.721   3.520  10.442
 2425SOL     OW 7816   1.252   3.593  10.438
 2425SOL    HW1 7817   1.336   3.598  10.384
 2425SOL    HW2 7818   1.229   3.497  10.456
 2426SOL     OW 7819   0.083   3.120  10.332
 2426SOL    HW1 7820   0.078   3.119  10.432
 2426SOL    HW2 7821   0.000   3.079  10.294
 2427SOL     OW 7822   1.726   1.997   9.833
 2427SOL    HW1 7823   1.799   1.980   9.766
 2427SOL    HW2 7824   1.695   1.910   9.871
 2428SOL     OW 7825   1.388   3.435   9.787
 2428SOL    HW1 7826   1.455   3.447   9.713
 2428SOL    HW2 7827   1.348   3.524   9.810
 2429SOL     OW 7828   1.280   2.789   9.982
 2429SOL    HW1 7829   1.340   2.708   9.984
 2429SOL    HW2 7830   1.320   2.858   9.922
 2430SOL     OW 7831   0.830   3.135  10.732
 2430SOL    HW1 7832   0.825   3.168  10.827
 2430SOL    HW2 7833   0.744   3.154  10.686
 2431SOL     OW 7834   0.672   3.478   9.464
 2431SOL    HW1 7835   0.681   3.488   9.365
 2431SOL    HW2 7836   0.632   3.389   9.485
 2432SOL     OW 7837   1.650   3.582  10.704
 2432SOL    HW1 7838   1.703   3.592  10.620
 2432SOL    HW2 7839   1.623   3.672  10.738
 2433SOL     OW 7840   1.841   2.037  10.273
 2433SOL    HW1 7841   1.880   1.952  10.237
 2433SOL    HW2 7842   1.743   2.039  10.254
 2434SOL     OW 7843   0.263   2.188  10.030
 2434SOL    HW1 7844   0.184   2.239   9.996
 2434SOL    HW2 7845   0.254   2.173  10.128
 2435SOL     OW 7846   1.194   3.474   9.341
 2435SOL    HW1 7847   1.200   3.381   9.378
 2435SOL    HW2 7848   1.135   3.474   9.261
 2436SOL     OW 7849   0.822   2.864  10.682
 2436SOL    HW1 7850   0.862   2.863  10.590
 2436SOL    HW2 7851   0.832   2.956  10.722
 2437SOL     OW 7852   0.916   2.772   9.601
 2437SOL    HW1 7853   0.979   2.810   9.533
 2437SOL    HW2 7854   0.956   2.689   9.640
 2438SOL     OW 7855   1.504   3.469   9.354
 2438SOL    HW1 7856   1.412   3.506   9.361
 2438SOL    HW2 7857   1.542   3.489   9.264
 2439SOL     OW 7858   0.372   3.150  10.800
 2439SOL    HW1 7859   0.359   3.243  10.766
 2439SOL    HW2 7860   0.288   3.098  10.787
 2440SOL     OW 7861   1.614   3.154  10.599
 2440SOL    HW1 7862   1.674   3.157  10.679
 2440SOL    HW2 7863   1.539   3.218  10.612
 2441SOL     OW 7864   1.039   2.960  10.006
 2441SOL    HW1 7865   0.969   2.913  10.060
 2441SOL    HW2 7866   1.098   2.892   9.963
 2442SOL     OW 7867   1.014   2.098  10.281
 2442SOL    HW1 7868   1.006   2.062  10.188
 2442SOL    HW2 7869   1.012   2.022  10.346
 2443SOL     OW 7870   0.590   3.349   9.801
 2443SOL    HW1 7871   0.632   3.291   9.731
 2443SOL    HW2 7872   0.546   3.428   9.757
 2444SOL     OW 7873   1.709   2.247  10.691
 2444SOL    HW1 7874   1.782   2.316  10.695
 2444SOL    HW2 7875   1.737   2.172  10.632
 2445SOL     OW 7876   0.255   3.210   9.600
 2445SOL    HW1 7877   0.159   3.211   9.573
 2445SOL    HW2 7878   0.267   3.263   9.684
 2446SOL     OW 7879   0.105   2.875  11.036
 2446SOL    HW1 7880   0.028   2.842  11.090
 2446SOL    HW2 7881   0.190   2.845  11.078
 2447SOL     OW 7882   0.672   2.065  10.799
 2447SOL    HW1 7883   0.762   2.049  10.759
 2447SOL    HW2 7884   0.680   2.070  10.898
 2448SOL     OW 7885   0.075   2.207   9.343
 2448SOL    HW1 7886  -0.017   2.179   9.314
 2448SOL    HW2 7887   0.106   2.284   9.287
 2449SOL     OW 7888   1.440   2.718  10.708
 2449SOL    HW1 7889   1.383   2.770  10.645
 2449SOL    HW2 7890   1.536   2.730  10.684
 2450SOL     OW 7891   0.072   2.028   9.628
 2450SOL    HW1 7892   0.055   2.111   9.574
 2450SOL    HW2 7893   0.162   1.991   9.606
 2451SOL     OW 7894   1.183   3.197   9.429
 2451SOL    HW1 7895   1.084   3.186   9.431
 2451SOL    HW2 7896   1.217   3.212   9.522
 2452SOL     OW 7897   0.613   2.704  10.741
 2452SOL    HW1 7898   0.669   2.785  10.724
 2452SOL    HW2 7899   0.672   2.624  10.744
 2453SOL     OW 7900   1.493   3.629  10.269
 2453SOL    HW1 7901   1.526   3.693  10.200
 2453SOL    HW2 7902   1.559   3.623  10.344
 2454SOL     OW 7903   0.716   2.427  11.018
 2454SOL    HW1 7904   0.735   2.492  11.092
 2454SOL    HW2 7905   0.776   2.347  11.027
 2455SOL     OW 7906   0.390   3.603  10.870
 2455SOL    HW1 7907   0.299   3.644  10.868
 2455SOL    HW2 7908   0.383   3.509  10.902
 2456SOL     OW 7909   1.674   2.745  10.564
 2456SOL    HW1 7910   1.647   2.656  10.527
 2456SOL    HW2 7911   1.675   2.813  10.491
 2457SOL     OW 7912   1.225   2.187   9.759
 2457SOL    HW1 7913   1.290   2.113   9.748
 2457SOL    HW2 7914   1.245   2.237   9.843
 2458SOL     OW 7915   0.594   2.607   9.962
 2458SOL    HW1 7916   0.644   2.692   9.943
 2458SOL    HW2 7917   0.506   2.609   9.914
 2459SOL     OW 7918   1.777   2.204  10.952
 2459SOL    HW1 7919   1.760   2.235  10.858
 2459SOL    HW2 7920   1.693   2.167  10.990
 2460SOL     OW 7921   1.730   2.796  10.827
 2460SOL    HW1 7922   1.768   2.887  10.842
 2460SOL    HW2 7923   1.722   2.779  10.728
 2461SOL     OW 7924   0.859   3.236   9.326
 2461SOL    HW1 7925   0.813   3.251   9.414
 2461SOL    HW2 7926   0.903   3.321   9.296
 2462SOL     OW 7927   0.661   3.652  10.263
 2462SOL    HW1 7928   0.615   3.740  10.250
 2462SOL    HW2 7929   0.760   3.664  10.256
 2463SOL     OW 7930   0.859   2.818  10.171
 2463SOL    HW1 7931   0.913   2.749  10.219
 2463SOL    HW2 7932   0.827   2.887  10.237
 2464SOL     OW 7933   1.083   2.846   9.397
 2464SOL    HW1 7934   1.060   2.899   9.315
 2464SOL    HW2 7935   1.164   2.790   9.378
 2465SOL     OW 7936   1.861   3.431  10.161
 2465SOL    HW1 7937   1.790   3.419  10.091
 2465SOL    HW2 7938   1.862   3.352  10.221
 2466SOL     OW 7939   0.079   3.102   9.963
 2466SOL    HW1 7940   0.078   3.055  10.051
 2466SOL    HW2 7941   0.161   3.074   9.912
 2467SOL     OW 7942   0.672   3.253  10.934
 2467SOL    HW1 7943   0.594   3.203  10.972
 2467SOL    HW2 7944   0.669   3.348  10.965
 2468SOL     OW 7945   1.824   2.054  10.537
 2468SOL    HW1 7946   1.820   1.964  10.581
 2468SOL    HW2 7947   1.827   2.043  10.438
 2469SOL     OW 7948   0.428   2.286   9.830
 2469SOL    HW1 7949   0.458   2.214   9.768
 2469SOL    HW2 7950   0.389   2.246   9.913
 2470SOL     OW 7951   1.705   3.349  10.414
 2470SOL    HW1 7952   1.612   3.324  10.387
 2470SOL    HW2 7953   1.731   3.299  10.496
 2471SOL     OW 7954   0.317   2.409  10.590
 2471SOL    HW1 7955   0.355   2.350  10.662
 2471SOL    HW2 7956   0.357   2.383  10.502
 2472SOL     OW 7957   0.812   3.448   9.997
 2472SOL    HW1 7958   0.844   3.458   9.903
 2472SOL    HW2 7959   0.733   3.386   9.999
 2473SOL     OW 7960   1.424   2.076  10.422
 2473SOL    HW1 7961   1.476   2.011  10.477
 2473SOL    HW2 7962   1.375   2.139  10.483
 2474SOL     OW 7963   1.001   1.896  10.464
 2474SOL    HW1 7964   0.938   1.824  10.433
 2474SOL    HW2 7965   1.094   1.860  10.464
 2475SOL     OW 7966   0.770   3.192   9.611
 2475SOL    HW1 7967   0.724   3.105   9.628
 2475SOL    HW2 7968   0.861   3.189   9.652
 2476SOL     OW 7969   0.618   3.429  10.594
 2476SOL    HW1 7970   0.613   3.511  10.651
 2476SOL    HW2 7971   0.707   3.426  10.549
 2477SOL     OW 7972   1.352   1.914   9.478
 2477SOL    HW1 7973   1.387   1.873   9.394
 2477SOL    HW2 7974   1.262   1.876   9.498
 2478SOL     OW 7975   1.300   2.315  10.001
 2478SOL    HW1 7976   1.241   2.395  10.005
 2478SOL    HW2 7977   1.315   2.280  10.094
 2479SOL     OW 7978   1.593   2.083  10.192
 2479SOL    HW1 7979   1.509   2.082  10.246
 2479SOL    HW2 7980   1.595   2.166  10.136
 2480SOL     OW 7981   0.039   2.939   9.610
 2480SOL    HW1 7982   0.138   2.928   9.601
 2480SOL    HW2 7983  -0.001   2.853   9.642
 2481SOL     OW 7984   0.875   3.508   9.647
 2481SOL    HW1 7985   0.798   3.473   9.593
 2481SOL    HW2 7986   0.843   3.579   9.709
 2482SOL     OW 7987   0.230   4.352   0.113
 2482SOL    HW1 7988   0.137   4.350   0.150
 2482SOL    HW2 7989   0.231   4.313   0.021
 2483SOL     OW 7990   0.225   3.999   0.996
 2483SOL    HW1 7991   0.260   3.982   1.088
 2483SOL    HW2 7992   0.137   3.954   0.984
 2484SOL     OW 7993   0.019   4.092   0.647
 2484SOL    HW1 7994  -0.063   4.135   0.686
 2484SOL    HW2 7995  -0.009   4.019   0.584
 2485SOL     OW 7996   1.755   4.331   0.231
 2485SOL    HW1 7997   1.743   4.318   0.132
 2485SOL    HW2 7998   1.725   4.250   0.280
 2486SOL     OW 7999   0.685   4.736   0.665
 2486SOL    HW1 8000   0.754   4.720   0.735
 2486SOL    HW2 8001   0.612   4.793   0.703
 2487SOL     OW 8002   0.438   4.116   1.499
 2487SOL    HW1 8003   0.520   4.060   1.508
 2487SOL    HW2 8004   0.357   4.058   1.503
 2488SOL     OW 8005   1.603   4.171   0.737
 2488SOL    HW1 8006   1.529   4.217   0.687
 2488SOL    HW2 8007   1.654   4.239   0.790
 2489SOL     OW 8008   1.594   3.838   1.480
 2489SOL    HW1 8009   1.576   3.905   1.408
 2489SOL    HW2 8010   1.591   3.884   1.569
 2490SOL     OW 8011   0.122   4.367   0.563
 2490SOL    HW1 8012   0.077   4.279   0.580
 2490SOL    HW2 8013   0.121   4.421   0.647
 2491SOL     OW 8014   0.113   4.461   1.597
 2491SOL    HW1 8015   0.201   4.448   1.642
 2491SOL    HW2 8016   0.100   4.558   1.575
 2492SOL     OW 8017   0.809   3.728   0.502
 2492SOL    HW1 8018   0.849   3.819   0.493
 2492SOL    HW2 8019   0.709   3.736   0.508
 2493SOL     OW 8020   0.317   3.975   1.801
 2493SOL    HW1 8021   0.388   4.046   1.807
 2493SOL    HW2 8022   0.229   4.014   1.829
 2494SOL     OW 8023   1.281   4.069   0.944
 2494SOL    HW1 8024   1.195   4.019   0.931
 2494SOL    HW2 8025   1.343   4.015   1.000
 2495SOL     OW 8026   0.807   4.329   1.465
 2495SOL    HW1 8027   0.760   4.326   1.554
 2495SOL    HW2 8028   0.756   4.274   1.399
 2496SOL     OW 8029   1.394   4.193   1.674
 2496SOL    HW1 8030   1.374   4.236   1.762
 2496SOL    HW2 8031   1.472   4.131   1.683
 2497SOL     OW 8032   0.991   4.134   1.242
 2497SOL    HW1 8033   0.914   4.168   1.296
 2497SOL    HW2 8034   0.957   4.083   1.163
 2498SOL     OW 8035   1.041   4.425   0.429
 2498SOL    HW1 8036   1.067   4.421   0.525
 2498SOL    HW2 8037   0.956   4.374   0.415
 2499SOL     OW 8038   0.076   4.535   0.789
 2499SOL    HW1 8039   0.175   4.523   0.798
 2499SOL    HW2 8040   0.052   4.630   0.810
 2500SOL     OW 8041   0.865   4.072   0.195
 2500SOL    HW1 8042   0.924   4.135   0.146
 2500SOL    HW2 8043   0.884   3.978   0.166
 2501SOL     OW 8044   1.719   4.309   1.831
 2501SOL    HW1 8045   1.693   4.398   1.795
 2501SOL    HW2 8046   1.717   4.241   1.758
 2502SOL     OW 8047   0.550   3.920   0.885
 2502SOL    HW1 8048   0.545   3.915   0.985
 2502SOL    HW2 8049   0.552   4.016   0.856
 2503SOL     OW 8050   1.458   4.459   0.728
 2503SOL    HW1 8051   1.453   4.394   0.803
 2503SOL    HW2 8052   1.538   4.518   0.741
 2504SOL     OW 8053   0.202   4.009   1.498
 2504SOL    HW1 8054   0.122   4.069   1.485
 2504SOL    HW2 8055   0.192   3.960   1.584
 2505SOL     OW 8056   1.400   3.831   0.426
 2505SOL    HW1 8057   1.376   3.794   0.336
 2505SOL    HW2 8058   1.499   3.847   0.430
 2506SOL     OW 8059   0.382   4.424   0.480
 2506SOL    HW1 8060   0.427   4.334   0.477
 2506SOL    HW2 8061   0.288   4.413   0.513
 2507SOL     OW 8062   1.547   3.946   1.729
 2507SOL    HW1 8063   1.542   3.983   1.821
 2507SOL    HW2 8064   1.475   3.877   1.717
 2508SOL     OW 8065   0.614   3.846   0.117
 2508SOL    HW1 8066   0.712   3.824   0.124
 2508SOL    HW2 8067   0.583   3.829   0.024
 2509SOL     OW 8068   0.781   3.988   1.749
 2509SOL    HW1 8069   0.848   3.927   1.792
 2509SOL    HW2 8070   0.708   4.007   1.814
 2510SOL     OW 8071   1.351   4.314   1.433
 2510SOL    HW1 8072   1.379   4.271   1.518
 2510SOL    HW2 8073   1.376   4.410   1.434
 2511SOL     OW 8074   0.922   4.227   0.899
 2511SOL    HW1 8075   0.897   4.218   0.803
 2511SOL    HW2 8076   0.970   4.145   0.930
 2512SOL     OW 8077   0.539   3.788   0.512
 2512SOL    HW1 8078   0.458   3.789   0.570
 2512SOL    HW2 8079   0.542   3.871   0.457
 2513SOL     OW 8080   0.297   3.759   0.171
 2513SOL    HW1 8081   0.346   3.843   0.150
 2513SOL    HW2 8082   0.359   3.694   0.216
 2514SOL     OW 8083   0.935   3.960   0.480
 2514SOL    HW1 8084   0.887   4.001   0.402
 2514SOL    HW2 8085   1.034   3.958   0.461
 2515SOL     OW 8086   1.076   4.407   1.464
 2515SOL    HW1 8087   0.996   4.346   1.467
 2515SOL    HW2 8088   1.157   4.354   1.440
 2516SOL     OW 8089   1.032   4.273   0.016
 2516SOL    HW1 8090   0.991   4.355  -0.023
 2516SOL    HW2 8091   1.096   4.299   0.089
 2517SOL     OW 8092   0.078   4.280   1.386
 2517SOL    HW1 8093   0.170   4.279   1.345
 2517SOL    HW2 8094   0.072   4.354   1.453
 2518SOL     OW 8095   0.561   3.946   1.147
 2518SOL    HW1 8096   0.599   3.862   1.184
 2518SOL    HW2 8097   0.473   3.965   1.191
 2519SOL     OW 8098   0.866   4.178   0.642
 2519SOL    HW1 8099   0.834   4.250   0.580
 2519SOL    HW2 8100   0.890   4.097   0.589
 2520SOL     OW 8101   1.017   3.763   0.753
 2520SOL    HW1 8102   0.945   3.768   0.684
 2520SOL    HW2 8103   0.993   3.694   0.822
 2521SOL     OW 8104   1.466   4.314   0.992
 2521SOL    HW1 8105   1.436   4.219   0.999
 2521SOL    HW2 8106   1.539   4.330   1.058
 2522SOL     OW 8107   1.390   4.299   0.078
 2522SOL    HW1 8108   1.336   4.278   0.159
 2522SOL    HW2 8109   1.481   4.258   0.087
 2523SOL     OW 8110   0.527   3.980   0.328
 2523SOL    HW1 8111   0.554   3.921   0.253
 2523SOL    HW2 8112   0.527   4.075   0.297
 2524SOL     OW 8113   0.915   3.813   1.402
 2524SOL    HW1 8114   0.940   3.793   1.307
 2524SOL    HW2 8115   0.987   3.869   1.444
 2525SOL     OW 8116   0.410   4.537   1.251
 2525SOL    HW1 8117   0.496   4.549   1.301
 2525SOL    HW2 8118   0.368   4.450   1.278
 2526SOL     OW 8119   1.274   4.110   1.262
 2526SOL    HW1 8120   1.295   4.184   1.326
 2526SOL    HW2 8121   1.185   4.127   1.219
 2527SOL     OW 8122   0.566   4.261   0.865
 2527SOL    HW1 8123   0.578   4.327   0.791
 2527SOL    HW2 8124   0.612   4.295   0.948
 2528SOL     OW 8125   1.582   4.363   0.472
 2528SOL    HW1 8126   1.551   4.424   0.545
 2528SOL    HW2 8127   1.632   4.415   0.403
 2529SOL     OW 8128   1.013   3.829   1.770
 2529SOL    HW1 8129   1.019   3.914   1.718
 2529SOL    HW2 8130   1.045   3.753   1.713
 2530SOL     OW 8131   0.504   3.774   1.740
 2530SOL    HW1 8132   0.462   3.717   1.670
 2530SOL    HW2 8133   0.438   3.843   1.772
 2531SOL     OW 8134   1.209   4.249   0.275
 2531SOL    HW1 8135   1.222   4.165   0.329
 2531SOL    HW2 8136   1.180   4.323   0.335
 2532SOL     OW 8137   0.307   3.937   1.231
 2532SOL    HW1 8138   0.284   3.974   1.321
 2532SOL    HW2 8139   0.277   3.842   1.225
 2533SOL     OW 8140   0.732   4.358   1.064
 2533SOL    HW1 8141   0.791   4.332   0.988
 2533SOL    HW2 8142   0.704   4.454   1.053
 2534SOL     OW 8143   1.728   4.659   1.854
 2534SOL    HW1 8144   1.682   4.652   1.765
 2534SOL    HW2 8145   1.666   4.703   1.920
 2535SOL     OW 8146   0.307   3.787   0.618
 2535SOL    HW1 8147   0.296   3.881   0.651
 2535SOL    HW2 8148   0.302   3.724   0.695
 2536SOL     OW 8149   1.622   4.091   0.374
 2536SOL    HW1 8150   1.624   4.015   0.438
 2536SOL    HW2 8151   1.574   4.168   0.414
 2537SOL     OW 8152   1.540   3.998   0.125
 2537SOL    HW1 8153   1.479   3.923   0.148
 2537SOL    HW2 8154   1.562   4.050   0.208
 2538SOL     OW 8155   0.319   4.534   0.949
 2538SOL    HW1 8156   0.412   4.570   0.954
 2538SOL    HW2 8157   0.313   4.449   1.001
 2539SOL     OW 8158   0.339   4.233   1.006
 2539SOL    HW1 8159   0.287   4.150   0.989
 2539SOL    HW2 8160   0.416   4.238   0.942
 2540SOL     OW 8161   1.138   4.104   1.678
 2540SOL    HW1 8162   1.093   4.167   1.742
 2540SOL    HW2 8163   1.231   4.135   1.661
 2541SOL     OW 8164   1.160   3.931   1.477
 2541SOL    HW1 8165   1.160   3.995   1.554
 2541SOL    HW2 8166   1.188   3.979   1.394
 2542SOL     OW 8167   0.040   4.268   1.114
 2542SOL    HW1 8168   0.125   4.235   1.073
 2542SOL    HW2 8169   0.053   4.283   1.212
 2543SOL     OW 8170   0.189   4.244   1.722
 2543SOL    HW1 8171   0.248   4.204   1.652
 2543SOL    HW2 8172   0.131   4.315   1.681
 2544SOL     OW 8173   0.815   4.296   0.325
 2544SOL    HW1 8174   0.822   4.207   0.279
 2544SOL    HW2 8175   0.721   4.330   0.317
 2545SOL     OW 8176   1.657   4.328   1.206
 2545SOL    HW1 8177   1.619   4.259   1.268
 2545SOL    HW2 8178   1.739   4.292   1.162
 2546SOL     OW 8179   0.671   4.188   1.269
 2546SOL    HW1 8180   0.637   4.099   1.239
 2546SOL    HW2 8181   0.697   4.242   1.189
 2547SOL     OW 8182   0.473   4.224   0.191
 2547SOL    HW1 8183   0.534   4.304   0.195
 2547SOL    HW2 8184   0.378   4.255   0.198
 2548SOL     OW 8185   0.903   3.810   0.133
 2548SOL    HW1 8186   0.954   3.811   0.047
 2548SOL    HW2 8187   0.959   3.768   0.204
 2549SOL     OW 8188   1.726   3.859   0.523
 2549SOL    HW1 8189   1.799   3.842   0.456
 2549SOL    HW2 8190   1.695   3.772   0.561
 2550SOL     OW 8191   1.280   4.651   0.672
 2550SOL    HW1 8192   1.340   4.570   0.674
 2550SOL    HW2 8193   1.320   4.720   0.612
 2551SOL     OW 8194   1.841   3.899   0.963
 2551SOL    HW1 8195   1.880   3.814   0.927
 2551SOL    HW2 8196   1.743   3.901   0.944
 2552SOL     OW 8197   0.263   4.050   0.720
 2552SOL    HW1 8198   0.184   4.101   0.686
 2552SOL    HW2 8199   0.254   4.035   0.818
 2553SOL     OW 8200   1.039   4.822   0.696
 2553SOL    HW1 8201   0.969   4.775   0.750
 2553SOL    HW2 8202   1.098   4.754   0.653
 2554SOL     OW 8203   1.014   3.960   0.971
 2554SOL    HW1 8204   1.006   3.924   0.878
 2554SOL    HW2 8205   1.012   3.884   1.036
 2555SOL     OW 8206   1.709   4.109   1.381
 2555SOL    HW1 8207   1.782   4.178   1.385
 2555SOL    HW2 8208   1.737   4.034   1.322
 2556SOL     OW 8209   0.672   3.927   1.489
 2556SOL    HW1 8210   0.762   3.911   1.449
 2556SOL    HW2 8211   0.680   3.932   1.588
 2557SOL     OW 8212   0.075   4.069   0.033
 2557SOL    HW1 8213  -0.017   4.041   0.004
 2557SOL    HW2 8214   0.106   4.146  -0.023
 2558SOL     OW 8215   0.072   3.890   0.318
 2558SOL    HW1 8216   0.055   3.973   0.264
 2558SOL    HW2 8217   0.162   3.853   0.296
 2559SOL     OW 8218   0.716   4.289   1.708
 2559SOL    HW1 8219   0.735   4.354   1.782
 2559SOL    HW2 8220   0.776   4.209   1.717
 2560SOL     OW 8221   1.225   4.049   0.449
 2560SOL    HW1 8222   1.290   3.975   0.438
 2560SOL    HW2 8223   1.245   4.099   0.533
 2561SOL     OW 8224   1.777   4.066   1.642
 2561SOL    HW1 8225   1.760   4.097   1.548
 2561SOL    HW2 8226   1.693   4.029   1.680
 2562SOL     OW 8227   1.083   4.708   0.087
 2562SOL    HW1 8228   1.060   4.761   0.005
 2562SOL    HW2 8229   1.164   4.652   0.068
 2563SOL     OW 8230   1.824   3.916   1.227
 2563SOL    HW1 8231   1.820   3.826   1.271
 2563SOL    HW2 8232   1.827   3.905   1.128
 2564SOL     OW 8233   0.428   4.148   0.520
 2564SOL    HW1 8234   0.458   4.076   0.458
 2564SOL    HW2 8235   0.389   4.108   0.603
 2565SOL     OW 8236   0.317   4.271   1.280
 2565SOL    HW1 8237   0.355   4.212   1.352
 2565SOL    HW2 8238   0.357   4.245   1.192
 2566SOL     OW 8239   1.424   3.938   1.112
 2566SOL    HW1 8240   1.476   3.873   1.167
 2566SOL    HW2 8241   1.375   4.001   1.173
 2567SOL     OW 8242   1.001   3.758   1.154
 2567SOL    HW1 8243   0.938   3.686   1.123
 2567SOL    HW2 8244   1.094   3.722   1.154
 2568SOL     OW 8245   1.352   3.776   0.168
 2568SOL    HW1 8246   1.387   3.735   0.084
 2568SOL    HW2 8247   1.262   3.738   0.188
 2569SOL     OW 8248   1.300   4.177   0.691
 2569SOL    HW1 8249   1.241   4.257   0.695
 2569SOL    HW2 8250   1.315   4.142   0.784
 2570SOL     OW 8251   1.593   3.945   0.882
 2570SOL    HW1 8252   1.509   3.944   0.936
 2570SOL    HW2 8253   1.595   4.028   0.826
 2571SOL     OW 8254   0.230   4.352   1.975
 2571SOL    HW1 8255   0.137   4.350   2.012
 2571SOL    HW2 8256   0.231   4.313   1.883
 2572SOL     OW 8257   0.225   3.999   2.858
 2572SOL    HW1 8258   0.260   3.982   2.950
 2572SOL    HW2 8259   0.137   3.954   2.846
 2573SOL     OW 8260   0.019   4.092   2.509
 2573SOL    HW1 8261  -0.063   4.135   2.548
 2573SOL    HW2 8262  -0.009   4.019   2.446
 2574SOL     OW 8263   1.755   4.331   2.093
 2574SOL    HW1 8264   1.743   4.318   1.994
 2574SOL    HW2 8265   1.725   4.250   2.142
 2575SOL     OW 8266   0.685   4.736   2.527
 2575SOL    HW1 8267   0.754   4.720   2.597
 2575SOL    HW2 8268   0.612   4.793   2.565
 2576SOL     OW 8269   0.438   4.116   3.361
 2576SOL    HW1 8270   0.520   4.060   3.370
 2576SOL    HW2 8271   0.357   4.058   3.365
 2577SOL     OW 8272   1.603   4.171   2.599
 2577SOL    HW1 8273   1.529   4.217   2.549
 2577SOL    HW2 8274   1.654   4.239   2.652
 2578SOL     OW 8275   1.594   3.838   3.342
 2578SOL    HW1 8276   1.576   3.905   3.270
 2578SOL    HW2 8277   1.591   3.884   3.431
 2579SOL     OW 8278   0.122   4.367   2.425
 2579SOL    HW1 8279   0.077   4.279   2.442
 2579SOL    HW2 8280   0.121   4.421   2.509
 2580SOL     OW 8281   0.113   4.461   3.459
 2580SOL    HW1 8282   0.201   4.448   3.504
 2580SOL    HW2 8283   0.100   4.558   3.437
 2581SOL     OW 8284   0.809   3.728   2.364
 2581SOL    HW1 8285   0.849   3.819   2.355
 2581SOL    HW2 8286   0.709   3.736   2.370
 2582SOL     OW 8287   0.317   3.975   3.663
 2582SOL    HW1 8288   0.388   4.046   3.669
 2582SOL    HW2 8289   0.229   4.014   3.691
 2583SOL     OW 8290   1.281   4.069   2.806
 2583SOL    HW1 8291   1.195   4.019   2.793
 2583SOL    HW2 8292   1.343   4.015   2.862
 2584SOL     OW 8293   0.807   4.329   3.327
 2584SOL    HW1 8294   0.760   4.326   3.416
 2584SOL    HW2 8295   0.756   4.274   3.261
 2585SOL     OW 8296   1.394   4.193   3.536
 2585SOL    HW1 8297   1.374   4.236   3.624
 2585SOL    HW2 8298   1.472   4.131   3.545
 2586SOL     OW 8299   0.991   4.134   3.104
 2586SOL    HW1 8300   0.914   4.168   3.158
 2586SOL    HW2 8301   0.957   4.083   3.025
 2587SOL     OW 8302   1.041   4.425   2.291
 2587SOL    HW1 8303   1.067   4.421   2.387
 2587SOL    HW2 8304   0.956   4.374   2.277
 2588SOL     OW 8305   0.076   4.535   2.651
 2588SOL    HW1 8306   0.175   4.523   2.660
 2588SOL    HW2 8307   0.052   4.630   2.672
 2589SOL     OW 8308   0.865   4.072   2.057
 2589SOL    HW1 8309   0.924   4.135   2.008
 2589SOL    HW2 8310   0.884   3.978   2.028
 2590SOL     OW 8311   1.719   4.309   3.693
 2590SOL    HW1 8312   1.693   4.398   3.657
 2590SOL    HW2 8313   1.717   4.241   3.620
 2591SOL     OW 8314   0.550   3.920   2.747
 2591SOL    HW1 8315   0.545   3.915   2.847
 2591SOL    HW2 8316   0.552   4.016   2.718
 2592SOL     OW 8317   1.458   4.459   2.590
 2592SOL    HW1 8318   1.453   4.394   2.665
 2592SOL    HW2 8319   1.538   4.518   2.603
 2593SOL     OW 8320   0.202   4.009   3.360
 2593SOL    HW1 8321   0.122   4.069   3.347
 2593SOL    HW2 8322   0.192   3.960   3.446
 2594SOL     OW 8323   1.400   3.831   2.288
 2594SOL    HW1 8324   1.376   3.794   2.198
 2594SOL    HW2 8325   1.499   3.847   2.292
 2595SOL     OW 8326   0.382   4.424   2.342
 2595SOL    HW1 8327   0.427   4.334   2.339
 2595SOL    HW2 8328   0.288   4.413   2.375
 2596SOL     OW 8329   1.547   3.946   3.591
 2596SOL    HW1 8330   1.542   3.983   3.683
 2596SOL    HW2 8331   1.475   3.877   3.579
 2597SOL     OW 8332   0.614   3.846   1.979
 2597SOL    HW1 8333   0.712   3.824   1.986
 2597SOL    HW2 8334   0.583   3.829   1.886
 2598SOL     OW 8335   0.781   3.988   3.611
 2598SOL    HW1 8336   0.848   3.927   3.654
 2598SOL    HW2 8337   0.708   4.007   3.676
 2599SOL     OW 8338   1.351   4.314   3.295
 2599SOL    HW1 8339   1.379   4.271   3.380
 2599SOL    HW2 8340   1.376   4.410   3.296
 2600SOL     OW 8341   0.922   4.227   2.761
 2600SOL    HW1 8342   0.897   4.218   2.665
 2600SOL    HW2 8343   0.970   4.145   2.792
 2601SOL     OW 8344   0.539   3.788   2.374
 2601SOL    HW1 8345   0.458   3.789   2.432
 2601SOL    HW2 8346   0.542   3.871   2.319
 2602SOL     OW 8347   0.297   3.759   2.033
 2602SOL    HW1 8348   0.346   3.843   2.012
 2602SOL    HW2 8349   0.359   3.694   2.078
 2603SOL     OW 8350   0.935   3.960   2.342
 2603SOL    HW1 8351   0.887   4.001   2.264
 2603SOL    HW2 8352   1.034   3.958   2.323
 2604SOL     OW 8353   1.076   4.407   3.326
 2604SOL    HW1 8354   0.996   4.346   3.329
 2604SOL    HW2 8355   1.157   4.354   3.302
 2605SOL     OW 8356   1.032   4.273   1.878
 2605SOL    HW1 8357   0.991   4.355   1.839
 2605SOL    HW2 8358   1.096   4.299   1.951
 2606SOL     OW 8359   0.078   4.280   3.248
 2606SOL    HW1 8360   0.170   4.279   3.207
 2606SOL    HW2 8361   0.072   4.354   3.315
 2607SOL     OW 8362   0.561   3.946   3.009
 2607SOL    HW1 8363   0.599   3.862   3.046
 2607SOL    HW2 8364   0.473   3.965   3.053
 2608SOL     OW 8365   0.866   4.178   2.504
 2608SOL    HW1 8366   0.834   4.250   2.442
 2608SOL    HW2 8367   0.890   4.097   2.451
 2609SOL     OW 8368   1.017   3.763   2.615
 2609SOL    HW1 8369   0.945   3.768   2.546
 2609SOL    HW2 8370   0.993   3.694   2.684
 2610SOL     OW 8371   1.466   4.314   2.854
 2610SOL    HW1 8372   1.436   4.219   2.861
 2610SOL    HW2 8373   1.539   4.330   2.920
 2611SOL     OW 8374   1.390   4.299   1.940
 2611SOL    HW1 8375   1.336   4.278   2.021
 2611SOL    HW2 8376   1.481   4.258   1.949
 2612SOL     OW 8377   0.527   3.980   2.190
 2612SOL    HW1 8378   0.554   3.921   2.115
 2612SOL    HW2 8379   0.527   4.075   2.159
 2613SOL     OW 8380   0.915   3.813   3.264
 2613SOL    HW1 8381   0.940   3.793   3.169
 2613SOL    HW2 8382   0.987   3.869   3.306
 2614SOL     OW 8383   0.410   4.537   3.113
 2614SOL    HW1 8384   0.496   4.549   3.163
 2614SOL    HW2 8385   0.368   4.450   3.140
 2615SOL     OW 8386   1.274   4.110   3.124
 2615SOL    HW1 8387   1.295   4.184   3.188
 2615SOL    HW2 8388   1.185   4.127   3.081
 2616SOL     OW 8389   0.566   4.261   2.727
 2616SOL    HW1 8390   0.578   4.327   2.653
 2616SOL    HW2 8391   0.612   4.295   2.810
 2617SOL     OW 8392   1.582   4.363   2.334
 2617SOL    HW1 8393   1.551   4.424   2.407
 2617SOL    HW2 8394   1.632   4.415   2.265
 2618SOL     OW 8395   1.013   3.829   3.632
 2618SOL    HW1 8396   1.019   3.914   3.580
 2618SOL    HW2 8397   1.045   3.753   3.575
 2619SOL     OW 8398   0.504   3.774   3.602
 2619SOL    HW1 8399   0.462   3.717   3.532
 2619SOL    HW2 8400   0.438   3.843   3.634
 2620SOL     OW 8401   1.209   4.249   2.137
 2620SOL    HW1 8402   1.222   4.165   2.191
 2620SOL    HW2 8403   1.180   4.323   2.197
 2621SOL     OW 8404   0.307   3.937   3.093
 2621SOL    HW1 8405   0.284   3.974   3.183
 2621SOL    HW2 8406   0.277   3.842   3.087
 2622SOL     OW 8407   0.732   4.358   2.926
 2622SOL    HW1 8408   0.791   4.332   2.850
 2622SOL    HW2 8409   0.704   4.454   2.915
 2623SOL     OW 8410   1.728   4.659   3.716
 2623SOL    HW1 8411   1.682   4.652   3.627
 2623SOL    HW2 8412   1.666   4.703   3.782
 2624SOL     OW 8413   0.307   3.787   2.480
 2624SOL    HW1 8414   0.296   3.881   2.513
 2624SOL    HW2 8415   0.302   3.724   2.557
 2625SOL     OW 8416   1.622   4.091   2.236
 2625SOL    HW1 8417   1.624   4.015   2.300
 2625SOL    HW2 8418   1.574   4.168   2.276
 2626SOL     OW 8419   1.540   3.998   1.987
 2626SOL    HW1 8420   1.479   3.923   2.010
 2626SOL    HW2 8421   1.562   4.050   2.070
 2627SOL     OW 8422   0.319   4.534   2.811
 2627SOL    HW1 8423   0.412   4.570   2.816
 2627SOL    HW2 8424   0.313   4.449   2.863
 2628SOL     OW 8425   0.339   4.233   2.868
 2628SOL    HW1 8426   0.287   4.150   2.851
 2628SOL    HW2 8427   0.416   4.238   2.804
 2629SOL     OW 8428   1.138   4.104   3.540
 2629SOL    HW1 8429   1.093   4.167   3.604
 2629SOL    HW2 8430   1.231   4.135   3.523
 2630SOL     OW 8431   1.160   3.931   3.339
 2630SOL    HW1 8432   1.160   3.995   3.416
 2630SOL    HW2 8433   1.188   3.979   3.256
 2631SOL     OW 8434   0.040   4.268   2.976
 2631SOL    HW1 8435   0.125   4.235   2.935
 2631SOL    HW2 8436   0.053   4.283   3.074
 2632SOL     OW 8437   0.189   4.244   3.584
 2632SOL    HW1 8438   0.248   4.204   3.514
 2632SOL    HW2 8439   0.131   4.315   3.543
 2633SOL     OW 8440   0.815   4.296   2.187
 2633SOL    HW1 8441   0.822   4.207   2.141
 2633SOL    HW2 8442   0.721   4.330   2.179
 2634SOL     OW 8443   1.657   4.328   3.068
 2634SOL    HW1 8444   1.619   4.259   3.130
 2634SOL    HW2 8445   1.739   4.292   3.024
 2635SOL     OW 8446   0.671   4.188   3.131
 2635SOL    HW1 8447   0.637   4.099   3.101
 2635SOL    HW2 8448   0.697   4.242   3.051
 2636SOL     OW 8449   0.473   4.224   2.053
 2636SOL    HW1 8450   0.534   4.304   2.057
 2636SOL    HW2 8451   0.378   4.255   2.060
 2637SOL     OW 8452   1.726   3.859   2.385
 2637SOL    HW1 8453   1.799   3.842   2.318
 2637SOL    HW2 8454   1.695   3.772   2.423
 2638SOL     OW 8455   1.280   4.651   2.534
 2638SOL    HW1 8456   1.340   4.570   2.536
 2638SOL    HW2 8457   1.320   4.720   2.474
 2639SOL     OW 8458   1.841   3.899   2.825
 2639SOL    HW1 8459   1.880   3.814   2.789
 2639SOL    HW2 8460   1.743   3.901   2.806
 2640SOL     OW 8461   0.263   4.050   2.582
 2640SOL    HW1 8462   0.184   4.101   2.548
 2640SOL    HW2 8463   0.254   4.035   2.680
 2641SOL     OW 8464   0.916   4.634   2.153
 2641SOL    HW1 8465   0.979   4.672   2.085
 2641SOL    HW2 8466   0.956   4.551   2.192
 2642SOL     OW 8467   1.039   4.822   2.558
 2642SOL    HW1 8468   0.969   4.775   2.612
 2642SOL    HW2 8469   1.098   4.754   2.515
 2643SOL     OW 8470   1.014   3.960   2.833
 2643SOL    HW1 8471   1.006   3.924   2.740
 2643SOL    HW2 8472   1.012   3.884   2.898
 2644SOL     OW 8473   1.709   4.109   3.243
 2644SOL    HW1 8474   1.782   4.178   3.247
 2644SOL    HW2 8475   1.737   4.034   3.184
 2645SOL     OW 8476   0.672   3.927   3.351
 2645SOL    HW1 8477   0.762   3.911   3.311
 2645SOL    HW2 8478   0.680   3.932   3.450
 2646SOL     OW 8479   0.075   4.069   1.895
 2646SOL    HW1 8480  -0.017   4.041   1.866
 2646SOL    HW2 8481   0.106   4.146   1.839
 2647SOL     OW 8482   0.072   3.890   2.180
 2647SOL    HW1 8483   0.055   3.973   2.126
 2647SOL    HW2 8484   0.162   3.853   2.158
 2648SOL     OW 8485   0.716   4.289   3.570
 2648SOL    HW1 8486   0.735   4.354   3.644
 2648SOL    HW2 8487   0.776   4.209   3.579
 2649SOL     OW 8488   1.225   4.049   2.311
 2649SOL    HW1 8489   1.290   3.975   2.300
 2649SOL    HW2 8490   1.245   4.099   2.395
 2650SOL     OW 8491   1.777   4.066   3.504
 2650SOL    HW1 8492   1.760   4.097   3.410
 2650SOL    HW2 8493   1.693   4.029   3.542
 2651SOL     OW 8494   1.083   4.708   1.949
 2651SOL    HW1 8495   1.060   4.761   1.867
 2651SOL    HW2 8496   1.164   4.652   1.930
 2652SOL     OW 8497   1.824   3.916   3.089
 2652SOL    HW1 8498   1.820   3.826   3.133
 2652SOL    HW2 8499   1.827   3.905   2.990
 2653SOL     OW 8500   0.428   4.148   2.382
 2653SOL    HW1 8501   0.458   4.076   2.320
 2653SOL    HW2 8502   0.389   4.108   2.465
 2654SOL     OW 8503   0.317   4.271   3.142
 2654SOL    HW1 8504   0.355   4.212   3.214
 2654SOL    HW2 8505   0.357   4.245   3.054
 2655SOL     OW 8506   1.424   3.938   2.974
 2655SOL    HW1 8507   1.476   3.873   3.029
 2655SOL    HW2 8508   1.375   4.001   3.035
 2656SOL     OW 8509   1.001   3.758   3.016
 2656SOL    HW1 8510   0.938   3.686   2.985
 2656SOL    HW2 8511   1.094   3.722   3.016
 2657SOL     OW 8512   1.352   3.776   2.030
 2657SOL    HW1 8513   1.387   3.735   1.946
 2657SOL    HW2 8514   1.262   3.738   2.050
 2658SOL     OW 8515   1.300   4.177   2.553
 2658SOL    HW1 8516   1.241   4.257   2.557
 2658SOL    HW2 8517   1.315   4.142   2.646
 2659SOL     OW 8518   1.593   3.945   2.744
 2659SOL    HW1 8519   1.509   3.944   2.798
 2659SOL    HW2 8520   1.595   4.028   2.688
 2660SOL     OW 8521   0.230   4.352   3.837
 2660SOL    HW1 8522   0.137   4.350   3.874
 2660SOL    HW2 8523   0.231   4.313   3.745
 2661SOL     OW 8524   0.225   3.999   4.720
 2661SOL    HW1 8525   0.260   3.982   4.812
 2661SOL    HW2 8526   0.137   3.954   4.708
 2662SOL     OW 8527   0.019   4.092   4.371
 2662SOL    HW1 8528  -0.063   4.135   4.410
 2662SOL    HW2 8529  -0.009   4.019   4.308
 2663SOL     OW 8530   1.755   4.331   3.955
 2663SOL    HW1 8531   1.743   4.318   3.856
 2663SOL    HW2 8532   1.725   4.250   4.004
 2664SOL     OW 8533   0.685   4.736   4.389
 2664SOL    HW1 8534   0.754   4.720   4.459
 2664SOL    HW2 8535   0.612   4.793   4.427
 2665SOL     OW 8536   0.438   4.116   5.223
 2665SOL    HW1 8537   0.520   4.060   5.232
 2665SOL    HW2 8538   0.357   4.058   5.227
 2666SOL     OW 8539   1.603   4.171   4.461
 2666SOL    HW1 8540   1.529   4.217   4.411
 2666SOL    HW2 8541   1.654   4.239   4.514
 2667SOL     OW 8542   1.594   3.838   5.204
 2667SOL    HW1 8543   1.576   3.905   5.132
 2667SOL    HW2 8544   1.591   3.884   5.293
 2668SOL     OW 8545   0.122   4.367   4.287
 2668SOL    HW1 8546   0.077   4.279   4.304
 2668SOL    HW2 8547   0.121   4.421   4.371
 2669SOL     OW 8548   0.113   4.461   5.321
 2669SOL    HW1 8549   0.201   4.448   5.366
 2669SOL    HW2 8550   0.100   4.558   5.299
 2670SOL     OW 8551   0.809   3.728   4.226
 2670SOL    HW1 8552   0.849   3.819   4.217
 2670SOL    HW2 8553   0.709   3.736   4.232
 2671SOL     OW 8554   0.317   3.975   5.525
 2671SOL    HW1 8555   0.388   4.046   5.531
 2671SOL    HW2 8556   0.229   4.014   5.553
 2672SOL     OW 8557   1.281   4.069   4.668
 2672SOL    HW1 8558   1.195   4.019   4.655
 2672SOL    HW2 8559   1.343   4.015   4.724
 2673SOL     OW 8560   0.807   4.329   5.189
 2673SOL    HW1 8561   0.760   4.326   5.278
 2673SOL    HW2 8562   0.756   4.274   5.123
 2674SOL     OW 8563   1.394   4.193   5.398
 2674SOL    HW1 8564   1.374   4.236   5.486
 2674SOL    HW2 8565   1.472   4.131   5.407
 2675SOL     OW 8566   0.991   4.134   4.966
 2675SOL    HW1 8567   0.914   4.168   5.020
 2675SOL    HW2 8568   0.957   4.083   4.887
 2676SOL     OW 8569   1.041   4.425   4.153
 2676SOL    HW1 8570   1.067   4.421   4.249
 2676SOL    HW2 8571   0.956   4.374   4.139
 2677SOL     OW 8572   0.076   4.535   4.513
 2677SOL    HW1 8573   0.175   4.523   4.522
 2677SOL    HW2 8574   0.052   4.630   4.534
 2678SOL     OW 8575   0.865   4.072   3.919
 2678SOL    HW1 8576   0.924   4.135   3.870
 2678SOL    HW2 8577   0.884   3.978   3.890
 2679SOL     OW 8578   1.719   4.309   5.555
 2679SOL    HW1 8579   1.693   4.398   5.519
 2679SOL    HW2 8580   1.717   4.241   5.482
 2680SOL     OW 8581   0.550   3.920   4.609
 2680SOL    HW1 8582   0.545   3.915   4.709
 2680SOL    HW2 8583   0.552   4.016   4.580
 2681SOL     OW 8584   1.458   4.459   4.452
 2681SOL    HW1 8585   1.453   4.394   4.527
 2681SOL    HW2 8586   1.538   4.518   4.465
 2682SOL     OW 8587   0.202   4.009   5.222
 2682SOL    HW1 8588   0.122   4.069   5.209
 2682SOL    HW2 8589   0.192   3.960   5.308
 2683SOL     OW 8590   1.400   3.831   4.150
 2683SOL    HW1 8591   1.376   3.794   4.060
 2683SOL    HW2 8592   1.499   3.847   4.154
 2684SOL     OW 8593   0.382   4.424   4.204
 2684SOL    HW1 8594   0.427   4.334   4.201
 2684SOL    HW2 8595   0.288   4.413   4.237
 2685SOL     OW 8596   1.547   3.946   5.453
 2685SOL    HW1 8597   1.542   3.983   5.545
 2685SOL    HW2 8598   1.475   3.877   5.441
 2686SOL     OW 8599   0.614   3.846   3.841
 2686SOL    HW1 8600   0.712   3.824   3.848
 2686SOL    HW2 8601   0.583   3.829   3.748
 2687SOL     OW 8602   0.781   3.988   5.473
 2687SOL    HW1 8603   0.848   3.927   5.516
 2687SOL    HW2 8604   0.708   4.007   5.538
 2688SOL     OW 8605   1.351   4.314   5.157
 2688SOL    HW1 8606   1.379   4.271   5.242
 2688SOL    HW2 8607   1.376   4.410   5.158
 2689SOL     OW 8608   0.922   4.227   4.623
 2689SOL    HW1 8609   0.897   4.218   4.527
 2689SOL    HW2 8610   0.970   4.145   4.654
 2690SOL     OW 8611   0.539   3.788   4.236
 2690SOL    HW1 8612   0.458   3.789   4.294
 2690SOL    HW2 8613   0.542   3.871   4.181
 2691SOL     OW 8614   0.297   3.759   3.895
 2691SOL    HW1 8615   0.346   3.843   3.874
 2691SOL    HW2 8616   0.359   3.694   3.940
 2692SOL     OW 8617   0.935   3.960   4.204
 2692SOL    HW1 8618   0.887   4.001   4.126
 2692SOL    HW2 8619   1.034   3.958   4.185
 2693SOL     OW 8620   1.076   4.407   5.188
 2693SOL    HW1 8621   0.996   4.346   5.191
 2693SOL    HW2 8622   1.157   4.354   5.164
 2694SOL     OW 8623   1.032   4.273   3.740
 2694SOL    HW1 8624   0.991   4.355   3.701
 2694SOL    HW2 8625   1.096   4.299   3.813
 2695SOL     OW 8626   0.078   4.280   5.110
 2695SOL    HW1 8627   0.170   4.279   5.069
 2695SOL    HW2 8628   0.072   4.354   5.177
 2696SOL     OW 8629   0.561   3.946   4.871
 2696SOL    HW1 8630   0.599   3.862   4.908
 2696SOL    HW2 8631   0.473   3.965   4.915
 2697SOL     OW 8632   0.866   4.178   4.366
 2697SOL    HW1 8633   0.834   4.250   4.304
 2697SOL    HW2 8634   0.890   4.097   4.313
 2698SOL     OW 8635   1.017   3.763   4.477
 2698SOL    HW1 8636   0.945   3.768   4.408
 2698SOL    HW2 8637   0.993   3.694   4.546
 2699SOL     OW 8638   1.466   4.314   4.716
 2699SOL    HW1 8639   1.436   4.219   4.723
 2699SOL    HW2 8640   1.539   4.330   4.782
 2700SOL     OW 8641   1.390   4.299   3.802
 2700SOL    HW1 8642   1.336   4.278   3.883
 2700SOL    HW2 8643   1.481   4.258   3.811
 2701SOL     OW 8644   0.527   3.980   4.052
 2701SOL    HW1 8645   0.554   3.921   3.977
 2701SOL    HW2 8646   0.527   4.075   4.021
 2702SOL     OW 8647   0.915   3.813   5.126
 2702SOL    HW1 8648   0.940   3.793   5.031
 2702SOL    HW2 8649   0.987   3.869   5.168
 2703SOL     OW 8650   0.410   4.537   4.975
 2703SOL    HW1 8651   0.496   4.549   5.025
 2703SOL    HW2 8652   0.368   4.450   5.002
 2704SOL     OW 8653   1.274   4.110   4.986
 2704SOL    HW1 8654   1.295   4.184   5.050
 2704SOL    HW2 8655   1.185   4.127   4.943
 2705SOL     OW 8656   0.566   4.261   4.589
 2705SOL    HW1 8657   0.578   4.327   4.515
 2705SOL    HW2 8658   0.612   4.295   4.672
 2706SOL     OW 8659   1.582   4.363   4.196
 2706SOL    HW1 8660   1.551   4.424   4.269
 2706SOL    HW2 8661   1.632   4.415   4.127
 2707SOL     OW 8662   1.013   3.829   5.494
 2707SOL    HW1 8663   1.019   3.914   5.442
 2707SOL    HW2 8664   1.045   3.753   5.437
 2708SOL     OW 8665   0.504   3.774   5.464
 2708SOL    HW1 8666   0.462   3.717   5.394
 2708SOL    HW2 8667   0.438   3.843   5.496
 2709SOL     OW 8668   1.209   4.249   3.999
 2709SOL    HW1 8669   1.222   4.165   4.053
 2709SOL    HW2 8670   1.180   4.323   4.059
 2710SOL     OW 8671   0.307   3.937   4.955
 2710SOL    HW1 8672   0.284   3.974   5.045
 2710SOL    HW2 8673   0.277   3.842   4.949
 2711SOL     OW 8674   0.732   4.358   4.788
 2711SOL    HW1 8675   0.791   4.332   4.712
 2711SOL    HW2 8676   0.704   4.454   4.777
 2712SOL     OW 8677   1.728   4.659   5.578
 2712SOL    HW1 8678   1.682   4.652   5.489
 2712SOL    HW2 8679   1.666   4.703   5.644
 2713SOL     OW 8680   0.307   3.787   4.342
 2713SOL    HW1 8681   0.296   3.881   4.375
 2713SOL    HW2 8682   0.302   3.724   4.419
 2714SOL     OW 8683   1.622   4.091   4.098
 2714SOL    HW1 8684   1.624   4.015   4.162
 2714SOL    HW2 8685   1.574   4.168   4.138
 2715SOL     OW 8686   1.540   3.998   3.849
 2715SOL    HW1 8687   1.479   3.923   3.872
 2715SOL    HW2 8688   1.562   4.050   3.932
 2716SOL     OW 8689   0.319   4.534   4.673
 2716SOL    HW1 8690   0.412   4.570   4.678
 2716SOL    HW2 8691   0.313   4.449   4.725
 2717SOL     OW 8692   0.339   4.233   4.730
 2717SOL    HW1 8693   0.287   4.150   4.713
 2717SOL    HW2 8694   0.416   4.238   4.666
 2718SOL     OW 8695   1.138   4.104   5.402
 2718SOL    HW1 8696   1.093   4.167   5.466
 2718SOL    HW2 8697   1.231   4.135   5.385
 2719SOL     OW 8698   1.160   3.931   5.201
 2719SOL    HW1 8699   1.160   3.995   5.278
 2719SOL    HW2 8700   1.188   3.979   5.118
 2720SOL     OW 8701   0.040   4.268   4.838
 2720SOL    HW1 8702   0.125   4.235   4.797
 2720SOL    HW2 8703   0.053   4.283   4.936
 2721SOL     OW 8704   0.189   4.244   5.446
 2721SOL    HW1 8705   0.248   4.204   5.376
 2721SOL    HW2 8706   0.131   4.315   5.405
 2722SOL     OW 8707   0.815   4.296   4.049
 2722SOL    HW1 8708   0.822   4.207   4.003
 2722SOL    HW2 8709   0.721   4.330   4.041
 2723SOL     OW 8710   1.657   4.328   4.930
 2723SOL    HW1 8711   1.619   4.259   4.992
 2723SOL    HW2 8712   1.739   4.292   4.886
 2724SOL     OW 8713   0.671   4.188   4.993
 2724SOL    HW1 8714   0.637   4.099   4.963
 2724SOL    HW2 8715   0.697   4.242   4.913
 2725SOL     OW 8716   0.473   4.224   3.915
 2725SOL    HW1 8717   0.534   4.304   3.919
 2725SOL    HW2 8718   0.378   4.255   3.922
 2726SOL     OW 8719   1.726   3.859   4.247
 2726SOL    HW1 8720   1.799   3.842   4.180
 2726SOL    HW2 8721   1.695   3.772   4.285
 2727SOL     OW 8722   1.280   4.651   4.396
 2727SOL    HW1 8723   1.340   4.570   4.398
 2727SOL    HW2 8724   1.320   4.720   4.336
 2728SOL     OW 8725   1.841   3.899   4.687
 2728SOL    HW1 8726   1.880   3.814   4.651
 2728SOL    HW2 8727   1.743   3.901   4.668
 2729SOL     OW 8728   0.263   4.050   4.444
 2729SOL    HW1 8729   0.184   4.101   4.410
 2729SOL    HW2 8730   0.254   4.035   4.542
 2730SOL     OW 8731   0.916   4.634   4.015
 2730SOL    HW1 8732   0.979   4.672   3.947
 2730SOL    HW2 8733   0.956   4.551   4.054
 2731SOL     OW 8734   1.039   4.822   4.420
 2731SOL    HW1 8735   0.969   4.775   4.474
 2731SOL    HW2 8736   1.098   4.754   4.377
 2732SOL     OW 8737   1.014   3.960   4.695
 2732SOL    HW1 8738   1.006   3.924   4.602
 2732SOL    HW2 8739   1.012   3.884   4.760
 2733SOL     OW 8740   1.709   4.109   5.105
 2733SOL    HW1 8741   1.782   4.178   5.109
 2733SOL    HW2 8742   1.737   4.034   5.046
 2734SOL     OW 8743   0.672   3.927   5.213
 2734SOL    HW1 8744   0.762   3.911   5.173
 2734SOL    HW2 8745   0.680   3.932   5.312
 2735SOL     OW 8746   0.075   4.069   3.757
 2735SOL    HW1 8747  -0.017   4.041   3.728
 2735SOL    HW2 8748   0.106   4.146   3.701
 2736SOL     OW 8749   0.072   3.890   4.042
 2736SOL    HW1 8750   0.055   3.973   3.988
 2736SOL    HW2 8751   0.162   3.853   4.020
 2737SOL     OW 8752   0.716   4.289   5.432
 2737SOL    HW1 8753   0.735   4.354   5.506
 2737SOL    HW2 8754   0.776   4.209   5.441
 2738SOL     OW 8755   1.225   4.049   4.173
 2738SOL    HW1 8756   1.290   3.975   4.162
 2738SOL    HW2 8757   1.245   4.099   4.257
 2739SOL     OW 8758   1.777   4.066   5.366
 2739SOL    HW1 8759   1.760   4.097   5.272
 2739SOL    HW2 8760   1.693   4.029   5.404
 2740SOL     OW 8761   1.083   4.708   3.811
 2740SOL    HW1 8762   1.060   4.761   3.729
 2740SOL    HW2 8763   1.164   4.652   3.792
 2741SOL     OW 8764   1.824   3.916   4.951
 2741SOL    HW1 8765   1.820   3.826   4.995
 2741SOL    HW2 8766   1.827   3.905   4.852
 2742SOL     OW 8767   0.428   4.148   4.244
 2742SOL    HW1 8768   0.458   4.076   4.182
 2742SOL    HW2 8769   0.389   4.108   4.327
 2743SOL     OW 8770   0.317   4.271   5.004
 2743SOL    HW1 8771   0.355   4.212   5.076
 2743SOL    HW2 8772   0.357   4.245   4.916
 2744SOL     OW 8773   1.424   3.938   4.836
 2744SOL    HW1 8774   1.476   3.873   4.891
 2744SOL    HW2 8775   1.375   4.001   4.897
 2745SOL     OW 8776   1.001   3.758   4.878
 2745SOL    HW1 8777   0.938   3.686   4.847
 2745SOL    HW2 8778   1.094   3.722   4.878
 2746SOL     OW 8779   1.352   3.776   3.892
 2746SOL    HW1 8780   1.387   3.735   3.808
 2746SOL    HW2 8781   1.262   3.738   3.912
 2747SOL     OW 8782   1.300   4.177   4.415
 2747SOL    HW1 8783   1.241   4.257   4.419
 2747SOL    HW2 8784   1.315   4.142   4.508
 2748SOL     OW 8785   1.593   3.945   4.606
 2748SOL    HW1 8786   1.509   3.944   4.660
 2748SOL    HW2 8787   1.595   4.028   4.550
 2749SOL     OW 8788   0.230   4.352   5.699
 2749SOL    HW1 8789   0.137   4.350   5.736
 2749SOL    HW2 8790   0.231   4.313   5.607
 2750SOL     OW 8791   0.225   3.999   6.582
 2750SOL    HW1 8792   0.260   3.982   6.674
 2750SOL    HW2 8793   0.137   3.954   6.570
 2751SOL     OW 8794   0.019   4.092   6.233
 2751SOL    HW1 8795  -0.063   4.135   6.272
 2751SOL    HW2 8796  -0.009   4.019   6.170
 2752SOL     OW 8797   1.755   4.331   5.817
 2752SOL    HW1 8798   1.743   4.318   5.718
 2752SOL    HW2 8799   1.725   4.250   5.866
 2753SOL     OW 8800   0.685   4.736   6.251
 2753SOL    HW1 8801   0.754   4.720   6.321
 2753SOL    HW2 8802   0.612   4.793   6.289
 2754SOL     OW 8803   0.438   4.116   7.085
 2754SOL    HW1 8804   0.520   4.060   7.094
 2754SOL    HW2 8805   0.357   4.058   7.089
 2755SOL     OW 8806   1.603   4.171   6.323
 2755SOL    HW1 8807   1.529   4.217   6.273
 2755SOL    HW2 8808   1.654   4.239   6.376
 2756SOL     OW 8809   1.594   3.838   7.066
 2756SOL    HW1 8810   1.576   3.905   6.994
 2756SOL    HW2 8811   1.591   3.884   7.155
 2757SOL     OW 8812   0.122   4.367   6.149
 2757SOL    HW1 8813   0.077   4.279   6.166
 2757SOL    HW2 8814   0.121   4.421   6.233
 2758SOL     OW 8815   0.113   4.461   7.183
 2758SOL    HW1 8816   0.201   4.448   7.228
 2758SOL    HW2 8817   0.100   4.558   7.161
 2759SOL     OW 8818   0.809   3.728   6.088
 2759SOL    HW1 8819   0.849   3.819   6.079
 2759SOL    HW2 8820   0.709   3.736   6.094
 2760SOL     OW 8821   0.317   3.975   7.387
 2760SOL    HW1 8822   0.388   4.046   7.393
 2760SOL    HW2 8823   0.229   4.014   7.415
 2761SOL     OW 8824   1.281   4.069   6.530
 2761SOL    HW1 8825   1.195   4.019   6.517
 2761SOL    HW2 8826   1.343   4.015   6.586
 2762SOL     OW 8827   0.807   4.329   7.051
 2762SOL    HW1 8828   0.760   4.326   7.140
 2762SOL    HW2 8829   0.756   4.274   6.985
 2763SOL     OW 8830   1.394   4.193   7.260
 2763SOL    HW1 8831   1.374   4.236   7.348
 2763SOL    HW2 8832   1.472   4.131   7.269
 2764SOL     OW 8833   0.991   4.134   6.828
 2764SOL    HW1 8834   0.914   4.168   6.882
 2764SOL    HW2 8835   0.957   4.083   6.749
 2765SOL     OW 8836   1.041   4.425   6.015
 2765SOL    HW1 8837   1.067   4.421   6.111
 2765SOL    HW2 8838   0.956   4.374   6.001
 2766SOL     OW 8839   0.076   4.535   6.375
 2766SOL    HW1 8840   0.175   4.523   6.384
 2766SOL    HW2 8841   0.052   4.630   6.396
 2767SOL     OW 8842   0.865   4.072   5.781
 2767SOL    HW1 8843   0.924   4.135   5.732
 2767SOL    HW2 8844   0.884   3.978   5.752
 2768SOL     OW 8845   1.719   4.309   7.417
 2768SOL    HW1 8846   1.693   4.398   7.381
 2768SOL    HW2 8847   1.717   4.241   7.344
 2769SOL     OW 8848   0.550   3.920   6.471
 2769SOL    HW1 8849   0.545   3.915   6.571
 2769SOL    HW2 8850   0.552   4.016   6.442
 2770SOL     OW 8851   1.458   4.459   6.314
 2770SOL    HW1 8852   1.453   4.394   6.389
 2770SOL    HW2 8853   1.538   4.518   6.327
 2771SOL     OW 8854   0.202   4.009   7.084
 2771SOL    HW1 8855   0.122   4.069   7.071
 2771SOL    HW2 8856   0.192   3.960   7.170
 2772SOL     OW 8857   1.400   3.831   6.012
 2772SOL    HW1 8858   1.376   3.794   5.922
 2772SOL    HW2 8859   1.499   3.847   6.016
 2773SOL     OW 8860   0.382   4.424   6.066
 2773SOL    HW1 8861   0.427   4.334   6.063
 2773SOL    HW2 8862   0.288   4.413   6.099
 2774SOL     OW 8863   1.547   3.946   7.315
 2774SOL    HW1 8864   1.542   3.983   7.407
 2774SOL    HW2 8865   1.475   3.877   7.303
 2775SOL     OW 8866   0.614   3.846   5.703
 2775SOL    HW1 8867   0.712   3.824   5.710
 2775SOL    HW2 8868   0.583   3.829   5.610
 2776SOL     OW 8869   0.781   3.988   7.335
 2776SOL    HW1 8870   0.848   3.927   7.378
 2776SOL    HW2 8871   0.708   4.007   7.400
 2777SOL     OW 8872   1.351   4.314   7.019
 2777SOL    HW1 8873   1.379   4.271   7.104
 2777SOL    HW2 8874   1.376   4.410   7.020
 2778SOL     OW 8875   0.922   4.227   6.485
 2778SOL    HW1 8876   0.897   4.218   6.389
 2778SOL    HW2 8877   0.970   4.145   6.516
 2779SOL     OW 8878   0.539   3.788   6.098
 2779SOL    HW1 8879   0.458   3.789   6.156
 2779SOL    HW2 8880   0.542   3.871   6.043
 2780SOL     OW 8881   0.297   3.759   5.757
 2780SOL    HW1 8882   0.346   3.843   5.736
 2780SOL    HW2 8883   0.359   3.694   5.802
 2781SOL     OW 8884   0.935   3.960   6.066
 2781SOL    HW1 8885   0.887   4.001   5.988
 2781SOL    HW2 8886   1.034   3.958   6.047
 2782SOL     OW 8887   1.076   4.407   7.050
 2782SOL    HW1 8888   0.996   4.346   7.053
 2782SOL    HW2 8889   1.157   4.354   7.026
 2783SOL     OW 8890   1.032   4.273   5.602
 2783SOL    HW1 8891   0.991   4.355   5.563
 2783SOL    HW2 8892   1.096   4.299   5.675
 2784SOL     OW 8893   0.078   4.280   6.972
 2784SOL    HW1 8894   0.170   4.279   6.931
 2784SOL    HW2 8895   0.072   4.354   7.039
 2785SOL     OW 8896   0.561   3.946   6.733
 2785SOL    HW1 8897   0.599   3.862   6.770
 2785SOL    HW2 8898   0.473   3.965   6.777
 2786SOL     OW 8899   0.866   4.178   6.228
 2786SOL    HW1 8900   0.834   4.250   6.166
 2786SOL    HW2 8901   0.890   4.097   6.175
 2787SOL     OW 8902   1.017   3.763   6.339
 2787SOL    HW1 8903   0.945   3.768   6.270
 2787SOL    HW2 8904   0.993   3.694   6.408
 2788SOL     OW 8905   1.466   4.314   6.578
 2788SOL    HW1 8906   1.436   4.219   6.585
 2788SOL    HW2 8907   1.539   4.330   6.644
 2789SOL     OW 8908   1.390   4.299   5.664
 2789SOL    HW1 8909   1.336   4.278   5.745
 2789SOL    HW2 8910   1.481   4.258   5.673
 2790SOL     OW 8911   0.527   3.980   5.914
 2790SOL    HW1 8912   0.554   3.921   5.839
 2790SOL    HW2 8913   0.527   4.075   5.883
 2791SOL     OW 8914   0.915   3.813   6.988
 2791SOL    HW1 8915   0.940   3.793   6.893
 2791SOL    HW2 8916   0.987   3.869   7.030
 2792SOL     OW 8917   0.410   4.537   6.837
 2792SOL    HW1 8918   0.496   4.549   6.887
 2792SOL    HW2 8919   0.368   4.450   6.864
 2793SOL     OW 8920   1.274   4.110   6.848
 2793SOL    HW1 8921   1.295   4.184   6.912
 2793SOL    HW2 8922   1.185   4.127   6.805
 2794SOL     OW 8923   0.566   4.261   6.451
 2794SOL    HW1 8924   0.578   4.327   6.377
 2794SOL    HW2 8925   0.612   4.295   6.534
 2795SOL     OW 8926   1.582   4.363   6.058
 2795SOL    HW1 8927   1.551   4.424   6.131
 2795SOL    HW2 8928   1.632   4.415   5.989
 2796SOL     OW 8929   1.013   3.829   7.356
 2796SOL    HW1 8930   1.019   3.914   7.304
 2796SOL    HW2 8931   1.045   3.753   7.299
 2797SOL     OW 8932   0.504   3.774   7.326
 2797SOL    HW1 8933   0.462   3.717   7.256
 2797SOL    HW2 8934   0.438   3.843   7.358
 2798SOL     OW 8935   1.209   4.249   5.861
 2798SOL    HW1 8936   1.222   4.165   5.915
 2798SOL    HW2 8937   1.180   4.323   5.921
 2799SOL     OW 8938   0.307   3.937   6.817
 2799SOL    HW1 8939   0.284   3.974   6.907
 2799SOL    HW2 8940   0.277   3.842   6.811
 2800SOL     OW 8941   0.732   4.358   6.650
 2800SOL    HW1 8942   0.791   4.332   6.574
 2800SOL    HW2 8943   0.704   4.454   6.639
 2801SOL     OW 8944   1.728   4.659   7.440
 2801SOL    HW1 8945   1.682   4.652   7.351
 2801SOL    HW2 8946   1.666   4.703   7.506
 2802SOL     OW 8947   0.307   3.787   6.204
 2802SOL    HW1 8948   0.296   3.881   6.237
 2802SOL    HW2 8949   0.302   3.724   6.281
 2803SOL     OW 8950   1.622   4.091   5.960
 2803SOL    HW1 8951   1.624   4.015   6.024
 2803SOL    HW2 8952   1.574   4.168   6.000
 2804SOL     OW 8953   1.540   3.998   5.711
 2804SOL    HW1 8954   1.479   3.923   5.734
 2804SOL    HW2 8955   1.562   4.050   5.794
 2805SOL     OW 8956   0.319   4.534   6.535
 2805SOL    HW1 8957   0.412   4.570   6.540
 2805SOL    HW2 8958   0.313   4.449   6.587
 2806SOL     OW 8959   0.339   4.233   6.592
 2806SOL    HW1 8960   0.287   4.150   6.575
 2806SOL    HW2 8961   0.416   4.238   6.528
 2807SOL     OW 8962   1.138   4.104   7.264
 2807SOL    HW1 8963   1.093   4.167   7.328
 2807SOL    HW2 8964   1.231   4.135   7.247
 2808SOL     OW 8965   1.160   3.931   7.063
 2808SOL    HW1 8966   1.160   3.995   7.140
 2808SOL    HW2 8967   1.188   3.979   6.980
 2809SOL     OW 8968   0.040   4.268   6.700
 2809SOL    HW1 8969   0.125   4.235   6.659
 2809SOL    HW2 8970   0.053   4.283   6.798
 2810SOL     OW 8971   0.189   4.244   7.308
 2810SOL    HW1 8972   0.248   4.204   7.238
 2810SOL    HW2 8973   0.131   4.315   7.267
 2811SOL     OW 8974   0.815   4.296   5.911
 2811SOL    HW1 8975   0.822   4.207   5.865
 2811SOL    HW2 8976   0.721   4.330   5.903
 2812SOL     OW 8977   1.657   4.328   6.792
 2812SOL    HW1 8978   1.619   4.259   6.854
 2812SOL    HW2 8979   1.739   4.292   6.748
 2813SOL     OW 8980   0.671   4.188   6.855
 2813SOL    HW1 8981   0.637   4.099   6.825
 2813SOL    HW2 8982   0.697   4.242   6.775
 2814SOL     OW 8983   0.473   4.224   5.777
 2814SOL    HW1 8984   0.534   4.304   5.781
 2814SOL    HW2 8985   0.378   4.255   5.784
 2815SOL     OW 8986   1.726   3.859   6.109
 2815SOL    HW1 8987   1.799   3.842   6.042
 2815SOL    HW2 8988   1.695   3.772   6.147
 2816SOL     OW 8989   1.280   4.651   6.258
 2816SOL    HW1 8990   1.340   4.570   6.260
 2816SOL    HW2 8991   1.320   4.720   6.198
 2817SOL     OW 8992   1.841   3.899   6.549
 2817SOL    HW1 8993   1.880   3.814   6.513
 2817SOL    HW2 8994   1.743   3.901   6.530
 2818SOL     OW 8995   0.263   4.050   6.306
 2818SOL    HW1 8996   0.184   4.101   6.272
 2818SOL    HW2 8997   0.254   4.035   6.404
 2819SOL     OW 8998   0.916   4.634   5.877
 2819SOL    HW1 8999   0.979   4.672   5.809
 2819SOL    HW2 9000   0.956   4.551   5.916
 2820SOL     OW 9001   1.039   4.822   6.282
 2820SOL    HW1 9002   0.969   4.775   6.336
 2820SOL    HW2 9003   1.098   4.754   6.239
 2821SOL     OW 9004   1.014   3.960   6.557
 2821SOL    HW1 9005   1.006   3.924   6.464
 2821SOL    HW2 9006   1.012   3.884   6.622
 2822SOL     OW 9007   1.709   4.109   6.967
 2822SOL    HW1 9008   1.782   4.178   6.971
 2822SOL    HW2 9009   1.737   4.034   6.908
 2823SOL     OW 9010   0.672   3.927   7.075
 2823SOL    HW1 9011   0.762   3.911   7.035
 2823SOL    HW2 9012   0.680   3.932   7.174
 2824SOL     OW 9013   0.075   4.069   5.619
 2824SOL    HW1 9014  -0.017   4.041   5.590
 2824SOL    HW2 9015   0.106   4.146   5.563
 2825SOL     OW 9016   0.072   3.890   5.904
 2825SOL    HW1 9017   0.055   3.973   5.850
 2825SOL    HW2 9018   0.162   3.853   5.882
 2826SOL     OW 9019   0.716   4.289   7.294
 2826SOL    HW1 9020   0.735   4.354   7.368
 2826SOL    HW2 9021   0.776   4.209   7.303
 2827SOL     OW 9022   1.225   4.049   6.035
 2827SOL    HW1 9023   1.290   3.975   6.024
 2827SOL    HW2 9024   1.245   4.099   6.119
 2828SOL     OW 9025   1.777   4.066   7.228
 2828SOL    HW1 9026   1.760   4.097   7.134
 2828SOL    HW2 9027   1.693   4.029   7.266
 2829SOL     OW 9028   1.083   4.708   5.673
 2829SOL    HW1 9029   1.060   4.761   5.591
 2829SOL    HW2 9030   1.164   4.652   5.654
 2830SOL     OW 9031   1.824   3.916   6.813
 2830SOL    HW1 9032   1.820   3.826   6.857
 2830SOL    HW2 9033   1.827   3.905   6.714
 2831SOL     OW 9034   0.428   4.148   6.106
 2831SOL    HW1 9035   0.458   4.076   6.044
 2831SOL    HW2 9036   0.389   4.108   6.189
 2832SOL     OW 9037   0.317   4.271   6.866
 2832SOL    HW1 9038   0.355   4.212   6.938
 2832SOL    HW2 9039   0.357   4.245   6.778
 2833SOL     OW 9040   1.424   3.938   6.698
 2833SOL    HW1 9041   1.476   3.873   6.753
 2833SOL    HW2 9042   1.375   4.001   6.759
 2834SOL     OW 9043   1.001   3.758   6.740
 2834SOL    HW1 9044   0.938   3.686   6.709
 2834SOL    HW2 9045   1.094   3.722   6.740
 2835SOL     OW 9046   1.352   3.776   5.754
 2835SOL    HW1 9047   1.387   3.735   5.670
 2835SOL    HW2 9048   1.262   3.738   5.774
 2836SOL     OW 9049   1.300   4.177   6.277
 2836SOL    HW1 9050   1.241   4.257   6.281
 2836SOL    HW2 9051   1.315   4.142   6.370
 2837SOL     OW 9052   1.593   3.945   6.468
 2837SOL    HW1 9053   1.509   3.944   6.522
 2837SOL    HW2 9054   1.595   4.028   6.412
 2838SOL     OW 9055   0.230   4.352   7.561
 2838SOL    HW1 9056   0.137   4.350   7.598
 2838SOL    HW2 9057   0.231   4.313   7.469
 2839SOL     OW 9058   0.225   3.999   8.444
 2839SOL    HW1 9059   0.260   3.982   8.536
 2839SOL    HW2 9060   0.137   3.954   8.432
 2840SOL     OW 9061   0.019   4.092   8.095
 2840SOL    HW1 9062  -0.063   4.135   8.134
 2840SOL    HW2 9063  -0.009   4.019   8.032
 2841SOL     OW 9064   1.755   4.331   7.679
 2841SOL    HW1 9065   1.743   4.318   7.580
 2841SOL    HW2 9066   1.725   4.250   7.728
 2842SOL     OW 9067   0.685   4.736   8.113
 2842SOL    HW1 9068   0.754   4.720   8.183
 2842SOL    HW2 9069   0.612   4.793   8.151
 2843SOL     OW 9070   0.438   4.116   8.947
 2843SOL    HW1 9071   0.520   4.060   8.956
 2843SOL    HW2 9072   0.357   4.058   8.951
 2844SOL     OW 9073   1.603   4.171   8.185
 2844SOL    HW1 9074   1.529   4.217   8.135
 2844SOL    HW2 9075   1.654   4.239   8.238
 2845SOL     OW 9076   1.594   3.838   8.928
 2845SOL    HW1 9077   1.576   3.905   8.856
 2845SOL    HW2 9078   1.591   3.884   9.017
 2846SOL     OW 9079   0.122   4.367   8.011
 2846SOL    HW1 9080   0.077   4.279   8.028
 2846SOL    HW2 9081   0.121   4.421   8.095
 2847SOL     OW 9082   0.113   4.461   9.045
 2847SOL    HW1 9083   0.201   4.448   9.090
 2847SOL    HW2 9084   0.100   4.558   9.023
 2848SOL     OW 9085   0.809   3.728   7.950
 2848SOL    HW1 9086   0.849   3.819   7.941
 2848SOL    HW2 9087   0.709   3.736   7.956
 2849SOL     OW 9088   0.317   3.975   9.249
 2849SOL    HW1 9089   0.388   4.046   9.255
 2849SOL    HW2 9090   0.229   4.014   9.277
 2850SOL     OW 9091   1.281   4.069   8.392
 2850SOL    HW1 9092   1.195   4.019   8.379
 2850SOL    HW2 9093   1.343   4.015   8.448
 2851SOL     OW 9094   0.807   4.329   8.913
 2851SOL    HW1 9095   0.760   4.326   9.002
 2851SOL    HW2 9096   0.756   4.274   8.847
 2852SOL     OW 9097   1.394   4.193   9.122
 2852SOL    HW1 9098   1.374   4.236   9.210
 2852SOL    HW2 9099   1.472   4.131   9.131
 2853SOL     OW 9100   0.991   4.134   8.690
 2853SOL    HW1 9101   0.914   4.168   8.744
 2853SOL    HW2 9102   0.957   4.083   8.611
 2854SOL     OW 9103   1.041   4.425   7.877
 2854SOL    HW1 9104   1.067   4.421   7.973
 2854SOL    HW2 9105   0.956   4.374   7.863
 2855SOL     OW 9106   0.076   4.535   8.237
 2855SOL    HW1 9107   0.175   4.523   8.246
 2855SOL    HW2 9108   0.052   4.630   8.258
 2856SOL     OW 9109   0.865   4.072   7.643
 2856SOL    HW1 9110   0.924   4.135   7.594
 2856SOL    HW2 9111   0.884   3.978   7.614
 2857SOL     OW 9112   1.719   4.309   9.279
 2857SOL    HW1 9113   1.693   4.398   9.243
 2857SOL    HW2 9114   1.717   4.241   9.206
 2858SOL     OW 9115   0.550   3.920   8.333
 2858SOL    HW1 9116   0.545   3.915   8.433
 2858SOL    HW2 9117   0.552   4.016   8.304
 2859SOL     OW 9118   1.458   4.459   8.176
 2859SOL    HW1 9119   1.453   4.394   8.251
 2859SOL    HW2 9120   1.538   4.518   8.189
 2860SOL     OW 9121   0.202   4.009   8.946
 2860SOL    HW1 9122   0.122   4.069   8.933
 2860SOL    HW2 9123   0.192   3.960   9.032
 2861SOL     OW 9124   1.400   3.831   7.874
 2861SOL    HW1 9125   1.376   3.794   7.784
 2861SOL    HW2 9126   1.499   3.847   7.878
 2862SOL     OW 9127   0.382   4.424   7.928
 2862SOL    HW1 9128   0.427   4.334   7.925
 2862SOL    HW2 9129   0.288   4.413   7.961
 2863SOL     OW 9130   1.547   3.946   9.177
 2863SOL    HW1 9131   1.542   3.983   9.269
 2863SOL    HW2 9132   1.475   3.877   9.165
 2864SOL     OW 9133   0.614   3.846   7.565
 2864SOL    HW1 9134   0.712   3.824   7.572
 2864SOL    HW2 9135   0.583   3.829   7.472
 2865SOL     OW 9136   0.781   3.988   9.197
 2865SOL    HW1 9137   0.848   3.927   9.240
 2865SOL    HW2 9138   0.708   4.007   9.262
 2866SOL     OW 9139   1.351   4.314   8.881
 2866SOL    HW1 9140   1.379   4.271   8.966
 2866SOL    HW2 9141   1.376   4.410   8.882
 2867SOL     OW 9142   0.922   4.227   8.347
 2867SOL    HW1 9143   0.897   4.218   8.251
 2867SOL    HW2 9144   0.970   4.145   8.378
 2868SOL     OW 9145   0.539   3.788   7.960
 2868SOL    HW1 9146   0.458   3.789   8.018
 2868SOL    HW2 9147   0.542   3.871   7.905
 2869SOL     OW 9148   0.297   3.759   7.619
 2869SOL    HW1 9149   0.346   3.843   7.598
 2869SOL    HW2 9150   0.359   3.694   7.664
 2870SOL     OW 9151   0.935   3.960   7.928
 2870SOL    HW1 9152   0.887   4.001   7.850
 2870SOL    HW2 9153   1.034   3.958   7.909
 2871SOL     OW 9154   1.076   4.407   8.912
 2871SOL    HW1 9155   0.996   4.346   8.915
 2871SOL    HW2 9156   1.157   4.354   8.888
 2872SOL     OW 9157   1.032   4.273   7.464
 2872SOL    HW1 9158   0.991   4.355   7.425
 2872SOL    HW2 9159   1.096   4.299   7.537
 2873SOL     OW 9160   0.078   4.280   8.834
 2873SOL    HW1 9161   0.170   4.279   8.793
 2873SOL    HW2 9162   0.072   4.354   8.901
 2874SOL     OW 9163   0.561   3.946   8.595
 2874SOL    HW1 9164   0.599   3.862   8.632
 2874SOL    HW2 9165   0.473   3.965   8.639
 2875SOL     OW 9166   0.866   4.178   8.090
 2875SOL    HW1 9167   0.834   4.250   8.028
 2875SOL    HW2 9168   0.890   4.097   8.037
 2876SOL     OW 9169   1.017   3.763   8.201
 2876SOL    HW1 9170   0.945   3.768   8.132
 2876SOL    HW2 9171   0.993   3.694   8.270
 2877SOL     OW 9172   1.466   4.314   8.440
 2877SOL    HW1 9173   1.436   4.219   8.447
 2877SOL    HW2 9174   1.539   4.330   8.506
 2878SOL     OW 9175   1.390   4.299   7.526
 2878SOL    HW1 9176   1.336   4.278   7.607
 2878SOL    HW2 9177   1.481   4.258   7.535
 2879SOL     OW 9178   0.527   3.980   7.776
 2879SOL    HW1 9179   0.554   3.921   7.701
 2879SOL    HW2 9180   0.527   4.075   7.745
 2880SOL     OW 9181   0.915   3.813   8.850
 2880SOL    HW1 9182   0.940   3.793   8.755
 2880SOL    HW2 9183   0.987   3.869   8.892
 2881SOL     OW 9184   0.410   4.537   8.699
 2881SOL    HW1 9185   0.496   4.549   8.749
 2881SOL    HW2 9186   0.368   4.450   8.726
 2882SOL     OW 9187   1.274   4.110   8.710
 2882SOL    HW1 9188   1.295   4.184   8.774
 2882SOL    HW2 9189   1.185   4.127   8.667
 2883SOL     OW 9190   0.566   4.261   8.313
 2883SOL    HW1 9191   0.578   4.327   8.239
 2883SOL    HW2 9192   0.612   4.295   8.396
 2884SOL     OW 9193   1.582   4.363   7.920
 2884SOL    HW1 9194   1.551   4.424   7.993
 2884SOL    HW2 9195   1.632   4.415   7.851
 2885SOL     OW 9196   1.013   3.829   9.218
 2885SOL    HW1 9197   1.019   3.914   9.166
 2885SOL    HW2 9198   1.045   3.753   9.161
 2886SOL     OW 9199   0.504   3.774   9.188
 2886SOL    HW1 9200   0.462   3.717   9.118
 2886SOL    HW2 9201   0.438   3.843   9.220
 2887SOL     OW 9202   1.209   4.249   7.723
 2887SOL    HW1 9203   1.222   4.165   7.777
 2887SOL    HW2 9204   1.180   4.323   7.783
 2888SOL     OW 9205   0.307   3.937   8.679
 2888SOL    HW1 9206   0.284   3.974   8.769
 2888SOL    HW2 9207   0.277   3.842   8.673
 2889SOL     OW 9208   0.732   4.358   8.512
 2889SOL    HW1 9209   0.791   4.332   8.436
 2889SOL    HW2 9210   0.704   4.454   8.501
 2890SOL     OW 9211   1.728   4.659   9.302
 2890SOL    HW1 9212   1.682   4.652   9.213
 2890SOL    HW2 9213   1.666   4.703   9.368
 2891SOL     OW 9214   0.307   3.787   8.066
 2891SOL    HW1 9215   0.296   3.881   8.099
 2891SOL    HW2 9216   0.302   3.724   8.143
 2892SOL     OW 9217   1.622   4.091   7.822
 2892SOL    HW1 9218   1.624   4.015   7.886
 2892SOL    HW2 9219   1.574   4.168   7.862
 2893SOL     OW 9220   1.540   3.998   7.573
 2893SOL    HW1 9221   1.479   3.923   7.596
 2893SOL    HW2 9222   1.562   4.050   7.656
 2894SOL     OW 9223   0.319   4.534   8.397
 2894SOL    HW1 9224   0.412   4.570   8.402
 2894SOL    HW2 9225   0.313   4.449   8.449
 2895SOL     OW 9226   0.339   4.233   8.454
 2895SOL    HW1 9227   0.287   4.150   8.437
 2895SOL    HW2 9228   0.416   4.238   8.390
 2896SOL     OW 9229   1.138   4.104   9.126
 2896SOL    HW1 9230   1.093   4.167   9.190
 2896SOL    HW2 9231   1.231   4.135   9.109
 2897SOL     OW 9232   1.160   3.931   8.925
 2897SOL    HW1 9233   1.160   3.995   9.002
 2897SOL    HW2 9234   1.188   3.979   8.842
 2898SOL     OW 9235   0.040   4.268   8.562
 2898SOL    HW1 9236   0.125   4.235   8.521
 2898SOL    HW2 9237   0.053   4.283   8.660
 2899SOL     OW 9238   0.189   4.244   9.170
 2899SOL    HW1 9239   0.248   4.204   9.100
 2899SOL    HW2 9240   0.131   4.315   9.129
 2900SOL     OW 9241   0.815   4.296   7.773
 2900SOL    HW1 9242   0.822   4.207   7.727
 2900SOL    HW2 9243   0.721   4.330   7.765
 2901SOL     OW 9244   1.657   4.328   8.654
 2901SOL    HW1 9245   1.619   4.259   8.716
 2901SOL    HW2 9246   1.739   4.292   8.610
 2902SOL     OW 9247   0.671   4.188   8.717
 2902SOL    HW1 9248   0.637   4.099   8.687
 2902SOL    HW2 9249   0.697   4.242   8.637
 2903SOL     OW 9250   0.473   4.224   7.639
 2903SOL    HW1 9251   0.534   4.304   7.643
 2903SOL    HW2 9252   0.378   4.255   7.646
 2904SOL     OW 9253   1.726   3.859   7.971
 2904SOL    HW1 9254   1.799   3.842   7.904
 2904SOL    HW2 9255   1.695   3.772   8.009
 2905SOL     OW 9256   1.280   4.651   8.120
 2905SOL    HW1 9257   1.340   4.570   8.122
 2905SOL    HW2 9258   1.320   4.720   8.060
 2906SOL     OW 9259   1.841   3.899   8.411
 2906SOL    HW1 9260   1.880   3.814   8.375
 2906SOL    HW2 9261   1.743   3.901   8.392
 2907SOL     OW 9262   0.263   4.050   8.168
 2907SOL    HW1 9263   0.184   4.101   8.134
 2907SOL    HW2 9264   0.254   4.035   8.266
 2908SOL     OW 9265   0.916   4.634   7.739
 2908SOL    HW1 9266   0.979   4.672   7.671
 2908SOL    HW2 9267   0.956   4.551   7.778
 2909SOL     OW 9268   1.039   4.822   8.144
 2909SOL    HW1 9269   0.969   4.775   8.198
 2909SOL    HW2 9270   1.098   4.754   8.101
 2910SOL     OW 9271   1.014   3.960   8.419
 2910SOL    HW1 9272   1.006   3.924   8.326
 2910SOL    HW2 9273   1.012   3.884   8.484
 2911SOL     OW 9274   1.709   4.109   8.829
 2911SOL    HW1 9275   1.782   4.178   8.833
 2911SOL    HW2 9276   1.737   4.034   8.770
 2912SOL     OW 9277   0.672   3.927   8.937
 2912SOL    HW1 9278   0.762   3.911   8.897
 2912SOL    HW2 9279   0.680   3.932   9.036
 2913SOL     OW 9280   0.075   4.069   7.481
 2913SOL    HW1 9281  -0.017   4.041   7.452
 2913SOL    HW2 9282   0.106   4.146   7.425
 2914SOL     OW 9283   0.072   3.890   7.766
 2914SOL    HW1 9284   0.055   3.973   7.712
 2914SOL    HW2 9285   0.162   3.853   7.744
 2915SOL     OW 9286   0.716   4.289   9.156
 2915SOL    HW1 9287   0.735   4.354   9.230
 2915SOL    HW2 9288   0.776   4.209   9.165
 2916SOL     OW 9289   1.225   4.049   7.897
 2916SOL    HW1 9290   1.290   3.975   7.886
 2916SOL    HW2 9291   1.245   4.099   7.981
 2917SOL     OW 9292   1.777   4.066   9.090
 2917SOL    HW1 9293   1.760   4.097   8.996
 2917SOL    HW2 9294   1.693   4.029   9.128
 2918SOL     OW 9295   1.083   4.708   7.535
 2918SOL    HW1 9296   1.060   4.761   7.453
 2918SOL    HW2 9297   1.164   4.652   7.516
 2919SOL     OW 9298   1.824   3.916   8.675
 2919SOL    HW1 9299   1.820   3.826   8.719
 2919SOL    HW2 9300   1.827   3.905   8.576
 2920SOL     OW 9301   0.428   4.148   7.968
 2920SOL    HW1 9302   0.458   4.076   7.906
 2920SOL    HW2 9303   0.389   4.108   8.051
 2921SOL     OW 9304   0.317   4.271   8.728
 2921SOL    HW1 9305   0.355   4.212   8.800
 2921SOL    HW2 9306   0.357   4.245   8.640
 2922SOL     OW 9307   1.424   3.938   8.560
 2922SOL    HW1 9308   1.476   3.873   8.615
 2922SOL    HW2 9309   1.375   4.001   8.621
 2923SOL     OW 9310   1.001   3.758   8.602
 2923SOL    HW1 9311   0.938   3.686   8.571
 2923SOL    HW2 9312   1.094   3.722   8.602
 2924SOL     OW 9313   1.352   3.776   7.616
 2924SOL    HW1 9314   1.387   3.735   7.532
 2924SOL    HW2 9315   1.262   3.738   7.636
 2925SOL     OW 9316   1.300   4.177   8.139
 2925SOL    HW1 9317   1.241   4.257   8.143
 2925SOL    HW2 9318   1.315   4.142   8.232
 2926SOL     OW 9319   1.593   3.945   8.330
 2926SOL    HW1 9320   1.509   3.944   8.384
 2926SOL    HW2 9321   1.595   4.028   8.274
 2927SOL     OW 9322   0.230   4.352   9.423
 2927SOL    HW1 9323   0.137   4.350   9.460
 2927SOL    HW2 9324   0.231   4.313   9.331
 2928SOL     OW 9325   0.225   3.999  10.306
 2928SOL    HW1 9326   0.260   3.982  10.398
 2928SOL    HW2 9327   0.137   3.954  10.294
 2929SOL     OW 9328   0.019   4.092   9.957
 2929SOL    HW1 9329  -0.063   4.135   9.996
 2929SOL    HW2 9330  -0.009   4.019   9.894
 2930SOL     OW 9331   1.755   4.331   9.541
 2930SOL    HW1 9332   1.743   4.318   9.442
 2930SOL    HW2 9333   1.725   4.250   9.590
 2931SOL     OW 9334   0.685   4.736   9.975
 2931SOL    HW1 9335   0.754   4.720  10.045
 2931SOL    HW2 9336   0.612   4.793  10.013
 2932SOL     OW 9337   0.438   4.116  10.809
 2932SOL    HW1 9338   0.520   4.060  10.818
 2932SOL    HW2 9339   0.357   4.058  10.813
 2933SOL     OW 9340   1.603   4.171  10.047
 2933SOL    HW1 9341   1.529   4.217   9.997
 2933SOL    HW2 9342   1.654   4.239  10.100
 2934SOL     OW 9343   1.594   3.838  10.790
 2934SOL    HW1 9344   1.576   3.905  10.718
 2934SOL    HW2 9345   1.591   3.884  10.879
 2935SOL     OW 9346   0.122   4.367   9.873
 2935SOL    HW1 9347   0.077   4.279   9.890
 2935SOL    HW2 9348   0.121   4.421   9.957
 2936SOL     OW 9349   0.113   4.461  10.907
 2936SOL    HW1 9350   0.201   4.448  10.952
 2936SOL    HW2 9351   0.100   4.558  10.885
 2937SOL     OW 9352   0.809   3.728   9.812
 2937SOL    HW1 9353   0.849   3.819   9.803
 2937SOL    HW2 9354   0.709   3.736   9.818
 2938SOL     OW 9355   0.317   3.975  11.111
 2938SOL    HW1 9356   0.388   4.046  11.117
 2938SOL    HW2 9357   0.229   4.014  11.139
 2939SOL     OW 9358   1.281   4.069  10.254
 2939SOL    HW1 9359   1.195   4.019  10.241
 2939SOL    HW2 9360   1.343   4.015  10.310
 2940SOL     OW 9361   0.807   4.329  10.775
 2940SOL    HW1 9362   0.760   4.326  10.864
 2940SOL    HW2 9363   0.756   4.274  10.709
 2941SOL     OW 9364   0.991   4.134  10.552
 2941SOL    HW1 9365   0.914   4.168  10.606
 2941SOL    HW2 9366   0.957   4.083  10.473
 2942SOL     OW 9367   1.041   4.425   9.739
 2942SOL    HW1 9368   1.067   4.421   9.835
 2942SOL    HW2 9369   0.956   4.374   9.725
 2943SOL     OW 9370   0.076   4.535  10.099
 2943SOL    HW1 9371   0.175   4.523  10.108
 2943SOL    HW2 9372   0.052   4.630  10.120
 2944SOL     OW 9373   0.865   4.072   9.505
 2944SOL    HW1 9374   0.924   4.135   9.456
 2944SOL    HW2 9375   0.884   3.978   9.476
 2945SOL     OW 9376   0.550   3.920  10.195
 2945SOL    HW1 9377   0.545   3.915  10.295
 2945SOL    HW2 9378   0.552   4.016  10.166
 2946SOL     OW 9379   1.458   4.459  10.038
 2946SOL    HW1 9380   1.453   4.394  10.113
 2946SOL    HW2 9381   1.538   4.518  10.051
 2947SOL     OW 9382   0.202   4.009  10.808
 2947SOL    HW1 9383   0.122   4.069  10.795
 2947SOL    HW2 9384   0.192   3.960  10.894
 2948SOL     OW 9385   1.400   3.831   9.736
 2948SOL    HW1 9386   1.376   3.794   9.646
 2948SOL    HW2 9387   1.499   3.847   9.740
 2949SOL     OW 9388   0.382   4.424   9.790
 2949SOL    HW1 9389   0.427   4.334   9.787
 2949SOL    HW2 9390   0.288   4.413   9.823
 2950SOL     OW 9391   0.614   3.846   9.427
 2950SOL    HW1 9392   0.712   3.824   9.434
 2950SOL    HW2 9393   0.583   3.829   9.334
 2951SOL     OW 9394   0.781   3.988  11.059
 2951SOL    HW1 9395   0.848   3.927  11.102
 2951SOL    HW2 9396   0.708   4.007  11.124
 2952SOL     OW 9397   1.351   4.314  10.743
 2952SOL    HW1 9398   1.379   4.271  10.828
 2952SOL    HW2 9399   1.376   4.410  10.744
 2953SOL     OW 9400   0.922   4.227  10.209
 2953SOL    HW1 9401   0.897   4.218  10.113
 2953SOL    HW2 9402   0.970   4.145  10.240
 2954SOL     OW 9403   0.539   3.788   9.822
 2954SOL    HW1 9404   0.458   3.789   9.880
 2954SOL    HW2 9405   0.542   3.871   9.767
 2955SOL     OW 9406   0.297   3.759   9.481
 2955SOL    HW1 9407   0.346   3.843   9.460
 2955SOL    HW2 9408   0.359   3.694   9.526
 2956SOL     OW 9409   0.935   3.960   9.790
 2956SOL    HW1 9410   0.887   4.001   9.712
 2956SOL    HW2 9411   1.034   3.958   9.771
 2957SOL     OW 9412   1.076   4.407  10.774
 2957SOL    HW1 9413   0.996   4.346  10.777
 2957SOL    HW2 9414   1.157   4.354  10.750
 2958SOL     OW 9415   1.032   4.273   9.326
 2958SOL    HW1 9416   0.991   4.355   9.287
 2958SOL    HW2 9417   1.096   4.299   9.399
 2959SOL     OW 9418   0.078   4.280  10.696
 2959SOL    HW1 9419   0.170   4.279  10.655
 2959SOL    HW2 9420   0.072   4.354  10.763
 2960SOL     OW 9421   0.561   3.946  10.457
 2960SOL    HW1 9422   0.599   3.862  10.494
 2960SOL    HW2 9423   0.473   3.965  10.501
 2961SOL     OW 9424   0.866   4.178   9.952
 2961SOL    HW1 9425   0.834   4.250   9.890
 2961SOL    HW2 9426   0.890   4.097   9.899
 2962SOL     OW 9427   1.017   3.763  10.063
 2962SOL    HW1 9428   0.945   3.768   9.994
 2962SOL    HW2 9429   0.993   3.694  10.132
 2963SOL     OW 9430   1.466   4.314  10.302
 2963SOL    HW1 9431   1.436   4.219  10.309
 2963SOL    HW2 9432   1.539   4.330  10.368
 2964SOL     OW 9433   1.390   4.299   9.388
 2964SOL    HW1 9434   1.336   4.278   9.469
 2964SOL    HW2 9435   1.481   4.258   9.397
 2965SOL     OW 9436   0.527   3.980   9.638
 2965SOL    HW1 9437   0.554   3.921   9.563
 2965SOL    HW2 9438   0.527   4.075   9.607
 2966SOL     OW 9439   0.915   3.813  10.712
 2966SOL    HW1 9440   0.940   3.793  10.617
 2966SOL    HW2 9441   0.987   3.869  10.754
 2967SOL     OW 9442   0.410   4.537  10.561
 2967SOL    HW1 9443   0.496   4.549  10.611
 2967SOL    HW2 9444   0.368   4.450  10.588
 2968SOL     OW 9445   1.274   4.110  10.572
 2968SOL    HW1 9446   1.295   4.184  10.636
 2968SOL    HW2 9447   1.185   4.127  10.529
 2969SOL     OW 9448   0.566   4.261  10.175
 2969SOL    HW1 9449   0.578   4.327  10.101
 2969SOL    HW2 9450   0.612   4.295  10.258
 2970SOL     OW 9451   1.582   4.363   9.782
 2970SOL    HW1 9452   1.551   4.424   9.855
 2970SOL    HW2 9453   1.632   4.415   9.713
 2971SOL     OW 9454   0.402   4.475  10.908
 2971SOL    HW1 9455   0.470   4.530  10.861
 2971SOL    HW2 9456   0.442   4.387  10.935
 2972SOL     OW 9457   1.209   4.249   9.585
 2972SOL    HW1 9458   1.222   4.165   9.639
 2972SOL    HW2 9459   1.180   4.323   9.645
 2973SOL     OW 9460   0.307   3.937  10.541
 2973SOL    HW1 9461   0.284   3.974  10.631
 2973SOL    HW2 9462   0.277   3.842  10.535
 2974SOL     OW 9463   0.732   4.358  10.374
 2974SOL    HW1 9464   0.791   4.332  10.298
 2974SOL    HW2 9465   0.704   4.454  10.363
 2975SOL     OW 9466   0.307   3.787   9.928
 2975SOL    HW1 9467   0.296   3.881   9.961
 2975SOL    HW2 9468   0.302   3.724  10.005
 2976SOL     OW 9469   1.622   4.091   9.684
 2976SOL    HW1 9470   1.624   4.015   9.748
 2976SOL    HW2 9471   1.574   4.168   9.724
 2977SOL     OW 9472   1.540   3.998   9.435
 2977SOL    HW1 9473   1.479   3.923   9.458
 2977SOL    HW2 9474   1.562   4.050   9.518
 2978SOL     OW 9475   0.319   4.534  10.259
 2978SOL    HW1 9476   0.412   4.570  10.264
 2978SOL    HW2 9477   0.313   4.449  10.311
 2979SOL     OW 9478   0.339   4.233  10.316
 2979SOL    HW1 9479   0.287   4.150  10.299
 2979SOL    HW2 9480   0.416   4.238  10.252
 2980SOL     OW 9481   1.160   3.931  10.787
 2980SOL    HW1 9482   1.160   3.995  10.864
 2980SOL    HW2 9483   1.188   3.979  10.704
 2981SOL     OW 9484   0.040   4.268  10.424
 2981SOL    HW1 9485   0.125   4.235  10.383
 2981SOL    HW2 9486   0.053   4.283  10.522
 2982SOL     OW 9487   1.369   4.674  10.970
 2982SOL    HW1 9488   1.408   4.763  10.990
 2982SOL    HW2 9489   1.379   4.654  10.873
 2983SOL     OW 9490   0.815   4.296   9.635
 2983SOL    HW1 9491   0.822   4.207   9.589
 2983SOL    HW2 9492   0.721   4.330   9.627
 2984SOL     OW 9493   1.657   4.328  10.516
 2984SOL    HW1 9494   1.619   4.259  10.578
 2984SOL    HW2 9495   1.739   4.292  10.472
 2985SOL     OW 9496   0.671   4.188  10.579
 2985SOL    HW1 9497   0.637   4.099  10.549
 2985SOL    HW2 9498   0.697   4.242  10.499
 2986SOL     OW 9499   0.473   4.224   9.501
 2986SOL    HW1 9500   0.534   4.304   9.505
 2986SOL    HW2 9501   0.378   4.255   9.508
 2987SOL     OW 9502   1.726   3.859   9.833
 2987SOL    HW1 9503   1.799   3.842   9.766
 2987SOL    HW2 9504   1.695   3.772   9.871
 2988SOL     OW 9505   1.280   4.651   9.982
 2988SOL    HW1 9506   1.340   4.570   9.984
 2988SOL    HW2 9507   1.320   4.720   9.922
 2989SOL     OW 9508   1.841   3.899  10.273
 2989SOL    HW1 9509   1.880   3.814  10.237
 2989SOL    HW2 9510   1.743   3.901  10.254
 2990SOL     OW 9511   0.263   4.050  10.030
 2990SOL    HW1 9512   0.184   4.101   9.996
 2990SOL    HW2 9513   0.254   4.035  10.128
 2991SOL     OW 9514   0.916   4.634   9.601
 2991SOL    HW1 9515   0.979   4.672   9.533
 2991SOL    HW2 9516   0.956   4.551   9.640
 2992SOL     OW 9517   1.039   4.822  10.006
 2992SOL    HW1 9518   0.969   4.775  10.060
 2992SOL    HW2 9519   1.098   4.754   9.963
 2993SOL     OW 9520   1.014   3.960  10.281
 2993SOL    HW1 9521   1.006   3.924  10.188
 2993SOL    HW2 9522   1.012   3.884  10.346
 2994SOL     OW 9523   1.709   4.109  10.691
 2994SOL    HW1 9524   1.782   4.178  10.695
 2994SOL    HW2 9525   1.737   4.034  10.632
 2995SOL     OW 9526   0.672   3.927  10.799
 2995SOL    HW1 9527   0.762   3.911  10.759
 2995SOL    HW2 9528   0.680   3.932  10.898
 2996SOL     OW 9529   0.075   4.069   9.343
 2996SOL    HW1 9530  -0.017   4.041   9.314
 2996SOL    HW2 9531   0.106   4.146   9.287
 2997SOL     OW 9532   0.072   3.890   9.628
 2997SOL    HW1 9533   0.055   3.973   9.574
 2997SOL    HW2 9534   0.162   3.853   9.606
 2998SOL     OW 9535   0.716   4.289  11.018
 2998SOL    HW1 9536   0.735   4.354  11.092
 2998SOL    HW2 9537   0.776   4.209  11.027
 2999SOL     OW 9538   1.225   4.049   9.759
 2999SOL    HW1 9539   1.290   3.975   9.748
 2999SOL    HW2 9540   1.245   4.099   9.843
 3000SOL     OW 9541   1.777   4.066  10.952
 3000SOL    HW1 9542   1.760   4.097  10.858
 3000SOL    HW2 9543   1.693   4.029  10.990
 3001SOL     OW 9544   1.083   4.708   9.397
 3001SOL    HW1 9545   1.060   4.761   9.315
 3001SOL    HW2 9546   1.164   4.652   9.378
 3002SOL     OW 9547   1.824   3.916  10.537
 3002SOL    HW1 9548   1.820   3.826  10.581
 3002SOL    HW2 9549   1.827   3.905  10.438
 3003SOL     OW 9550   0.428   4.148   9.830
 3003SOL    HW1 9551   0.458   4.076   9.768
 3003SOL    HW2 9552   0.389   4.108   9.913
 3004SOL     OW 9553   0.317   4.271  10.590
 3004SOL    HW1 9554   0.355   4.212  10.662
 3004SOL    HW2 9555   0.357   4.245  10.502
 3005SOL     OW 9556   1.424   3.938  10.422
 3005SOL    HW1 9557   1.476   3.873  10.477
 3005SOL    HW2 9558   1.375   4.001  10.483
 3006SOL     OW 9559   1.001   3.758  10.464
 3006SOL    HW1 9560   0.938   3.686  10.433
 3006SOL    HW2 9561   1.094   3.722  10.464
 3007SOL     OW 9562   1.352   3.776   9.478
 3007SOL    HW1 9563   1.387   3.735   9.394
 3007SOL    HW2 9564   1.262   3.738   9.498
 3008SOL     OW 9565   1.300   4.177  10.001
 3008SOL    HW1 9566   1.241   4.257  10.005
 3008SOL    HW2 9567   1.315   4.142  10.094
 3009SOL     OW 9568   1.593   3.945  10.192
 3009SOL    HW1 9569   1.509   3.944  10.246
 3009SOL    HW2 9570   1.595   4.028  10.136
 3010SOL     OW 9571   2.092   0.628   0.113
 3010SOL    HW1 9572   1.999   0.626   0.150
 3010SOL    HW2 9573   2.093   0.589   0.021
 3011SOL     OW 9574   2.087   0.275   0.996
 3011SOL    HW1 9575   2.122   0.258   1.088
 3011SOL    HW2 9576   1.999   0.230   0.984
 3012SOL     OW 9577   1.881   0.368   0.647
 3012SOL    HW1 9578   1.799   0.411   0.686
 3012SOL    HW2 9579   1.853   0.295   0.584
 3013SOL     OW 9580   2.431   1.275   1.165
 3013SOL    HW1 9581   2.338   1.268   1.128
 3013SOL    HW2 9582   2.442   1.364   1.209
 3014SOL     OW 9583   3.417   1.511   0.703
 3014SOL    HW1 9584   3.360   1.495   0.784
 3014SOL    HW2 9585   3.358   1.521   0.623
 3015SOL     OW 9586   2.997   0.703   0.717
 3015SOL    HW1 9587   3.054   0.781   0.692
 3015SOL    HW2 9588   2.937   0.729   0.793
 3016SOL     OW 9589   3.617   0.607   0.231
 3016SOL    HW1 9590   3.605   0.594   0.132
 3016SOL    HW2 9591   3.587   0.526   0.280
 3017SOL     OW 9592   2.630   1.144   1.023
 3017SOL    HW1 9593   2.552   1.161   1.083
 3017SOL    HW2 9594   2.664   1.231   0.987
 3018SOL     OW 9595   2.712   0.798   1.823
 3018SOL    HW1 9596   2.708   0.874   1.888
 3018SOL    HW2 9597   2.734   0.834   1.732
 3019SOL     OW 9598   2.547   1.012   0.665
 3019SOL    HW1 9599   2.616   0.996   0.735
 3019SOL    HW2 9600   2.474   1.069   0.703
 3020SOL     OW 9601   2.548   1.161   1.803
 3020SOL    HW1 9602   2.608   1.240   1.817
 3020SOL    HW2 9603   2.462   1.192   1.762
 3021SOL     OW 9604   2.197   1.435   1.061
 3021SOL    HW1 9605   2.119   1.404   1.008
 3021SOL    HW2 9606   2.255   1.493   1.004
 3022SOL     OW 9607   3.322   1.505   1.339
 3022SOL    HW1 9608   3.346   1.599   1.365
 3022SOL    HW2 9609   3.306   1.451   1.421
 3023SOL     OW 9610   2.300   0.392   1.499
 3023SOL    HW1 9611   2.382   0.336   1.508
 3023SOL    HW2 9612   2.219   0.334   1.503
 3024SOL     OW 9613   3.465   0.447   0.737
 3024SOL    HW1 9614   3.391   0.493   0.687
 3024SOL    HW2 9615   3.516   0.515   0.790
 3025SOL     OW 9616   2.093   1.713   0.483
 3025SOL    HW1 9617   2.127   1.790   0.537
 3025SOL    HW2 9618   2.137   1.713   0.393
 3026SOL     OW 9619   2.989   1.341   1.690
 3026SOL    HW1 9620   3.036   1.341   1.778
 3026SOL    HW2 9621   2.941   1.254   1.679
 3027SOL     OW 9622   2.092   1.434   0.538
 3027SOL    HW1 9623   2.066   1.530   0.538
 3027SOL    HW2 9624   2.021   1.380   0.583
 3028SOL     OW 9625   2.102   1.091   0.886
 3028SOL    HW1 9626   2.116   1.007   0.938
 3028SOL    HW2 9627   2.047   1.155   0.941
 3029SOL     OW 9628   2.482   1.786   1.439
 3029SOL    HW1 9629   2.390   1.769   1.474
 3029SOL    HW2 9630   2.510   1.878   1.465
 3030SOL     OW 9631   2.468   0.964   0.123
 3030SOL    HW1 9632   2.475   1.048   0.069
 3030SOL    HW2 9633   2.514   0.977   0.211
 3031SOL     OW 9634   3.456   0.114   1.480
 3031SOL    HW1 9635   3.438   0.181   1.408
 3031SOL    HW2 9636   3.453   0.160   1.569
 3032SOL     OW 9637   1.984   0.643   0.563
 3032SOL    HW1 9638   1.939   0.555   0.580
 3032SOL    HW2 9639   1.983   0.697   0.647
 3033SOL     OW 9640   3.704   1.767   0.359
 3033SOL    HW1 9641   3.758   1.738   0.439
 3033SOL    HW2 9642   3.734   1.857   0.330
 3034SOL     OW 9643   1.889   1.596   0.117
 3034SOL    HW1 9644   1.870   1.500   0.138
 3034SOL    HW2 9645   1.856   1.654   0.192
 3035SOL     OW 9646   3.551   0.922   0.612
 3035SOL    HW1 9647   3.646   0.893   0.620
 3035SOL    HW2 9648   3.543   0.987   0.537
 3036SOL     OW 9649   3.503   1.108   0.432
 3036SOL    HW1 9650   3.589   1.110   0.380
 3036SOL    HW2 9651   3.517   1.155   0.520
 3037SOL     OW 9652   1.975   0.737   1.597
 3037SOL    HW1 9653   2.063   0.724   1.642
 3037SOL    HW2 9654   1.962   0.834   1.575
 3038SOL     OW 9655   2.475   1.365   0.726
 3038SOL    HW1 9656   2.426   1.278   0.735
 3038SOL    HW2 9657   2.452   1.408   0.639
 3039SOL     OW 9658   3.155   1.228   1.423
 3039SOL    HW1 9659   3.192   1.155   1.365
 3039SOL    HW2 9660   3.207   1.233   1.508
 3040SOL     OW 9661   2.671   0.004   0.502
 3040SOL    HW1 9662   2.711   0.095   0.493
 3040SOL    HW2 9663   2.571   0.012   0.508
 3041SOL     OW 9664   2.059   0.976   1.264
 3041SOL    HW1 9665   2.148   0.931   1.250
 3041SOL    HW2 9666   1.986   0.911   1.245
 3042SOL     OW 9667   3.387   0.999   0.190
 3042SOL    HW1 9668   3.324   0.923   0.203
 3042SOL    HW2 9669   3.435   1.017   0.276
 3043SOL     OW 9670   3.049   1.792   1.616
 3043SOL    HW1 9671   3.073   1.852   1.540
 3043SOL    HW2 9672   3.056   1.697   1.586
 3044SOL     OW 9673   2.179   0.251   1.801
 3044SOL    HW1 9674   2.250   0.322   1.807
 3044SOL    HW2 9675   2.091   0.290   1.829
 3045SOL     OW 9676   3.328   1.417   0.953
 3045SOL    HW1 9677   3.269   1.423   1.033
 3045SOL    HW2 9678   3.313   1.329   0.907
 3046SOL     OW 9679   3.529   1.714   0.572
 3046SOL    HW1 9680   3.488   1.691   0.484
 3046SOL    HW2 9681   3.511   1.640   0.637
 3047SOL     OW 9682   2.460   0.729   0.270
 3047SOL    HW1 9683   2.484   0.798   0.202
 3047SOL    HW2 9684   2.382   0.762   0.324
 3048SOL     OW 9685   3.143   0.345   0.944
 3048SOL    HW1 9686   3.057   0.295   0.931
 3048SOL    HW2 9687   3.205   0.291   1.000
 3049SOL     OW 9688   3.438   1.662   0.307
 3049SOL    HW1 9689   3.527   1.708   0.310
 3049SOL    HW2 9690   3.417   1.638   0.212
 3050SOL     OW 9691   2.669   0.605   1.465
 3050SOL    HW1 9692   2.622   0.602   1.554
 3050SOL    HW2 9693   2.618   0.550   1.399
 3051SOL     OW 9694   3.256   0.469   1.674
 3051SOL    HW1 9695   3.236   0.512   1.762
 3051SOL    HW2 9696   3.334   0.407   1.683
 3052SOL     OW 9697   2.835   0.890   1.572
 3052SOL    HW1 9698   2.881   0.806   1.543
 3052SOL    HW2 9699   2.779   0.924   1.497
 3053SOL     OW 9700   2.853   0.410   1.242
 3053SOL    HW1 9701   2.776   0.444   1.296
 3053SOL    HW2 9702   2.819   0.359   1.163
 3054SOL     OW 9703   2.903   0.701   0.429
 3054SOL    HW1 9704   2.929   0.697   0.525
 3054SOL    HW2 9705   2.818   0.650   0.415
 3055SOL     OW 9706   1.938   0.811   0.789
 3055SOL    HW1 9707   2.037   0.799   0.798
 3055SOL    HW2 9708   1.914   0.906   0.810
 3056SOL     OW 9709   1.992   1.821   1.571
 3056SOL    HW1 9710   1.982   1.806   1.670
 3056SOL    HW2 9711   1.906   1.857   1.535
 3057SOL     OW 9712   2.727   0.348   0.195
 3057SOL    HW1 9713   2.786   0.411   0.146
 3057SOL    HW2 9714   2.746   0.254   0.166
 3058SOL     OW 9715   3.581   0.585   1.831
 3058SOL    HW1 9716   3.555   0.674   1.795
 3058SOL    HW2 9717   3.579   0.517   1.758
 3059SOL     OW 9718   3.224   1.144   0.545
 3059SOL    HW1 9719   3.307   1.115   0.497
 3059SOL    HW2 9720   3.175   1.211   0.489
 3060SOL     OW 9721   2.412   0.196   0.885
 3060SOL    HW1 9722   2.407   0.191   0.985
 3060SOL    HW2 9723   2.414   0.292   0.856
 3061SOL     OW 9724   2.870   1.456   0.477
 3061SOL    HW1 9725   2.824   1.528   0.425
 3061SOL    HW2 9726   2.866   1.476   0.575
 3062SOL     OW 9727   2.213   1.801   0.853
 3062SOL    HW1 9728   2.263   1.715   0.859
 3062SOL    HW2 9729   2.278   1.878   0.850
 3063SOL     OW 9730   3.657   1.066   0.873
 3063SOL    HW1 9731   3.595   1.051   0.797
 3063SOL    HW2 9732   3.605   1.077   0.958
 3064SOL     OW 9733   3.089   1.550   1.506
 3064SOL    HW1 9734   3.095   1.473   1.570
 3064SOL    HW2 9735   3.037   1.524   1.426
 3065SOL     OW 9736   2.183   0.943   0.242
 3065SOL    HW1 9737   2.265   0.982   0.200
 3065SOL    HW2 9738   2.156   0.861   0.193
 3066SOL     OW 9739   3.320   0.735   0.728
 3066SOL    HW1 9740   3.315   0.670   0.803
 3066SOL    HW2 9741   3.400   0.794   0.741
 3067SOL     OW 9742   2.323   1.266   1.727
 3067SOL    HW1 9743   2.273   1.267   1.641
 3067SOL    HW2 9744   2.260   1.248   1.803
 3068SOL     OW 9745   2.973   1.776   0.237
 3068SOL    HW1 9746   2.913   1.714   0.287
 3068SOL    HW2 9747   3.004   1.732   0.152
 3069SOL     OW 9748   2.064   0.285   1.498
 3069SOL    HW1 9749   1.984   0.345   1.485
 3069SOL    HW2 9750   2.054   0.236   1.584
 3070SOL     OW 9751   3.494   1.377   0.081
 3070SOL    HW1 9752   3.462   1.471   0.071
 3070SOL    HW2 9753   3.418   1.314   0.069
 3071SOL     OW 9754   2.326   1.743   0.323
 3071SOL    HW1 9755   2.359   1.782   0.409
 3071SOL    HW2 9756   2.402   1.736   0.258
 3072SOL     OW 9757   3.262   0.107   0.426
 3072SOL    HW1 9758   3.238   0.070   0.336
 3072SOL    HW2 9759   3.361   0.123   0.430
 3073SOL     OW 9760   2.111   1.785   1.241
 3073SOL    HW1 9761   2.168   1.720   1.291
 3073SOL    HW2 9762   2.095   1.752   1.148
 3074SOL     OW 9763   2.802   1.698   0.904
 3074SOL    HW1 9764   2.882   1.641   0.925
 3074SOL    HW2 9765   2.753   1.658   0.827
 3075SOL     OW 9766   2.244   0.700   0.480
 3075SOL    HW1 9767   2.289   0.610   0.477
 3075SOL    HW2 9768   2.150   0.689   0.513
 3076SOL     OW 9769   3.409   0.222   1.729
 3076SOL    HW1 9770   3.404   0.259   1.821
 3076SOL    HW2 9771   3.337   0.153   1.717
 3077SOL     OW 9772   2.476   0.122   0.117
 3077SOL    HW1 9773   2.574   0.100   0.124
 3077SOL    HW2 9774   2.445   0.105   0.024
 3078SOL     OW 9775   2.643   0.264   1.749
 3078SOL    HW1 9776   2.710   0.203   1.792
 3078SOL    HW2 9777   2.570   0.283   1.814
 3079SOL     OW 9778   2.750   1.514   1.195
 3079SOL    HW1 9779   2.727   1.489   1.101
 3079SOL    HW2 9780   2.811   1.445   1.234
 3080SOL     OW 9781   3.213   0.590   1.433
 3080SOL    HW1 9782   3.241   0.547   1.518
 3080SOL    HW2 9783   3.238   0.686   1.434
 3081SOL     OW 9784   2.665   1.402   0.924
 3081SOL    HW1 9785   2.755   1.416   0.882
 3081SOL    HW2 9786   2.594   1.404   0.853
 3082SOL     OW 9787   2.784   0.503   0.899
 3082SOL    HW1 9788   2.759   0.494   0.803
 3082SOL    HW2 9789   2.832   0.421   0.930
 3083SOL     OW 9790   2.401   0.064   0.512
 3083SOL    HW1 9791   2.320   0.065   0.570
 3083SOL    HW2 9792   2.404   0.147   0.457
 3084SOL     OW 9793   3.296   1.188   0.041
 3084SOL    HW1 9794   3.328   1.112   0.098
 3084SOL    HW2 9795   3.204   1.215   0.071
 3085SOL     OW 9796   2.159   0.035   0.171
 3085SOL    HW1 9797   2.208   0.119   0.150
 3085SOL    HW2 9798   2.221  -0.030   0.216
 3086SOL     OW 9799   2.797   0.236   0.480
 3086SOL    HW1 9800   2.749   0.277   0.402
 3086SOL    HW2 9801   2.896   0.234   0.461
 3087SOL     OW 9802   2.938   0.683   1.464
 3087SOL    HW1 9803   2.858   0.622   1.467
 3087SOL    HW2 9804   3.019   0.630   1.440
 3088SOL     OW 9805   3.089   1.570   0.793
 3088SOL    HW1 9806   3.110   1.644   0.728
 3088SOL    HW2 9807   3.157   1.570   0.866
 3089SOL     OW 9808   2.321   1.152   0.741
 3089SOL    HW1 9809   2.250   1.125   0.806
 3089SOL    HW2 9810   2.295   1.124   0.648
 3090SOL     OW 9811   3.133   1.797   0.591
 3090SOL    HW1 9812   3.177   1.861   0.527
 3090SOL    HW2 9813   3.083   1.849   0.661
 3091SOL     OW 9814   2.894   0.549   0.016
 3091SOL    HW1 9815   2.853   0.631  -0.023
 3091SOL    HW2 9816   2.958   0.575   0.089
 3092SOL     OW 9817   1.940   0.556   1.386
 3092SOL    HW1 9818   2.032   0.555   1.345
 3092SOL    HW2 9819   1.934   0.630   1.453
 3093SOL     OW 9820   2.423   0.222   1.147
 3093SOL    HW1 9821   2.461   0.138   1.184
 3093SOL    HW2 9822   2.335   0.241   1.191
 3094SOL     OW 9823   2.728   0.454   0.642
 3094SOL    HW1 9824   2.696   0.526   0.580
 3094SOL    HW2 9825   2.752   0.373   0.589
 3095SOL     OW 9826   2.879   0.039   0.753
 3095SOL    HW1 9827   2.807   0.044   0.684
 3095SOL    HW2 9828   2.855  -0.030   0.822
 3096SOL     OW 9829   3.291   1.173   0.867
 3096SOL    HW1 9830   3.236   1.089   0.860
 3096SOL    HW2 9831   3.317   1.202   0.775
 3097SOL     OW 9832   3.328   0.590   0.992
 3097SOL    HW1 9833   3.298   0.495   0.999
 3097SOL    HW2 9834   3.401   0.606   1.058
 3098SOL     OW 9835   3.719   0.833   0.377
 3098SOL    HW1 9836   3.761   0.769   0.441
 3098SOL    HW2 9837   3.681   0.782   0.299
 3099SOL     OW 9838   2.350   1.385   0.174
 3099SOL    HW1 9839   2.263   1.370   0.221
 3099SOL    HW2 9840   2.333   1.411   0.079
 3100SOL     OW 9841   3.526   1.280   0.657
 3100SOL    HW1 9842   3.625   1.288   0.671
 3100SOL    HW2 9843   3.481   1.364   0.688
 3101SOL     OW 9844   3.252   0.575   0.078
 3101SOL    HW1 9845   3.198   0.554   0.159
 3101SOL    HW2 9846   3.343   0.534   0.087
 3102SOL     OW 9847   2.389   0.256   0.328
 3102SOL    HW1 9848   2.416   0.197   0.253
 3102SOL    HW2 9849   2.389   0.351   0.297
 3103SOL     OW 9850   3.616   1.223   1.588
 3103SOL    HW1 9851   3.707   1.184   1.575
 3103SOL    HW2 9852   3.624   1.319   1.612
 3104SOL     OW 9853   2.926   1.347   1.340
 3104SOL    HW1 9854   2.846   1.324   1.395
 3104SOL    HW2 9855   3.009   1.321   1.389
 3105SOL     OW 9856   3.454   1.629   1.625
 3105SOL    HW1 9857   3.481   1.663   1.535
 3105SOL    HW2 9858   3.533   1.591   1.671
 3106SOL     OW 9859   2.973   1.195   1.100
 3106SOL    HW1 9860   2.933   1.239   1.181
 3106SOL    HW2 9861   2.932   1.232   1.017
 3107SOL     OW 9862   3.500   1.099   1.079
 3107SOL    HW1 9863   3.505   1.180   1.138
 3107SOL    HW2 9864   3.414   1.101   1.028
 3108SOL     OW 9865   2.777   0.089   1.402
 3108SOL    HW1 9866   2.802   0.069   1.307
 3108SOL    HW2 9867   2.849   0.145   1.444
 3109SOL     OW 9868   2.842   1.116   1.719
 3109SOL    HW1 9869   2.743   1.122   1.729
 3109SOL    HW2 9870   2.865   1.036   1.663
 3110SOL     OW 9871   2.567   1.050   0.368
 3110SOL    HW1 9872   2.553   1.057   0.467
 3110SOL    HW2 9873   2.651   0.999   0.350
 3111SOL     OW 9874   2.272   0.813   1.251
 3111SOL    HW1 9875   2.358   0.825   1.301
 3111SOL    HW2 9876   2.230   0.726   1.278
 3112SOL     OW 9877   3.136   0.386   1.262
 3112SOL    HW1 9878   3.157   0.460   1.326
 3112SOL    HW2 9879   3.047   0.403   1.219
 3113SOL     OW 9880   1.926   1.564   1.331
 3113SOL    HW1 9881   1.880   1.646   1.297
 3113SOL    HW2 9882   2.024   1.583   1.340
 3114SOL     OW 9883   2.229   1.100   0.501
 3114SOL    HW1 9884   2.222   1.183   0.445
 3114SOL    HW2 9885   2.233   1.020   0.441
 3115SOL     OW 9886   2.428   0.537   0.865
 3115SOL    HW1 9887   2.440   0.603   0.791
 3115SOL    HW2 9888   2.474   0.571   0.948
 3116SOL     OW 9889   3.114   1.348   0.388
 3116SOL    HW1 9890   3.164   1.425   0.428
 3116SOL    HW2 9891   3.019   1.350   0.420
 3117SOL     OW 9892   3.134   1.445   1.142
 3117SOL    HW1 9893   3.181   1.458   1.229
 3117SOL    HW2 9894   3.068   1.371   1.151
 3118SOL     OW 9895   3.444   0.639   0.472
 3118SOL    HW1 9896   3.413   0.700   0.545
 3118SOL    HW2 9897   3.494   0.691   0.403
 3119SOL     OW 9898   2.216   1.510   1.329
 3119SOL    HW1 9899   2.195   1.466   1.242
 3119SOL    HW2 9900   2.313   1.536   1.332
 3120SOL     OW 9901   2.264   0.751   1.598
 3120SOL    HW1 9902   2.332   0.806   1.551
 3120SOL    HW2 9903   2.304   0.663   1.625
 3121SOL     OW 9904   3.449   0.779   1.670
 3121SOL    HW1 9905   3.357   0.817   1.665
 3121SOL    HW2 9906   3.509   0.826   1.605
 3122SOL     OW 9907   2.875   0.105   1.770
 3122SOL    HW1 9908   2.881   0.190   1.718
 3122SOL    HW2 9909   2.907   0.029   1.713
 3123SOL     OW 9910   2.366   0.050   1.740
 3123SOL    HW1 9911   2.324  -0.007   1.670
 3123SOL    HW2 9912   2.300   0.119   1.772
 3124SOL     OW 9913   2.435   0.870   1.029
 3124SOL    HW1 9914   2.479   0.959   1.020
 3124SOL    HW2 9915   2.372   0.870   1.106
 3125SOL     OW 9916   3.222   0.862   1.045
 3125SOL    HW1 9917   3.147   0.862   0.979
 3125SOL    HW2 9918   3.259   0.770   1.054
 3126SOL     OW 9919   3.071   0.525   0.275
 3126SOL    HW1 9920   3.084   0.441   0.329
 3126SOL    HW2 9921   3.042   0.599   0.335
 3127SOL     OW 9922   2.169   0.213   1.231
 3127SOL    HW1 9923   2.146   0.250   1.321
 3127SOL    HW2 9924   2.139   0.118   1.225
 3128SOL     OW 9925   1.899   1.310   1.282
 3128SOL    HW1 9926   1.952   1.261   1.350
 3128SOL    HW2 9927   1.921   1.408   1.287
 3129SOL     OW 9928   2.594   0.634   1.064
 3129SOL    HW1 9929   2.653   0.608   0.988
 3129SOL    HW2 9930   2.566   0.730   1.053
 3130SOL     OW 9931   3.590   0.935   1.854
 3130SOL    HW1 9932   3.544   0.928   1.765
 3130SOL    HW2 9933   3.528   0.979   1.920
 3131SOL     OW 9934   2.169   0.063   0.618
 3131SOL    HW1 9935   2.158   0.157   0.651
 3131SOL    HW2 9936   2.164   0.000   0.695
 3132SOL     OW 9937   3.484   0.367   0.374
 3132SOL    HW1 9938   3.486   0.291   0.438
 3132SOL    HW2 9939   3.436   0.444   0.414
 3133SOL     OW 9940   2.885   0.766   0.966
 3133SOL    HW1 9941   2.900   0.787   1.062
 3133SOL    HW2 9942   2.855   0.671   0.957
 3134SOL     OW 9943   2.842   1.573   1.700
 3134SOL    HW1 9944   2.822   1.617   1.612
 3134SOL    HW2 9945   2.881   1.482   1.684
 3135SOL     OW 9946   3.721   1.518   1.605
 3135SOL    HW1 9947   3.735   1.545   1.510
 3135SOL    HW2 9948   3.804   1.540   1.658
 3136SOL     OW 9949   2.212   0.898   1.804
 3136SOL    HW1 9950   2.288   0.942   1.852
 3136SOL    HW2 9951   2.247   0.851   1.722
 3137SOL     OW 9952   3.402   0.274   0.125
 3137SOL    HW1 9953   3.341   0.199   0.148
 3137SOL    HW2 9954   3.424   0.326   0.208
 3138SOL     OW 9955   3.165   0.838   0.042
 3138SOL    HW1 9956   3.199   0.745   0.057
 3138SOL    HW2 9957   3.183   0.865  -0.053
 3139SOL     OW 9958   2.930   1.333   0.849
 3139SOL    HW1 9959   2.937   1.249   0.794
 3139SOL    HW2 9960   2.992   1.402   0.813
 3140SOL     OW 9961   2.181   0.810   0.949
 3140SOL    HW1 9962   2.274   0.846   0.954
 3140SOL    HW2 9963   2.175   0.725   1.001
 3141SOL     OW 9964   2.201   0.509   1.006
 3141SOL    HW1 9965   2.149   0.426   0.989
 3141SOL    HW2 9966   2.278   0.514   0.942
 3142SOL     OW 9967   3.000   0.380   1.678
 3142SOL    HW1 9968   2.955   0.443   1.742
 3142SOL    HW2 9969   3.093   0.411   1.661
 3143SOL     OW 9970   3.022   0.207   1.477
 3143SOL    HW1 9971   3.022   0.271   1.554
 3143SOL    HW2 9972   3.050   0.255   1.394
 3144SOL     OW 9973   1.870   1.326   0.200
 3144SOL    HW1 9974   1.777   1.347   0.169
 3144SOL    HW2 9975   1.880   1.227   0.213
 3145SOL     OW 9976   1.950   1.801   0.927
 3145SOL    HW1 9977   1.908   1.715   0.900
 3145SOL    HW2 9978   2.044   1.804   0.893
 3146SOL     OW 9979   2.366   1.568   0.910
 3146SOL    HW1 9980   2.432   1.642   0.919
 3146SOL    HW2 9981   2.410   1.489   0.868
 3147SOL     OW 9982   2.864   0.796   1.238
 3147SOL    HW1 9983   2.905   0.764   1.324
 3147SOL    HW2 9984   2.768   0.769   1.235
 3148SOL     OW 9985   1.902   0.544   1.114
 3148SOL    HW1 9986   1.987   0.511   1.073
 3148SOL    HW2 9987   1.915   0.559   1.212
 3149SOL     OW 9988   2.051   0.520   1.722
 3149SOL    HW1 9989   2.110   0.480   1.652
 3149SOL    HW2 9990   1.993   0.591   1.681
 3150SOL     OW 9991   3.231   0.950   1.660
 3150SOL    HW1 9992   3.270   1.039   1.680
 3150SOL    HW2 9993   3.241   0.930   1.563
 3151SOL     OW 9994   2.677   0.572   0.325
 3151SOL    HW1 9995   2.684   0.483   0.279
 3151SOL    HW2 9996   2.583   0.606   0.317
 3152SOL     OW 9997   3.519   0.604   1.206
 3152SOL    HW1 9998   3.481   0.535   1.268
 3152SOL    HW2 9999   3.601   0.568   1.162
 3153SOL     OW10000   2.114   1.564   1.744
 3153SOL    HW110001   2.084   1.621   1.820
 3153SOL    HW210002   2.107   1.467   1.770
 3154SOL     OW10003   2.533   0.464   1.269
 3154SOL    HW110004   2.499   0.375   1.239
 3154SOL    HW210005   2.559   0.518   1.189
 3155SOL     OW10006   2.792   1.678   1.465
 3155SOL    HW110007   2.768   1.660   1.370
 3155SOL    HW210008   2.822   1.772   1.475
 3156SOL     OW10009   2.335   0.500   0.191
 3156SOL    HW110010   2.396   0.580   0.195
 3156SOL    HW210011   2.240   0.531   0.198
 3157SOL     OW10012   2.021   1.137   1.466
 3157SOL    HW110013   2.043   1.076   1.542
 3157SOL    HW210014   2.031   1.088   1.380
 3158SOL     OW10015   3.209   1.059   1.234
 3158SOL    HW110016   3.233   0.996   1.160
 3158SOL    HW210017   3.119   1.099   1.216
 3159SOL     OW10018   3.164   0.855   0.309
 3159SOL    HW110019   3.078   0.824   0.351
 3159SOL    HW210020   3.160   0.841   0.210
 3160SOL     OW10021   3.621   1.747   1.154
 3160SOL    HW110022   3.682   1.777   1.081
 3160SOL    HW210023   3.583   1.658   1.132
 3161SOL     OW10024   3.114   1.731   1.128
 3161SOL    HW110025   3.198   1.736   1.074
 3161SOL    HW210026   3.091   1.635   1.146
 3162SOL     OW10027   1.945   1.258   1.022
 3162SOL    HW110028   1.940   1.257   1.122
 3162SOL    HW210029   1.862   1.217   0.984
 3163SOL     OW10030   2.550   1.662   1.716
 3163SOL    HW110031   2.494   1.743   1.725
 3163SOL    HW210032   2.602   1.666   1.630
 3164SOL     OW10033   2.765   0.086   0.133
 3164SOL    HW110034   2.816   0.087   0.047
 3164SOL    HW210035   2.821   0.044   0.204
 3165SOL     OW10036   3.588   0.135   0.523
 3165SOL    HW110037   3.661   0.118   0.456
 3165SOL    HW210038   3.557   0.048   0.561
 3166SOL     OW10039   3.250   1.573   0.477
 3166SOL    HW110040   3.317   1.585   0.403
 3166SOL    HW210041   3.210   1.662   0.500
 3167SOL     OW10042   1.992   1.794   1.851
 3167SOL    HW110043   1.951   1.720   1.904
 3167SOL    HW210044   2.056   1.845   1.909
 3168SOL     OW10045   3.142   0.927   0.672
 3168SOL    HW110046   3.202   0.846   0.674
 3168SOL    HW210047   3.182   0.996   0.612
 3169SOL     OW10048   2.692   1.273   1.422
 3169SOL    HW110049   2.687   1.306   1.517
 3169SOL    HW210050   2.606   1.292   1.376
 3170SOL     OW10051   2.534   1.616   0.154
 3170SOL    HW110052   2.543   1.626   0.055
 3170SOL    HW210053   2.494   1.527   0.175
 3171SOL     OW10054   3.512   1.720   1.394
 3171SOL    HW110055   3.565   1.730   1.310
 3171SOL    HW210056   3.485   1.810   1.428
 3172SOL     OW10057   3.703   0.175   0.963
 3172SOL    HW110058   3.742   0.090   0.927
 3172SOL    HW210059   3.605   0.177   0.944
 3173SOL     OW10060   2.125   0.326   0.720
 3173SOL    HW110061   2.046   0.377   0.686
 3173SOL    HW210062   2.116   0.311   0.818
 3174SOL     OW10063   3.056   1.612   0.031
 3174SOL    HW110064   3.062   1.519   0.068
 3174SOL    HW210065   2.997   1.612  -0.049
 3175SOL     OW10066   2.684   1.002   1.372
 3175SOL    HW110067   2.724   1.001   1.280
 3175SOL    HW210068   2.694   1.094   1.412
 3176SOL     OW10069   2.778   0.910   0.291
 3176SOL    HW110070   2.841   0.948   0.223
 3176SOL    HW210071   2.818   0.827   0.330
 3177SOL     OW10072   3.366   1.607   0.044
 3177SOL    HW110073   3.274   1.644   0.051
 3177SOL    HW210074   3.404   1.627  -0.046
 3178SOL     OW10075   2.234   1.288   1.490
 3178SOL    HW110076   2.221   1.381   1.456
 3178SOL    HW210077   2.150   1.236   1.477
 3179SOL     OW10078   3.476   1.292   1.289
 3179SOL    HW110079   3.536   1.295   1.369
 3179SOL    HW210080   3.401   1.356   1.302
 3180SOL     OW10081   2.901   1.098   0.696
 3180SOL    HW110082   2.831   1.051   0.750
 3180SOL    HW210083   2.960   1.030   0.653
 3181SOL     OW10084   2.876   0.236   0.971
 3181SOL    HW110085   2.868   0.200   0.878
 3181SOL    HW210086   2.874   0.160   1.036
 3182SOL     OW10087   2.452   1.487   0.491
 3182SOL    HW110088   2.494   1.429   0.421
 3182SOL    HW210089   2.408   1.566   0.447
 3183SOL     OW10090   3.571   0.385   1.381
 3183SOL    HW110091   3.644   0.454   1.385
 3183SOL    HW210092   3.599   0.310   1.322
 3184SOL     OW10093   2.117   1.348   0.290
 3184SOL    HW110094   2.021   1.349   0.263
 3184SOL    HW210095   2.129   1.401   0.374
 3185SOL     OW10096   1.967   1.013   1.726
 3185SOL    HW110097   1.890   0.980   1.780
 3185SOL    HW210098   2.052   0.983   1.768
 3186SOL     OW10099   2.534   0.203   1.489
 3186SOL    HW110100   2.624   0.187   1.449
 3186SOL    HW210101   2.542   0.208   1.588
 3187SOL     OW10102   1.937   0.345   0.033
 3187SOL    HW110103   1.845   0.317   0.004
 3187SOL    HW210104   1.968   0.422  -0.023
 3188SOL     OW10105   3.302   0.856   1.398
 3188SOL    HW110106   3.245   0.908   1.335
 3188SOL    HW210107   3.398   0.868   1.374
 3189SOL     OW10108   1.934   0.166   0.318
 3189SOL    HW110109   1.917   0.249   0.264
 3189SOL    HW210110   2.024   0.129   0.296
 3190SOL     OW10111   3.045   1.335   0.119
 3190SOL    HW110112   2.946   1.324   0.121
 3190SOL    HW210113   3.079   1.350   0.212
 3191SOL     OW10114   2.475   0.842   1.431
 3191SOL    HW110115   2.531   0.923   1.414
 3191SOL    HW210116   2.534   0.762   1.434
 3192SOL     OW10117   3.355   1.767   0.959
 3192SOL    HW110118   3.388   1.831   0.890
 3192SOL    HW210119   3.421   1.761   1.034
 3193SOL     OW10120   2.578   0.565   1.708
 3193SOL    HW110121   2.597   0.630   1.782
 3193SOL    HW210122   2.638   0.485   1.717
 3194SOL     OW10123   3.312   1.220   1.633
 3194SOL    HW110124   3.303   1.210   1.732
 3194SOL    HW210125   3.408   1.213   1.607
 3195SOL     OW10126   2.252   1.741   1.560
 3195SOL    HW110127   2.161   1.782   1.558
 3195SOL    HW210128   2.245   1.647   1.592
 3196SOL     OW10129   3.536   0.883   1.254
 3196SOL    HW110130   3.509   0.794   1.217
 3196SOL    HW210131   3.537   0.951   1.181
 3197SOL     OW10132   3.087   0.325   0.449
 3197SOL    HW110133   3.152   0.251   0.438
 3197SOL    HW210134   3.107   0.375   0.533
 3198SOL     OW10135   2.456   0.745   0.652
 3198SOL    HW110136   2.506   0.830   0.633
 3198SOL    HW210137   2.368   0.747   0.604
 3199SOL     OW10138   3.639   0.342   1.642
 3199SOL    HW110139   3.622   0.373   1.548
 3199SOL    HW210140   3.555   0.305   1.680
 3200SOL     OW10141   3.592   0.934   1.517
 3200SOL    HW110142   3.630   1.025   1.532
 3200SOL    HW210143   3.584   0.917   1.418
 3201SOL     OW10144   2.721   1.374   0.016
 3201SOL    HW110145   2.675   1.389   0.104
 3201SOL    HW210146   2.765   1.459  -0.014
 3202SOL     OW10147   2.523   1.790   0.953
 3202SOL    HW110148   2.477   1.878   0.940
 3202SOL    HW210149   2.622   1.802   0.946
 3203SOL     OW10150   2.721   0.956   0.861
 3203SOL    HW110151   2.775   0.887   0.909
 3203SOL    HW210152   2.689   1.025   0.927
 3204SOL     OW10153   2.945   0.984   0.087
 3204SOL    HW110154   2.922   1.037   0.005
 3204SOL    HW210155   3.026   0.928   0.068
 3205SOL     OW10156   3.723   1.569   0.851
 3205SOL    HW110157   3.652   1.557   0.781
 3205SOL    HW210158   3.724   1.490   0.911
 3206SOL     OW10159   2.083   1.314   1.844
 3206SOL    HW110160   2.018   1.241   1.823
 3206SOL    HW210161   2.087   1.328   1.942
 3207SOL     OW10162   1.941   1.240   0.653
 3207SOL    HW110163   1.940   1.193   0.741
 3207SOL    HW210164   2.023   1.212   0.602
 3208SOL     OW10165   2.534   1.391   1.624
 3208SOL    HW110166   2.456   1.341   1.662
 3208SOL    HW210167   2.531   1.486   1.655
 3209SOL     OW10168   3.686   0.192   1.227
 3209SOL    HW110169   3.682   0.102   1.271
 3209SOL    HW210170   3.689   0.181   1.128
 3210SOL     OW10171   2.290   0.424   0.520
 3210SOL    HW110172   2.320   0.352   0.458
 3210SOL    HW210173   2.251   0.384   0.603
 3211SOL     OW10174   3.567   1.487   1.104
 3211SOL    HW110175   3.474   1.462   1.077
 3211SOL    HW210176   3.593   1.437   1.186
 3212SOL     OW10177   2.179   0.547   1.280
 3212SOL    HW110178   2.217   0.488   1.352
 3212SOL    HW210179   2.219   0.521   1.192
 3213SOL     OW10180   2.674   1.586   0.687
 3213SOL    HW110181   2.706   1.596   0.593
 3213SOL    HW210182   2.595   1.524   0.689
 3214SOL     OW10183   3.286   0.214   1.112
 3214SOL    HW110184   3.338   0.149   1.167
 3214SOL    HW210185   3.237   0.277   1.173
 3215SOL     OW10186   2.863   0.034   1.154
 3215SOL    HW110187   2.800  -0.038   1.123
 3215SOL    HW210188   2.956  -0.002   1.154
 3216SOL     OW10189   2.632   1.330   0.301
 3216SOL    HW110190   2.586   1.243   0.318
 3216SOL    HW210191   2.723   1.327   0.342
 3217SOL     OW10192   2.480   1.567   1.284
 3217SOL    HW110193   2.475   1.649   1.341
 3217SOL    HW210194   2.569   1.564   1.239
 3218SOL     OW10195   3.214   0.052   0.168
 3218SOL    HW110196   3.249   0.011   0.084
 3218SOL    HW210197   3.124   0.014   0.188
 3219SOL     OW10198   3.162   0.453   0.691
 3219SOL    HW110199   3.103   0.533   0.695
 3219SOL    HW210200   3.177   0.418   0.784
 3220SOL     OW10201   3.455   0.221   0.882
 3220SOL    HW110202   3.371   0.220   0.936
 3220SOL    HW210203   3.457   0.304   0.826
 3221SOL     OW10204   1.901   1.077   0.300
 3221SOL    HW110205   2.000   1.066   0.291
 3221SOL    HW210206   1.861   0.991   0.332
 3222SOL     OW10207   2.737   1.646   0.337
 3222SOL    HW110208   2.660   1.611   0.283
 3222SOL    HW210209   2.705   1.717   0.399
 3223SOL     OW10210   2.092   0.628   1.975
 3223SOL    HW110211   1.999   0.626   2.012
 3223SOL    HW210212   2.093   0.589   1.883
 3224SOL     OW10213   2.087   0.275   2.858
 3224SOL    HW110214   2.122   0.258   2.950
 3224SOL    HW210215   1.999   0.230   2.846
 3225SOL     OW10216   1.881   0.368   2.509
 3225SOL    HW110217   1.799   0.411   2.548
 3225SOL    HW210218   1.853   0.295   2.446
 3226SOL     OW10219   2.431   1.275   3.027
 3226SOL    HW110220   2.338   1.268   2.990
 3226SOL    HW210221   2.442   1.364   3.071
 3227SOL     OW10222   3.417   1.511   2.565
 3227SOL    HW110223   3.360   1.495   2.646
 3227SOL    HW210224   3.358   1.521   2.485
 3228SOL     OW10225   2.997   0.703   2.579
 3228SOL    HW110226   3.054   0.781   2.554
 3228SOL    HW210227   2.937   0.729   2.655
 3229SOL     OW10228   3.617   0.607   2.093
 3229SOL    HW110229   3.605   0.594   1.994
 3229SOL    HW210230   3.587   0.526   2.142
 3230SOL     OW10231   2.630   1.144   2.885
 3230SOL    HW110232   2.552   1.161   2.945
 3230SOL    HW210233   2.664   1.231   2.849
 3231SOL     OW10234   2.712   0.798   3.685
 3231SOL    HW110235   2.708   0.874   3.750
 3231SOL    HW210236   2.734   0.834   3.594
 3232SOL     OW10237   2.547   1.012   2.527
 3232SOL    HW110238   2.616   0.996   2.597
 3232SOL    HW210239   2.474   1.069   2.565
 3233SOL     OW10240   2.548   1.161   3.665
 3233SOL    HW110241   2.608   1.240   3.679
 3233SOL    HW210242   2.462   1.192   3.624
 3234SOL     OW10243   2.197   1.435   2.923
 3234SOL    HW110244   2.119   1.404   2.870
 3234SOL    HW210245   2.255   1.493   2.866
 3235SOL     OW10246   3.322   1.505   3.201
 3235SOL    HW110247   3.346   1.599   3.227
 3235SOL    HW210248   3.306   1.451   3.283
 3236SOL     OW10249   2.300   0.392   3.361
 3236SOL    HW110250   2.382   0.336   3.370
 3236SOL    HW210251   2.219   0.334   3.365
 3237SOL     OW10252   3.465   0.447   2.599
 3237SOL    HW110253   3.391   0.493   2.549
 3237SOL    HW210254   3.516   0.515   2.652
 3238SOL     OW10255   2.093   1.713   2.345
 3238SOL    HW110256   2.127   1.790   2.399
 3238SOL    HW210257   2.137   1.713   2.255
 3239SOL     OW10258   2.989   1.341   3.552
 3239SOL    HW110259   3.036   1.341   3.640
 3239SOL    HW210260   2.941   1.254   3.541
 3240SOL     OW10261   2.092   1.434   2.400
 3240SOL    HW110262   2.066   1.530   2.400
 3240SOL    HW210263   2.021   1.380   2.445
 3241SOL     OW10264   2.102   1.091   2.748
 3241SOL    HW110265   2.116   1.007   2.800
 3241SOL    HW210266   2.047   1.155   2.803
 3242SOL     OW10267   2.482   1.786   3.301
 3242SOL    HW110268   2.390   1.769   3.336
 3242SOL    HW210269   2.510   1.878   3.327
 3243SOL     OW10270   2.468   0.964   1.985
 3243SOL    HW110271   2.475   1.048   1.931
 3243SOL    HW210272   2.514   0.977   2.073
 3244SOL     OW10273   3.456   0.114   3.342
 3244SOL    HW110274   3.438   0.181   3.270
 3244SOL    HW210275   3.453   0.160   3.431
 3245SOL     OW10276   1.984   0.643   2.425
 3245SOL    HW110277   1.939   0.555   2.442
 3245SOL    HW210278   1.983   0.697   2.509
 3246SOL     OW10279   3.704   1.767   2.221
 3246SOL    HW110280   3.758   1.738   2.301
 3246SOL    HW210281   3.734   1.857   2.192
 3247SOL     OW10282   1.889   1.596   1.979
 3247SOL    HW110283   1.870   1.500   2.000
 3247SOL    HW210284   1.856   1.654   2.054
 3248SOL     OW10285   3.551   0.922   2.474
 3248SOL    HW110286   3.646   0.893   2.482
 3248SOL    HW210287   3.543   0.987   2.399
 3249SOL     OW10288   3.503   1.108   2.294
 3249SOL    HW110289   3.589   1.110   2.242
 3249SOL    HW210290   3.517   1.155   2.382
 3250SOL     OW10291   1.975   0.737   3.459
 3250SOL    HW110292   2.063   0.724   3.504
 3250SOL    HW210293   1.962   0.834   3.437
 3251SOL     OW10294   2.475   1.365   2.588
 3251SOL    HW110295   2.426   1.278   2.597
 3251SOL    HW210296   2.452   1.408   2.501
 3252SOL     OW10297   3.155   1.228   3.285
 3252SOL    HW110298   3.192   1.155   3.227
 3252SOL    HW210299   3.207   1.233   3.370
 3253SOL     OW10300   2.671   0.004   2.364
 3253SOL    HW110301   2.711   0.095   2.355
 3253SOL    HW210302   2.571   0.012   2.370
 3254SOL     OW10303   2.059   0.976   3.126
 3254SOL    HW110304   2.148   0.931   3.112
 3254SOL    HW210305   1.986   0.911   3.107
 3255SOL     OW10306   3.387   0.999   2.052
 3255SOL    HW110307   3.324   0.923   2.065
 3255SOL    HW210308   3.435   1.017   2.138
 3256SOL     OW10309   3.049   1.792   3.478
 3256SOL    HW110310   3.073   1.852   3.402
 3256SOL    HW210311   3.056   1.697   3.448
 3257SOL     OW10312   2.179   0.251   3.663
 3257SOL    HW110313   2.250   0.322   3.669
 3257SOL    HW210314   2.091   0.290   3.691
 3258SOL     OW10315   3.328   1.417   2.815
 3258SOL    HW110316   3.269   1.423   2.895
 3258SOL    HW210317   3.313   1.329   2.769
 3259SOL     OW10318   3.529   1.714   2.434
 3259SOL    HW110319   3.488   1.691   2.346
 3259SOL    HW210320   3.511   1.640   2.499
 3260SOL     OW10321   2.460   0.729   2.132
 3260SOL    HW110322   2.484   0.798   2.064
 3260SOL    HW210323   2.382   0.762   2.186
 3261SOL     OW10324   3.143   0.345   2.806
 3261SOL    HW110325   3.057   0.295   2.793
 3261SOL    HW210326   3.205   0.291   2.862
 3262SOL     OW10327   3.438   1.662   2.169
 3262SOL    HW110328   3.527   1.708   2.172
 3262SOL    HW210329   3.417   1.638   2.074
 3263SOL     OW10330   2.669   0.605   3.327
 3263SOL    HW110331   2.622   0.602   3.416
 3263SOL    HW210332   2.618   0.550   3.261
 3264SOL     OW10333   3.256   0.469   3.536
 3264SOL    HW110334   3.236   0.512   3.624
 3264SOL    HW210335   3.334   0.407   3.545
 3265SOL     OW10336   2.835   0.890   3.434
 3265SOL    HW110337   2.881   0.806   3.405
 3265SOL    HW210338   2.779   0.924   3.359
 3266SOL     OW10339   2.853   0.410   3.104
 3266SOL    HW110340   2.776   0.444   3.158
 3266SOL    HW210341   2.819   0.359   3.025
 3267SOL     OW10342   2.903   0.701   2.291
 3267SOL    HW110343   2.929   0.697   2.387
 3267SOL    HW210344   2.818   0.650   2.277
 3268SOL     OW10345   1.938   0.811   2.651
 3268SOL    HW110346   2.037   0.799   2.660
 3268SOL    HW210347   1.914   0.906   2.672
 3269SOL     OW10348   1.992   1.821   3.433
 3269SOL    HW110349   1.982   1.806   3.532
 3269SOL    HW210350   1.906   1.857   3.397
 3270SOL     OW10351   2.727   0.348   2.057
 3270SOL    HW110352   2.786   0.411   2.008
 3270SOL    HW210353   2.746   0.254   2.028
 3271SOL     OW10354   3.581   0.585   3.693
 3271SOL    HW110355   3.555   0.674   3.657
 3271SOL    HW210356   3.579   0.517   3.620
 3272SOL     OW10357   3.224   1.144   2.407
 3272SOL    HW110358   3.307   1.115   2.359
 3272SOL    HW210359   3.175   1.211   2.351
 3273SOL     OW10360   2.412   0.196   2.747
 3273SOL    HW110361   2.407   0.191   2.847
 3273SOL    HW210362   2.414   0.292   2.718
 3274SOL     OW10363   2.870   1.456   2.339
 3274SOL    HW110364   2.824   1.528   2.287
 3274SOL    HW210365   2.866   1.476   2.437
 3275SOL     OW10366   2.213   1.801   2.715
 3275SOL    HW110367   2.263   1.715   2.721
 3275SOL    HW210368   2.278   1.878   2.712
 3276SOL     OW10369   3.657   1.066   2.735
 3276SOL    HW110370   3.595   1.051   2.659
 3276SOL    HW210371   3.605   1.077   2.820
 3277SOL     OW10372   3.089   1.550   3.368
 3277SOL    HW110373   3.095   1.473   3.432
 3277SOL    HW210374   3.037   1.524   3.288
 3278SOL     OW10375   2.183   0.943   2.104
 3278SOL    HW110376   2.265   0.982   2.062
 3278SOL    HW210377   2.156   0.861   2.055
 3279SOL     OW10378   3.320   0.735   2.590
 3279SOL    HW110379   3.315   0.670   2.665
 3279SOL    HW210380   3.400   0.794   2.603
 3280SOL     OW10381   2.323   1.266   3.589
 3280SOL    HW110382   2.273   1.267   3.503
 3280SOL    HW210383   2.260   1.248   3.665
 3281SOL     OW10384   2.973   1.776   2.099
 3281SOL    HW110385   2.913   1.714   2.149
 3281SOL    HW210386   3.004   1.732   2.014
 3282SOL     OW10387   2.064   0.285   3.360
 3282SOL    HW110388   1.984   0.345   3.347
 3282SOL    HW210389   2.054   0.236   3.446
 3283SOL     OW10390   3.494   1.377   1.943
 3283SOL    HW110391   3.462   1.471   1.933
 3283SOL    HW210392   3.418   1.314   1.931
 3284SOL     OW10393   2.326   1.743   2.185
 3284SOL    HW110394   2.359   1.782   2.271
 3284SOL    HW210395   2.402   1.736   2.120
 3285SOL     OW10396   3.262   0.107   2.288
 3285SOL    HW110397   3.238   0.070   2.198
 3285SOL    HW210398   3.361   0.123   2.292
 3286SOL     OW10399   2.111   1.785   3.103
 3286SOL    HW110400   2.168   1.720   3.153
 3286SOL    HW210401   2.095   1.752   3.010
 3287SOL     OW10402   2.802   1.698   2.766
 3287SOL    HW110403   2.882   1.641   2.787
 3287SOL    HW210404   2.753   1.658   2.689
 3288SOL     OW10405   2.244   0.700   2.342
 3288SOL    HW110406   2.289   0.610   2.339
 3288SOL    HW210407   2.150   0.689   2.375
 3289SOL     OW10408   3.409   0.222   3.591
 3289SOL    HW110409   3.404   0.259   3.683
 3289SOL    HW210410   3.337   0.153   3.579
 3290SOL     OW10411   2.476   0.122   1.979
 3290SOL    HW110412   2.574   0.100   1.986
 3290SOL    HW210413   2.445   0.105   1.886
 3291SOL     OW10414   2.643   0.264   3.611
 3291SOL    HW110415   2.710   0.203   3.654
 3291SOL    HW210416   2.570   0.283   3.676
 3292SOL     OW10417   2.750   1.514   3.057
 3292SOL    HW110418   2.727   1.489   2.963
 3292SOL    HW210419   2.811   1.445   3.096
 3293SOL     OW10420   3.213   0.590   3.295
 3293SOL    HW110421   3.241   0.547   3.380
 3293SOL    HW210422   3.238   0.686   3.296
 3294SOL     OW10423   2.665   1.402   2.786
 3294SOL    HW110424   2.755   1.416   2.744
 3294SOL    HW210425   2.594   1.404   2.715
 3295SOL     OW10426   2.784   0.503   2.761
 3295SOL    HW110427   2.759   0.494   2.665
 3295SOL    HW210428   2.832   0.421   2.792
 3296SOL     OW10429   2.401   0.064   2.374
 3296SOL    HW110430   2.320   0.065   2.432
 3296SOL    HW210431   2.404   0.147   2.319
 3297SOL     OW10432   3.296   1.188   1.903
 3297SOL    HW110433   3.328   1.112   1.960
 3297SOL    HW210434   3.204   1.215   1.933
 3298SOL     OW10435   2.159   0.035   2.033
 3298SOL    HW110436   2.208   0.119   2.012
 3298SOL    HW210437   2.221  -0.030   2.078
 3299SOL     OW10438   2.797   0.236   2.342
 3299SOL    HW110439   2.749   0.277   2.264
 3299SOL    HW210440   2.896   0.234   2.323
 3300SOL     OW10441   2.938   0.683   3.326
 3300SOL    HW110442   2.858   0.622   3.329
 3300SOL    HW210443   3.019   0.630   3.302
 3301SOL     OW10444   3.089   1.570   2.655
 3301SOL    HW110445   3.110   1.644   2.590
 3301SOL    HW210446   3.157   1.570   2.728
 3302SOL     OW10447   2.321   1.152   2.603
 3302SOL    HW110448   2.250   1.125   2.668
 3302SOL    HW210449   2.295   1.124   2.510
 3303SOL     OW10450   3.133   1.797   2.453
 3303SOL    HW110451   3.177   1.861   2.389
 3303SOL    HW210452   3.083   1.849   2.523
 3304SOL     OW10453   2.894   0.549   1.878
 3304SOL    HW110454   2.853   0.631   1.839
 3304SOL    HW210455   2.958   0.575   1.951
 3305SOL     OW10456   1.940   0.556   3.248
 3305SOL    HW110457   2.032   0.555   3.207
 3305SOL    HW210458   1.934   0.630   3.315
 3306SOL     OW10459   2.423   0.222   3.009
 3306SOL    HW110460   2.461   0.138   3.046
 3306SOL    HW210461   2.335   0.241   3.053
 3307SOL     OW10462   2.728   0.454   2.504
 3307SOL    HW110463   2.696   0.526   2.442
 3307SOL    HW210464   2.752   0.373   2.451
 3308SOL     OW10465   2.879   0.039   2.615
 3308SOL    HW110466   2.807   0.044   2.546
 3308SOL    HW210467   2.855  -0.030   2.684
 3309SOL     OW10468   3.291   1.173   2.729
 3309SOL    HW110469   3.236   1.089   2.722
 3309SOL    HW210470   3.317   1.202   2.637
 3310SOL     OW10471   3.328   0.590   2.854
 3310SOL    HW110472   3.298   0.495   2.861
 3310SOL    HW210473   3.401   0.606   2.920
 3311SOL     OW10474   3.719   0.833   2.239
 3311SOL    HW110475   3.761   0.769   2.303
 3311SOL    HW210476   3.681   0.782   2.161
 3312SOL     OW10477   2.350   1.385   2.036
 3312SOL    HW110478   2.263   1.370   2.083
 3312SOL    HW210479   2.333   1.411   1.941
 3313SOL     OW10480   3.526   1.280   2.519
 3313SOL    HW110481   3.625   1.288   2.533
 3313SOL    HW210482   3.481   1.364   2.550
 3314SOL     OW10483   3.252   0.575   1.940
 3314SOL    HW110484   3.198   0.554   2.021
 3314SOL    HW210485   3.343   0.534   1.949
 3315SOL     OW10486   2.389   0.256   2.190
 3315SOL    HW110487   2.416   0.197   2.115
 3315SOL    HW210488   2.389   0.351   2.159
 3316SOL     OW10489   3.616   1.223   3.450
 3316SOL    HW110490   3.707   1.184   3.437
 3316SOL    HW210491   3.624   1.319   3.474
 3317SOL     OW10492   2.926   1.347   3.202
 3317SOL    HW110493   2.846   1.324   3.257
 3317SOL    HW210494   3.009   1.321   3.251
 3318SOL     OW10495   3.454   1.629   3.487
 3318SOL    HW110496   3.481   1.663   3.397
 3318SOL    HW210497   3.533   1.591   3.533
 3319SOL     OW10498   2.973   1.195   2.962
 3319SOL    HW110499   2.933   1.239   3.043
 3319SOL    HW210500   2.932   1.232   2.879
 3320SOL     OW10501   3.500   1.099   2.941
 3320SOL    HW110502   3.505   1.180   3.000
 3320SOL    HW210503   3.414   1.101   2.890
 3321SOL     OW10504   2.777   0.089   3.264
 3321SOL    HW110505   2.802   0.069   3.169
 3321SOL    HW210506   2.849   0.145   3.306
 3322SOL     OW10507   2.842   1.116   3.581
 3322SOL    HW110508   2.743   1.122   3.591
 3322SOL    HW210509   2.865   1.036   3.525
 3323SOL     OW10510   2.567   1.050   2.230
 3323SOL    HW110511   2.553   1.057   2.329
 3323SOL    HW210512   2.651   0.999   2.212
 3324SOL     OW10513   2.272   0.813   3.113
 3324SOL    HW110514   2.358   0.825   3.163
 3324SOL    HW210515   2.230   0.726   3.140
 3325SOL     OW10516   3.136   0.386   3.124
 3325SOL    HW110517   3.157   0.460   3.188
 3325SOL    HW210518   3.047   0.403   3.081
 3326SOL     OW10519   1.926   1.564   3.193
 3326SOL    HW110520   1.880   1.646   3.159
 3326SOL    HW210521   2.024   1.583   3.202
 3327SOL     OW10522   2.229   1.100   2.363
 3327SOL    HW110523   2.222   1.183   2.307
 3327SOL    HW210524   2.233   1.020   2.303
 3328SOL     OW10525   2.428   0.537   2.727
 3328SOL    HW110526   2.440   0.603   2.653
 3328SOL    HW210527   2.474   0.571   2.810
 3329SOL     OW10528   3.114   1.348   2.250
 3329SOL    HW110529   3.164   1.425   2.290
 3329SOL    HW210530   3.019   1.350   2.282
 3330SOL     OW10531   3.134   1.445   3.004
 3330SOL    HW110532   3.181   1.458   3.091
 3330SOL    HW210533   3.068   1.371   3.013
 3331SOL     OW10534   3.444   0.639   2.334
 3331SOL    HW110535   3.413   0.700   2.407
 3331SOL    HW210536   3.494   0.691   2.265
 3332SOL     OW10537   2.216   1.510   3.191
 3332SOL    HW110538   2.195   1.466   3.104
 3332SOL    HW210539   2.313   1.536   3.194
 3333SOL     OW10540   2.264   0.751   3.460
 3333SOL    HW110541   2.332   0.806   3.413
 3333SOL    HW210542   2.304   0.663   3.487
 3334SOL     OW10543   3.449   0.779   3.532
 3334SOL    HW110544   3.357   0.817   3.527
 3334SOL    HW210545   3.509   0.826   3.467
 3335SOL     OW10546   2.875   0.105   3.632
 3335SOL    HW110547   2.881   0.190   3.580
 3335SOL    HW210548   2.907   0.029   3.575
 3336SOL     OW10549   2.366   0.050   3.602
 3336SOL    HW110550   2.324  -0.007   3.532
 3336SOL    HW210551   2.300   0.119   3.634
 3337SOL     OW10552   2.435   0.870   2.891
 3337SOL    HW110553   2.479   0.959   2.882
 3337SOL    HW210554   2.372   0.870   2.968
 3338SOL     OW10555   3.222   0.862   2.907
 3338SOL    HW110556   3.147   0.862   2.841
 3338SOL    HW210557   3.259   0.770   2.916
 3339SOL     OW10558   3.071   0.525   2.137
 3339SOL    HW110559   3.084   0.441   2.191
 3339SOL    HW210560   3.042   0.599   2.197
 3340SOL     OW10561   2.169   0.213   3.093
 3340SOL    HW110562   2.146   0.250   3.183
 3340SOL    HW210563   2.139   0.118   3.087
 3341SOL     OW10564   1.899   1.310   3.144
 3341SOL    HW110565   1.952   1.261   3.212
 3341SOL    HW210566   1.921   1.408   3.149
 3342SOL     OW10567   2.594   0.634   2.926
 3342SOL    HW110568   2.653   0.608   2.850
 3342SOL    HW210569   2.566   0.730   2.915
 3343SOL     OW10570   3.590   0.935   3.716
 3343SOL    HW110571   3.544   0.928   3.627
 3343SOL    HW210572   3.528   0.979   3.782
 3344SOL     OW10573   2.169   0.063   2.480
 3344SOL    HW110574   2.158   0.157   2.513
 3344SOL    HW210575   2.164   0.000   2.557
 3345SOL     OW10576   3.484   0.367   2.236
 3345SOL    HW110577   3.486   0.291   2.300
 3345SOL    HW210578   3.436   0.444   2.276
 3346SOL     OW10579   2.885   0.766   2.828
 3346SOL    HW110580   2.900   0.787   2.924
 3346SOL    HW210581   2.855   0.671   2.819
 3347SOL     OW10582   2.842   1.573   3.562
 3347SOL    HW110583   2.822   1.617   3.474
 3347SOL    HW210584   2.881   1.482   3.546
 3348SOL     OW10585   3.721   1.518   3.467
 3348SOL    HW110586   3.735   1.545   3.372
 3348SOL    HW210587   3.804   1.540   3.520
 3349SOL     OW10588   2.212   0.898   3.666
 3349SOL    HW110589   2.288   0.942   3.714
 3349SOL    HW210590   2.247   0.851   3.584
 3350SOL     OW10591   3.402   0.274   1.987
 3350SOL    HW110592   3.341   0.199   2.010
 3350SOL    HW210593   3.424   0.326   2.070
 3351SOL     OW10594   3.165   0.838   1.904
 3351SOL    HW110595   3.199   0.745   1.919
 3351SOL    HW210596   3.183   0.865   1.809
 3352SOL     OW10597   2.930   1.333   2.711
 3352SOL    HW110598   2.937   1.249   2.656
 3352SOL    HW210599   2.992   1.402   2.675
 3353SOL     OW10600   2.181   0.810   2.811
 3353SOL    HW110601   2.274   0.846   2.816
 3353SOL    HW210602   2.175   0.725   2.863
 3354SOL     OW10603   2.201   0.509   2.868
 3354SOL    HW110604   2.149   0.426   2.851
 3354SOL    HW210605   2.278   0.514   2.804
 3355SOL     OW10606   3.000   0.380   3.540
 3355SOL    HW110607   2.955   0.443   3.604
 3355SOL    HW210608   3.093   0.411   3.523
 3356SOL     OW10609   3.022   0.207   3.339
 3356SOL    HW110610   3.022   0.271   3.416
 3356SOL    HW210611   3.050   0.255   3.256
 3357SOL     OW10612   1.870   1.326   2.062
 3357SOL    HW110613   1.777   1.347   2.031
 3357SOL    HW210614   1.880   1.227   2.075
 3358SOL     OW10615   1.950   1.801   2.789
 3358SOL    HW110616   1.908   1.715   2.762
 3358SOL    HW210617   2.044   1.804   2.755
 3359SOL     OW10618   2.366   1.568   2.772
 3359SOL    HW110619   2.432   1.642   2.781
 3359SOL    HW210620   2.410   1.489   2.730
 3360SOL     OW10621   2.864   0.796   3.100
 3360SOL    HW110622   2.905   0.764   3.186
 3360SOL    HW210623   2.768   0.769   3.097
 3361SOL     OW10624   1.902   0.544   2.976
 3361SOL    HW110625   1.987   0.511   2.935
 3361SOL    HW210626   1.915   0.559   3.074
 3362SOL     OW10627   2.051   0.520   3.584
 3362SOL    HW110628   2.110   0.480   3.514
 3362SOL    HW210629   1.993   0.591   3.543
 3363SOL     OW10630   3.231   0.950   3.522
 3363SOL    HW110631   3.270   1.039   3.542
 3363SOL    HW210632   3.241   0.930   3.425
 3364SOL     OW10633   2.677   0.572   2.187
 3364SOL    HW110634   2.684   0.483   2.141
 3364SOL    HW210635   2.583   0.606   2.179
 3365SOL     OW10636   3.519   0.604   3.068
 3365SOL    HW110637   3.481   0.535   3.130
 3365SOL    HW210638   3.601   0.568   3.024
 3366SOL     OW10639   2.114   1.564   3.606
 3366SOL    HW110640   2.084   1.621   3.682
 3366SOL    HW210641   2.107   1.467   3.632
 3367SOL     OW10642   2.533   0.464   3.131
 3367SOL    HW110643   2.499   0.375   3.101
 3367SOL    HW210644   2.559   0.518   3.051
 3368SOL     OW10645   2.792   1.678   3.327
 3368SOL    HW110646   2.768   1.660   3.232
 3368SOL    HW210647   2.822   1.772   3.337
 3369SOL     OW10648   2.335   0.500   2.053
 3369SOL    HW110649   2.396   0.580   2.057
 3369SOL    HW210650   2.240   0.531   2.060
 3370SOL     OW10651   2.021   1.137   3.328
 3370SOL    HW110652   2.043   1.076   3.404
 3370SOL    HW210653   2.031   1.088   3.242
 3371SOL     OW10654   3.209   1.059   3.096
 3371SOL    HW110655   3.233   0.996   3.022
 3371SOL    HW210656   3.119   1.099   3.078
 3372SOL     OW10657   3.164   0.855   2.171
 3372SOL    HW110658   3.078   0.824   2.213
 3372SOL    HW210659   3.160   0.841   2.072
 3373SOL     OW10660   3.621   1.747   3.016
 3373SOL    HW110661   3.682   1.777   2.943
 3373SOL    HW210662   3.583   1.658   2.994
 3374SOL     OW10663   3.114   1.731   2.990
 3374SOL    HW110664   3.198   1.736   2.936
 3374SOL    HW210665   3.091   1.635   3.008
 3375SOL     OW10666   1.945   1.258   2.884
 3375SOL    HW110667   1.940   1.257   2.984
 3375SOL    HW210668   1.862   1.217   2.846
 3376SOL     OW10669   2.550   1.662   3.578
 3376SOL    HW110670   2.494   1.743   3.587
 3376SOL    HW210671   2.602   1.666   3.492
 3377SOL     OW10672   3.588   0.135   2.385
 3377SOL    HW110673   3.661   0.118   2.318
 3377SOL    HW210674   3.557   0.048   2.423
 3378SOL     OW10675   3.250   1.573   2.339
 3378SOL    HW110676   3.317   1.585   2.265
 3378SOL    HW210677   3.210   1.662   2.362
 3379SOL     OW10678   1.992   1.794   3.713
 3379SOL    HW110679   1.951   1.720   3.766
 3379SOL    HW210680   2.056   1.845   3.771
 3380SOL     OW10681   3.142   0.927   2.534
 3380SOL    HW110682   3.202   0.846   2.536
 3380SOL    HW210683   3.182   0.996   2.474
 3381SOL     OW10684   2.692   1.273   3.284
 3381SOL    HW110685   2.687   1.306   3.379
 3381SOL    HW210686   2.606   1.292   3.238
 3382SOL     OW10687   2.534   1.616   2.016
 3382SOL    HW110688   2.543   1.626   1.917
 3382SOL    HW210689   2.494   1.527   2.037
 3383SOL     OW10690   3.512   1.720   3.256
 3383SOL    HW110691   3.565   1.730   3.172
 3383SOL    HW210692   3.485   1.810   3.290
 3384SOL     OW10693   3.703   0.175   2.825
 3384SOL    HW110694   3.742   0.090   2.789
 3384SOL    HW210695   3.605   0.177   2.806
 3385SOL     OW10696   2.125   0.326   2.582
 3385SOL    HW110697   2.046   0.377   2.548
 3385SOL    HW210698   2.116   0.311   2.680
 3386SOL     OW10699   3.056   1.612   1.893
 3386SOL    HW110700   3.062   1.519   1.930
 3386SOL    HW210701   2.997   1.612   1.813
 3387SOL     OW10702   2.684   1.002   3.234
 3387SOL    HW110703   2.724   1.001   3.142
 3387SOL    HW210704   2.694   1.094   3.274
 3388SOL     OW10705   2.778   0.910   2.153
 3388SOL    HW110706   2.841   0.948   2.085
 3388SOL    HW210707   2.818   0.827   2.192
 3389SOL     OW10708   3.366   1.607   1.906
 3389SOL    HW110709   3.274   1.644   1.913
 3389SOL    HW210710   3.404   1.627   1.816
 3390SOL     OW10711   2.234   1.288   3.352
 3390SOL    HW110712   2.221   1.381   3.318
 3390SOL    HW210713   2.150   1.236   3.339
 3391SOL     OW10714   3.476   1.292   3.151
 3391SOL    HW110715   3.536   1.295   3.231
 3391SOL    HW210716   3.401   1.356   3.164
 3392SOL     OW10717   2.901   1.098   2.558
 3392SOL    HW110718   2.831   1.051   2.612
 3392SOL    HW210719   2.960   1.030   2.515
 3393SOL     OW10720   2.876   0.236   2.833
 3393SOL    HW110721   2.868   0.200   2.740
 3393SOL    HW210722   2.874   0.160   2.898
 3394SOL     OW10723   2.452   1.487   2.353
 3394SOL    HW110724   2.494   1.429   2.283
 3394SOL    HW210725   2.408   1.566   2.309
 3395SOL     OW10726   3.571   0.385   3.243
 3395SOL    HW110727   3.644   0.454   3.247
 3395SOL    HW210728   3.599   0.310   3.184
 3396SOL     OW10729   2.117   1.348   2.152
 3396SOL    HW110730   2.021   1.349   2.125
 3396SOL    HW210731   2.129   1.401   2.236
 3397SOL     OW10732   1.967   1.013   3.588
 3397SOL    HW110733   1.890   0.980   3.642
 3397SOL    HW210734   2.052   0.983   3.630
 3398SOL     OW10735   2.534   0.203   3.351
 3398SOL    HW110736   2.624   0.187   3.311
 3398SOL    HW210737   2.542   0.208   3.450
 3399SOL     OW10738   1.937   0.345   1.895
 3399SOL    HW110739   1.845   0.317   1.866
 3399SOL    HW210740   1.968   0.422   1.839
 3400SOL     OW10741   3.302   0.856   3.260
 3400SOL    HW110742   3.245   0.908   3.197
 3400SOL    HW210743   3.398   0.868   3.236
 3401SOL     OW10744   1.934   0.166   2.180
 3401SOL    HW110745   1.917   0.249   2.126
 3401SOL    HW210746   2.024   0.129   2.158
 3402SOL     OW10747   3.045   1.335   1.981
 3402SOL    HW110748   2.946   1.324   1.983
 3402SOL    HW210749   3.079   1.350   2.074
 3403SOL     OW10750   2.475   0.842   3.293
 3403SOL    HW110751   2.531   0.923   3.276
 3403SOL    HW210752   2.534   0.762   3.296
 3404SOL     OW10753   3.355   1.767   2.821
 3404SOL    HW110754   3.388   1.831   2.752
 3404SOL    HW210755   3.421   1.761   2.896
 3405SOL     OW10756   2.578   0.565   3.570
 3405SOL    HW110757   2.597   0.630   3.644
 3405SOL    HW210758   2.638   0.485   3.579
 3406SOL     OW10759   3.312   1.220   3.495
 3406SOL    HW110760   3.303   1.210   3.594
 3406SOL    HW210761   3.408   1.213   3.469
 3407SOL     OW10762   2.252   1.741   3.422
 3407SOL    HW110763   2.161   1.782   3.420
 3407SOL    HW210764   2.245   1.647   3.454
 3408SOL     OW10765   3.536   0.883   3.116
 3408SOL    HW110766   3.509   0.794   3.079
 3408SOL    HW210767   3.537   0.951   3.043
 3409SOL     OW10768   3.087   0.325   2.311
 3409SOL    HW110769   3.152   0.251   2.300
 3409SOL    HW210770   3.107   0.375   2.395
 3410SOL     OW10771   2.456   0.745   2.514
 3410SOL    HW110772   2.506   0.830   2.495
 3410SOL    HW210773   2.368   0.747   2.466
 3411SOL     OW10774   3.639   0.342   3.504
 3411SOL    HW110775   3.622   0.373   3.410
 3411SOL    HW210776   3.555   0.305   3.542
 3412SOL     OW10777   3.592   0.934   3.379
 3412SOL    HW110778   3.630   1.025   3.394
 3412SOL    HW210779   3.584   0.917   3.280
 3413SOL     OW10780   2.721   1.374   1.878
 3413SOL    HW110781   2.675   1.389   1.966
 3413SOL    HW210782   2.765   1.459   1.848
 3414SOL     OW10783   2.523   1.790   2.815
 3414SOL    HW110784   2.477   1.878   2.802
 3414SOL    HW210785   2.622   1.802   2.808
 3415SOL     OW10786   2.721   0.956   2.723
 3415SOL    HW110787   2.775   0.887   2.771
 3415SOL    HW210788   2.689   1.025   2.789
 3416SOL     OW10789   2.945   0.984   1.949
 3416SOL    HW110790   2.922   1.037   1.867
 3416SOL    HW210791   3.026   0.928   1.930
 3417SOL     OW10792   3.723   1.569   2.713
 3417SOL    HW110793   3.652   1.557   2.643
 3417SOL    HW210794   3.724   1.490   2.773
 3418SOL     OW10795   2.083   1.314   3.706
 3418SOL    HW110796   2.018   1.241   3.685
 3418SOL    HW210797   2.087   1.328   3.804
 3419SOL     OW10798   1.941   1.240   2.515
 3419SOL    HW110799   1.940   1.193   2.603
 3419SOL    HW210800   2.023   1.212   2.464
 3420SOL     OW10801   2.534   1.391   3.486
 3420SOL    HW110802   2.456   1.341   3.524
 3420SOL    HW210803   2.531   1.486   3.517
 3421SOL     OW10804   3.686   0.192   3.089
 3421SOL    HW110805   3.682   0.102   3.133
 3421SOL    HW210806   3.689   0.181   2.990
 3422SOL     OW10807   2.290   0.424   2.382
 3422SOL    HW110808   2.320   0.352   2.320
 3422SOL    HW210809   2.251   0.384   2.465
 3423SOL     OW10810   3.567   1.487   2.966
 3423SOL    HW110811   3.474   1.462   2.939
 3423SOL    HW210812   3.593   1.437   3.048
 3424SOL     OW10813   2.179   0.547   3.142
 3424SOL    HW110814   2.217   0.488   3.214
 3424SOL    HW210815   2.219   0.521   3.054
 3425SOL     OW10816   2.674   1.586   2.549
 3425SOL    HW110817   2.706   1.596   2.455
 3425SOL    HW210818   2.595   1.524   2.551
 3426SOL     OW10819   3.286   0.214   2.974
 3426SOL    HW110820   3.338   0.149   3.029
 3426SOL    HW210821   3.237   0.277   3.035
 3427SOL     OW10822   2.863   0.034   3.016
 3427SOL    HW110823   2.800  -0.038   2.985
 3427SOL    HW210824   2.956  -0.002   3.016
 3428SOL     OW10825   2.632   1.330   2.163
 3428SOL    HW110826   2.586   1.243   2.180
 3428SOL    HW210827   2.723   1.327   2.204
 3429SOL     OW10828   2.480   1.567   3.146
 3429SOL    HW110829   2.475   1.649   3.203
 3429SOL    HW210830   2.569   1.564   3.101
 3430SOL     OW10831   3.214   0.052   2.030
 3430SOL    HW110832   3.249   0.011   1.946
 3430SOL    HW210833   3.124   0.014   2.050
 3431SOL     OW10834   3.162   0.453   2.553
 3431SOL    HW110835   3.103   0.533   2.557
 3431SOL    HW210836   3.177   0.418   2.646
 3432SOL     OW10837   3.455   0.221   2.744
 3432SOL    HW110838   3.371   0.220   2.798
 3432SOL    HW210839   3.457   0.304   2.688
 3433SOL     OW10840   1.901   1.077   2.162
 3433SOL    HW110841   2.000   1.066   2.153
 3433SOL    HW210842   1.861   0.991   2.194
 3434SOL     OW10843   2.737   1.646   2.199
 3434SOL    HW110844   2.660   1.611   2.145
 3434SOL    HW210845   2.705   1.717   2.261
 3435SOL     OW10846   2.092   0.628   3.837
 3435SOL    HW110847   1.999   0.626   3.874
 3435SOL    HW210848   2.093   0.589   3.745
 3436SOL     OW10849   2.087   0.275   4.720
 3436SOL    HW110850   2.122   0.258   4.812
 3436SOL    HW210851   1.999   0.230   4.708
 3437SOL     OW10852   1.881   0.368   4.371
 3437SOL    HW110853   1.799   0.411   4.410
 3437SOL    HW210854   1.853   0.295   4.308
 3438SOL     OW10855   2.431   1.275   4.889
 3438SOL    HW110856   2.338   1.268   4.852
 3438SOL    HW210857   2.442   1.364   4.933
 3439SOL     OW10858   3.417   1.511   4.427
 3439SOL    HW110859   3.360   1.495   4.508
 3439SOL    HW210860   3.358   1.521   4.347
 3440SOL     OW10861   2.997   0.703   4.441
 3440SOL    HW110862   3.054   0.781   4.416
 3440SOL    HW210863   2.937   0.729   4.517
 3441SOL     OW10864   3.617   0.607   3.955
 3441SOL    HW110865   3.605   0.594   3.856
 3441SOL    HW210866   3.587   0.526   4.004
 3442SOL     OW10867   2.630   1.144   4.747
 3442SOL    HW110868   2.552   1.161   4.807
 3442SOL    HW210869   2.664   1.231   4.711
 3443SOL     OW10870   2.712   0.798   5.547
 3443SOL    HW110871   2.708   0.874   5.612
 3443SOL    HW210872   2.734   0.834   5.456
 3444SOL     OW10873   2.547   1.012   4.389
 3444SOL    HW110874   2.616   0.996   4.459
 3444SOL    HW210875   2.474   1.069   4.427
 3445SOL     OW10876   2.548   1.161   5.527
 3445SOL    HW110877   2.608   1.240   5.541
 3445SOL    HW210878   2.462   1.192   5.486
 3446SOL     OW10879   2.197   1.435   4.785
 3446SOL    HW110880   2.119   1.404   4.732
 3446SOL    HW210881   2.255   1.493   4.728
 3447SOL     OW10882   3.322   1.505   5.063
 3447SOL    HW110883   3.346   1.599   5.089
 3447SOL    HW210884   3.306   1.451   5.145
 3448SOL     OW10885   2.300   0.392   5.223
 3448SOL    HW110886   2.382   0.336   5.232
 3448SOL    HW210887   2.219   0.334   5.227
 3449SOL     OW10888   3.465   0.447   4.461
 3449SOL    HW110889   3.391   0.493   4.411
 3449SOL    HW210890   3.516   0.515   4.514
 3450SOL     OW10891   2.093   1.713   4.207
 3450SOL    HW110892   2.127   1.790   4.261
 3450SOL    HW210893   2.137   1.713   4.117
 3451SOL     OW10894   2.989   1.341   5.414
 3451SOL    HW110895   3.036   1.341   5.502
 3451SOL    HW210896   2.941   1.254   5.403
 3452SOL     OW10897   2.092   1.434   4.262
 3452SOL    HW110898   2.066   1.530   4.262
 3452SOL    HW210899   2.021   1.380   4.307
 3453SOL     OW10900   2.102   1.091   4.610
 3453SOL    HW110901   2.116   1.007   4.662
 3453SOL    HW210902   2.047   1.155   4.665
 3454SOL     OW10903   2.468   0.964   3.847
 3454SOL    HW110904   2.475   1.048   3.793
 3454SOL    HW210905   2.514   0.977   3.935
 3455SOL     OW10906   3.456   0.114   5.204
 3455SOL    HW110907   3.438   0.181   5.132
 3455SOL    HW210908   3.453   0.160   5.293
 3456SOL     OW10909   1.984   0.643   4.287
 3456SOL    HW110910   1.939   0.555   4.304
 3456SOL    HW210911   1.983   0.697   4.371
 3457SOL     OW10912   3.704   1.767   4.083
 3457SOL    HW110913   3.758   1.738   4.163
 3457SOL    HW210914   3.734   1.857   4.054
 3458SOL     OW10915   1.889   1.596   3.841
 3458SOL    HW110916   1.870   1.500   3.862
 3458SOL    HW210917   1.856   1.654   3.916
 3459SOL     OW10918   3.551   0.922   4.336
 3459SOL    HW110919   3.646   0.893   4.344
 3459SOL    HW210920   3.543   0.987   4.261
 3460SOL     OW10921   3.503   1.108   4.156
 3460SOL    HW110922   3.589   1.110   4.104
 3460SOL    HW210923   3.517   1.155   4.244
 3461SOL     OW10924   1.975   0.737   5.321
 3461SOL    HW110925   2.063   0.724   5.366
 3461SOL    HW210926   1.962   0.834   5.299
 3462SOL     OW10927   2.475   1.365   4.450
 3462SOL    HW110928   2.426   1.278   4.459
 3462SOL    HW210929   2.452   1.408   4.363
 3463SOL     OW10930   3.155   1.228   5.147
 3463SOL    HW110931   3.192   1.155   5.089
 3463SOL    HW210932   3.207   1.233   5.232
 3464SOL     OW10933   2.671   0.004   4.226
 3464SOL    HW110934   2.711   0.095   4.217
 3464SOL    HW210935   2.571   0.012   4.232
 3465SOL     OW10936   2.059   0.976   4.988
 3465SOL    HW110937   2.148   0.931   4.974
 3465SOL    HW210938   1.986   0.911   4.969
 3466SOL     OW10939   3.387   0.999   3.914
 3466SOL    HW110940   3.324   0.923   3.927
 3466SOL    HW210941   3.435   1.017   4.000
 3467SOL     OW10942   3.049   1.792   5.340
 3467SOL    HW110943   3.073   1.852   5.264
 3467SOL    HW210944   3.056   1.697   5.310
 3468SOL     OW10945   2.179   0.251   5.525
 3468SOL    HW110946   2.250   0.322   5.531
 3468SOL    HW210947   2.091   0.290   5.553
 3469SOL     OW10948   3.328   1.417   4.677
 3469SOL    HW110949   3.269   1.423   4.757
 3469SOL    HW210950   3.313   1.329   4.631
 3470SOL     OW10951   3.529   1.714   4.296
 3470SOL    HW110952   3.488   1.691   4.208
 3470SOL    HW210953   3.511   1.640   4.361
 3471SOL     OW10954   2.460   0.729   3.994
 3471SOL    HW110955   2.484   0.798   3.926
 3471SOL    HW210956   2.382   0.762   4.048
 3472SOL     OW10957   3.143   0.345   4.668
 3472SOL    HW110958   3.057   0.295   4.655
 3472SOL    HW210959   3.205   0.291   4.724
 3473SOL     OW10960   3.438   1.662   4.031
 3473SOL    HW110961   3.527   1.708   4.034
 3473SOL    HW210962   3.417   1.638   3.936
 3474SOL     OW10963   2.669   0.605   5.189
 3474SOL    HW110964   2.622   0.602   5.278
 3474SOL    HW210965   2.618   0.550   5.123
 3475SOL     OW10966   3.256   0.469   5.398
 3475SOL    HW110967   3.236   0.512   5.486
 3475SOL    HW210968   3.334   0.407   5.407
 3476SOL     OW10969   2.835   0.890   5.296
 3476SOL    HW110970   2.881   0.806   5.267
 3476SOL    HW210971   2.779   0.924   5.221
 3477SOL     OW10972   2.853   0.410   4.966
 3477SOL    HW110973   2.776   0.444   5.020
 3477SOL    HW210974   2.819   0.359   4.887
 3478SOL     OW10975   2.903   0.701   4.153
 3478SOL    HW110976   2.929   0.697   4.249
 3478SOL    HW210977   2.818   0.650   4.139
 3479SOL     OW10978   1.938   0.811   4.513
 3479SOL    HW110979   2.037   0.799   4.522
 3479SOL    HW210980   1.914   0.906   4.534
 3480SOL     OW10981   2.727   0.348   3.919
 3480SOL    HW110982   2.786   0.411   3.870
 3480SOL    HW210983   2.746   0.254   3.890
 3481SOL     OW10984   3.581   0.585   5.555
 3481SOL    HW110985   3.555   0.674   5.519
 3481SOL    HW210986   3.579   0.517   5.482
 3482SOL     OW10987   3.224   1.144   4.269
 3482SOL    HW110988   3.307   1.115   4.221
 3482SOL    HW210989   3.175   1.211   4.213
 3483SOL     OW10990   2.412   0.196   4.609
 3483SOL    HW110991   2.407   0.191   4.709
 3483SOL    HW210992   2.414   0.292   4.580
 3484SOL     OW10993   2.870   1.456   4.201
 3484SOL    HW110994   2.824   1.528   4.149
 3484SOL    HW210995   2.866   1.476   4.299
 3485SOL     OW10996   3.657   1.066   4.597
 3485SOL    HW110997   3.595   1.051   4.521
 3485SOL    HW210998   3.605   1.077   4.682
 3486SOL     OW10999   3.089   1.550   5.230
 3486SOL    HW111000   3.095   1.473   5.294
 3486SOL    HW211001   3.037   1.524   5.150
 3487SOL     OW11002   2.183   0.943   3.966
 3487SOL    HW111003   2.265   0.982   3.924
 3487SOL    HW211004   2.156   0.861   3.917
 3488SOL     OW11005   3.320   0.735   4.452
 3488SOL    HW111006   3.315   0.670   4.527
 3488SOL    HW211007   3.400   0.794   4.465
 3489SOL     OW11008   2.323   1.266   5.451
 3489SOL    HW111009   2.273   1.267   5.365
 3489SOL    HW211010   2.260   1.248   5.527
 3490SOL     OW11011   2.973   1.776   3.961
 3490SOL    HW111012   2.913   1.714   4.011
 3490SOL    HW211013   3.004   1.732   3.876
 3491SOL     OW11014   2.064   0.285   5.222
 3491SOL    HW111015   1.984   0.345   5.209
 3491SOL    HW211016   2.054   0.236   5.308
 3492SOL     OW11017   3.494   1.377   3.805
 3492SOL    HW111018   3.462   1.471   3.795
 3492SOL    HW211019   3.418   1.314   3.793
 3493SOL     OW11020   2.326   1.743   4.047
 3493SOL    HW111021   2.359   1.782   4.133
 3493SOL    HW211022   2.402   1.736   3.982
 3494SOL     OW11023   3.262   0.107   4.150
 3494SOL    HW111024   3.238   0.070   4.060
 3494SOL    HW211025   3.361   0.123   4.154
 3495SOL     OW11026   2.802   1.698   4.628
 3495SOL    HW111027   2.882   1.641   4.649
 3495SOL    HW211028   2.753   1.658   4.551
 3496SOL     OW11029   2.244   0.700   4.204
 3496SOL    HW111030   2.289   0.610   4.201
 3496SOL    HW211031   2.150   0.689   4.237
 3497SOL     OW11032   3.409   0.222   5.453
 3497SOL    HW111033   3.404   0.259   5.545
 3497SOL    HW211034   3.337   0.153   5.441
 3498SOL     OW11035   2.476   0.122   3.841
 3498SOL    HW111036   2.574   0.100   3.848
 3498SOL    HW211037   2.445   0.105   3.748
 3499SOL     OW11038   2.643   0.264   5.473
 3499SOL    HW111039   2.710   0.203   5.516
 3499SOL    HW211040   2.570   0.283   5.538
 3500SOL     OW11041   2.750   1.514   4.919
 3500SOL    HW111042   2.727   1.489   4.825
 3500SOL    HW211043   2.811   1.445   4.958
 3501SOL     OW11044   3.213   0.590   5.157
 3501SOL    HW111045   3.241   0.547   5.242
 3501SOL    HW211046   3.238   0.686   5.158
 3502SOL     OW11047   2.665   1.402   4.648
 3502SOL    HW111048   2.755   1.416   4.606
 3502SOL    HW211049   2.594   1.404   4.577
 3503SOL     OW11050   2.784   0.503   4.623
 3503SOL    HW111051   2.759   0.494   4.527
 3503SOL    HW211052   2.832   0.421   4.654
 3504SOL     OW11053   2.401   0.064   4.236
 3504SOL    HW111054   2.320   0.065   4.294
 3504SOL    HW211055   2.404   0.147   4.181
 3505SOL     OW11056   3.296   1.188   3.765
 3505SOL    HW111057   3.328   1.112   3.822
 3505SOL    HW211058   3.204   1.215   3.795
 3506SOL     OW11059   2.159   0.035   3.895
 3506SOL    HW111060   2.208   0.119   3.874
 3506SOL    HW211061   2.221  -0.030   3.940
 3507SOL     OW11062   2.797   0.236   4.204
 3507SOL    HW111063   2.749   0.277   4.126
 3507SOL    HW211064   2.896   0.234   4.185
 3508SOL     OW11065   2.938   0.683   5.188
 3508SOL    HW111066   2.858   0.622   5.191
 3508SOL    HW211067   3.019   0.630   5.164
 3509SOL     OW11068   3.089   1.570   4.517
 3509SOL    HW111069   3.110   1.644   4.452
 3509SOL    HW211070   3.157   1.570   4.590
 3510SOL     OW11071   2.321   1.152   4.465
 3510SOL    HW111072   2.250   1.125   4.530
 3510SOL    HW211073   2.295   1.124   4.372
 3511SOL     OW11074   3.133   1.797   4.315
 3511SOL    HW111075   3.177   1.861   4.251
 3511SOL    HW211076   3.083   1.849   4.385
 3512SOL     OW11077   2.894   0.549   3.740
 3512SOL    HW111078   2.853   0.631   3.701
 3512SOL    HW211079   2.958   0.575   3.813
 3513SOL     OW11080   1.940   0.556   5.110
 3513SOL    HW111081   2.032   0.555   5.069
 3513SOL    HW211082   1.934   0.630   5.177
 3514SOL     OW11083   2.423   0.222   4.871
 3514SOL    HW111084   2.461   0.138   4.908
 3514SOL    HW211085   2.335   0.241   4.915
 3515SOL     OW11086   2.728   0.454   4.366
 3515SOL    HW111087   2.696   0.526   4.304
 3515SOL    HW211088   2.752   0.373   4.313
 3516SOL     OW11089   2.879   0.039   4.477
 3516SOL    HW111090   2.807   0.044   4.408
 3516SOL    HW211091   2.855  -0.030   4.546
 3517SOL     OW11092   3.291   1.173   4.591
 3517SOL    HW111093   3.236   1.089   4.584
 3517SOL    HW211094   3.317   1.202   4.499
 3518SOL     OW11095   3.328   0.590   4.716
 3518SOL    HW111096   3.298   0.495   4.723
 3518SOL    HW211097   3.401   0.606   4.782
 3519SOL     OW11098   3.719   0.833   4.101
 3519SOL    HW111099   3.761   0.769   4.165
 3519SOL    HW211100   3.681   0.782   4.023
 3520SOL     OW11101   2.350   1.385   3.898
 3520SOL    HW111102   2.263   1.370   3.945
 3520SOL    HW211103   2.333   1.411   3.803
 3521SOL     OW11104   3.526   1.280   4.381
 3521SOL    HW111105   3.625   1.288   4.395
 3521SOL    HW211106   3.481   1.364   4.412
 3522SOL     OW11107   3.252   0.575   3.802
 3522SOL    HW111108   3.198   0.554   3.883
 3522SOL    HW211109   3.343   0.534   3.811
 3523SOL     OW11110   2.389   0.256   4.052
 3523SOL    HW111111   2.416   0.197   3.977
 3523SOL    HW211112   2.389   0.351   4.021
 3524SOL     OW11113   3.616   1.223   5.312
 3524SOL    HW111114   3.707   1.184   5.299
 3524SOL    HW211115   3.624   1.319   5.336
 3525SOL     OW11116   2.926   1.347   5.064
 3525SOL    HW111117   2.846   1.324   5.119
 3525SOL    HW211118   3.009   1.321   5.113
 3526SOL     OW11119   3.454   1.629   5.349
 3526SOL    HW111120   3.481   1.663   5.259
 3526SOL    HW211121   3.533   1.591   5.395
 3527SOL     OW11122   2.973   1.195   4.824
 3527SOL    HW111123   2.933   1.239   4.905
 3527SOL    HW211124   2.932   1.232   4.741
 3528SOL     OW11125   3.500   1.099   4.803
 3528SOL    HW111126   3.505   1.180   4.862
 3528SOL    HW211127   3.414   1.101   4.752
 3529SOL     OW11128   2.777   0.089   5.126
 3529SOL    HW111129   2.802   0.069   5.031
 3529SOL    HW211130   2.849   0.145   5.168
 3530SOL     OW11131   2.842   1.116   5.443
 3530SOL    HW111132   2.743   1.122   5.453
 3530SOL    HW211133   2.865   1.036   5.387
 3531SOL     OW11134   2.567   1.050   4.092
 3531SOL    HW111135   2.553   1.057   4.191
 3531SOL    HW211136   2.651   0.999   4.074
 3532SOL     OW11137   2.272   0.813   4.975
 3532SOL    HW111138   2.358   0.825   5.025
 3532SOL    HW211139   2.230   0.726   5.002
 3533SOL     OW11140   3.136   0.386   4.986
 3533SOL    HW111141   3.157   0.460   5.050
 3533SOL    HW211142   3.047   0.403   4.943
 3534SOL     OW11143   2.229   1.100   4.225
 3534SOL    HW111144   2.222   1.183   4.169
 3534SOL    HW211145   2.233   1.020   4.165
 3535SOL     OW11146   2.428   0.537   4.589
 3535SOL    HW111147   2.440   0.603   4.515
 3535SOL    HW211148   2.474   0.571   4.672
 3536SOL     OW11149   3.114   1.348   4.112
 3536SOL    HW111150   3.164   1.425   4.152
 3536SOL    HW211151   3.019   1.350   4.144
 3537SOL     OW11152   3.134   1.445   4.866
 3537SOL    HW111153   3.181   1.458   4.953
 3537SOL    HW211154   3.068   1.371   4.875
 3538SOL     OW11155   3.444   0.639   4.196
 3538SOL    HW111156   3.413   0.700   4.269
 3538SOL    HW211157   3.494   0.691   4.127
 3539SOL     OW11158   2.264   0.751   5.322
 3539SOL    HW111159   2.332   0.806   5.275
 3539SOL    HW211160   2.304   0.663   5.349
 3540SOL     OW11161   3.449   0.779   5.394
 3540SOL    HW111162   3.357   0.817   5.389
 3540SOL    HW211163   3.509   0.826   5.329
 3541SOL     OW11164   2.875   0.105   5.494
 3541SOL    HW111165   2.881   0.190   5.442
 3541SOL    HW211166   2.907   0.029   5.437
 3542SOL     OW11167   2.366   0.050   5.464
 3542SOL    HW111168   2.324  -0.007   5.394
 3542SOL    HW211169   2.300   0.119   5.496
 3543SOL     OW11170   2.435   0.870   4.753
 3543SOL    HW111171   2.479   0.959   4.744
 3543SOL    HW211172   2.372   0.870   4.830
 3544SOL     OW11173   3.222   0.862   4.769
 3544SOL    HW111174   3.147   0.862   4.703
 3544SOL    HW211175   3.259   0.770   4.778
 3545SOL     OW11176   3.071   0.525   3.999
 3545SOL    HW111177   3.084   0.441   4.053
 3545SOL    HW211178   3.042   0.599   4.059
 3546SOL     OW11179   2.169   0.213   4.955
 3546SOL    HW111180   2.146   0.250   5.045
 3546SOL    HW211181   2.139   0.118   4.949
 3547SOL     OW11182   2.594   0.634   4.788
 3547SOL    HW111183   2.653   0.608   4.712
 3547SOL    HW211184   2.566   0.730   4.777
 3548SOL     OW11185   3.590   0.935   5.578
 3548SOL    HW111186   3.544   0.928   5.489
 3548SOL    HW211187   3.528   0.979   5.644
 3549SOL     OW11188   2.169   0.063   4.342
 3549SOL    HW111189   2.158   0.157   4.375
 3549SOL    HW211190   2.164   0.000   4.419
 3550SOL     OW11191   3.484   0.367   4.098
 3550SOL    HW111192   3.486   0.291   4.162
 3550SOL    HW211193   3.436   0.444   4.138
 3551SOL     OW11194   2.885   0.766   4.690
 3551SOL    HW111195   2.900   0.787   4.786
 3551SOL    HW211196   2.855   0.671   4.681
 3552SOL     OW11197   2.842   1.573   5.424
 3552SOL    HW111198   2.822   1.617   5.336
 3552SOL    HW211199   2.881   1.482   5.408
 3553SOL     OW11200   3.721   1.518   5.329
 3553SOL    HW111201   3.735   1.545   5.234
 3553SOL    HW211202   3.804   1.540   5.382
 3554SOL     OW11203   2.212   0.898   5.528
 3554SOL    HW111204   2.288   0.942   5.576
 3554SOL    HW211205   2.247   0.851   5.446
 3555SOL     OW11206   3.402   0.274   3.849
 3555SOL    HW111207   3.341   0.199   3.872
 3555SOL    HW211208   3.424   0.326   3.932
 3556SOL     OW11209   3.165   0.838   3.766
 3556SOL    HW111210   3.199   0.745   3.781
 3556SOL    HW211211   3.183   0.865   3.671
 3557SOL     OW11212   2.930   1.333   4.573
 3557SOL    HW111213   2.937   1.249   4.518
 3557SOL    HW211214   2.992   1.402   4.537
 3558SOL     OW11215   2.181   0.810   4.673
 3558SOL    HW111216   2.274   0.846   4.678
 3558SOL    HW211217   2.175   0.725   4.725
 3559SOL     OW11218   2.201   0.509   4.730
 3559SOL    HW111219   2.149   0.426   4.713
 3559SOL    HW211220   2.278   0.514   4.666
 3560SOL     OW11221   3.000   0.380   5.402
 3560SOL    HW111222   2.955   0.443   5.466
 3560SOL    HW211223   3.093   0.411   5.385
 3561SOL     OW11224   3.022   0.207   5.201
 3561SOL    HW111225   3.022   0.271   5.278
 3561SOL    HW211226   3.050   0.255   5.118
 3562SOL     OW11227   1.870   1.326   3.924
 3562SOL    HW111228   1.777   1.347   3.893
 3562SOL    HW211229   1.880   1.227   3.937
 3563SOL     OW11230   1.950   1.801   4.651
 3563SOL    HW111231   1.908   1.715   4.624
 3563SOL    HW211232   2.044   1.804   4.617
 3564SOL     OW11233   2.864   0.796   4.962
 3564SOL    HW111234   2.905   0.764   5.048
 3564SOL    HW211235   2.768   0.769   4.959
 3565SOL     OW11236   1.902   0.544   4.838
 3565SOL    HW111237   1.987   0.511   4.797
 3565SOL    HW211238   1.915   0.559   4.936
 3566SOL     OW11239   2.051   0.520   5.446
 3566SOL    HW111240   2.110   0.480   5.376
 3566SOL    HW211241   1.993   0.591   5.405
 3567SOL     OW11242   3.231   0.950   5.384
 3567SOL    HW111243   3.270   1.039   5.404
 3567SOL    HW211244   3.241   0.930   5.287
 3568SOL     OW11245   2.677   0.572   4.049
 3568SOL    HW111246   2.684   0.483   4.003
 3568SOL    HW211247   2.583   0.606   4.041
 3569SOL     OW11248   3.519   0.604   4.930
 3569SOL    HW111249   3.481   0.535   4.992
 3569SOL    HW211250   3.601   0.568   4.886
 3570SOL     OW11251   2.114   1.564   5.468
 3570SOL    HW111252   2.084   1.621   5.544
 3570SOL    HW211253   2.107   1.467   5.494
 3571SOL     OW11254   2.533   0.464   4.993
 3571SOL    HW111255   2.499   0.375   4.963
 3571SOL    HW211256   2.559   0.518   4.913
 3572SOL     OW11257   2.335   0.500   3.915
 3572SOL    HW111258   2.396   0.580   3.919
 3572SOL    HW211259   2.240   0.531   3.922
 3573SOL     OW11260   2.021   1.137   5.190
 3573SOL    HW111261   2.043   1.076   5.266
 3573SOL    HW211262   2.031   1.088   5.104
 3574SOL     OW11263   3.209   1.059   4.958
 3574SOL    HW111264   3.233   0.996   4.884
 3574SOL    HW211265   3.119   1.099   4.940
 3575SOL     OW11266   3.164   0.855   4.033
 3575SOL    HW111267   3.078   0.824   4.075
 3575SOL    HW211268   3.160   0.841   3.934
 3576SOL     OW11269   3.621   1.747   4.878
 3576SOL    HW111270   3.682   1.777   4.805
 3576SOL    HW211271   3.583   1.658   4.856
 3577SOL     OW11272   3.114   1.731   4.852
 3577SOL    HW111273   3.198   1.736   4.798
 3577SOL    HW211274   3.091   1.635   4.870
 3578SOL     OW11275   1.945   1.258   4.746
 3578SOL    HW111276   1.940   1.257   4.846
 3578SOL    HW211277   1.862   1.217   4.708
 3579SOL     OW11278   3.588   0.135   4.247
 3579SOL    HW111279   3.661   0.118   4.180
 3579SOL    HW211280   3.557   0.048   4.285
 3580SOL     OW11281   3.250   1.573   4.201
 3580SOL    HW111282   3.317   1.585   4.127
 3580SOL    HW211283   3.210   1.662   4.224
 3581SOL     OW11284   3.142   0.927   4.396
 3581SOL    HW111285   3.202   0.846   4.398
 3581SOL    HW211286   3.182   0.996   4.336
 3582SOL     OW11287   2.692   1.273   5.146
 3582SOL    HW111288   2.687   1.306   5.241
 3582SOL    HW211289   2.606   1.292   5.100
 3583SOL     OW11290   2.534   1.616   3.878
 3583SOL    HW111291   2.543   1.626   3.779
 3583SOL    HW211292   2.494   1.527   3.899
 3584SOL     OW11293   3.512   1.720   5.118
 3584SOL    HW111294   3.565   1.730   5.034
 3584SOL    HW211295   3.485   1.810   5.152
 3585SOL     OW11296   3.703   0.175   4.687
 3585SOL    HW111297   3.742   0.090   4.651
 3585SOL    HW211298   3.605   0.177   4.668
 3586SOL     OW11299   2.125   0.326   4.444
 3586SOL    HW111300   2.046   0.377   4.410
 3586SOL    HW211301   2.116   0.311   4.542
 3587SOL     OW11302   3.056   1.612   3.755
 3587SOL    HW111303   3.062   1.519   3.792
 3587SOL    HW211304   2.997   1.612   3.675
 3588SOL     OW11305   2.684   1.002   5.096
 3588SOL    HW111306   2.724   1.001   5.004
 3588SOL    HW211307   2.694   1.094   5.136
 3589SOL     OW11308   2.778   0.910   4.015
 3589SOL    HW111309   2.841   0.948   3.947
 3589SOL    HW211310   2.818   0.827   4.054
 3590SOL     OW11311   3.366   1.607   3.768
 3590SOL    HW111312   3.274   1.644   3.775
 3590SOL    HW211313   3.404   1.627   3.678
 3591SOL     OW11314   2.234   1.288   5.214
 3591SOL    HW111315   2.221   1.381   5.180
 3591SOL    HW211316   2.150   1.236   5.201
 3592SOL     OW11317   3.476   1.292   5.013
 3592SOL    HW111318   3.536   1.295   5.093
 3592SOL    HW211319   3.401   1.356   5.026
 3593SOL     OW11320   2.901   1.098   4.420
 3593SOL    HW111321   2.831   1.051   4.474
 3593SOL    HW211322   2.960   1.030   4.377
 3594SOL     OW11323   2.876   0.236   4.695
 3594SOL    HW111324   2.868   0.200   4.602
 3594SOL    HW211325   2.874   0.160   4.760
 3595SOL     OW11326   2.452   1.487   4.215
 3595SOL    HW111327   2.494   1.429   4.145
 3595SOL    HW211328   2.408   1.566   4.171
 3596SOL     OW11329   3.571   0.385   5.105
 3596SOL    HW111330   3.644   0.454   5.109
 3596SOL    HW211331   3.599   0.310   5.046
 3597SOL     OW11332   2.117   1.348   4.014
 3597SOL    HW111333   2.021   1.349   3.987
 3597SOL    HW211334   2.129   1.401   4.098
 3598SOL     OW11335   1.967   1.013   5.450
 3598SOL    HW111336   1.890   0.980   5.504
 3598SOL    HW211337   2.052   0.983   5.492
 3599SOL     OW11338   2.534   0.203   5.213
 3599SOL    HW111339   2.624   0.187   5.173
 3599SOL    HW211340   2.542   0.208   5.312
 3600SOL     OW11341   1.937   0.345   3.757
 3600SOL    HW111342   1.845   0.317   3.728
 3600SOL    HW211343   1.968   0.422   3.701
 3601SOL     OW11344   3.302   0.856   5.122
 3601SOL    HW111345   3.245   0.908   5.059
 3601SOL    HW211346   3.398   0.868   5.098
 3602SOL     OW11347   1.934   0.166   4.042
 3602SOL    HW111348   1.917   0.249   3.988
 3602SOL    HW211349   2.024   0.129   4.020
 3603SOL     OW11350   3.045   1.335   3.843
 3603SOL    HW111351   2.946   1.324   3.845
 3603SOL    HW211352   3.079   1.350   3.936
 3604SOL     OW11353   2.475   0.842   5.155
 3604SOL    HW111354   2.531   0.923   5.138
 3604SOL    HW211355   2.534   0.762   5.158
 3605SOL     OW11356   3.355   1.767   4.683
 3605SOL    HW111357   3.388   1.831   4.614
 3605SOL    HW211358   3.421   1.761   4.758
 3606SOL     OW11359   2.578   0.565   5.432
 3606SOL    HW111360   2.597   0.630   5.506
 3606SOL    HW211361   2.638   0.485   5.441
 3607SOL     OW11362   3.312   1.220   5.357
 3607SOL    HW111363   3.303   1.210   5.456
 3607SOL    HW211364   3.408   1.213   5.331
 3608SOL     OW11365   3.536   0.883   4.978
 3608SOL    HW111366   3.509   0.794   4.941
 3608SOL    HW211367   3.537   0.951   4.905
 3609SOL     OW11368   3.087   0.325   4.173
 3609SOL    HW111369   3.152   0.251   4.162
 3609SOL    HW211370   3.107   0.375   4.257
 3610SOL     OW11371   2.456   0.745   4.376
 3610SOL    HW111372   2.506   0.830   4.357
 3610SOL    HW211373   2.368   0.747   4.328
 3611SOL     OW11374   3.639   0.342   5.366
 3611SOL    HW111375   3.622   0.373   5.272
 3611SOL    HW211376   3.555   0.305   5.404
 3612SOL     OW11377   3.592   0.934   5.241
 3612SOL    HW111378   3.630   1.025   5.256
 3612SOL    HW211379   3.584   0.917   5.142
 3613SOL     OW11380   2.721   1.374   3.740
 3613SOL    HW111381   2.675   1.389   3.828
 3613SOL    HW211382   2.765   1.459   3.710
 3614SOL     OW11383   2.721   0.956   4.585
 3614SOL    HW111384   2.775   0.887   4.633
 3614SOL    HW211385   2.689   1.025   4.651
 3615SOL     OW11386   2.945   0.984   3.811
 3615SOL    HW111387   2.922   1.037   3.729
 3615SOL    HW211388   3.026   0.928   3.792
 3616SOL     OW11389   3.723   1.569   4.575
 3616SOL    HW111390   3.652   1.557   4.505
 3616SOL    HW211391   3.724   1.490   4.635
 3617SOL     OW11392   2.083   1.314   5.568
 3617SOL    HW111393   2.018   1.241   5.547
 3617SOL    HW211394   2.087   1.328   5.666
 3618SOL     OW11395   1.941   1.240   4.377
 3618SOL    HW111396   1.940   1.193   4.465
 3618SOL    HW211397   2.023   1.212   4.326
 3619SOL     OW11398   3.686   0.192   4.951
 3619SOL    HW111399   3.682   0.102   4.995
 3619SOL    HW211400   3.689   0.181   4.852
 3620SOL     OW11401   2.290   0.424   4.244
 3620SOL    HW111402   2.320   0.352   4.182
 3620SOL    HW211403   2.251   0.384   4.327
 3621SOL     OW11404   3.567   1.487   4.828
 3621SOL    HW111405   3.474   1.462   4.801
 3621SOL    HW211406   3.593   1.437   4.910
 3622SOL     OW11407   2.179   0.547   5.004
 3622SOL    HW111408   2.217   0.488   5.076
 3622SOL    HW211409   2.219   0.521   4.916
 3623SOL     OW11410   2.674   1.586   4.411
 3623SOL    HW111411   2.706   1.596   4.317
 3623SOL    HW211412   2.595   1.524   4.413
 3624SOL     OW11413   3.286   0.214   4.836
 3624SOL    HW111414   3.338   0.149   4.891
 3624SOL    HW211415   3.237   0.277   4.897
 3625SOL     OW11416   2.863   0.034   4.878
 3625SOL    HW111417   2.800  -0.038   4.847
 3625SOL    HW211418   2.956  -0.002   4.878
 3626SOL     OW11419   2.632   1.330   4.025
 3626SOL    HW111420   2.586   1.243   4.042
 3626SOL    HW211421   2.723   1.327   4.066
 3627SOL     OW11422   3.214   0.052   3.892
 3627SOL    HW111423   3.249   0.011   3.808
 3627SOL    HW211424   3.124   0.014   3.912
 3628SOL     OW11425   3.162   0.453   4.415
 3628SOL    HW111426   3.103   0.533   4.419
 3628SOL    HW211427   3.177   0.418   4.508
 3629SOL     OW11428   3.455   0.221   4.606
 3629SOL    HW111429   3.371   0.220   4.660
 3629SOL    HW211430   3.457   0.304   4.550
 3630SOL     OW11431   1.901   1.077   4.024
 3630SOL    HW111432   2.000   1.066   4.015
 3630SOL    HW211433   1.861   0.991   4.056
 3631SOL     OW11434   2.737   1.646   4.061
 3631SOL    HW111435   2.660   1.611   4.007
 3631SOL    HW211436   2.705   1.717   4.123
 3632SOL     OW11437   2.092   0.628   5.699
 3632SOL    HW111438   1.999   0.626   5.736
 3632SOL    HW211439   2.093   0.589   5.607
 3633SOL     OW11440   2.087   0.275   6.582
 3633SOL    HW111441   2.122   0.258   6.674
 3633SOL    HW211442   1.999   0.230   6.570
 3634SOL     OW11443   1.881   0.368   6.233
 3634SOL    HW111444   1.799   0.411   6.272
 3634SOL    HW211445   1.853   0.295   6.170
 3635SOL     OW11446   2.431   1.275   6.751
 3635SOL    HW111447   2.338   1.268   6.714
 3635SOL    HW211448   2.442   1.364   6.795
 3636SOL     OW11449   3.417   1.511   6.289
 3636SOL    HW111450   3.360   1.495   6.370
 3636SOL    HW211451   3.358   1.521   6.209
 3637SOL     OW11452   2.997   0.703   6.303
 3637SOL    HW111453   3.054   0.781   6.278
 3637SOL    HW211454   2.937   0.729   6.379
 3638SOL     OW11455   3.617   0.607   5.817
 3638SOL    HW111456   3.605   0.594   5.718
 3638SOL    HW211457   3.587   0.526   5.866
 3639SOL     OW11458   2.630   1.144   6.609
 3639SOL    HW111459   2.552   1.161   6.669
 3639SOL    HW211460   2.664   1.231   6.573
 3640SOL     OW11461   2.712   0.798   7.409
 3640SOL    HW111462   2.708   0.874   7.474
 3640SOL    HW211463   2.734   0.834   7.318
 3641SOL     OW11464   2.547   1.012   6.251
 3641SOL    HW111465   2.616   0.996   6.321
 3641SOL    HW211466   2.474   1.069   6.289
 3642SOL     OW11467   2.548   1.161   7.389
 3642SOL    HW111468   2.608   1.240   7.403
 3642SOL    HW211469   2.462   1.192   7.348
 3643SOL     OW11470   2.197   1.435   6.647
 3643SOL    HW111471   2.119   1.404   6.594
 3643SOL    HW211472   2.255   1.493   6.590
 3644SOL     OW11473   3.322   1.505   6.925
 3644SOL    HW111474   3.346   1.599   6.951
 3644SOL    HW211475   3.306   1.451   7.007
 3645SOL     OW11476   2.300   0.392   7.085
 3645SOL    HW111477   2.382   0.336   7.094
 3645SOL    HW211478   2.219   0.334   7.089
 3646SOL     OW11479   3.465   0.447   6.323
 3646SOL    HW111480   3.391   0.493   6.273
 3646SOL    HW211481   3.516   0.515   6.376
 3647SOL     OW11482   2.989   1.341   7.276
 3647SOL    HW111483   3.036   1.341   7.364
 3647SOL    HW211484   2.941   1.254   7.265
 3648SOL     OW11485   2.102   1.091   6.472
 3648SOL    HW111486   2.116   1.007   6.524
 3648SOL    HW211487   2.047   1.155   6.527
 3649SOL     OW11488   2.482   1.786   7.025
 3649SOL    HW111489   2.390   1.769   7.060
 3649SOL    HW211490   2.510   1.878   7.051
 3650SOL     OW11491   2.468   0.964   5.709
 3650SOL    HW111492   2.475   1.048   5.655
 3650SOL    HW211493   2.514   0.977   5.797
 3651SOL     OW11494   3.456   0.114   7.066
 3651SOL    HW111495   3.438   0.181   6.994
 3651SOL    HW211496   3.453   0.160   7.155
 3652SOL     OW11497   1.984   0.643   6.149
 3652SOL    HW111498   1.939   0.555   6.166
 3652SOL    HW211499   1.983   0.697   6.233
 3653SOL     OW11500   3.704   1.767   5.945
 3653SOL    HW111501   3.758   1.738   6.025
 3653SOL    HW211502   3.734   1.857   5.916
 3654SOL     OW11503   3.551   0.922   6.198
 3654SOL    HW111504   3.646   0.893   6.206
 3654SOL    HW211505   3.543   0.987   6.123
 3655SOL     OW11506   3.503   1.108   6.018
 3655SOL    HW111507   3.589   1.110   5.966
 3655SOL    HW211508   3.517   1.155   6.106
 3656SOL     OW11509   1.975   0.737   7.183
 3656SOL    HW111510   2.063   0.724   7.228
 3656SOL    HW211511   1.962   0.834   7.161
 3657SOL     OW11512   2.475   1.365   6.312
 3657SOL    HW111513   2.426   1.278   6.321
 3657SOL    HW211514   2.452   1.408   6.225
 3658SOL     OW11515   3.155   1.228   7.009
 3658SOL    HW111516   3.192   1.155   6.951
 3658SOL    HW211517   3.207   1.233   7.094
 3659SOL     OW11518   2.671   0.004   6.088
 3659SOL    HW111519   2.711   0.095   6.079
 3659SOL    HW211520   2.571   0.012   6.094
 3660SOL     OW11521   2.059   0.976   6.850
 3660SOL    HW111522   2.148   0.931   6.836
 3660SOL    HW211523   1.986   0.911   6.831
 3661SOL     OW11524   3.387   0.999   5.776
 3661SOL    HW111525   3.324   0.923   5.789
 3661SOL    HW211526   3.435   1.017   5.862
 3662SOL     OW11527   3.049   1.792   7.202
 3662SOL    HW111528   3.073   1.852   7.126
 3662SOL    HW211529   3.056   1.697   7.172
 3663SOL     OW11530   2.179   0.251   7.387
 3663SOL    HW111531   2.250   0.322   7.393
 3663SOL    HW211532   2.091   0.290   7.415
 3664SOL     OW11533   3.328   1.417   6.539
 3664SOL    HW111534   3.269   1.423   6.619
 3664SOL    HW211535   3.313   1.329   6.493
 3665SOL     OW11536   3.529   1.714   6.158
 3665SOL    HW111537   3.488   1.691   6.070
 3665SOL    HW211538   3.511   1.640   6.223
 3666SOL     OW11539   2.460   0.729   5.856
 3666SOL    HW111540   2.484   0.798   5.788
 3666SOL    HW211541   2.382   0.762   5.910
 3667SOL     OW11542   3.143   0.345   6.530
 3667SOL    HW111543   3.057   0.295   6.517
 3667SOL    HW211544   3.205   0.291   6.586
 3668SOL     OW11545   3.438   1.662   5.893
 3668SOL    HW111546   3.527   1.708   5.896
 3668SOL    HW211547   3.417   1.638   5.798
 3669SOL     OW11548   2.669   0.605   7.051
 3669SOL    HW111549   2.622   0.602   7.140
 3669SOL    HW211550   2.618   0.550   6.985
 3670SOL     OW11551   3.256   0.469   7.260
 3670SOL    HW111552   3.236   0.512   7.348
 3670SOL    HW211553   3.334   0.407   7.269
 3671SOL     OW11554   2.835   0.890   7.158
 3671SOL    HW111555   2.881   0.806   7.129
 3671SOL    HW211556   2.779   0.924   7.083
 3672SOL     OW11557   2.853   0.410   6.828
 3672SOL    HW111558   2.776   0.444   6.882
 3672SOL    HW211559   2.819   0.359   6.749
 3673SOL     OW11560   2.903   0.701   6.015
 3673SOL    HW111561   2.929   0.697   6.111
 3673SOL    HW211562   2.818   0.650   6.001
 3674SOL     OW11563   1.938   0.811   6.375
 3674SOL    HW111564   2.037   0.799   6.384
 3674SOL    HW211565   1.914   0.906   6.396
 3675SOL     OW11566   1.992   1.821   7.157
 3675SOL    HW111567   1.982   1.806   7.256
 3675SOL    HW211568   1.906   1.857   7.121
 3676SOL     OW11569   2.727   0.348   5.781
 3676SOL    HW111570   2.786   0.411   5.732
 3676SOL    HW211571   2.746   0.254   5.752
 3677SOL     OW11572   3.581   0.585   7.417
 3677SOL    HW111573   3.555   0.674   7.381
 3677SOL    HW211574   3.579   0.517   7.344
 3678SOL     OW11575   3.224   1.144   6.131
 3678SOL    HW111576   3.307   1.115   6.083
 3678SOL    HW211577   3.175   1.211   6.075
 3679SOL     OW11578   2.412   0.196   6.471
 3679SOL    HW111579   2.407   0.191   6.571
 3679SOL    HW211580   2.414   0.292   6.442
 3680SOL     OW11581   2.870   1.456   6.063
 3680SOL    HW111582   2.824   1.528   6.011
 3680SOL    HW211583   2.866   1.476   6.161
 3681SOL     OW11584   3.657   1.066   6.459
 3681SOL    HW111585   3.595   1.051   6.383
 3681SOL    HW211586   3.605   1.077   6.544
 3682SOL     OW11587   3.089   1.550   7.092
 3682SOL    HW111588   3.095   1.473   7.156
 3682SOL    HW211589   3.037   1.524   7.012
 3683SOL     OW11590   2.183   0.943   5.828
 3683SOL    HW111591   2.265   0.982   5.786
 3683SOL    HW211592   2.156   0.861   5.779
 3684SOL     OW11593   3.320   0.735   6.314
 3684SOL    HW111594   3.315   0.670   6.389
 3684SOL    HW211595   3.400   0.794   6.327
 3685SOL     OW11596   2.323   1.266   7.313
 3685SOL    HW111597   2.273   1.267   7.227
 3685SOL    HW211598   2.260   1.248   7.389
 3686SOL     OW11599   2.064   0.285   7.084
 3686SOL    HW111600   1.984   0.345   7.071
 3686SOL    HW211601   2.054   0.236   7.170
 3687SOL     OW11602   3.494   1.377   5.667
 3687SOL    HW111603   3.462   1.471   5.657
 3687SOL    HW211604   3.418   1.314   5.655
 3688SOL     OW11605   3.262   0.107   6.012
 3688SOL    HW111606   3.238   0.070   5.922
 3688SOL    HW211607   3.361   0.123   6.016
 3689SOL     OW11608   2.111   1.785   6.827
 3689SOL    HW111609   2.168   1.720   6.877
 3689SOL    HW211610   2.095   1.752   6.734
 3690SOL     OW11611   2.244   0.700   6.066
 3690SOL    HW111612   2.289   0.610   6.063
 3690SOL    HW211613   2.150   0.689   6.099
 3691SOL     OW11614   3.409   0.222   7.315
 3691SOL    HW111615   3.404   0.259   7.407
 3691SOL    HW211616   3.337   0.153   7.303
 3692SOL     OW11617   2.476   0.122   5.703
 3692SOL    HW111618   2.574   0.100   5.710
 3692SOL    HW211619   2.445   0.105   5.610
 3693SOL     OW11620   2.643   0.264   7.335
 3693SOL    HW111621   2.710   0.203   7.378
 3693SOL    HW211622   2.570   0.283   7.400
 3694SOL     OW11623   2.750   1.514   6.781
 3694SOL    HW111624   2.727   1.489   6.687
 3694SOL    HW211625   2.811   1.445   6.820
 3695SOL     OW11626   3.213   0.590   7.019
 3695SOL    HW111627   3.241   0.547   7.104
 3695SOL    HW211628   3.238   0.686   7.020
 3696SOL     OW11629   2.665   1.402   6.510
 3696SOL    HW111630   2.755   1.416   6.468
 3696SOL    HW211631   2.594   1.404   6.439
 3697SOL     OW11632   2.784   0.503   6.485
 3697SOL    HW111633   2.759   0.494   6.389
 3697SOL    HW211634   2.832   0.421   6.516
 3698SOL     OW11635   2.401   0.064   6.098
 3698SOL    HW111636   2.320   0.065   6.156
 3698SOL    HW211637   2.404   0.147   6.043
 3699SOL     OW11638   3.296   1.188   5.627
 3699SOL    HW111639   3.328   1.112   5.684
 3699SOL    HW211640   3.204   1.215   5.657
 3700SOL     OW11641   2.159   0.035   5.757
 3700SOL    HW111642   2.208   0.119   5.736
 3700SOL    HW211643   2.221  -0.030   5.802
 3701SOL     OW11644   2.797   0.236   6.066
 3701SOL    HW111645   2.749   0.277   5.988
 3701SOL    HW211646   2.896   0.234   6.047
 3702SOL     OW11647   2.938   0.683   7.050
 3702SOL    HW111648   2.858   0.622   7.053
 3702SOL    HW211649   3.019   0.630   7.026
 3703SOL     OW11650   3.089   1.570   6.379
 3703SOL    HW111651   3.110   1.644   6.314
 3703SOL    HW211652   3.157   1.570   6.452
 3704SOL     OW11653   2.321   1.152   6.327
 3704SOL    HW111654   2.250   1.125   6.392
 3704SOL    HW211655   2.295   1.124   6.234
 3705SOL     OW11656   3.133   1.797   6.177
 3705SOL    HW111657   3.177   1.861   6.113
 3705SOL    HW211658   3.083   1.849   6.247
 3706SOL     OW11659   2.894   0.549   5.602
 3706SOL    HW111660   2.853   0.631   5.563
 3706SOL    HW211661   2.958   0.575   5.675
 3707SOL     OW11662   1.940   0.556   6.972
 3707SOL    HW111663   2.032   0.555   6.931
 3707SOL    HW211664   1.934   0.630   7.039
 3708SOL     OW11665   2.423   0.222   6.733
 3708SOL    HW111666   2.461   0.138   6.770
 3708SOL    HW211667   2.335   0.241   6.777
 3709SOL     OW11668   2.728   0.454   6.228
 3709SOL    HW111669   2.696   0.526   6.166
 3709SOL    HW211670   2.752   0.373   6.175
 3710SOL     OW11671   2.879   0.039   6.339
 3710SOL    HW111672   2.807   0.044   6.270
 3710SOL    HW211673   2.855  -0.030   6.408
 3711SOL     OW11674   3.291   1.173   6.453
 3711SOL    HW111675   3.236   1.089   6.446
 3711SOL    HW211676   3.317   1.202   6.361
 3712SOL     OW11677   3.328   0.590   6.578
 3712SOL    HW111678   3.298   0.495   6.585
 3712SOL    HW211679   3.401   0.606   6.644
 3713SOL     OW11680   3.719   0.833   5.963
 3713SOL    HW111681   3.761   0.769   6.027
 3713SOL    HW211682   3.681   0.782   5.885
 3714SOL     OW11683   3.526   1.280   6.243
 3714SOL    HW111684   3.625   1.288   6.257
 3714SOL    HW211685   3.481   1.364   6.274
 3715SOL     OW11686   3.252   0.575   5.664
 3715SOL    HW111687   3.198   0.554   5.745
 3715SOL    HW211688   3.343   0.534   5.673
 3716SOL     OW11689   2.389   0.256   5.914
 3716SOL    HW111690   2.416   0.197   5.839
 3716SOL    HW211691   2.389   0.351   5.883
 3717SOL     OW11692   3.616   1.223   7.174
 3717SOL    HW111693   3.707   1.184   7.161
 3717SOL    HW211694   3.624   1.319   7.198
 3718SOL     OW11695   2.926   1.347   6.926
 3718SOL    HW111696   2.846   1.324   6.981
 3718SOL    HW211697   3.009   1.321   6.975
 3719SOL     OW11698   3.454   1.629   7.211
 3719SOL    HW111699   3.481   1.663   7.121
 3719SOL    HW211700   3.533   1.591   7.257
 3720SOL     OW11701   2.973   1.195   6.686
 3720SOL    HW111702   2.933   1.239   6.767
 3720SOL    HW211703   2.932   1.232   6.603
 3721SOL     OW11704   3.500   1.099   6.665
 3721SOL    HW111705   3.505   1.180   6.724
 3721SOL    HW211706   3.414   1.101   6.614
 3722SOL     OW11707   2.777   0.089   6.988
 3722SOL    HW111708   2.802   0.069   6.893
 3722SOL    HW211709   2.849   0.145   7.030
 3723SOL     OW11710   2.842   1.116   7.305
 3723SOL    HW111711   2.743   1.122   7.315
 3723SOL    HW211712   2.865   1.036   7.249
 3724SOL     OW11713   2.567   1.050   5.954
 3724SOL    HW111714   2.553   1.057   6.053
 3724SOL    HW211715   2.651   0.999   5.936
 3725SOL     OW11716   2.272   0.813   6.837
 3725SOL    HW111717   2.358   0.825   6.887
 3725SOL    HW211718   2.230   0.726   6.864
 3726SOL     OW11719   3.136   0.386   6.848
 3726SOL    HW111720   3.157   0.460   6.912
 3726SOL    HW211721   3.047   0.403   6.805
 3727SOL     OW11722   1.926   1.564   6.917
 3727SOL    HW111723   1.880   1.646   6.883
 3727SOL    HW211724   2.024   1.583   6.926
 3728SOL     OW11725   2.229   1.100   6.087
 3728SOL    HW111726   2.222   1.183   6.031
 3728SOL    HW211727   2.233   1.020   6.027
 3729SOL     OW11728   2.428   0.537   6.451
 3729SOL    HW111729   2.440   0.603   6.377
 3729SOL    HW211730   2.474   0.571   6.534
 3730SOL     OW11731   3.114   1.348   5.974
 3730SOL    HW111732   3.164   1.425   6.014
 3730SOL    HW211733   3.019   1.350   6.006
 3731SOL     OW11734   3.134   1.445   6.728
 3731SOL    HW111735   3.181   1.458   6.815
 3731SOL    HW211736   3.068   1.371   6.737
 3732SOL     OW11737   3.444   0.639   6.058
 3732SOL    HW111738   3.413   0.700   6.131
 3732SOL    HW211739   3.494   0.691   5.989
 3733SOL     OW11740   2.216   1.510   6.915
 3733SOL    HW111741   2.195   1.466   6.828
 3733SOL    HW211742   2.313   1.536   6.918
 3734SOL     OW11743   2.264   0.751   7.184
 3734SOL    HW111744   2.332   0.806   7.137
 3734SOL    HW211745   2.304   0.663   7.211
 3735SOL     OW11746   3.449   0.779   7.256
 3735SOL    HW111747   3.357   0.817   7.251
 3735SOL    HW211748   3.509   0.826   7.191
 3736SOL     OW11749   2.875   0.105   7.356
 3736SOL    HW111750   2.881   0.190   7.304
 3736SOL    HW211751   2.907   0.029   7.299
 3737SOL     OW11752   2.366   0.050   7.326
 3737SOL    HW111753   2.324  -0.007   7.256
 3737SOL    HW211754   2.300   0.119   7.358
 3738SOL     OW11755   2.435   0.870   6.615
 3738SOL    HW111756   2.479   0.959   6.606
 3738SOL    HW211757   2.372   0.870   6.692
 3739SOL     OW11758   3.222   0.862   6.631
 3739SOL    HW111759   3.147   0.862   6.565
 3739SOL    HW211760   3.259   0.770   6.640
 3740SOL     OW11761   3.071   0.525   5.861
 3740SOL    HW111762   3.084   0.441   5.915
 3740SOL    HW211763   3.042   0.599   5.921
 3741SOL     OW11764   2.169   0.213   6.817
 3741SOL    HW111765   2.146   0.250   6.907
 3741SOL    HW211766   2.139   0.118   6.811
 3742SOL     OW11767   1.899   1.310   6.868
 3742SOL    HW111768   1.952   1.261   6.936
 3742SOL    HW211769   1.921   1.408   6.873
 3743SOL     OW11770   2.594   0.634   6.650
 3743SOL    HW111771   2.653   0.608   6.574
 3743SOL    HW211772   2.566   0.730   6.639
 3744SOL     OW11773   3.590   0.935   7.440
 3744SOL    HW111774   3.544   0.928   7.351
 3744SOL    HW211775   3.528   0.979   7.506
 3745SOL     OW11776   2.169   0.063   6.204
 3745SOL    HW111777   2.158   0.157   6.237
 3745SOL    HW211778   2.164   0.000   6.281
 3746SOL     OW11779   3.484   0.367   5.960
 3746SOL    HW111780   3.486   0.291   6.024
 3746SOL    HW211781   3.436   0.444   6.000
 3747SOL     OW11782   2.885   0.766   6.552
 3747SOL    HW111783   2.900   0.787   6.648
 3747SOL    HW211784   2.855   0.671   6.543
 3748SOL     OW11785   2.842   1.573   7.286
 3748SOL    HW111786   2.822   1.617   7.198
 3748SOL    HW211787   2.881   1.482   7.270
 3749SOL     OW11788   3.721   1.518   7.191
 3749SOL    HW111789   3.735   1.545   7.096
 3749SOL    HW211790   3.804   1.540   7.244
 3750SOL     OW11791   2.212   0.898   7.390
 3750SOL    HW111792   2.288   0.942   7.438
 3750SOL    HW211793   2.247   0.851   7.308
 3751SOL     OW11794   3.402   0.274   5.711
 3751SOL    HW111795   3.341   0.199   5.734
 3751SOL    HW211796   3.424   0.326   5.794
 3752SOL     OW11797   3.165   0.838   5.628
 3752SOL    HW111798   3.199   0.745   5.643
 3752SOL    HW211799   3.183   0.865   5.533
 3753SOL     OW11800   2.930   1.333   6.435
 3753SOL    HW111801   2.937   1.249   6.380
 3753SOL    HW211802   2.992   1.402   6.399
 3754SOL     OW11803   2.181   0.810   6.535
 3754SOL    HW111804   2.274   0.846   6.540
 3754SOL    HW211805   2.175   0.725   6.587
 3755SOL     OW11806   2.201   0.509   6.592
 3755SOL    HW111807   2.149   0.426   6.575
 3755SOL    HW211808   2.278   0.514   6.528
 3756SOL     OW11809   3.000   0.380   7.264
 3756SOL    HW111810   2.955   0.443   7.328
 3756SOL    HW211811   3.093   0.411   7.247
 3757SOL     OW11812   3.022   0.207   7.063
 3757SOL    HW111813   3.022   0.271   7.140
 3757SOL    HW211814   3.050   0.255   6.980
 3758SOL     OW11815   1.870   1.326   5.786
 3758SOL    HW111816   1.777   1.347   5.755
 3758SOL    HW211817   1.880   1.227   5.799
 3759SOL     OW11818   2.366   1.568   6.496
 3759SOL    HW111819   2.432   1.642   6.505
 3759SOL    HW211820   2.410   1.489   6.454
 3760SOL     OW11821   2.864   0.796   6.824
 3760SOL    HW111822   2.905   0.764   6.910
 3760SOL    HW211823   2.768   0.769   6.821
 3761SOL     OW11824   1.902   0.544   6.700
 3761SOL    HW111825   1.987   0.511   6.659
 3761SOL    HW211826   1.915   0.559   6.798
 3762SOL     OW11827   2.051   0.520   7.308
 3762SOL    HW111828   2.110   0.480   7.238
 3762SOL    HW211829   1.993   0.591   7.267
 3763SOL     OW11830   3.231   0.950   7.246
 3763SOL    HW111831   3.270   1.039   7.266
 3763SOL    HW211832   3.241   0.930   7.149
 3764SOL     OW11833   2.677   0.572   5.911
 3764SOL    HW111834   2.684   0.483   5.865
 3764SOL    HW211835   2.583   0.606   5.903
 3765SOL     OW11836   3.519   0.604   6.792
 3765SOL    HW111837   3.481   0.535   6.854
 3765SOL    HW211838   3.601   0.568   6.748
 3766SOL     OW11839   2.114   1.564   7.330
 3766SOL    HW111840   2.084   1.621   7.406
 3766SOL    HW211841   2.107   1.467   7.356
 3767SOL     OW11842   2.533   0.464   6.855
 3767SOL    HW111843   2.499   0.375   6.825
 3767SOL    HW211844   2.559   0.518   6.775
 3768SOL     OW11845   2.792   1.678   7.051
 3768SOL    HW111846   2.768   1.660   6.956
 3768SOL    HW211847   2.822   1.772   7.061
 3769SOL     OW11848   2.335   0.500   5.777
 3769SOL    HW111849   2.396   0.580   5.781
 3769SOL    HW211850   2.240   0.531   5.784
 3770SOL     OW11851   2.021   1.137   7.052
 3770SOL    HW111852   2.043   1.076   7.128
 3770SOL    HW211853   2.031   1.088   6.966
 3771SOL     OW11854   3.209   1.059   6.820
 3771SOL    HW111855   3.233   0.996   6.746
 3771SOL    HW211856   3.119   1.099   6.802
 3772SOL     OW11857   3.164   0.855   5.895
 3772SOL    HW111858   3.078   0.824   5.937
 3772SOL    HW211859   3.160   0.841   5.796
 3773SOL     OW11860   3.621   1.747   6.740
 3773SOL    HW111861   3.682   1.777   6.667
 3773SOL    HW211862   3.583   1.658   6.718
 3774SOL     OW11863   3.114   1.731   6.714
 3774SOL    HW111864   3.198   1.736   6.660
 3774SOL    HW211865   3.091   1.635   6.732
 3775SOL     OW11866   1.945   1.258   6.608
 3775SOL    HW111867   1.940   1.257   6.708
 3775SOL    HW211868   1.862   1.217   6.570
 3776SOL     OW11869   2.550   1.662   7.302
 3776SOL    HW111870   2.494   1.743   7.311
 3776SOL    HW211871   2.602   1.666   7.216
 3777SOL     OW11872   3.588   0.135   6.109
 3777SOL    HW111873   3.661   0.118   6.042
 3777SOL    HW211874   3.557   0.048   6.147
 3778SOL     OW11875   3.250   1.573   6.063
 3778SOL    HW111876   3.317   1.585   5.989
 3778SOL    HW211877   3.210   1.662   6.086
 3779SOL     OW11878   1.992   1.794   7.437
 3779SOL    HW111879   1.951   1.720   7.490
 3779SOL    HW211880   2.056   1.845   7.495
 3780SOL     OW11881   3.142   0.927   6.258
 3780SOL    HW111882   3.202   0.846   6.260
 3780SOL    HW211883   3.182   0.996   6.198
 3781SOL     OW11884   2.692   1.273   7.008
 3781SOL    HW111885   2.687   1.306   7.103
 3781SOL    HW211886   2.606   1.292   6.962
 3782SOL     OW11887   3.512   1.720   6.980
 3782SOL    HW111888   3.565   1.730   6.896
 3782SOL    HW211889   3.485   1.810   7.014
 3783SOL     OW11890   3.703   0.175   6.549
 3783SOL    HW111891   3.742   0.090   6.513
 3783SOL    HW211892   3.605   0.177   6.530
 3784SOL     OW11893   2.125   0.326   6.306
 3784SOL    HW111894   2.046   0.377   6.272
 3784SOL    HW211895   2.116   0.311   6.404
 3785SOL     OW11896   3.056   1.612   5.617
 3785SOL    HW111897   3.062   1.519   5.654
 3785SOL    HW211898   2.997   1.612   5.537
 3786SOL     OW11899   2.684   1.002   6.958
 3786SOL    HW111900   2.724   1.001   6.866
 3786SOL    HW211901   2.694   1.094   6.998
 3787SOL     OW11902   2.778   0.910   5.877
 3787SOL    HW111903   2.841   0.948   5.809
 3787SOL    HW211904   2.818   0.827   5.916
 3788SOL     OW11905   3.366   1.607   5.630
 3788SOL    HW111906   3.274   1.644   5.637
 3788SOL    HW211907   3.404   1.627   5.540
 3789SOL     OW11908   2.234   1.288   7.076
 3789SOL    HW111909   2.221   1.381   7.042
 3789SOL    HW211910   2.150   1.236   7.063
 3790SOL     OW11911   3.476   1.292   6.875
 3790SOL    HW111912   3.536   1.295   6.955
 3790SOL    HW211913   3.401   1.356   6.888
 3791SOL     OW11914   2.901   1.098   6.282
 3791SOL    HW111915   2.831   1.051   6.336
 3791SOL    HW211916   2.960   1.030   6.239
 3792SOL     OW11917   2.876   0.236   6.557
 3792SOL    HW111918   2.868   0.200   6.464
 3792SOL    HW211919   2.874   0.160   6.622
 3793SOL     OW11920   3.571   0.385   6.967
 3793SOL    HW111921   3.644   0.454   6.971
 3793SOL    HW211922   3.599   0.310   6.908
 3794SOL     OW11923   1.967   1.013   7.312
 3794SOL    HW111924   1.890   0.980   7.366
 3794SOL    HW211925   2.052   0.983   7.354
 3795SOL     OW11926   2.534   0.203   7.075
 3795SOL    HW111927   2.624   0.187   7.035
 3795SOL    HW211928   2.542   0.208   7.174
 3796SOL     OW11929   1.937   0.345   5.619
 3796SOL    HW111930   1.845   0.317   5.590
 3796SOL    HW211931   1.968   0.422   5.563
 3797SOL     OW11932   3.302   0.856   6.984
 3797SOL    HW111933   3.245   0.908   6.921
 3797SOL    HW211934   3.398   0.868   6.960
 3798SOL     OW11935   1.934   0.166   5.904
 3798SOL    HW111936   1.917   0.249   5.850
 3798SOL    HW211937   2.024   0.129   5.882
 3799SOL     OW11938   3.045   1.335   5.705
 3799SOL    HW111939   2.946   1.324   5.707
 3799SOL    HW211940   3.079   1.350   5.798
 3800SOL     OW11941   2.475   0.842   7.017
 3800SOL    HW111942   2.531   0.923   7.000
 3800SOL    HW211943   2.534   0.762   7.020
 3801SOL     OW11944   3.355   1.767   6.545
 3801SOL    HW111945   3.388   1.831   6.476
 3801SOL    HW211946   3.421   1.761   6.620
 3802SOL     OW11947   2.578   0.565   7.294
 3802SOL    HW111948   2.597   0.630   7.368
 3802SOL    HW211949   2.638   0.485   7.303
 3803SOL     OW11950   3.312   1.220   7.219
 3803SOL    HW111951   3.303   1.210   7.318
 3803SOL    HW211952   3.408   1.213   7.193
 3804SOL     OW11953   2.252   1.741   7.146
 3804SOL    HW111954   2.161   1.782   7.144
 3804SOL    HW211955   2.245   1.647   7.178
 3805SOL     OW11956   3.536   0.883   6.840
 3805SOL    HW111957   3.509   0.794   6.803
 3805SOL    HW211958   3.537   0.951   6.767
 3806SOL     OW11959   3.087   0.325   6.035
 3806SOL    HW111960   3.152   0.251   6.024
 3806SOL    HW211961   3.107   0.375   6.119
 3807SOL     OW11962   2.456   0.745   6.238
 3807SOL    HW111963   2.506   0.830   6.219
 3807SOL    HW211964   2.368   0.747   6.190
 3808SOL     OW11965   3.639   0.342   7.228
 3808SOL    HW111966   3.622   0.373   7.134
 3808SOL    HW211967   3.555   0.305   7.266
 3809SOL     OW11968   3.592   0.934   7.103
 3809SOL    HW111969   3.630   1.025   7.118
 3809SOL    HW211970   3.584   0.917   7.004
 3810SOL     OW11971   2.721   1.374   5.602
 3810SOL    HW111972   2.675   1.389   5.690
 3810SOL    HW211973   2.765   1.459   5.572
 3811SOL     OW11974   2.523   1.790   6.539
 3811SOL    HW111975   2.477   1.878   6.526
 3811SOL    HW211976   2.622   1.802   6.532
 3812SOL     OW11977   2.721   0.956   6.447
 3812SOL    HW111978   2.775   0.887   6.495
 3812SOL    HW211979   2.689   1.025   6.513
 3813SOL     OW11980   2.945   0.984   5.673
 3813SOL    HW111981   2.922   1.037   5.591
 3813SOL    HW211982   3.026   0.928   5.654
 3814SOL     OW11983   3.723   1.569   6.437
 3814SOL    HW111984   3.652   1.557   6.367
 3814SOL    HW211985   3.724   1.490   6.497
 3815SOL     OW11986   2.083   1.314   7.430
 3815SOL    HW111987   2.018   1.241   7.409
 3815SOL    HW211988   2.087   1.328   7.528
 3816SOL     OW11989   1.941   1.240   6.239
 3816SOL    HW111990   1.940   1.193   6.327
 3816SOL    HW211991   2.023   1.212   6.188
 3817SOL     OW11992   2.534   1.391   7.210
 3817SOL    HW111993   2.456   1.341   7.248
 3817SOL    HW211994   2.531   1.486   7.241
 3818SOL     OW11995   3.686   0.192   6.813
 3818SOL    HW111996   3.682   0.102   6.857
 3818SOL    HW211997   3.689   0.181   6.714
 3819SOL     OW11998   2.290   0.424   6.106
 3819SOL    HW111999   2.320   0.352   6.044
 3819SOL    HW212000   2.251   0.384   6.189
 3820SOL     OW12001   3.567   1.487   6.690
 3820SOL    HW112002   3.474   1.462   6.663
 3820SOL    HW212003   3.593   1.437   6.772
 3821SOL     OW12004   2.179   0.547   6.866
 3821SOL    HW112005   2.217   0.488   6.938
 3821SOL    HW212006   2.219   0.521   6.778
 3822SOL     OW12007   3.286   0.214   6.698
 3822SOL    HW112008   3.338   0.149   6.753
 3822SOL    HW212009   3.237   0.277   6.759
 3823SOL     OW12010   2.863   0.034   6.740
 3823SOL    HW112011   2.800  -0.038   6.709
 3823SOL    HW212012   2.956  -0.002   6.740
 3824SOL     OW12013   2.632   1.330   5.887
 3824SOL    HW112014   2.586   1.243   5.904
 3824SOL    HW212015   2.723   1.327   5.928
 3825SOL     OW12016   2.480   1.567   6.870
 3825SOL    HW112017   2.475   1.649   6.927
 3825SOL    HW212018   2.569   1.564   6.825
 3826SOL     OW12019   3.214   0.052   5.754
 3826SOL    HW112020   3.249   0.011   5.670
 3826SOL    HW212021   3.124   0.014   5.774
 3827SOL     OW12022   3.162   0.453   6.277
 3827SOL    HW112023   3.103   0.533   6.281
 3827SOL    HW212024   3.177   0.418   6.370
 3828SOL     OW12025   3.455   0.221   6.468
 3828SOL    HW112026   3.371   0.220   6.522
 3828SOL    HW212027   3.457   0.304   6.412
 3829SOL     OW12028   1.901   1.077   5.886
 3829SOL    HW112029   2.000   1.066   5.877
 3829SOL    HW212030   1.861   0.991   5.918
 3830SOL     OW12031   2.092   0.628   7.561
 3830SOL    HW112032   1.999   0.626   7.598
 3830SOL    HW212033   2.093   0.589   7.469
 3831SOL     OW12034   2.087   0.275   8.444
 3831SOL    HW112035   2.122   0.258   8.536
 3831SOL    HW212036   1.999   0.230   8.432
 3832SOL     OW12037   1.881   0.368   8.095
 3832SOL    HW112038   1.799   0.411   8.134
 3832SOL    HW212039   1.853   0.295   8.032
 3833SOL     OW12040   2.431   1.275   8.613
 3833SOL    HW112041   2.338   1.268   8.576
 3833SOL    HW212042   2.442   1.364   8.657
 3834SOL     OW12043   3.417   1.511   8.151
 3834SOL    HW112044   3.360   1.495   8.232
 3834SOL    HW212045   3.358   1.521   8.071
 3835SOL     OW12046   2.997   0.703   8.165
 3835SOL    HW112047   3.054   0.781   8.140
 3835SOL    HW212048   2.937   0.729   8.241
 3836SOL     OW12049   3.617   0.607   7.679
 3836SOL    HW112050   3.605   0.594   7.580
 3836SOL    HW212051   3.587   0.526   7.728
 3837SOL     OW12052   2.630   1.144   8.471
 3837SOL    HW112053   2.552   1.161   8.531
 3837SOL    HW212054   2.664   1.231   8.435
 3838SOL     OW12055   2.712   0.798   9.271
 3838SOL    HW112056   2.708   0.874   9.336
 3838SOL    HW212057   2.734   0.834   9.180
 3839SOL     OW12058   2.547   1.012   8.113
 3839SOL    HW112059   2.616   0.996   8.183
 3839SOL    HW212060   2.474   1.069   8.151
 3840SOL     OW12061   2.548   1.161   9.251
 3840SOL    HW112062   2.608   1.240   9.265
 3840SOL    HW212063   2.462   1.192   9.210
 3841SOL     OW12064   2.197   1.435   8.509
 3841SOL    HW112065   2.119   1.404   8.456
 3841SOL    HW212066   2.255   1.493   8.452
 3842SOL     OW12067   3.322   1.505   8.787
 3842SOL    HW112068   3.346   1.599   8.813
 3842SOL    HW212069   3.306   1.451   8.869
 3843SOL     OW12070   2.300   0.392   8.947
 3843SOL    HW112071   2.382   0.336   8.956
 3843SOL    HW212072   2.219   0.334   8.951
 3844SOL     OW12073   3.465   0.447   8.185
 3844SOL    HW112074   3.391   0.493   8.135
 3844SOL    HW212075   3.516   0.515   8.238
 3845SOL     OW12076   2.093   1.713   7.931
 3845SOL    HW112077   2.127   1.790   7.985
 3845SOL    HW212078   2.137   1.713   7.841
 3846SOL     OW12079   2.989   1.341   9.138
 3846SOL    HW112080   3.036   1.341   9.226
 3846SOL    HW212081   2.941   1.254   9.127
 3847SOL     OW12082   2.092   1.434   7.986
 3847SOL    HW112083   2.066   1.530   7.986
 3847SOL    HW212084   2.021   1.380   8.031
 3848SOL     OW12085   2.102   1.091   8.334
 3848SOL    HW112086   2.116   1.007   8.386
 3848SOL    HW212087   2.047   1.155   8.389
 3849SOL     OW12088   2.482   1.786   8.887
 3849SOL    HW112089   2.390   1.769   8.922
 3849SOL    HW212090   2.510   1.878   8.913
 3850SOL     OW12091   2.468   0.964   7.571
 3850SOL    HW112092   2.475   1.048   7.517
 3850SOL    HW212093   2.514   0.977   7.659
 3851SOL     OW12094   3.456   0.114   8.928
 3851SOL    HW112095   3.438   0.181   8.856
 3851SOL    HW212096   3.453   0.160   9.017
 3852SOL     OW12097   1.984   0.643   8.011
 3852SOL    HW112098   1.939   0.555   8.028
 3852SOL    HW212099   1.983   0.697   8.095
 3853SOL     OW12100   3.704   1.767   7.807
 3853SOL    HW112101   3.758   1.738   7.887
 3853SOL    HW212102   3.734   1.857   7.778
 3854SOL     OW12103   1.889   1.596   7.565
 3854SOL    HW112104   1.870   1.500   7.586
 3854SOL    HW212105   1.856   1.654   7.640
 3855SOL     OW12106   3.551   0.922   8.060
 3855SOL    HW112107   3.646   0.893   8.068
 3855SOL    HW212108   3.543   0.987   7.985
 3856SOL     OW12109   3.503   1.108   7.880
 3856SOL    HW112110   3.589   1.110   7.828
 3856SOL    HW212111   3.517   1.155   7.968
 3857SOL     OW12112   1.975   0.737   9.045
 3857SOL    HW112113   2.063   0.724   9.090
 3857SOL    HW212114   1.962   0.834   9.023
 3858SOL     OW12115   2.475   1.365   8.174
 3858SOL    HW112116   2.426   1.278   8.183
 3858SOL    HW212117   2.452   1.408   8.087
 3859SOL     OW12118   3.155   1.228   8.871
 3859SOL    HW112119   3.192   1.155   8.813
 3859SOL    HW212120   3.207   1.233   8.956
 3860SOL     OW12121   2.671   0.004   7.950
 3860SOL    HW112122   2.711   0.095   7.941
 3860SOL    HW212123   2.571   0.012   7.956
 3861SOL     OW12124   2.059   0.976   8.712
 3861SOL    HW112125   2.148   0.931   8.698
 3861SOL    HW212126   1.986   0.911   8.693
 3862SOL     OW12127   3.387   0.999   7.638
 3862SOL    HW112128   3.324   0.923   7.651
 3862SOL    HW212129   3.435   1.017   7.724
 3863SOL     OW12130   3.049   1.792   9.064
 3863SOL    HW112131   3.073   1.852   8.988
 3863SOL    HW212132   3.056   1.697   9.034
 3864SOL     OW12133   2.179   0.251   9.249
 3864SOL    HW112134   2.250   0.322   9.255
 3864SOL    HW212135   2.091   0.290   9.277
 3865SOL     OW12136   3.328   1.417   8.401
 3865SOL    HW112137   3.269   1.423   8.481
 3865SOL    HW212138   3.313   1.329   8.355
 3866SOL     OW12139   3.529   1.714   8.020
 3866SOL    HW112140   3.488   1.691   7.932
 3866SOL    HW212141   3.511   1.640   8.085
 3867SOL     OW12142   2.460   0.729   7.718
 3867SOL    HW112143   2.484   0.798   7.650
 3867SOL    HW212144   2.382   0.762   7.772
 3868SOL     OW12145   3.143   0.345   8.392
 3868SOL    HW112146   3.057   0.295   8.379
 3868SOL    HW212147   3.205   0.291   8.448
 3869SOL     OW12148   3.438   1.662   7.755
 3869SOL    HW112149   3.527   1.708   7.758
 3869SOL    HW212150   3.417   1.638   7.660
 3870SOL     OW12151   2.669   0.605   8.913
 3870SOL    HW112152   2.622   0.602   9.002
 3870SOL    HW212153   2.618   0.550   8.847
 3871SOL     OW12154   3.256   0.469   9.122
 3871SOL    HW112155   3.236   0.512   9.210
 3871SOL    HW212156   3.334   0.407   9.131
 3872SOL     OW12157   2.835   0.890   9.020
 3872SOL    HW112158   2.881   0.806   8.991
 3872SOL    HW212159   2.779   0.924   8.945
 3873SOL     OW12160   2.853   0.410   8.690
 3873SOL    HW112161   2.776   0.444   8.744
 3873SOL    HW212162   2.819   0.359   8.611
 3874SOL     OW12163   2.903   0.701   7.877
 3874SOL    HW112164   2.929   0.697   7.973
 3874SOL    HW212165   2.818   0.650   7.863
 3875SOL     OW12166   1.938   0.811   8.237
 3875SOL    HW112167   2.037   0.799   8.246
 3875SOL    HW212168   1.914   0.906   8.258
 3876SOL     OW12169   1.992   1.821   9.019
 3876SOL    HW112170   1.982   1.806   9.118
 3876SOL    HW212171   1.906   1.857   8.983
 3877SOL     OW12172   2.727   0.348   7.643
 3877SOL    HW112173   2.786   0.411   7.594
 3877SOL    HW212174   2.746   0.254   7.614
 3878SOL     OW12175   3.581   0.585   9.279
 3878SOL    HW112176   3.555   0.674   9.243
 3878SOL    HW212177   3.579   0.517   9.206
 3879SOL     OW12178   3.224   1.144   7.993
 3879SOL    HW112179   3.307   1.115   7.945
 3879SOL    HW212180   3.175   1.211   7.937
 3880SOL     OW12181   2.412   0.196   8.333
 3880SOL    HW112182   2.407   0.191   8.433
 3880SOL    HW212183   2.414   0.292   8.304
 3881SOL     OW12184   2.870   1.456   7.925
 3881SOL    HW112185   2.824   1.528   7.873
 3881SOL    HW212186   2.866   1.476   8.023
 3882SOL     OW12187   2.213   1.801   8.301
 3882SOL    HW112188   2.263   1.715   8.307
 3882SOL    HW212189   2.278   1.878   8.298
 3883SOL     OW12190   3.657   1.066   8.321
 3883SOL    HW112191   3.595   1.051   8.245
 3883SOL    HW212192   3.605   1.077   8.406
 3884SOL     OW12193   3.089   1.550   8.954
 3884SOL    HW112194   3.095   1.473   9.018
 3884SOL    HW212195   3.037   1.524   8.874
 3885SOL     OW12196   2.183   0.943   7.690
 3885SOL    HW112197   2.265   0.982   7.648
 3885SOL    HW212198   2.156   0.861   7.641
 3886SOL     OW12199   3.320   0.735   8.176
 3886SOL    HW112200   3.315   0.670   8.251
 3886SOL    HW212201   3.400   0.794   8.189
 3887SOL     OW12202   2.323   1.266   9.175
 3887SOL    HW112203   2.273   1.267   9.089
 3887SOL    HW212204   2.260   1.248   9.251
 3888SOL     OW12205   2.973   1.776   7.685
 3888SOL    HW112206   2.913   1.714   7.735
 3888SOL    HW212207   3.004   1.732   7.600
 3889SOL     OW12208   2.064   0.285   8.946
 3889SOL    HW112209   1.984   0.345   8.933
 3889SOL    HW212210   2.054   0.236   9.032
 3890SOL     OW12211   3.494   1.377   7.529
 3890SOL    HW112212   3.462   1.471   7.519
 3890SOL    HW212213   3.418   1.314   7.517
 3891SOL     OW12214   2.326   1.743   7.771
 3891SOL    HW112215   2.359   1.782   7.857
 3891SOL    HW212216   2.402   1.736   7.706
 3892SOL     OW12217   3.262   0.107   7.874
 3892SOL    HW112218   3.238   0.070   7.784
 3892SOL    HW212219   3.361   0.123   7.878
 3893SOL     OW12220   2.111   1.785   8.689
 3893SOL    HW112221   2.168   1.720   8.739
 3893SOL    HW212222   2.095   1.752   8.596
 3894SOL     OW12223   2.802   1.698   8.352
 3894SOL    HW112224   2.882   1.641   8.373
 3894SOL    HW212225   2.753   1.658   8.275
 3895SOL     OW12226   2.244   0.700   7.928
 3895SOL    HW112227   2.289   0.610   7.925
 3895SOL    HW212228   2.150   0.689   7.961
 3896SOL     OW12229   3.409   0.222   9.177
 3896SOL    HW112230   3.404   0.259   9.269
 3896SOL    HW212231   3.337   0.153   9.165
 3897SOL     OW12232   2.476   0.122   7.565
 3897SOL    HW112233   2.574   0.100   7.572
 3897SOL    HW212234   2.445   0.105   7.472
 3898SOL     OW12235   2.643   0.264   9.197
 3898SOL    HW112236   2.710   0.203   9.240
 3898SOL    HW212237   2.570   0.283   9.262
 3899SOL     OW12238   2.750   1.514   8.643
 3899SOL    HW112239   2.727   1.489   8.549
 3899SOL    HW212240   2.811   1.445   8.682
 3900SOL     OW12241   3.213   0.590   8.881
 3900SOL    HW112242   3.241   0.547   8.966
 3900SOL    HW212243   3.238   0.686   8.882
 3901SOL     OW12244   2.665   1.402   8.372
 3901SOL    HW112245   2.755   1.416   8.330
 3901SOL    HW212246   2.594   1.404   8.301
 3902SOL     OW12247   2.784   0.503   8.347
 3902SOL    HW112248   2.759   0.494   8.251
 3902SOL    HW212249   2.832   0.421   8.378
 3903SOL     OW12250   2.401   0.064   7.960
 3903SOL    HW112251   2.320   0.065   8.018
 3903SOL    HW212252   2.404   0.147   7.905
 3904SOL     OW12253   3.296   1.188   7.489
 3904SOL    HW112254   3.328   1.112   7.546
 3904SOL    HW212255   3.204   1.215   7.519
 3905SOL     OW12256   2.159   0.035   7.619
 3905SOL    HW112257   2.208   0.119   7.598
 3905SOL    HW212258   2.221  -0.030   7.664
 3906SOL     OW12259   2.797   0.236   7.928
 3906SOL    HW112260   2.749   0.277   7.850
 3906SOL    HW212261   2.896   0.234   7.909
 3907SOL     OW12262   2.938   0.683   8.912
 3907SOL    HW112263   2.858   0.622   8.915
 3907SOL    HW212264   3.019   0.630   8.888
 3908SOL     OW12265   3.089   1.570   8.241
 3908SOL    HW112266   3.110   1.644   8.176
 3908SOL    HW212267   3.157   1.570   8.314
 3909SOL     OW12268   2.321   1.152   8.189
 3909SOL    HW112269   2.250   1.125   8.254
 3909SOL    HW212270   2.295   1.124   8.096
 3910SOL     OW12271   3.133   1.797   8.039
 3910SOL    HW112272   3.177   1.861   7.975
 3910SOL    HW212273   3.083   1.849   8.109
 3911SOL     OW12274   2.894   0.549   7.464
 3911SOL    HW112275   2.853   0.631   7.425
 3911SOL    HW212276   2.958   0.575   7.537
 3912SOL     OW12277   1.940   0.556   8.834
 3912SOL    HW112278   2.032   0.555   8.793
 3912SOL    HW212279   1.934   0.630   8.901
 3913SOL     OW12280   2.423   0.222   8.595
 3913SOL    HW112281   2.461   0.138   8.632
 3913SOL    HW212282   2.335   0.241   8.639
 3914SOL     OW12283   2.728   0.454   8.090
 3914SOL    HW112284   2.696   0.526   8.028
 3914SOL    HW212285   2.752   0.373   8.037
 3915SOL     OW12286   2.879   0.039   8.201
 3915SOL    HW112287   2.807   0.044   8.132
 3915SOL    HW212288   2.855  -0.030   8.270
 3916SOL     OW12289   3.291   1.173   8.315
 3916SOL    HW112290   3.236   1.089   8.308
 3916SOL    HW212291   3.317   1.202   8.223
 3917SOL     OW12292   3.328   0.590   8.440
 3917SOL    HW112293   3.298   0.495   8.447
 3917SOL    HW212294   3.401   0.606   8.506
 3918SOL     OW12295   3.719   0.833   7.825
 3918SOL    HW112296   3.761   0.769   7.889
 3918SOL    HW212297   3.681   0.782   7.747
 3919SOL     OW12298   2.350   1.385   7.622
 3919SOL    HW112299   2.263   1.370   7.669
 3919SOL    HW212300   2.333   1.411   7.527
 3920SOL     OW12301   3.526   1.280   8.105
 3920SOL    HW112302   3.625   1.288   8.119
 3920SOL    HW212303   3.481   1.364   8.136
 3921SOL     OW12304   3.252   0.575   7.526
 3921SOL    HW112305   3.198   0.554   7.607
 3921SOL    HW212306   3.343   0.534   7.535
 3922SOL     OW12307   2.389   0.256   7.776
 3922SOL    HW112308   2.416   0.197   7.701
 3922SOL    HW212309   2.389   0.351   7.745
 3923SOL     OW12310   3.616   1.223   9.036
 3923SOL    HW112311   3.707   1.184   9.023
 3923SOL    HW212312   3.624   1.319   9.060
 3924SOL     OW12313   2.926   1.347   8.788
 3924SOL    HW112314   2.846   1.324   8.843
 3924SOL    HW212315   3.009   1.321   8.837
 3925SOL     OW12316   3.454   1.629   9.073
 3925SOL    HW112317   3.481   1.663   8.983
 3925SOL    HW212318   3.533   1.591   9.119
 3926SOL     OW12319   2.973   1.195   8.548
 3926SOL    HW112320   2.933   1.239   8.629
 3926SOL    HW212321   2.932   1.232   8.465
 3927SOL     OW12322   3.500   1.099   8.527
 3927SOL    HW112323   3.505   1.180   8.586
 3927SOL    HW212324   3.414   1.101   8.476
 3928SOL     OW12325   2.777   0.089   8.850
 3928SOL    HW112326   2.802   0.069   8.755
 3928SOL    HW212327   2.849   0.145   8.892
 3929SOL     OW12328   2.842   1.116   9.167
 3929SOL    HW112329   2.743   1.122   9.177
 3929SOL    HW212330   2.865   1.036   9.111
 3930SOL     OW12331   2.567   1.050   7.816
 3930SOL    HW112332   2.553   1.057   7.915
 3930SOL    HW212333   2.651   0.999   7.798
 3931SOL     OW12334   2.272   0.813   8.699
 3931SOL    HW112335   2.358   0.825   8.749
 3931SOL    HW212336   2.230   0.726   8.726
 3932SOL     OW12337   3.136   0.386   8.710
 3932SOL    HW112338   3.157   0.460   8.774
 3932SOL    HW212339   3.047   0.403   8.667
 3933SOL     OW12340   1.926   1.564   8.779
 3933SOL    HW112341   1.880   1.646   8.745
 3933SOL    HW212342   2.024   1.583   8.788
 3934SOL     OW12343   2.229   1.100   7.949
 3934SOL    HW112344   2.222   1.183   7.893
 3934SOL    HW212345   2.233   1.020   7.889
 3935SOL     OW12346   2.428   0.537   8.313
 3935SOL    HW112347   2.440   0.603   8.239
 3935SOL    HW212348   2.474   0.571   8.396
 3936SOL     OW12349   3.114   1.348   7.836
 3936SOL    HW112350   3.164   1.425   7.876
 3936SOL    HW212351   3.019   1.350   7.868
 3937SOL     OW12352   3.134   1.445   8.590
 3937SOL    HW112353   3.181   1.458   8.677
 3937SOL    HW212354   3.068   1.371   8.599
 3938SOL     OW12355   3.444   0.639   7.920
 3938SOL    HW112356   3.413   0.700   7.993
 3938SOL    HW212357   3.494   0.691   7.851
 3939SOL     OW12358   2.216   1.510   8.777
 3939SOL    HW112359   2.195   1.466   8.690
 3939SOL    HW212360   2.313   1.536   8.780
 3940SOL     OW12361   2.264   0.751   9.046
 3940SOL    HW112362   2.332   0.806   8.999
 3940SOL    HW212363   2.304   0.663   9.073
 3941SOL     OW12364   3.449   0.779   9.118
 3941SOL    HW112365   3.357   0.817   9.113
 3941SOL    HW212366   3.509   0.826   9.053
 3942SOL     OW12367   2.875   0.105   9.218
 3942SOL    HW112368   2.881   0.190   9.166
 3942SOL    HW212369   2.907   0.029   9.161
 3943SOL     OW12370   2.366   0.050   9.188
 3943SOL    HW112371   2.324  -0.007   9.118
 3943SOL    HW212372   2.300   0.119   9.220
 3944SOL     OW12373   2.435   0.870   8.477
 3944SOL    HW112374   2.479   0.959   8.468
 3944SOL    HW212375   2.372   0.870   8.554
 3945SOL     OW12376   3.222   0.862   8.493
 3945SOL    HW112377   3.147   0.862   8.427
 3945SOL    HW212378   3.259   0.770   8.502
 3946SOL     OW12379   3.071   0.525   7.723
 3946SOL    HW112380   3.084   0.441   7.777
 3946SOL    HW212381   3.042   0.599   7.783
 3947SOL     OW12382   2.169   0.213   8.679
 3947SOL    HW112383   2.146   0.250   8.769
 3947SOL    HW212384   2.139   0.118   8.673
 3948SOL     OW12385   1.899   1.310   8.730
 3948SOL    HW112386   1.952   1.261   8.798
 3948SOL    HW212387   1.921   1.408   8.735
 3949SOL     OW12388   2.594   0.634   8.512
 3949SOL    HW112389   2.653   0.608   8.436
 3949SOL    HW212390   2.566   0.730   8.501
 3950SOL     OW12391   3.590   0.935   9.302
 3950SOL    HW112392   3.544   0.928   9.213
 3950SOL    HW212393   3.528   0.979   9.368
 3951SOL     OW12394   2.169   0.063   8.066
 3951SOL    HW112395   2.158   0.157   8.099
 3951SOL    HW212396   2.164   0.000   8.143
 3952SOL     OW12397   3.484   0.367   7.822
 3952SOL    HW112398   3.486   0.291   7.886
 3952SOL    HW212399   3.436   0.444   7.862
 3953SOL     OW12400   2.885   0.766   8.414
 3953SOL    HW112401   2.900   0.787   8.510
 3953SOL    HW212402   2.855   0.671   8.405
 3954SOL     OW12403   2.842   1.573   9.148
 3954SOL    HW112404   2.822   1.617   9.060
 3954SOL    HW212405   2.881   1.482   9.132
 3955SOL     OW12406   3.721   1.518   9.053
 3955SOL    HW112407   3.735   1.545   8.958
 3955SOL    HW212408   3.804   1.540   9.106
 3956SOL     OW12409   2.212   0.898   9.252
 3956SOL    HW112410   2.288   0.942   9.300
 3956SOL    HW212411   2.247   0.851   9.170
 3957SOL     OW12412   3.402   0.274   7.573
 3957SOL    HW112413   3.341   0.199   7.596
 3957SOL    HW212414   3.424   0.326   7.656
 3958SOL     OW12415   3.165   0.838   7.490
 3958SOL    HW112416   3.199   0.745   7.505
 3958SOL    HW212417   3.183   0.865   7.395
 3959SOL     OW12418   2.930   1.333   8.297
 3959SOL    HW112419   2.937   1.249   8.242
 3959SOL    HW212420   2.992   1.402   8.261
 3960SOL     OW12421   2.181   0.810   8.397
 3960SOL    HW112422   2.274   0.846   8.402
 3960SOL    HW212423   2.175   0.725   8.449
 3961SOL     OW12424   2.201   0.509   8.454
 3961SOL    HW112425   2.149   0.426   8.437
 3961SOL    HW212426   2.278   0.514   8.390
 3962SOL     OW12427   3.000   0.380   9.126
 3962SOL    HW112428   2.955   0.443   9.190
 3962SOL    HW212429   3.093   0.411   9.109
 3963SOL     OW12430   3.022   0.207   8.925
 3963SOL    HW112431   3.022   0.271   9.002
 3963SOL    HW212432   3.050   0.255   8.842
 3964SOL     OW12433   1.870   1.326   7.648
 3964SOL    HW112434   1.777   1.347   7.617
 3964SOL    HW212435   1.880   1.227   7.661
 3965SOL     OW12436   1.950   1.801   8.375
 3965SOL    HW112437   1.908   1.715   8.348
 3965SOL    HW212438   2.044   1.804   8.341
 3966SOL     OW12439   2.366   1.568   8.358
 3966SOL    HW112440   2.432   1.642   8.367
 3966SOL    HW212441   2.410   1.489   8.316
 3967SOL     OW12442   2.864   0.796   8.686
 3967SOL    HW112443   2.905   0.764   8.772
 3967SOL    HW212444   2.768   0.769   8.683
 3968SOL     OW12445   1.902   0.544   8.562
 3968SOL    HW112446   1.987   0.511   8.521
 3968SOL    HW212447   1.915   0.559   8.660
 3969SOL     OW12448   2.051   0.520   9.170
 3969SOL    HW112449   2.110   0.480   9.100
 3969SOL    HW212450   1.993   0.591   9.129
 3970SOL     OW12451   3.231   0.950   9.108
 3970SOL    HW112452   3.270   1.039   9.128
 3970SOL    HW212453   3.241   0.930   9.011
 3971SOL     OW12454   2.677   0.572   7.773
 3971SOL    HW112455   2.684   0.483   7.727
 3971SOL    HW212456   2.583   0.606   7.765
 3972SOL     OW12457   3.519   0.604   8.654
 3972SOL    HW112458   3.481   0.535   8.716
 3972SOL    HW212459   3.601   0.568   8.610
 3973SOL     OW12460   2.114   1.564   9.192
 3973SOL    HW112461   2.084   1.621   9.268
 3973SOL    HW212462   2.107   1.467   9.218
 3974SOL     OW12463   2.533   0.464   8.717
 3974SOL    HW112464   2.499   0.375   8.687
 3974SOL    HW212465   2.559   0.518   8.637
 3975SOL     OW12466   2.792   1.678   8.913
 3975SOL    HW112467   2.768   1.660   8.818
 3975SOL    HW212468   2.822   1.772   8.923
 3976SOL     OW12469   2.335   0.500   7.639
 3976SOL    HW112470   2.396   0.580   7.643
 3976SOL    HW212471   2.240   0.531   7.646
 3977SOL     OW12472   2.021   1.137   8.914
 3977SOL    HW112473   2.043   1.076   8.990
 3977SOL    HW212474   2.031   1.088   8.828
 3978SOL     OW12475   3.209   1.059   8.682
 3978SOL    HW112476   3.233   0.996   8.608
 3978SOL    HW212477   3.119   1.099   8.664
 3979SOL     OW12478   3.164   0.855   7.757
 3979SOL    HW112479   3.078   0.824   7.799
 3979SOL    HW212480   3.160   0.841   7.658
 3980SOL     OW12481   3.621   1.747   8.602
 3980SOL    HW112482   3.682   1.777   8.529
 3980SOL    HW212483   3.583   1.658   8.580
 3981SOL     OW12484   3.114   1.731   8.576
 3981SOL    HW112485   3.198   1.736   8.522
 3981SOL    HW212486   3.091   1.635   8.594
 3982SOL     OW12487   1.945   1.258   8.470
 3982SOL    HW112488   1.940   1.257   8.570
 3982SOL    HW212489   1.862   1.217   8.432
 3983SOL     OW12490   2.550   1.662   9.164
 3983SOL    HW112491   2.494   1.743   9.173
 3983SOL    HW212492   2.602   1.666   9.078
 3984SOL     OW12493   3.588   0.135   7.971
 3984SOL    HW112494   3.661   0.118   7.904
 3984SOL    HW212495   3.557   0.048   8.009
 3985SOL     OW12496   3.250   1.573   7.925
 3985SOL    HW112497   3.317   1.585   7.851
 3985SOL    HW212498   3.210   1.662   7.948
 3986SOL     OW12499   1.992   1.794   9.299
 3986SOL    HW112500   1.951   1.720   9.352
 3986SOL    HW212501   2.056   1.845   9.357
 3987SOL     OW12502   3.142   0.927   8.120
 3987SOL    HW112503   3.202   0.846   8.122
 3987SOL    HW212504   3.182   0.996   8.060
 3988SOL     OW12505   2.692   1.273   8.870
 3988SOL    HW112506   2.687   1.306   8.965
 3988SOL    HW212507   2.606   1.292   8.824
 3989SOL     OW12508   2.534   1.616   7.602
 3989SOL    HW112509   2.543   1.626   7.503
 3989SOL    HW212510   2.494   1.527   7.623
 3990SOL     OW12511   3.512   1.720   8.842
 3990SOL    HW112512   3.565   1.730   8.758
 3990SOL    HW212513   3.485   1.810   8.876
 3991SOL     OW12514   3.703   0.175   8.411
 3991SOL    HW112515   3.742   0.090   8.375
 3991SOL    HW212516   3.605   0.177   8.392
 3992SOL     OW12517   2.125   0.326   8.168
 3992SOL    HW112518   2.046   0.377   8.134
 3992SOL    HW212519   2.116   0.311   8.266
 3993SOL     OW12520   3.056   1.612   7.479
 3993SOL    HW112521   3.062   1.519   7.516
 3993SOL    HW212522   2.997   1.612   7.399
 3994SOL     OW12523   2.684   1.002   8.820
 3994SOL    HW112524   2.724   1.001   8.728
 3994SOL    HW212525   2.694   1.094   8.860
 3995SOL     OW12526   2.778   0.910   7.739
 3995SOL    HW112527   2.841   0.948   7.671
 3995SOL    HW212528   2.818   0.827   7.778
 3996SOL     OW12529   3.366   1.607   7.492
 3996SOL    HW112530   3.274   1.644   7.499
 3996SOL    HW212531   3.404   1.627   7.402
 3997SOL     OW12532   2.234   1.288   8.938
 3997SOL    HW112533   2.221   1.381   8.904
 3997SOL    HW212534   2.150   1.236   8.925
 3998SOL     OW12535   3.476   1.292   8.737
 3998SOL    HW112536   3.536   1.295   8.817
 3998SOL    HW212537   3.401   1.356   8.750
 3999SOL     OW12538   2.901   1.098   8.144
 3999SOL    HW112539   2.831   1.051   8.198
 3999SOL    HW212540   2.960   1.030   8.101
 4000SOL     OW12541   2.876   0.236   8.419
 4000SOL    HW112542   2.868   0.200   8.326
 4000SOL    HW212543   2.874   0.160   8.484
 4001SOL     OW12544   2.452   1.487   7.939
 4001SOL    HW112545   2.494   1.429   7.869
 4001SOL    HW212546   2.408   1.566   7.895
 4002SOL     OW12547   3.571   0.385   8.829
 4002SOL    HW112548   3.644   0.454   8.833
 4002SOL    HW212549   3.599   0.310   8.770
 4003SOL     OW12550   2.117   1.348   7.738
 4003SOL    HW112551   2.021   1.349   7.711
 4003SOL    HW212552   2.129   1.401   7.822
 4004SOL     OW12553   1.967   1.013   9.174
 4004SOL    HW112554   1.890   0.980   9.228
 4004SOL    HW212555   2.052   0.983   9.216
 4005SOL     OW12556   2.534   0.203   8.937
 4005SOL    HW112557   2.624   0.187   8.897
 4005SOL    HW212558   2.542   0.208   9.036
 4006SOL     OW12559   1.937   0.345   7.481
 4006SOL    HW112560   1.845   0.317   7.452
 4006SOL    HW212561   1.968   0.422   7.425
 4007SOL     OW12562   3.302   0.856   8.846
 4007SOL    HW112563   3.245   0.908   8.783
 4007SOL    HW212564   3.398   0.868   8.822
 4008SOL     OW12565   1.934   0.166   7.766
 4008SOL    HW112566   1.917   0.249   7.712
 4008SOL    HW212567   2.024   0.129   7.744
 4009SOL     OW12568   3.045   1.335   7.567
 4009SOL    HW112569   2.946   1.324   7.569
 4009SOL    HW212570   3.079   1.350   7.660
 4010SOL     OW12571   2.475   0.842   8.879
 4010SOL    HW112572   2.531   0.923   8.862
 4010SOL    HW212573   2.534   0.762   8.882
 4011SOL     OW12574   3.355   1.767   8.407
 4011SOL    HW112575   3.388   1.831   8.338
 4011SOL    HW212576   3.421   1.761   8.482
 4012SOL     OW12577   2.578   0.565   9.156
 4012SOL    HW112578   2.597   0.630   9.230
 4012SOL    HW212579   2.638   0.485   9.165
 4013SOL     OW12580   3.312   1.220   9.081
 4013SOL    HW112581   3.303   1.210   9.180
 4013SOL    HW212582   3.408   1.213   9.055
 4014SOL     OW12583   2.252   1.741   9.008
 4014SOL    HW112584   2.161   1.782   9.006
 4014SOL    HW212585   2.245   1.647   9.040
 4015SOL     OW12586   3.536   0.883   8.702
 4015SOL    HW112587   3.509   0.794   8.665
 4015SOL    HW212588   3.537   0.951   8.629
 4016SOL     OW12589   3.087   0.325   7.897
 4016SOL    HW112590   3.152   0.251   7.886
 4016SOL    HW212591   3.107   0.375   7.981
 4017SOL     OW12592   2.456   0.745   8.100
 4017SOL    HW112593   2.506   0.830   8.081
 4017SOL    HW212594   2.368   0.747   8.052
 4018SOL     OW12595   3.639   0.342   9.090
 4018SOL    HW112596   3.622   0.373   8.996
 4018SOL    HW212597   3.555   0.305   9.128
 4019SOL     OW12598   3.592   0.934   8.965
 4019SOL    HW112599   3.630   1.025   8.980
 4019SOL    HW212600   3.584   0.917   8.866
 4020SOL     OW12601   2.721   1.374   7.464
 4020SOL    HW112602   2.675   1.389   7.552
 4020SOL    HW212603   2.765   1.459   7.434
 4021SOL     OW12604   2.523   1.790   8.401
 4021SOL    HW112605   2.477   1.878   8.388
 4021SOL    HW212606   2.622   1.802   8.394
 4022SOL     OW12607   2.721   0.956   8.309
 4022SOL    HW112608   2.775   0.887   8.357
 4022SOL    HW212609   2.689   1.025   8.375
 4023SOL     OW12610   2.945   0.984   7.535
 4023SOL    HW112611   2.922   1.037   7.453
 4023SOL    HW212612   3.026   0.928   7.516
 4024SOL     OW12613   3.723   1.569   8.299
 4024SOL    HW112614   3.652   1.557   8.229
 4024SOL    HW212615   3.724   1.490   8.359
 4025SOL     OW12616   2.083   1.314   9.292
 4025SOL    HW112617   2.018   1.241   9.271
 4025SOL    HW212618   2.087   1.328   9.390
 4026SOL     OW12619   1.941   1.240   8.101
 4026SOL    HW112620   1.940   1.193   8.189
 4026SOL    HW212621   2.023   1.212   8.050
 4027SOL     OW12622   2.534   1.391   9.072
 4027SOL    HW112623   2.456   1.341   9.110
 4027SOL    HW212624   2.531   1.486   9.103
 4028SOL     OW12625   3.686   0.192   8.675
 4028SOL    HW112626   3.682   0.102   8.719
 4028SOL    HW212627   3.689   0.181   8.576
 4029SOL     OW12628   2.290   0.424   7.968
 4029SOL    HW112629   2.320   0.352   7.906
 4029SOL    HW212630   2.251   0.384   8.051
 4030SOL     OW12631   3.567   1.487   8.552
 4030SOL    HW112632   3.474   1.462   8.525
 4030SOL    HW212633   3.593   1.437   8.634
 4031SOL     OW12634   2.179   0.547   8.728
 4031SOL    HW112635   2.217   0.488   8.800
 4031SOL    HW212636   2.219   0.521   8.640
 4032SOL     OW12637   2.674   1.586   8.135
 4032SOL    HW112638   2.706   1.596   8.041
 4032SOL    HW212639   2.595   1.524   8.137
 4033SOL     OW12640   3.286   0.214   8.560
 4033SOL    HW112641   3.338   0.149   8.615
 4033SOL    HW212642   3.237   0.277   8.621
 4034SOL     OW12643   2.863   0.034   8.602
 4034SOL    HW112644   2.800  -0.038   8.571
 4034SOL    HW212645   2.956  -0.002   8.602
 4035SOL     OW12646   2.632   1.330   7.749
 4035SOL    HW112647   2.586   1.243   7.766
 4035SOL    HW212648   2.723   1.327   7.790
 4036SOL     OW12649   2.480   1.567   8.732
 4036SOL    HW112650   2.475   1.649   8.789
 4036SOL    HW212651   2.569   1.564   8.687
 4037SOL     OW12652   3.214   0.052   7.616
 4037SOL    HW112653   3.249   0.011   7.532
 4037SOL    HW212654   3.124   0.014   7.636
 4038SOL     OW12655   3.162   0.453   8.139
 4038SOL    HW112656   3.103   0.533   8.143
 4038SOL    HW212657   3.177   0.418   8.232
 4039SOL     OW12658   3.455   0.221   8.330
 4039SOL    HW112659   3.371   0.220   8.384
 4039SOL    HW212660   3.457   0.304   8.274
 4040SOL     OW12661   1.901   1.077   7.748
 4040SOL    HW112662   2.000   1.066   7.739
 4040SOL    HW212663   1.861   0.991   7.780
 4041SOL     OW12664   2.737   1.646   7.785
 4041SOL    HW112665   2.660   1.611   7.731
 4041SOL    HW212666   2.705   1.717   7.847
 4042SOL     OW12667   2.092   0.628   9.423
 4042SOL    HW112668   1.999   0.626   9.460
 4042SOL    HW212669   2.093   0.589   9.331
 4043SOL     OW12670   2.087   0.275  10.306
 4043SOL    HW112671   2.122   0.258  10.398
 4043SOL    HW212672   1.999   0.230  10.294
 4044SOL     OW12673   1.881   0.368   9.957
 4044SOL    HW112674   1.799   0.411   9.996
 4044SOL    HW212675   1.853   0.295   9.894
 4045SOL     OW12676   2.431   1.275  10.475
 4045SOL    HW112677   2.338   1.268  10.438
 4045SOL    HW212678   2.442   1.364  10.519
 4046SOL     OW12679   3.417   1.511  10.013
 4046SOL    HW112680   3.360   1.495  10.094
 4046SOL    HW212681   3.358   1.521   9.933
 4047SOL     OW12682   2.997   0.703  10.027
 4047SOL    HW112683   3.054   0.781  10.002
 4047SOL    HW212684   2.937   0.729  10.103
 4048SOL     OW12685   3.617   0.607   9.541
 4048SOL    HW112686   3.605   0.594   9.442
 4048SOL    HW212687   3.587   0.526   9.590
 4049SOL     OW12688   2.630   1.144  10.333
 4049SOL    HW112689   2.552   1.161  10.393
 4049SOL    HW212690   2.664   1.231  10.297
 4050SOL     OW12691   2.712   0.798  11.133
 4050SOL    HW112692   2.708   0.874  11.198
 4050SOL    HW212693   2.734   0.834  11.042
 4051SOL     OW12694   2.547   1.012   9.975
 4051SOL    HW112695   2.616   0.996  10.045
 4051SOL    HW212696   2.474   1.069  10.013
 4052SOL     OW12697   2.197   1.435  10.371
 4052SOL    HW112698   2.119   1.404  10.318
 4052SOL    HW212699   2.255   1.493  10.314
 4053SOL     OW12700   3.322   1.505  10.649
 4053SOL    HW112701   3.346   1.599  10.675
 4053SOL    HW212702   3.306   1.451  10.731
 4054SOL     OW12703   2.300   0.392  10.809
 4054SOL    HW112704   2.382   0.336  10.818
 4054SOL    HW212705   2.219   0.334  10.813
 4055SOL     OW12706   3.465   0.447  10.047
 4055SOL    HW112707   3.391   0.493   9.997
 4055SOL    HW212708   3.516   0.515  10.100
 4056SOL     OW12709   2.093   1.713   9.793
 4056SOL    HW112710   2.127   1.790   9.847
 4056SOL    HW212711   2.137   1.713   9.703
 4057SOL     OW12712   2.092   1.434   9.848
 4057SOL    HW112713   2.066   1.530   9.848
 4057SOL    HW212714   2.021   1.380   9.893
 4058SOL     OW12715   2.102   1.091  10.196
 4058SOL    HW112716   2.116   1.007  10.248
 4058SOL    HW212717   2.047   1.155  10.251
 4059SOL     OW12718   2.482   1.786  10.749
 4059SOL    HW112719   2.390   1.769  10.784
 4059SOL    HW212720   2.510   1.878  10.775
 4060SOL     OW12721   2.468   0.964   9.433
 4060SOL    HW112722   2.475   1.048   9.379
 4060SOL    HW212723   2.514   0.977   9.521
 4061SOL     OW12724   3.456   0.114  10.790
 4061SOL    HW112725   3.438   0.181  10.718
 4061SOL    HW212726   3.453   0.160  10.879
 4062SOL     OW12727   1.984   0.643   9.873
 4062SOL    HW112728   1.939   0.555   9.890
 4062SOL    HW212729   1.983   0.697   9.957
 4063SOL     OW12730   3.704   1.767   9.669
 4063SOL    HW112731   3.758   1.738   9.749
 4063SOL    HW212732   3.734   1.857   9.640
 4064SOL     OW12733   1.889   1.596   9.427
 4064SOL    HW112734   1.870   1.500   9.448
 4064SOL    HW212735   1.856   1.654   9.502
 4065SOL     OW12736   3.551   0.922   9.922
 4065SOL    HW112737   3.646   0.893   9.930
 4065SOL    HW212738   3.543   0.987   9.847
 4066SOL     OW12739   3.503   1.108   9.742
 4066SOL    HW112740   3.589   1.110   9.690
 4066SOL    HW212741   3.517   1.155   9.830
 4067SOL     OW12742   1.975   0.737  10.907
 4067SOL    HW112743   2.063   0.724  10.952
 4067SOL    HW212744   1.962   0.834  10.885
 4068SOL     OW12745   2.475   1.365  10.036
 4068SOL    HW112746   2.426   1.278  10.045
 4068SOL    HW212747   2.452   1.408   9.949
 4069SOL     OW12748   3.155   1.228  10.733
 4069SOL    HW112749   3.192   1.155  10.675
 4069SOL    HW212750   3.207   1.233  10.818
 4070SOL     OW12751   2.671   0.004   9.812
 4070SOL    HW112752   2.711   0.095   9.803
 4070SOL    HW212753   2.571   0.012   9.818
 4071SOL     OW12754   2.059   0.976  10.574
 4071SOL    HW112755   2.148   0.931  10.560
 4071SOL    HW212756   1.986   0.911  10.555
 4072SOL     OW12757   3.387   0.999   9.500
 4072SOL    HW112758   3.324   0.923   9.513
 4072SOL    HW212759   3.435   1.017   9.586
 4073SOL     OW12760   3.049   1.792  10.926
 4073SOL    HW112761   3.073   1.852  10.850
 4073SOL    HW212762   3.056   1.697  10.896
 4074SOL     OW12763   2.179   0.251  11.111
 4074SOL    HW112764   2.250   0.322  11.117
 4074SOL    HW212765   2.091   0.290  11.139
 4075SOL     OW12766   3.328   1.417  10.263
 4075SOL    HW112767   3.269   1.423  10.343
 4075SOL    HW212768   3.313   1.329  10.217
 4076SOL     OW12769   3.529   1.714   9.882
 4076SOL    HW112770   3.488   1.691   9.794
 4076SOL    HW212771   3.511   1.640   9.947
 4077SOL     OW12772   2.460   0.729   9.580
 4077SOL    HW112773   2.484   0.798   9.512
 4077SOL    HW212774   2.382   0.762   9.634
 4078SOL     OW12775   3.143   0.345  10.254
 4078SOL    HW112776   3.057   0.295  10.241
 4078SOL    HW212777   3.205   0.291  10.310
 4079SOL     OW12778   3.438   1.662   9.617
 4079SOL    HW112779   3.527   1.708   9.620
 4079SOL    HW212780   3.417   1.638   9.522
 4080SOL     OW12781   2.669   0.605  10.775
 4080SOL    HW112782   2.622   0.602  10.864
 4080SOL    HW212783   2.618   0.550  10.709
 4081SOL     OW12784   2.835   0.890  10.882
 4081SOL    HW112785   2.881   0.806  10.853
 4081SOL    HW212786   2.779   0.924  10.807
 4082SOL     OW12787   2.853   0.410  10.552
 4082SOL    HW112788   2.776   0.444  10.606
 4082SOL    HW212789   2.819   0.359  10.473
 4083SOL     OW12790   2.903   0.701   9.739
 4083SOL    HW112791   2.929   0.697   9.835
 4083SOL    HW212792   2.818   0.650   9.725
 4084SOL     OW12793   1.938   0.811  10.099
 4084SOL    HW112794   2.037   0.799  10.108
 4084SOL    HW212795   1.914   0.906  10.120
 4085SOL     OW12796   1.992   1.821  10.881
 4085SOL    HW112797   1.982   1.806  10.980
 4085SOL    HW212798   1.906   1.857  10.845
 4086SOL     OW12799   2.727   0.348   9.505
 4086SOL    HW112800   2.786   0.411   9.456
 4086SOL    HW212801   2.746   0.254   9.476
 4087SOL     OW12802   3.224   1.144   9.855
 4087SOL    HW112803   3.307   1.115   9.807
 4087SOL    HW212804   3.175   1.211   9.799
 4088SOL     OW12805   2.412   0.196  10.195
 4088SOL    HW112806   2.407   0.191  10.295
 4088SOL    HW212807   2.414   0.292  10.166
 4089SOL     OW12808   2.870   1.456   9.787
 4089SOL    HW112809   2.824   1.528   9.735
 4089SOL    HW212810   2.866   1.476   9.885
 4090SOL     OW12811   2.213   1.801  10.163
 4090SOL    HW112812   2.263   1.715  10.169
 4090SOL    HW212813   2.278   1.878  10.160
 4091SOL     OW12814   3.657   1.066  10.183
 4091SOL    HW112815   3.595   1.051  10.107
 4091SOL    HW212816   3.605   1.077  10.268
 4092SOL     OW12817   3.089   1.550  10.816
 4092SOL    HW112818   3.095   1.473  10.880
 4092SOL    HW212819   3.037   1.524  10.736
 4093SOL     OW12820   2.183   0.943   9.552
 4093SOL    HW112821   2.265   0.982   9.510
 4093SOL    HW212822   2.156   0.861   9.503
 4094SOL     OW12823   3.320   0.735  10.038
 4094SOL    HW112824   3.315   0.670  10.113
 4094SOL    HW212825   3.400   0.794  10.051
 4095SOL     OW12826   2.323   1.266  11.037
 4095SOL    HW112827   2.273   1.267  10.951
 4095SOL    HW212828   2.260   1.248  11.113
 4096SOL     OW12829   2.973   1.776   9.547
 4096SOL    HW112830   2.913   1.714   9.597
 4096SOL    HW212831   3.004   1.732   9.462
 4097SOL     OW12832   2.064   0.285  10.808
 4097SOL    HW112833   1.984   0.345  10.795
 4097SOL    HW212834   2.054   0.236  10.894
 4098SOL     OW12835   3.494   1.377   9.391
 4098SOL    HW112836   3.462   1.471   9.381
 4098SOL    HW212837   3.418   1.314   9.379
 4099SOL     OW12838   2.326   1.743   9.633
 4099SOL    HW112839   2.359   1.782   9.719
 4099SOL    HW212840   2.402   1.736   9.568
 4100SOL     OW12841   3.262   0.107   9.736
 4100SOL    HW112842   3.238   0.070   9.646
 4100SOL    HW212843   3.361   0.123   9.740
 4101SOL     OW12844   2.111   1.785  10.551
 4101SOL    HW112845   2.168   1.720  10.601
 4101SOL    HW212846   2.095   1.752  10.458
 4102SOL     OW12847   2.802   1.698  10.214
 4102SOL    HW112848   2.882   1.641  10.235
 4102SOL    HW212849   2.753   1.658  10.137
 4103SOL     OW12850   2.244   0.700   9.790
 4103SOL    HW112851   2.289   0.610   9.787
 4103SOL    HW212852   2.150   0.689   9.823
 4104SOL     OW12853   2.476   0.122   9.427
 4104SOL    HW112854   2.574   0.100   9.434
 4104SOL    HW212855   2.445   0.105   9.334
 4105SOL     OW12856   2.643   0.264  11.059
 4105SOL    HW112857   2.710   0.203  11.102
 4105SOL    HW212858   2.570   0.283  11.124
 4106SOL     OW12859   2.750   1.514  10.505
 4106SOL    HW112860   2.727   1.489  10.411
 4106SOL    HW212861   2.811   1.445  10.544
 4107SOL     OW12862   3.213   0.590  10.743
 4107SOL    HW112863   3.241   0.547  10.828
 4107SOL    HW212864   3.238   0.686  10.744
 4108SOL     OW12865   2.665   1.402  10.234
 4108SOL    HW112866   2.755   1.416  10.192
 4108SOL    HW212867   2.594   1.404  10.163
 4109SOL     OW12868   2.784   0.503  10.209
 4109SOL    HW112869   2.759   0.494  10.113
 4109SOL    HW212870   2.832   0.421  10.240
 4110SOL     OW12871   2.401   0.064   9.822
 4110SOL    HW112872   2.320   0.065   9.880
 4110SOL    HW212873   2.404   0.147   9.767
 4111SOL     OW12874   3.296   1.188   9.351
 4111SOL    HW112875   3.328   1.112   9.408
 4111SOL    HW212876   3.204   1.215   9.381
 4112SOL     OW12877   2.159   0.035   9.481
 4112SOL    HW112878   2.208   0.119   9.460
 4112SOL    HW212879   2.221  -0.030   9.526
 4113SOL     OW12880   2.797   0.236   9.790
 4113SOL    HW112881   2.749   0.277   9.712
 4113SOL    HW212882   2.896   0.234   9.771
 4114SOL     OW12883   2.938   0.683  10.774
 4114SOL    HW112884   2.858   0.622  10.777
 4114SOL    HW212885   3.019   0.630  10.750
 4115SOL     OW12886   3.089   1.570  10.103
 4115SOL    HW112887   3.110   1.644  10.038
 4115SOL    HW212888   3.157   1.570  10.176
 4116SOL     OW12889   2.321   1.152  10.051
 4116SOL    HW112890   2.250   1.125  10.116
 4116SOL    HW212891   2.295   1.124   9.958
 4117SOL     OW12892   3.133   1.797   9.901
 4117SOL    HW112893   3.177   1.861   9.837
 4117SOL    HW212894   3.083   1.849   9.971
 4118SOL     OW12895   2.894   0.549   9.326
 4118SOL    HW112896   2.853   0.631   9.287
 4118SOL    HW212897   2.958   0.575   9.399
 4119SOL     OW12898   1.940   0.556  10.696
 4119SOL    HW112899   2.032   0.555  10.655
 4119SOL    HW212900   1.934   0.630  10.763
 4120SOL     OW12901   2.423   0.222  10.457
 4120SOL    HW112902   2.461   0.138  10.494
 4120SOL    HW212903   2.335   0.241  10.501
 4121SOL     OW12904   2.728   0.454   9.952
 4121SOL    HW112905   2.696   0.526   9.890
 4121SOL    HW212906   2.752   0.373   9.899
 4122SOL     OW12907   2.879   0.039  10.063
 4122SOL    HW112908   2.807   0.044   9.994
 4122SOL    HW212909   2.855  -0.030  10.132
 4123SOL     OW12910   3.291   1.173  10.177
 4123SOL    HW112911   3.236   1.089  10.170
 4123SOL    HW212912   3.317   1.202  10.085
 4124SOL     OW12913   3.328   0.590  10.302
 4124SOL    HW112914   3.298   0.495  10.309
 4124SOL    HW212915   3.401   0.606  10.368
 4125SOL     OW12916   3.719   0.833   9.687
 4125SOL    HW112917   3.761   0.769   9.751
 4125SOL    HW212918   3.681   0.782   9.609
 4126SOL     OW12919   2.350   1.385   9.484
 4126SOL    HW112920   2.263   1.370   9.531
 4126SOL    HW212921   2.333   1.411   9.389
 4127SOL     OW12922   3.526   1.280   9.967
 4127SOL    HW112923   3.625   1.288   9.981
 4127SOL    HW212924   3.481   1.364   9.998
 4128SOL     OW12925   3.252   0.575   9.388
 4128SOL    HW112926   3.198   0.554   9.469
 4128SOL    HW212927   3.343   0.534   9.397
 4129SOL     OW12928   2.389   0.256   9.638
 4129SOL    HW112929   2.416   0.197   9.563
 4129SOL    HW212930   2.389   0.351   9.607
 4130SOL     OW12931   3.616   1.223  10.898
 4130SOL    HW112932   3.707   1.184  10.885
 4130SOL    HW212933   3.624   1.319  10.922
 4131SOL     OW12934   2.926   1.347  10.650
 4131SOL    HW112935   2.846   1.324  10.705
 4131SOL    HW212936   3.009   1.321  10.699
 4132SOL     OW12937   2.973   1.195  10.410
 4132SOL    HW112938   2.933   1.239  10.491
 4132SOL    HW212939   2.932   1.232  10.327
 4133SOL     OW12940   3.500   1.099  10.389
 4133SOL    HW112941   3.505   1.180  10.448
 4133SOL    HW212942   3.414   1.101  10.338
 4134SOL     OW12943   2.777   0.089  10.712
 4134SOL    HW112944   2.802   0.069  10.617
 4134SOL    HW212945   2.849   0.145  10.754
 4135SOL     OW12946   2.567   1.050   9.678
 4135SOL    HW112947   2.553   1.057   9.777
 4135SOL    HW212948   2.651   0.999   9.660
 4136SOL     OW12949   2.272   0.813  10.561
 4136SOL    HW112950   2.358   0.825  10.611
 4136SOL    HW212951   2.230   0.726  10.588
 4137SOL     OW12952   3.136   0.386  10.572
 4137SOL    HW112953   3.157   0.460  10.636
 4137SOL    HW212954   3.047   0.403  10.529
 4138SOL     OW12955   1.926   1.564  10.641
 4138SOL    HW112956   1.880   1.646  10.607
 4138SOL    HW212957   2.024   1.583  10.650
 4139SOL     OW12958   2.229   1.100   9.811
 4139SOL    HW112959   2.222   1.183   9.755
 4139SOL    HW212960   2.233   1.020   9.751
 4140SOL     OW12961   2.428   0.537  10.175
 4140SOL    HW112962   2.440   0.603  10.101
 4140SOL    HW212963   2.474   0.571  10.258
 4141SOL     OW12964   3.114   1.348   9.698
 4141SOL    HW112965   3.164   1.425   9.738
 4141SOL    HW212966   3.019   1.350   9.730
 4142SOL     OW12967   3.134   1.445  10.452
 4142SOL    HW112968   3.181   1.458  10.539
 4142SOL    HW212969   3.068   1.371  10.461
 4143SOL     OW12970   3.444   0.639   9.782
 4143SOL    HW112971   3.413   0.700   9.855
 4143SOL    HW212972   3.494   0.691   9.713
 4144SOL     OW12973   2.216   1.510  10.639
 4144SOL    HW112974   2.195   1.466  10.552
 4144SOL    HW212975   2.313   1.536  10.642
 4145SOL     OW12976   2.264   0.751  10.908
 4145SOL    HW112977   2.332   0.806  10.861
 4145SOL    HW212978   2.304   0.663  10.935
 4146SOL     OW12979   3.449   0.779  10.980
 4146SOL    HW112980   3.357   0.817  10.975
 4146SOL    HW212981   3.509   0.826  10.915
 4147SOL     OW12982   2.435   0.870  10.339
 4147SOL    HW112983   2.479   0.959  10.330
 4147SOL    HW212984   2.372   0.870  10.416
 4148SOL     OW12985   3.222   0.862  10.355
 4148SOL    HW112986   3.147   0.862  10.289
 4148SOL    HW212987   3.259   0.770  10.364
 4149SOL     OW12988   3.071   0.525   9.585
 4149SOL    HW112989   3.084   0.441   9.639
 4149SOL    HW212990   3.042   0.599   9.645
 4150SOL     OW12991   2.169   0.213  10.541
 4150SOL    HW112992   2.146   0.250  10.631
 4150SOL    HW212993   2.139   0.118  10.535
 4151SOL     OW12994   1.899   1.310  10.592
 4151SOL    HW112995   1.952   1.261  10.660
 4151SOL    HW212996   1.921   1.408  10.597
 4152SOL     OW12997   2.594   0.634  10.374
 4152SOL    HW112998   2.653   0.608  10.298
 4152SOL    HW212999   2.566   0.730  10.363
 4153SOL     OW13000   2.169   0.063   9.928
 4153SOL    HW113001   2.158   0.157   9.961
 4153SOL    HW213002   2.164   0.000  10.005
 4154SOL     OW13003   3.484   0.367   9.684
 4154SOL    HW113004   3.486   0.291   9.748
 4154SOL    HW213005   3.436   0.444   9.724
 4155SOL     OW13006   2.885   0.766  10.276
 4155SOL    HW113007   2.900   0.787  10.372
 4155SOL    HW213008   2.855   0.671  10.267
 4156SOL     OW13009   2.842   1.573  11.010
 4156SOL    HW113010   2.822   1.617  10.922
 4156SOL    HW213011   2.881   1.482  10.994
 4157SOL     OW13012   3.721   1.518  10.915
 4157SOL    HW113013   3.735   1.545  10.820
 4157SOL    HW213014   3.804   1.540  10.968
 4158SOL     OW13015   2.212   0.898  11.114
 4158SOL    HW113016   2.288   0.942  11.162
 4158SOL    HW213017   2.247   0.851  11.032
 4159SOL     OW13018   3.402   0.274   9.435
 4159SOL    HW113019   3.341   0.199   9.458
 4159SOL    HW213020   3.424   0.326   9.518
 4160SOL     OW13021   3.165   0.838   9.352
 4160SOL    HW113022   3.199   0.745   9.367
 4160SOL    HW213023   3.183   0.865   9.257
 4161SOL     OW13024   2.930   1.333  10.159
 4161SOL    HW113025   2.937   1.249  10.104
 4161SOL    HW213026   2.992   1.402  10.123
 4162SOL     OW13027   2.181   0.810  10.259
 4162SOL    HW113028   2.274   0.846  10.264
 4162SOL    HW213029   2.175   0.725  10.311
 4163SOL     OW13030   2.201   0.509  10.316
 4163SOL    HW113031   2.149   0.426  10.299
 4163SOL    HW213032   2.278   0.514  10.252
 4164SOL     OW13033   3.022   0.207  10.787
 4164SOL    HW113034   3.022   0.271  10.864
 4164SOL    HW213035   3.050   0.255  10.704
 4165SOL     OW13036   1.870   1.326   9.510
 4165SOL    HW113037   1.777   1.347   9.479
 4165SOL    HW213038   1.880   1.227   9.523
 4166SOL     OW13039   1.950   1.801  10.237
 4166SOL    HW113040   1.908   1.715  10.210
 4166SOL    HW213041   2.044   1.804  10.203
 4167SOL     OW13042   2.366   1.568  10.220
 4167SOL    HW113043   2.432   1.642  10.229
 4167SOL    HW213044   2.410   1.489  10.178
 4168SOL     OW13045   2.864   0.796  10.548
 4168SOL    HW113046   2.905   0.764  10.634
 4168SOL    HW213047   2.768   0.769  10.545
 4169SOL     OW13048   1.902   0.544  10.424
 4169SOL    HW113049   1.987   0.511  10.383
 4169SOL    HW213050   1.915   0.559  10.522
 4170SOL     OW13051   2.677   0.572   9.635
 4170SOL    HW113052   2.684   0.483   9.589
 4170SOL    HW213053   2.583   0.606   9.627
 4171SOL     OW13054   3.519   0.604  10.516
 4171SOL    HW113055   3.481   0.535  10.578
 4171SOL    HW213056   3.601   0.568  10.472
 4172SOL     OW13057   2.114   1.564  11.054
 4172SOL    HW113058   2.084   1.621  11.130
 4172SOL    HW213059   2.107   1.467  11.080
 4173SOL     OW13060   2.533   0.464  10.579
 4173SOL    HW113061   2.499   0.375  10.549
 4173SOL    HW213062   2.559   0.518  10.499
 4174SOL     OW13063   2.792   1.678  10.775
 4174SOL    HW113064   2.768   1.660  10.680
 4174SOL    HW213065   2.822   1.772  10.785
 4175SOL     OW13066   2.335   0.500   9.501
 4175SOL    HW113067   2.396   0.580   9.505
 4175SOL    HW213068   2.240   0.531   9.508
 4176SOL     OW13069   2.021   1.137  10.776
 4176SOL    HW113070   2.043   1.076  10.852
 4176SOL    HW213071   2.031   1.088  10.690
 4177SOL     OW13072   3.209   1.059  10.544
 4177SOL    HW113073   3.233   0.996  10.470
 4177SOL    HW213074   3.119   1.099  10.526
 4178SOL     OW13075   3.164   0.855   9.619
 4178SOL    HW113076   3.078   0.824   9.661
 4178SOL    HW213077   3.160   0.841   9.520
 4179SOL     OW13078   3.621   1.747  10.464
 4179SOL    HW113079   3.682   1.777  10.391
 4179SOL    HW213080   3.583   1.658  10.442
 4180SOL     OW13081   3.114   1.731  10.438
 4180SOL    HW113082   3.198   1.736  10.384
 4180SOL    HW213083   3.091   1.635  10.456
 4181SOL     OW13084   1.945   1.258  10.332
 4181SOL    HW113085   1.940   1.257  10.432
 4181SOL    HW213086   1.862   1.217  10.294
 4182SOL     OW13087   3.588   0.135   9.833
 4182SOL    HW113088   3.661   0.118   9.766
 4182SOL    HW213089   3.557   0.048   9.871
 4183SOL     OW13090   3.250   1.573   9.787
 4183SOL    HW113091   3.317   1.585   9.713
 4183SOL    HW213092   3.210   1.662   9.810
 4184SOL     OW13093   3.142   0.927   9.982
 4184SOL    HW113094   3.202   0.846   9.984
 4184SOL    HW213095   3.182   0.996   9.922
 4185SOL     OW13096   2.692   1.273  10.732
 4185SOL    HW113097   2.687   1.306  10.827
 4185SOL    HW213098   2.606   1.292  10.686
 4186SOL     OW13099   2.534   1.616   9.464
 4186SOL    HW113100   2.543   1.626   9.365
 4186SOL    HW213101   2.494   1.527   9.485
 4187SOL     OW13102   3.512   1.720  10.704
 4187SOL    HW113103   3.565   1.730  10.620
 4187SOL    HW213104   3.485   1.810  10.738
 4188SOL     OW13105   3.703   0.175  10.273
 4188SOL    HW113106   3.742   0.090  10.237
 4188SOL    HW213107   3.605   0.177  10.254
 4189SOL     OW13108   2.125   0.326  10.030
 4189SOL    HW113109   2.046   0.377   9.996
 4189SOL    HW213110   2.116   0.311  10.128
 4190SOL     OW13111   3.056   1.612   9.341
 4190SOL    HW113112   3.062   1.519   9.378
 4190SOL    HW213113   2.997   1.612   9.261
 4191SOL     OW13114   2.684   1.002  10.682
 4191SOL    HW113115   2.724   1.001  10.590
 4191SOL    HW213116   2.694   1.094  10.722
 4192SOL     OW13117   2.778   0.910   9.601
 4192SOL    HW113118   2.841   0.948   9.533
 4192SOL    HW213119   2.818   0.827   9.640
 4193SOL     OW13120   3.366   1.607   9.354
 4193SOL    HW113121   3.274   1.644   9.361
 4193SOL    HW213122   3.404   1.627   9.264
 4194SOL     OW13123   2.234   1.288  10.800
 4194SOL    HW113124   2.221   1.381  10.766
 4194SOL    HW213125   2.150   1.236  10.787
 4195SOL     OW13126   3.476   1.292  10.599
 4195SOL    HW113127   3.536   1.295  10.679
 4195SOL    HW213128   3.401   1.356  10.612
 4196SOL     OW13129   2.901   1.098  10.006
 4196SOL    HW113130   2.831   1.051  10.060
 4196SOL    HW213131   2.960   1.030   9.963
 4197SOL     OW13132   2.876   0.236  10.281
 4197SOL    HW113133   2.868   0.200  10.188
 4197SOL    HW213134   2.874   0.160  10.346
 4198SOL     OW13135   2.452   1.487   9.801
 4198SOL    HW113136   2.494   1.429   9.731
 4198SOL    HW213137   2.408   1.566   9.757
 4199SOL     OW13138   3.571   0.385  10.691
 4199SOL    HW113139   3.644   0.454  10.695
 4199SOL    HW213140   3.599   0.310  10.632
 4200SOL     OW13141   2.117   1.348   9.600
 4200SOL    HW113142   2.021   1.349   9.573
 4200SOL    HW213143   2.129   1.401   9.684
 4201SOL     OW13144   1.967   1.013  11.036
 4201SOL    HW113145   1.890   0.980  11.090
 4201SOL    HW213146   2.052   0.983  11.078
 4202SOL     OW13147   2.534   0.203  10.799
 4202SOL    HW113148   2.624   0.187  10.759
 4202SOL    HW213149   2.542   0.208  10.898
 4203SOL     OW13150   1.937   0.345   9.343
 4203SOL    HW113151   1.845   0.317   9.314
 4203SOL    HW213152   1.968   0.422   9.287
 4204SOL     OW13153   3.302   0.856  10.708
 4204SOL    HW113154   3.245   0.908  10.645
 4204SOL    HW213155   3.398   0.868  10.684
 4205SOL     OW13156   1.934   0.166   9.628
 4205SOL    HW113157   1.917   0.249   9.574
 4205SOL    HW213158   2.024   0.129   9.606
 4206SOL     OW13159   3.045   1.335   9.429
 4206SOL    HW113160   2.946   1.324   9.431
 4206SOL    HW213161   3.079   1.350   9.522
 4207SOL     OW13162   2.475   0.842  10.741
 4207SOL    HW113163   2.531   0.923  10.724
 4207SOL    HW213164   2.534   0.762  10.744
 4208SOL     OW13165   3.355   1.767  10.269
 4208SOL    HW113166   3.388   1.831  10.200
 4208SOL    HW213167   3.421   1.761  10.344
 4209SOL     OW13168   2.578   0.565  11.018
 4209SOL    HW113169   2.597   0.630  11.092
 4209SOL    HW213170   2.638   0.485  11.027
 4210SOL     OW13171   2.252   1.741  10.870
 4210SOL    HW113172   2.161   1.782  10.868
 4210SOL    HW213173   2.245   1.647  10.902
 4211SOL     OW13174   3.536   0.883  10.564
 4211SOL    HW113175   3.509   0.794  10.527
 4211SOL    HW213176   3.537   0.951  10.491
 4212SOL     OW13177   3.087   0.325   9.759
 4212SOL    HW113178   3.152   0.251   9.748
 4212SOL    HW213179   3.107   0.375   9.843
 4213SOL     OW13180   2.456   0.745   9.962
 4213SOL    HW113181   2.506   0.830   9.943
 4213SOL    HW213182   2.368   0.747   9.914
 4214SOL     OW13183   3.639   0.342  10.952
 4214SOL    HW113184   3.622   0.373  10.858
 4214SOL    HW213185   3.555   0.305  10.990
 4215SOL     OW13186   3.592   0.934  10.827
 4215SOL    HW113187   3.630   1.025  10.842
 4215SOL    HW213188   3.584   0.917  10.728
 4216SOL     OW13189   2.721   1.374   9.326
 4216SOL    HW113190   2.675   1.389   9.414
 4216SOL    HW213191   2.765   1.459   9.296
 4217SOL     OW13192   2.523   1.790  10.263
 4217SOL    HW113193   2.477   1.878  10.250
 4217SOL    HW213194   2.622   1.802  10.256
 4218SOL     OW13195   2.721   0.956  10.171
 4218SOL    HW113196   2.775   0.887  10.219
 4218SOL    HW213197   2.689   1.025  10.237
 4219SOL     OW13198   2.945   0.984   9.397
 4219SOL    HW113199   2.922   1.037   9.315
 4219SOL    HW213200   3.026   0.928   9.378
 4220SOL     OW13201   3.723   1.569  10.161
 4220SOL    HW113202   3.652   1.557  10.091
 4220SOL    HW213203   3.724   1.490  10.221
 4221SOL     OW13204   1.941   1.240   9.963
 4221SOL    HW113205   1.940   1.193  10.051
 4221SOL    HW213206   2.023   1.212   9.912
 4222SOL     OW13207   2.534   1.391  10.934
 4222SOL    HW113208   2.456   1.341  10.972
 4222SOL    HW213209   2.531   1.486  10.965
 4223SOL     OW13210   3.686   0.192  10.537
 4223SOL    HW113211   3.682   0.102  10.581
 4223SOL    HW213212   3.689   0.181  10.438
 4224SOL     OW13213   2.290   0.424   9.830
 4224SOL    HW113214   2.320   0.352   9.768
 4224SOL    HW213215   2.251   0.384   9.913
 4225SOL     OW13216   3.567   1.487  10.414
 4225SOL    HW113217   3.474   1.462  10.387
 4225SOL    HW213218   3.593   1.437  10.496
 4226SOL     OW13219   2.179   0.547  10.590
 4226SOL    HW113220   2.217   0.488  10.662
 4226SOL    HW213221   2.219   0.521  10.502
 4227SOL     OW13222   2.674   1.586   9.997
 4227SOL    HW113223   2.706   1.596   9.903
 4227SOL    HW213224   2.595   1.524   9.999
 4228SOL     OW13225   3.286   0.214  10.422
 4228SOL    HW113226   3.338   0.149  10.477
 4228SOL    HW213227   3.237   0.277  10.483
 4229SOL     OW13228   2.863   0.034  10.464
 4229SOL    HW113229   2.800  -0.038  10.433
 4229SOL    HW213230   2.956  -0.002  10.464
 4230SOL     OW13231   2.632   1.330   9.611
 4230SOL    HW113232   2.586   1.243   9.628
 4230SOL    HW213233   2.723   1.327   9.652
 4231SOL     OW13234   2.480   1.567  10.594
 4231SOL    HW113235   2.475   1.649  10.651
 4231SOL    HW213236   2.569   1.564  10.549
 4232SOL     OW13237   3.214   0.052   9.478
 4232SOL    HW113238   3.249   0.011   9.394
 4232SOL    HW213239   3.124   0.014   9.498
 4233SOL     OW13240   3.162   0.453  10.001
 4233SOL    HW113241   3.103   0.533  10.005
 4233SOL    HW213242   3.177   0.418  10.094
 4234SOL     OW13243   3.455   0.221  10.192
 4234SOL    HW113244   3.371   0.220  10.246
 4234SOL    HW213245   3.457   0.304  10.136
 4235SOL     OW13246   1.901   1.077   9.610
 4235SOL    HW113247   2.000   1.066   9.601
 4235SOL    HW213248   1.861   0.991   9.642
 4236SOL     OW13249   2.737   1.646   9.647
 4236SOL    HW113250   2.660   1.611   9.593
 4236SOL    HW213251   2.705   1.717   9.709
 4237SOL     OW13252   2.092   2.490   0.113
 4237SOL    HW113253   1.999   2.488   0.150
 4237SOL    HW213254   2.093   2.451   0.021
 4238SOL     OW13255   1.881   2.230   0.647
 4238SOL    HW113256   1.799   2.273   0.686
 4238SOL    HW213257   1.853   2.157   0.584
 4239SOL     OW13258   2.431   3.137   1.165
 4239SOL    HW113259   2.338   3.130   1.128
 4239SOL    HW213260   2.442   3.226   1.209
 4240SOL     OW13261   3.417   3.373   0.703
 4240SOL    HW113262   3.360   3.357   0.784
 4240SOL    HW213263   3.358   3.383   0.623
 4241SOL     OW13264   2.997   2.565   0.717
 4241SOL    HW113265   3.054   2.643   0.692
 4241SOL    HW213266   2.937   2.591   0.793
 4242SOL     OW13267   3.617   2.469   0.231
 4242SOL    HW113268   3.605   2.456   0.132
 4242SOL    HW213269   3.587   2.388   0.280
 4243SOL     OW13270   2.630   3.006   1.023
 4243SOL    HW113271   2.552   3.023   1.083
 4243SOL    HW213272   2.664   3.093   0.987
 4244SOL     OW13273   2.712   2.660   1.823
 4244SOL    HW113274   2.708   2.736   1.888
 4244SOL    HW213275   2.734   2.696   1.732
 4245SOL     OW13276   2.547   2.874   0.665
 4245SOL    HW113277   2.616   2.858   0.735
 4245SOL    HW213278   2.474   2.931   0.703
 4246SOL     OW13279   2.548   3.023   1.803
 4246SOL    HW113280   2.608   3.102   1.817
 4246SOL    HW213281   2.462   3.054   1.762
 4247SOL     OW13282   2.197   3.297   1.061
 4247SOL    HW113283   2.119   3.266   1.008
 4247SOL    HW213284   2.255   3.355   1.004
 4248SOL     OW13285   3.322   3.367   1.339
 4248SOL    HW113286   3.346   3.461   1.365
 4248SOL    HW213287   3.306   3.313   1.421
 4249SOL     OW13288   3.465   2.309   0.737
 4249SOL    HW113289   3.391   2.355   0.687
 4249SOL    HW213290   3.516   2.377   0.790
 4250SOL     OW13291   2.093   3.575   0.483
 4250SOL    HW113292   2.127   3.652   0.537
 4250SOL    HW213293   2.137   3.575   0.393
 4251SOL     OW13294   2.989   3.203   1.690
 4251SOL    HW113295   3.036   3.203   1.778
 4251SOL    HW213296   2.941   3.116   1.679
 4252SOL     OW13297   2.092   3.296   0.538
 4252SOL    HW113298   2.066   3.392   0.538
 4252SOL    HW213299   2.021   3.242   0.583
 4253SOL     OW13300   2.102   2.953   0.886
 4253SOL    HW113301   2.116   2.869   0.938
 4253SOL    HW213302   2.047   3.017   0.941
 4254SOL     OW13303   2.482   3.648   1.439
 4254SOL    HW113304   2.390   3.631   1.474
 4254SOL    HW213305   2.510   3.740   1.465
 4255SOL     OW13306   2.468   2.826   0.123
 4255SOL    HW113307   2.475   2.910   0.069
 4255SOL    HW213308   2.514   2.839   0.211
 4256SOL     OW13309   3.456   1.976   1.480
 4256SOL    HW113310   3.438   2.043   1.408
 4256SOL    HW213311   3.453   2.022   1.569
 4257SOL     OW13312   1.984   2.505   0.563
 4257SOL    HW113313   1.939   2.417   0.580
 4257SOL    HW213314   1.983   2.559   0.647
 4258SOL     OW13315   3.704   3.629   0.359
 4258SOL    HW113316   3.758   3.600   0.439
 4258SOL    HW213317   3.734   3.719   0.330
 4259SOL     OW13318   1.889   3.458   0.117
 4259SOL    HW113319   1.870   3.362   0.138
 4259SOL    HW213320   1.856   3.516   0.192
 4260SOL     OW13321   3.551   2.784   0.612
 4260SOL    HW113322   3.646   2.755   0.620
 4260SOL    HW213323   3.543   2.849   0.537
 4261SOL     OW13324   3.503   2.970   0.432
 4261SOL    HW113325   3.589   2.972   0.380
 4261SOL    HW213326   3.517   3.017   0.520
 4262SOL     OW13327   1.975   2.599   1.597
 4262SOL    HW113328   2.063   2.586   1.642
 4262SOL    HW213329   1.962   2.696   1.575
 4263SOL     OW13330   2.475   3.227   0.726
 4263SOL    HW113331   2.426   3.140   0.735
 4263SOL    HW213332   2.452   3.270   0.639
 4264SOL     OW13333   3.155   3.090   1.423
 4264SOL    HW113334   3.192   3.017   1.365
 4264SOL    HW213335   3.207   3.095   1.508
 4265SOL     OW13336   2.671   1.866   0.502
 4265SOL    HW113337   2.711   1.957   0.493
 4265SOL    HW213338   2.571   1.874   0.508
 4266SOL     OW13339   2.059   2.838   1.264
 4266SOL    HW113340   2.148   2.793   1.250
 4266SOL    HW213341   1.986   2.773   1.245
 4267SOL     OW13342   3.387   2.861   0.190
 4267SOL    HW113343   3.324   2.785   0.203
 4267SOL    HW213344   3.435   2.879   0.276
 4268SOL     OW13345   3.049   3.654   1.616
 4268SOL    HW113346   3.073   3.714   1.540
 4268SOL    HW213347   3.056   3.559   1.586
 4269SOL     OW13348   3.328   3.279   0.953
 4269SOL    HW113349   3.269   3.285   1.033
 4269SOL    HW213350   3.313   3.191   0.907
 4270SOL     OW13351   3.529   3.576   0.572
 4270SOL    HW113352   3.488   3.553   0.484
 4270SOL    HW213353   3.511   3.502   0.637
 4271SOL     OW13354   2.460   2.591   0.270
 4271SOL    HW113355   2.484   2.660   0.202
 4271SOL    HW213356   2.382   2.624   0.324
 4272SOL     OW13357   3.143   2.207   0.944
 4272SOL    HW113358   3.057   2.157   0.931
 4272SOL    HW213359   3.205   2.153   1.000
 4273SOL     OW13360   3.438   3.524   0.307
 4273SOL    HW113361   3.527   3.570   0.310
 4273SOL    HW213362   3.417   3.500   0.212
 4274SOL     OW13363   2.669   2.467   1.465
 4274SOL    HW113364   2.622   2.464   1.554
 4274SOL    HW213365   2.618   2.412   1.399
 4275SOL     OW13366   3.256   2.331   1.674
 4275SOL    HW113367   3.236   2.374   1.762
 4275SOL    HW213368   3.334   2.269   1.683
 4276SOL     OW13369   2.835   2.752   1.572
 4276SOL    HW113370   2.881   2.668   1.543
 4276SOL    HW213371   2.779   2.786   1.497
 4277SOL     OW13372   2.853   2.272   1.242
 4277SOL    HW113373   2.776   2.306   1.296
 4277SOL    HW213374   2.819   2.221   1.163
 4278SOL     OW13375   2.903   2.563   0.429
 4278SOL    HW113376   2.929   2.559   0.525
 4278SOL    HW213377   2.818   2.512   0.415
 4279SOL     OW13378   1.938   2.673   0.789
 4279SOL    HW113379   2.037   2.661   0.798
 4279SOL    HW213380   1.914   2.768   0.810
 4280SOL     OW13381   1.992   3.683   1.571
 4280SOL    HW113382   1.982   3.668   1.670
 4280SOL    HW213383   1.906   3.719   1.535
 4281SOL     OW13384   2.727   2.210   0.195
 4281SOL    HW113385   2.786   2.273   0.146
 4281SOL    HW213386   2.746   2.116   0.166
 4282SOL     OW13387   3.581   2.447   1.831
 4282SOL    HW113388   3.555   2.536   1.795
 4282SOL    HW213389   3.579   2.379   1.758
 4283SOL     OW13390   3.224   3.006   0.545
 4283SOL    HW113391   3.307   2.977   0.497
 4283SOL    HW213392   3.175   3.073   0.489
 4284SOL     OW13393   2.870   3.318   0.477
 4284SOL    HW113394   2.824   3.390   0.425
 4284SOL    HW213395   2.866   3.338   0.575
 4285SOL     OW13396   2.213   3.663   0.853
 4285SOL    HW113397   2.263   3.577   0.859
 4285SOL    HW213398   2.278   3.740   0.850
 4286SOL     OW13399   3.657   2.928   0.873
 4286SOL    HW113400   3.595   2.913   0.797
 4286SOL    HW213401   3.605   2.939   0.958
 4287SOL     OW13402   3.089   3.412   1.506
 4287SOL    HW113403   3.095   3.335   1.570
 4287SOL    HW213404   3.037   3.386   1.426
 4288SOL     OW13405   2.183   2.805   0.242
 4288SOL    HW113406   2.265   2.844   0.200
 4288SOL    HW213407   2.156   2.723   0.193
 4289SOL     OW13408   3.320   2.597   0.728
 4289SOL    HW113409   3.315   2.532   0.803
 4289SOL    HW213410   3.400   2.656   0.741
 4290SOL     OW13411   2.323   3.128   1.727
 4290SOL    HW113412   2.273   3.129   1.641
 4290SOL    HW213413   2.260   3.110   1.803
 4291SOL     OW13414   2.973   3.638   0.237
 4291SOL    HW113415   2.913   3.576   0.287
 4291SOL    HW213416   3.004   3.594   0.152
 4292SOL     OW13417   2.064   2.147   1.498
 4292SOL    HW113418   1.984   2.207   1.485
 4292SOL    HW213419   2.054   2.098   1.584
 4293SOL     OW13420   3.494   3.239   0.081
 4293SOL    HW113421   3.462   3.333   0.071
 4293SOL    HW213422   3.418   3.176   0.069
 4294SOL     OW13423   2.326   3.605   0.323
 4294SOL    HW113424   2.359   3.644   0.409
 4294SOL    HW213425   2.402   3.598   0.258
 4295SOL     OW13426   3.262   1.969   0.426
 4295SOL    HW113427   3.238   1.932   0.336
 4295SOL    HW213428   3.361   1.985   0.430
 4296SOL     OW13429   2.111   3.647   1.241
 4296SOL    HW113430   2.168   3.582   1.291
 4296SOL    HW213431   2.095   3.614   1.148
 4297SOL     OW13432   2.802   3.560   0.904
 4297SOL    HW113433   2.882   3.503   0.925
 4297SOL    HW213434   2.753   3.520   0.827
 4298SOL     OW13435   2.244   2.562   0.480
 4298SOL    HW113436   2.289   2.472   0.477
 4298SOL    HW213437   2.150   2.551   0.513
 4299SOL     OW13438   3.409   2.084   1.729
 4299SOL    HW113439   3.404   2.121   1.821
 4299SOL    HW213440   3.337   2.015   1.717
 4300SOL     OW13441   2.476   1.984   0.117
 4300SOL    HW113442   2.574   1.962   0.124
 4300SOL    HW213443   2.445   1.967   0.024
 4301SOL     OW13444   2.643   2.126   1.749
 4301SOL    HW113445   2.710   2.065   1.792
 4301SOL    HW213446   2.570   2.145   1.814
 4302SOL     OW13447   2.750   3.376   1.195
 4302SOL    HW113448   2.727   3.351   1.101
 4302SOL    HW213449   2.811   3.307   1.234
 4303SOL     OW13450   3.213   2.452   1.433
 4303SOL    HW113451   3.241   2.409   1.518
 4303SOL    HW213452   3.238   2.548   1.434
 4304SOL     OW13453   2.665   3.264   0.924
 4304SOL    HW113454   2.755   3.278   0.882
 4304SOL    HW213455   2.594   3.266   0.853
 4305SOL     OW13456   2.784   2.365   0.899
 4305SOL    HW113457   2.759   2.356   0.803
 4305SOL    HW213458   2.832   2.283   0.930
 4306SOL     OW13459   2.401   1.926   0.512
 4306SOL    HW113460   2.320   1.927   0.570
 4306SOL    HW213461   2.404   2.009   0.457
 4307SOL     OW13462   3.296   3.050   0.041
 4307SOL    HW113463   3.328   2.974   0.098
 4307SOL    HW213464   3.204   3.077   0.071
 4308SOL     OW13465   2.159   1.897   0.171
 4308SOL    HW113466   2.208   1.981   0.150
 4308SOL    HW213467   2.221   1.832   0.216
 4309SOL     OW13468   2.797   2.098   0.480
 4309SOL    HW113469   2.749   2.139   0.402
 4309SOL    HW213470   2.896   2.096   0.461
 4310SOL     OW13471   2.938   2.545   1.464
 4310SOL    HW113472   2.858   2.484   1.467
 4310SOL    HW213473   3.019   2.492   1.440
 4311SOL     OW13474   3.089   3.432   0.793
 4311SOL    HW113475   3.110   3.506   0.728
 4311SOL    HW213476   3.157   3.432   0.866
 4312SOL     OW13477   2.321   3.014   0.741
 4312SOL    HW113478   2.250   2.987   0.806
 4312SOL    HW213479   2.295   2.986   0.648
 4313SOL     OW13480   3.133   3.659   0.591
 4313SOL    HW113481   3.177   3.723   0.527
 4313SOL    HW213482   3.083   3.711   0.661
 4314SOL     OW13483   2.894   2.411   0.016
 4314SOL    HW113484   2.853   2.493  -0.023
 4314SOL    HW213485   2.958   2.437   0.089
 4315SOL     OW13486   1.940   2.418   1.386
 4315SOL    HW113487   2.032   2.417   1.345
 4315SOL    HW213488   1.934   2.492   1.453
 4316SOL     OW13489   2.423   2.084   1.147
 4316SOL    HW113490   2.461   2.000   1.184
 4316SOL    HW213491   2.335   2.103   1.191
 4317SOL     OW13492   2.728   2.316   0.642
 4317SOL    HW113493   2.696   2.388   0.580
 4317SOL    HW213494   2.752   2.235   0.589
 4318SOL     OW13495   2.879   1.901   0.753
 4318SOL    HW113496   2.807   1.906   0.684
 4318SOL    HW213497   2.855   1.832   0.822
 4319SOL     OW13498   3.291   3.035   0.867
 4319SOL    HW113499   3.236   2.951   0.860
 4319SOL    HW213500   3.317   3.064   0.775
 4320SOL     OW13501   3.328   2.452   0.992
 4320SOL    HW113502   3.298   2.357   0.999
 4320SOL    HW213503   3.401   2.468   1.058
 4321SOL     OW13504   3.719   2.695   0.377
 4321SOL    HW113505   3.761   2.631   0.441
 4321SOL    HW213506   3.681   2.644   0.299
 4322SOL     OW13507   2.350   3.247   0.174
 4322SOL    HW113508   2.263   3.232   0.221
 4322SOL    HW213509   2.333   3.273   0.079
 4323SOL     OW13510   3.526   3.142   0.657
 4323SOL    HW113511   3.625   3.150   0.671
 4323SOL    HW213512   3.481   3.226   0.688
 4324SOL     OW13513   3.252   2.437   0.078
 4324SOL    HW113514   3.198   2.416   0.159
 4324SOL    HW213515   3.343   2.396   0.087
 4325SOL     OW13516   3.616   3.085   1.588
 4325SOL    HW113517   3.707   3.046   1.575
 4325SOL    HW213518   3.624   3.181   1.612
 4326SOL     OW13519   2.926   3.209   1.340
 4326SOL    HW113520   2.846   3.186   1.395
 4326SOL    HW213521   3.009   3.183   1.389
 4327SOL     OW13522   3.454   3.491   1.625
 4327SOL    HW113523   3.481   3.525   1.535
 4327SOL    HW213524   3.533   3.453   1.671
 4328SOL     OW13525   2.973   3.057   1.100
 4328SOL    HW113526   2.933   3.101   1.181
 4328SOL    HW213527   2.932   3.094   1.017
 4329SOL     OW13528   3.500   2.961   1.079
 4329SOL    HW113529   3.505   3.042   1.138
 4329SOL    HW213530   3.414   2.963   1.028
 4330SOL     OW13531   2.777   1.951   1.402
 4330SOL    HW113532   2.802   1.931   1.307
 4330SOL    HW213533   2.849   2.007   1.444
 4331SOL     OW13534   2.842   2.978   1.719
 4331SOL    HW113535   2.743   2.984   1.729
 4331SOL    HW213536   2.865   2.898   1.663
 4332SOL     OW13537   2.567   2.912   0.368
 4332SOL    HW113538   2.553   2.919   0.467
 4332SOL    HW213539   2.651   2.861   0.350
 4333SOL     OW13540   2.272   2.675   1.251
 4333SOL    HW113541   2.358   2.687   1.301
 4333SOL    HW213542   2.230   2.588   1.278
 4334SOL     OW13543   3.136   2.248   1.262
 4334SOL    HW113544   3.157   2.322   1.326
 4334SOL    HW213545   3.047   2.265   1.219
 4335SOL     OW13546   1.926   3.426   1.331
 4335SOL    HW113547   1.880   3.508   1.297
 4335SOL    HW213548   2.024   3.445   1.340
 4336SOL     OW13549   2.229   2.962   0.501
 4336SOL    HW113550   2.222   3.045   0.445
 4336SOL    HW213551   2.233   2.882   0.441
 4337SOL     OW13552   3.114   3.210   0.388
 4337SOL    HW113553   3.164   3.287   0.428
 4337SOL    HW213554   3.019   3.212   0.420
 4338SOL     OW13555   3.134   3.307   1.142
 4338SOL    HW113556   3.181   3.320   1.229
 4338SOL    HW213557   3.068   3.233   1.151
 4339SOL     OW13558   3.444   2.501   0.472
 4339SOL    HW113559   3.413   2.562   0.545
 4339SOL    HW213560   3.494   2.553   0.403
 4340SOL     OW13561   2.216   3.372   1.329
 4340SOL    HW113562   2.195   3.328   1.242
 4340SOL    HW213563   2.313   3.398   1.332
 4341SOL     OW13564   2.264   2.613   1.598
 4341SOL    HW113565   2.332   2.668   1.551
 4341SOL    HW213566   2.304   2.525   1.625
 4342SOL     OW13567   3.449   2.641   1.670
 4342SOL    HW113568   3.357   2.679   1.665
 4342SOL    HW213569   3.509   2.688   1.605
 4343SOL     OW13570   2.875   1.967   1.770
 4343SOL    HW113571   2.881   2.052   1.718
 4343SOL    HW213572   2.907   1.891   1.713
 4344SOL     OW13573   2.366   1.912   1.740
 4344SOL    HW113574   2.324   1.855   1.670
 4344SOL    HW213575   2.300   1.981   1.772
 4345SOL     OW13576   2.435   2.732   1.029
 4345SOL    HW113577   2.479   2.821   1.020
 4345SOL    HW213578   2.372   2.732   1.106
 4346SOL     OW13579   3.222   2.724   1.045
 4346SOL    HW113580   3.147   2.724   0.979
 4346SOL    HW213581   3.259   2.632   1.054
 4347SOL     OW13582   3.071   2.387   0.275
 4347SOL    HW113583   3.084   2.303   0.329
 4347SOL    HW213584   3.042   2.461   0.335
 4348SOL     OW13585   1.899   3.172   1.282
 4348SOL    HW113586   1.952   3.123   1.350
 4348SOL    HW213587   1.921   3.270   1.287
 4349SOL     OW13588   2.594   2.496   1.064
 4349SOL    HW113589   2.653   2.470   0.988
 4349SOL    HW213590   2.566   2.592   1.053
 4350SOL     OW13591   3.590   2.797   1.854
 4350SOL    HW113592   3.544   2.790   1.765
 4350SOL    HW213593   3.528   2.841   1.920
 4351SOL     OW13594   2.169   1.925   0.618
 4351SOL    HW113595   2.158   2.019   0.651
 4351SOL    HW213596   2.164   1.862   0.695
 4352SOL     OW13597   3.484   2.229   0.374
 4352SOL    HW113598   3.486   2.153   0.438
 4352SOL    HW213599   3.436   2.306   0.414
 4353SOL     OW13600   2.885   2.628   0.966
 4353SOL    HW113601   2.900   2.649   1.062
 4353SOL    HW213602   2.855   2.533   0.957
 4354SOL     OW13603   2.842   3.435   1.700
 4354SOL    HW113604   2.822   3.479   1.612
 4354SOL    HW213605   2.881   3.344   1.684
 4355SOL     OW13606   3.721   3.380   1.605
 4355SOL    HW113607   3.735   3.407   1.510
 4355SOL    HW213608   3.804   3.402   1.658
 4356SOL     OW13609   2.212   2.760   1.804
 4356SOL    HW113610   2.288   2.804   1.852
 4356SOL    HW213611   2.247   2.713   1.722
 4357SOL     OW13612   3.402   2.136   0.125
 4357SOL    HW113613   3.341   2.061   0.148
 4357SOL    HW213614   3.424   2.188   0.208
 4358SOL     OW13615   3.165   2.700   0.042
 4358SOL    HW113616   3.199   2.607   0.057
 4358SOL    HW213617   3.183   2.727  -0.053
 4359SOL     OW13618   2.930   3.195   0.849
 4359SOL    HW113619   2.937   3.111   0.794
 4359SOL    HW213620   2.992   3.264   0.813
 4360SOL     OW13621   2.181   2.672   0.949
 4360SOL    HW113622   2.274   2.708   0.954
 4360SOL    HW213623   2.175   2.587   1.001
 4361SOL     OW13624   3.000   2.242   1.678
 4361SOL    HW113625   2.955   2.305   1.742
 4361SOL    HW213626   3.093   2.273   1.661
 4362SOL     OW13627   3.022   2.069   1.477
 4362SOL    HW113628   3.022   2.133   1.554
 4362SOL    HW213629   3.050   2.117   1.394
 4363SOL     OW13630   1.870   3.188   0.200
 4363SOL    HW113631   1.777   3.209   0.169
 4363SOL    HW213632   1.880   3.089   0.213
 4364SOL     OW13633   1.950   3.663   0.927
 4364SOL    HW113634   1.908   3.577   0.900
 4364SOL    HW213635   2.044   3.666   0.893
 4365SOL     OW13636   2.366   3.430   0.910
 4365SOL    HW113637   2.432   3.504   0.919
 4365SOL    HW213638   2.410   3.351   0.868
 4366SOL     OW13639   2.864   2.658   1.238
 4366SOL    HW113640   2.905   2.626   1.324
 4366SOL    HW213641   2.768   2.631   1.235
 4367SOL     OW13642   1.902   2.406   1.114
 4367SOL    HW113643   1.987   2.373   1.073
 4367SOL    HW213644   1.915   2.421   1.212
 4368SOL     OW13645   3.231   2.812   1.660
 4368SOL    HW113646   3.270   2.901   1.680
 4368SOL    HW213647   3.241   2.792   1.563
 4369SOL     OW13648   2.677   2.434   0.325
 4369SOL    HW113649   2.684   2.345   0.279
 4369SOL    HW213650   2.583   2.468   0.317
 4370SOL     OW13651   3.519   2.466   1.206
 4370SOL    HW113652   3.481   2.397   1.268
 4370SOL    HW213653   3.601   2.430   1.162
 4371SOL     OW13654   2.114   3.426   1.744
 4371SOL    HW113655   2.084   3.483   1.820
 4371SOL    HW213656   2.107   3.329   1.770
 4372SOL     OW13657   2.533   2.326   1.269
 4372SOL    HW113658   2.499   2.237   1.239
 4372SOL    HW213659   2.559   2.380   1.189
 4373SOL     OW13660   2.792   3.540   1.465
 4373SOL    HW113661   2.768   3.522   1.370
 4373SOL    HW213662   2.822   3.634   1.475
 4374SOL     OW13663   2.021   2.999   1.466
 4374SOL    HW113664   2.043   2.938   1.542
 4374SOL    HW213665   2.031   2.950   1.380
 4375SOL     OW13666   3.209   2.921   1.234
 4375SOL    HW113667   3.233   2.858   1.160
 4375SOL    HW213668   3.119   2.961   1.216
 4376SOL     OW13669   3.164   2.717   0.309
 4376SOL    HW113670   3.078   2.686   0.351
 4376SOL    HW213671   3.160   2.703   0.210
 4377SOL     OW13672   3.621   3.609   1.154
 4377SOL    HW113673   3.682   3.639   1.081
 4377SOL    HW213674   3.583   3.520   1.132
 4378SOL     OW13675   3.114   3.593   1.128
 4378SOL    HW113676   3.198   3.598   1.074
 4378SOL    HW213677   3.091   3.497   1.146
 4379SOL     OW13678   1.945   3.120   1.022
 4379SOL    HW113679   1.940   3.119   1.122
 4379SOL    HW213680   1.862   3.079   0.984
 4380SOL     OW13681   2.550   3.524   1.716
 4380SOL    HW113682   2.494   3.605   1.725
 4380SOL    HW213683   2.602   3.528   1.630
 4381SOL     OW13684   2.765   1.948   0.133
 4381SOL    HW113685   2.816   1.949   0.047
 4381SOL    HW213686   2.821   1.906   0.204
 4382SOL     OW13687   3.588   1.997   0.523
 4382SOL    HW113688   3.661   1.980   0.456
 4382SOL    HW213689   3.557   1.910   0.561
 4383SOL     OW13690   3.250   3.435   0.477
 4383SOL    HW113691   3.317   3.447   0.403
 4383SOL    HW213692   3.210   3.524   0.500
 4384SOL     OW13693   1.992   3.656   1.851
 4384SOL    HW113694   1.951   3.582   1.904
 4384SOL    HW213695   2.056   3.707   1.909
 4385SOL     OW13696   3.142   2.789   0.672
 4385SOL    HW113697   3.202   2.708   0.674
 4385SOL    HW213698   3.182   2.858   0.612
 4386SOL     OW13699   2.692   3.135   1.422
 4386SOL    HW113700   2.687   3.168   1.517
 4386SOL    HW213701   2.606   3.154   1.376
 4387SOL     OW13702   2.534   3.478   0.154
 4387SOL    HW113703   2.543   3.488   0.055
 4387SOL    HW213704   2.494   3.389   0.175
 4388SOL     OW13705   3.512   3.582   1.394
 4388SOL    HW113706   3.565   3.592   1.310
 4388SOL    HW213707   3.485   3.672   1.428
 4389SOL     OW13708   3.703   2.037   0.963
 4389SOL    HW113709   3.742   1.952   0.927
 4389SOL    HW213710   3.605   2.039   0.944
 4390SOL     OW13711   3.056   3.474   0.031
 4390SOL    HW113712   3.062   3.381   0.068
 4390SOL    HW213713   2.997   3.474  -0.049
 4391SOL     OW13714   2.684   2.864   1.372
 4391SOL    HW113715   2.724   2.863   1.280
 4391SOL    HW213716   2.694   2.956   1.412
 4392SOL     OW13717   2.778   2.772   0.291
 4392SOL    HW113718   2.841   2.810   0.223
 4392SOL    HW213719   2.818   2.689   0.330
 4393SOL     OW13720   3.366   3.469   0.044
 4393SOL    HW113721   3.274   3.506   0.051
 4393SOL    HW213722   3.404   3.489  -0.046
 4394SOL     OW13723   2.234   3.150   1.490
 4394SOL    HW113724   2.221   3.243   1.456
 4394SOL    HW213725   2.150   3.098   1.477
 4395SOL     OW13726   3.476   3.154   1.289
 4395SOL    HW113727   3.536   3.157   1.369
 4395SOL    HW213728   3.401   3.218   1.302
 4396SOL     OW13729   2.901   2.960   0.696
 4396SOL    HW113730   2.831   2.913   0.750
 4396SOL    HW213731   2.960   2.892   0.653
 4397SOL     OW13732   2.876   2.098   0.971
 4397SOL    HW113733   2.868   2.062   0.878
 4397SOL    HW213734   2.874   2.022   1.036
 4398SOL     OW13735   2.452   3.349   0.491
 4398SOL    HW113736   2.494   3.291   0.421
 4398SOL    HW213737   2.408   3.428   0.447
 4399SOL     OW13738   3.571   2.247   1.381
 4399SOL    HW113739   3.644   2.316   1.385
 4399SOL    HW213740   3.599   2.172   1.322
 4400SOL     OW13741   2.117   3.210   0.290
 4400SOL    HW113742   2.021   3.211   0.263
 4400SOL    HW213743   2.129   3.263   0.374
 4401SOL     OW13744   1.967   2.875   1.726
 4401SOL    HW113745   1.890   2.842   1.780
 4401SOL    HW213746   2.052   2.845   1.768
 4402SOL     OW13747   2.534   2.065   1.489
 4402SOL    HW113748   2.624   2.049   1.449
 4402SOL    HW213749   2.542   2.070   1.588
 4403SOL     OW13750   1.937   2.207   0.033
 4403SOL    HW113751   1.845   2.179   0.004
 4403SOL    HW213752   1.968   2.284  -0.023
 4404SOL     OW13753   3.302   2.718   1.398
 4404SOL    HW113754   3.245   2.770   1.335
 4404SOL    HW213755   3.398   2.730   1.374
 4405SOL     OW13756   1.934   2.028   0.318
 4405SOL    HW113757   1.917   2.111   0.264
 4405SOL    HW213758   2.024   1.991   0.296
 4406SOL     OW13759   3.045   3.197   0.119
 4406SOL    HW113760   2.946   3.186   0.121
 4406SOL    HW213761   3.079   3.212   0.212
 4407SOL     OW13762   2.475   2.704   1.431
 4407SOL    HW113763   2.531   2.785   1.414
 4407SOL    HW213764   2.534   2.624   1.434
 4408SOL     OW13765   3.355   3.629   0.959
 4408SOL    HW113766   3.388   3.693   0.890
 4408SOL    HW213767   3.421   3.623   1.034
 4409SOL     OW13768   2.578   2.427   1.708
 4409SOL    HW113769   2.597   2.492   1.782
 4409SOL    HW213770   2.638   2.347   1.717
 4410SOL     OW13771   3.312   3.082   1.633
 4410SOL    HW113772   3.303   3.072   1.732
 4410SOL    HW213773   3.408   3.075   1.607
 4411SOL     OW13774   2.252   3.603   1.560
 4411SOL    HW113775   2.161   3.644   1.558
 4411SOL    HW213776   2.245   3.509   1.592
 4412SOL     OW13777   3.536   2.745   1.254
 4412SOL    HW113778   3.509   2.656   1.217
 4412SOL    HW213779   3.537   2.813   1.181
 4413SOL     OW13780   3.087   2.187   0.449
 4413SOL    HW113781   3.152   2.113   0.438
 4413SOL    HW213782   3.107   2.237   0.533
 4414SOL     OW13783   2.456   2.607   0.652
 4414SOL    HW113784   2.506   2.692   0.633
 4414SOL    HW213785   2.368   2.609   0.604
 4415SOL     OW13786   3.639   2.204   1.642
 4415SOL    HW113787   3.622   2.235   1.548
 4415SOL    HW213788   3.555   2.167   1.680
 4416SOL     OW13789   3.592   2.796   1.517
 4416SOL    HW113790   3.630   2.887   1.532
 4416SOL    HW213791   3.584   2.779   1.418
 4417SOL     OW13792   2.721   3.236   0.016
 4417SOL    HW113793   2.675   3.251   0.104
 4417SOL    HW213794   2.765   3.321  -0.014
 4418SOL     OW13795   2.523   3.652   0.953
 4418SOL    HW113796   2.477   3.740   0.940
 4418SOL    HW213797   2.622   3.664   0.946
 4419SOL     OW13798   2.721   2.818   0.861
 4419SOL    HW113799   2.775   2.749   0.909
 4419SOL    HW213800   2.689   2.887   0.927
 4420SOL     OW13801   2.945   2.846   0.087
 4420SOL    HW113802   2.922   2.899   0.005
 4420SOL    HW213803   3.026   2.790   0.068
 4421SOL     OW13804   3.723   3.431   0.851
 4421SOL    HW113805   3.652   3.419   0.781
 4421SOL    HW213806   3.724   3.352   0.911
 4422SOL     OW13807   2.083   3.176   1.844
 4422SOL    HW113808   2.018   3.103   1.823
 4422SOL    HW213809   2.087   3.190   1.942
 4423SOL     OW13810   1.941   3.102   0.653
 4423SOL    HW113811   1.940   3.055   0.741
 4423SOL    HW213812   2.023   3.074   0.602
 4424SOL     OW13813   2.534   3.253   1.624
 4424SOL    HW113814   2.456   3.203   1.662
 4424SOL    HW213815   2.531   3.348   1.655
 4425SOL     OW13816   3.686   2.054   1.227
 4425SOL    HW113817   3.682   1.964   1.271
 4425SOL    HW213818   3.689   2.043   1.128
 4426SOL     OW13819   3.567   3.349   1.104
 4426SOL    HW113820   3.474   3.324   1.077
 4426SOL    HW213821   3.593   3.299   1.186
 4427SOL     OW13822   2.674   3.448   0.687
 4427SOL    HW113823   2.706   3.458   0.593
 4427SOL    HW213824   2.595   3.386   0.689
 4428SOL     OW13825   3.286   2.076   1.112
 4428SOL    HW113826   3.338   2.011   1.167
 4428SOL    HW213827   3.237   2.139   1.173
 4429SOL     OW13828   2.863   1.896   1.154
 4429SOL    HW113829   2.800   1.824   1.123
 4429SOL    HW213830   2.956   1.860   1.154
 4430SOL     OW13831   2.632   3.192   0.301
 4430SOL    HW113832   2.586   3.105   0.318
 4430SOL    HW213833   2.723   3.189   0.342
 4431SOL     OW13834   2.480   3.429   1.284
 4431SOL    HW113835   2.475   3.511   1.341
 4431SOL    HW213836   2.569   3.426   1.239
 4432SOL     OW13837   3.214   1.914   0.168
 4432SOL    HW113838   3.249   1.873   0.084
 4432SOL    HW213839   3.124   1.876   0.188
 4433SOL     OW13840   3.162   2.315   0.691
 4433SOL    HW113841   3.103   2.395   0.695
 4433SOL    HW213842   3.177   2.280   0.784
 4434SOL     OW13843   3.455   2.083   0.882
 4434SOL    HW113844   3.371   2.082   0.936
 4434SOL    HW213845   3.457   2.166   0.826
 4435SOL     OW13846   1.901   2.939   0.300
 4435SOL    HW113847   2.000   2.928   0.291
 4435SOL    HW213848   1.861   2.853   0.332
 4436SOL     OW13849   2.737   3.508   0.337
 4436SOL    HW113850   2.660   3.473   0.283
 4436SOL    HW213851   2.705   3.579   0.399
 4437SOL     OW13852   2.092   2.490   1.975
 4437SOL    HW113853   1.999   2.488   2.012
 4437SOL    HW213854   2.093   2.451   1.883
 4438SOL     OW13855   2.087   2.137   2.858
 4438SOL    HW113856   2.122   2.120   2.950
 4438SOL    HW213857   1.999   2.092   2.846
 4439SOL     OW13858   1.881   2.230   2.509
 4439SOL    HW113859   1.799   2.273   2.548
 4439SOL    HW213860   1.853   2.157   2.446
 4440SOL     OW13861   2.431   3.137   3.027
 4440SOL    HW113862   2.338   3.130   2.990
 4440SOL    HW213863   2.442   3.226   3.071
 4441SOL     OW13864   3.417   3.373   2.565
 4441SOL    HW113865   3.360   3.357   2.646
 4441SOL    HW213866   3.358   3.383   2.485
 4442SOL     OW13867   2.997   2.565   2.579
 4442SOL    HW113868   3.054   2.643   2.554
 4442SOL    HW213869   2.937   2.591   2.655
 4443SOL     OW13870   3.617   2.469   2.093
 4443SOL    HW113871   3.605   2.456   1.994
 4443SOL    HW213872   3.587   2.388   2.142
 4444SOL     OW13873   2.630   3.006   2.885
 4444SOL    HW113874   2.552   3.023   2.945
 4444SOL    HW213875   2.664   3.093   2.849
 4445SOL     OW13876   2.712   2.660   3.685
 4445SOL    HW113877   2.708   2.736   3.750
 4445SOL    HW213878   2.734   2.696   3.594
 4446SOL     OW13879   2.547   2.874   2.527
 4446SOL    HW113880   2.616   2.858   2.597
 4446SOL    HW213881   2.474   2.931   2.565
 4447SOL     OW13882   2.548   3.023   3.665
 4447SOL    HW113883   2.608   3.102   3.679
 4447SOL    HW213884   2.462   3.054   3.624
 4448SOL     OW13885   2.197   3.297   2.923
 4448SOL    HW113886   2.119   3.266   2.870
 4448SOL    HW213887   2.255   3.355   2.866
 4449SOL     OW13888   3.322   3.367   3.201
 4449SOL    HW113889   3.346   3.461   3.227
 4449SOL    HW213890   3.306   3.313   3.283
 4450SOL     OW13891   3.465   2.309   2.599
 4450SOL    HW113892   3.391   2.355   2.549
 4450SOL    HW213893   3.516   2.377   2.652
 4451SOL     OW13894   2.093   3.575   2.345
 4451SOL    HW113895   2.127   3.652   2.399
 4451SOL    HW213896   2.137   3.575   2.255
 4452SOL     OW13897   2.989   3.203   3.552
 4452SOL    HW113898   3.036   3.203   3.640
 4452SOL    HW213899   2.941   3.116   3.541
 4453SOL     OW13900   2.092   3.296   2.400
 4453SOL    HW113901   2.066   3.392   2.400
 4453SOL    HW213902   2.021   3.242   2.445
 4454SOL     OW13903   2.102   2.953   2.748
 4454SOL    HW113904   2.116   2.869   2.800
 4454SOL    HW213905   2.047   3.017   2.803
 4455SOL     OW13906   2.482   3.648   3.301
 4455SOL    HW113907   2.390   3.631   3.336
 4455SOL    HW213908   2.510   3.740   3.327
 4456SOL     OW13909   2.468   2.826   1.985
 4456SOL    HW113910   2.475   2.910   1.931
 4456SOL    HW213911   2.514   2.839   2.073
 4457SOL     OW13912   3.456   1.976   3.342
 4457SOL    HW113913   3.438   2.043   3.270
 4457SOL    HW213914   3.453   2.022   3.431
 4458SOL     OW13915   1.984   2.505   2.425
 4458SOL    HW113916   1.939   2.417   2.442
 4458SOL    HW213917   1.983   2.559   2.509
 4459SOL     OW13918   3.704   3.629   2.221
 4459SOL    HW113919   3.758   3.600   2.301
 4459SOL    HW213920   3.734   3.719   2.192
 4460SOL     OW13921   1.889   3.458   1.979
 4460SOL    HW113922   1.870   3.362   2.000
 4460SOL    HW213923   1.856   3.516   2.054
 4461SOL     OW13924   3.551   2.784   2.474
 4461SOL    HW113925   3.646   2.755   2.482
 4461SOL    HW213926   3.543   2.849   2.399
 4462SOL     OW13927   3.503   2.970   2.294
 4462SOL    HW113928   3.589   2.972   2.242
 4462SOL    HW213929   3.517   3.017   2.382
 4463SOL     OW13930   1.975   2.599   3.459
 4463SOL    HW113931   2.063   2.586   3.504
 4463SOL    HW213932   1.962   2.696   3.437
 4464SOL     OW13933   2.475   3.227   2.588
 4464SOL    HW113934   2.426   3.140   2.597
 4464SOL    HW213935   2.452   3.270   2.501
 4465SOL     OW13936   3.155   3.090   3.285
 4465SOL    HW113937   3.192   3.017   3.227
 4465SOL    HW213938   3.207   3.095   3.370
 4466SOL     OW13939   2.671   1.866   2.364
 4466SOL    HW113940   2.711   1.957   2.355
 4466SOL    HW213941   2.571   1.874   2.370
 4467SOL     OW13942   2.059   2.838   3.126
 4467SOL    HW113943   2.148   2.793   3.112
 4467SOL    HW213944   1.986   2.773   3.107
 4468SOL     OW13945   3.387   2.861   2.052
 4468SOL    HW113946   3.324   2.785   2.065
 4468SOL    HW213947   3.435   2.879   2.138
 4469SOL     OW13948   3.049   3.654   3.478
 4469SOL    HW113949   3.073   3.714   3.402
 4469SOL    HW213950   3.056   3.559   3.448
 4470SOL     OW13951   3.328   3.279   2.815
 4470SOL    HW113952   3.269   3.285   2.895
 4470SOL    HW213953   3.313   3.191   2.769
 4471SOL     OW13954   3.529   3.576   2.434
 4471SOL    HW113955   3.488   3.553   2.346
 4471SOL    HW213956   3.511   3.502   2.499
 4472SOL     OW13957   2.460   2.591   2.132
 4472SOL    HW113958   2.484   2.660   2.064
 4472SOL    HW213959   2.382   2.624   2.186
 4473SOL     OW13960   3.143   2.207   2.806
 4473SOL    HW113961   3.057   2.157   2.793
 4473SOL    HW213962   3.205   2.153   2.862
 4474SOL     OW13963   3.438   3.524   2.169
 4474SOL    HW113964   3.527   3.570   2.172
 4474SOL    HW213965   3.417   3.500   2.074
 4475SOL     OW13966   2.669   2.467   3.327
 4475SOL    HW113967   2.622   2.464   3.416
 4475SOL    HW213968   2.618   2.412   3.261
 4476SOL     OW13969   3.256   2.331   3.536
 4476SOL    HW113970   3.236   2.374   3.624
 4476SOL    HW213971   3.334   2.269   3.545
 4477SOL     OW13972   2.835   2.752   3.434
 4477SOL    HW113973   2.881   2.668   3.405
 4477SOL    HW213974   2.779   2.786   3.359
 4478SOL     OW13975   2.853   2.272   3.104
 4478SOL    HW113976   2.776   2.306   3.158
 4478SOL    HW213977   2.819   2.221   3.025
 4479SOL     OW13978   2.903   2.563   2.291
 4479SOL    HW113979   2.929   2.559   2.387
 4479SOL    HW213980   2.818   2.512   2.277
 4480SOL     OW13981   1.938   2.673   2.651
 4480SOL    HW113982   2.037   2.661   2.660
 4480SOL    HW213983   1.914   2.768   2.672
 4481SOL     OW13984   1.992   3.683   3.433
 4481SOL    HW113985   1.982   3.668   3.532
 4481SOL    HW213986   1.906   3.719   3.397
 4482SOL     OW13987   2.727   2.210   2.057
 4482SOL    HW113988   2.786   2.273   2.008
 4482SOL    HW213989   2.746   2.116   2.028
 4483SOL     OW13990   3.581   2.447   3.693
 4483SOL    HW113991   3.555   2.536   3.657
 4483SOL    HW213992   3.579   2.379   3.620
 4484SOL     OW13993   3.224   3.006   2.407
 4484SOL    HW113994   3.307   2.977   2.359
 4484SOL    HW213995   3.175   3.073   2.351
 4485SOL     OW13996   2.412   2.058   2.747
 4485SOL    HW113997   2.407   2.053   2.847
 4485SOL    HW213998   2.414   2.154   2.718
 4486SOL     OW13999   2.870   3.318   2.339
 4486SOL    HW114000   2.824   3.390   2.287
 4486SOL    HW214001   2.866   3.338   2.437
 4487SOL     OW14002   2.213   3.663   2.715
 4487SOL    HW114003   2.263   3.577   2.721
 4487SOL    HW214004   2.278   3.740   2.712
 4488SOL     OW14005   3.657   2.928   2.735
 4488SOL    HW114006   3.595   2.913   2.659
 4488SOL    HW214007   3.605   2.939   2.820
 4489SOL     OW14008   3.089   3.412   3.368
 4489SOL    HW114009   3.095   3.335   3.432
 4489SOL    HW214010   3.037   3.386   3.288
 4490SOL     OW14011   2.183   2.805   2.104
 4490SOL    HW114012   2.265   2.844   2.062
 4490SOL    HW214013   2.156   2.723   2.055
 4491SOL     OW14014   3.320   2.597   2.590
 4491SOL    HW114015   3.315   2.532   2.665
 4491SOL    HW214016   3.400   2.656   2.603
 4492SOL     OW14017   2.323   3.128   3.589
 4492SOL    HW114018   2.273   3.129   3.503
 4492SOL    HW214019   2.260   3.110   3.665
 4493SOL     OW14020   2.973   3.638   2.099
 4493SOL    HW114021   2.913   3.576   2.149
 4493SOL    HW214022   3.004   3.594   2.014
 4494SOL     OW14023   2.064   2.147   3.360
 4494SOL    HW114024   1.984   2.207   3.347
 4494SOL    HW214025   2.054   2.098   3.446
 4495SOL     OW14026   3.494   3.239   1.943
 4495SOL    HW114027   3.462   3.333   1.933
 4495SOL    HW214028   3.418   3.176   1.931
 4496SOL     OW14029   2.326   3.605   2.185
 4496SOL    HW114030   2.359   3.644   2.271
 4496SOL    HW214031   2.402   3.598   2.120
 4497SOL     OW14032   3.262   1.969   2.288
 4497SOL    HW114033   3.238   1.932   2.198
 4497SOL    HW214034   3.361   1.985   2.292
 4498SOL     OW14035   2.111   3.647   3.103
 4498SOL    HW114036   2.168   3.582   3.153
 4498SOL    HW214037   2.095   3.614   3.010
 4499SOL     OW14038   2.802   3.560   2.766
 4499SOL    HW114039   2.882   3.503   2.787
 4499SOL    HW214040   2.753   3.520   2.689
 4500SOL     OW14041   3.409   2.084   3.591
 4500SOL    HW114042   3.404   2.121   3.683
 4500SOL    HW214043   3.337   2.015   3.579
 4501SOL     OW14044   2.476   1.984   1.979
 4501SOL    HW114045   2.574   1.962   1.986
 4501SOL    HW214046   2.445   1.967   1.886
 4502SOL     OW14047   2.643   2.126   3.611
 4502SOL    HW114048   2.710   2.065   3.654
 4502SOL    HW214049   2.570   2.145   3.676
 4503SOL     OW14050   2.750   3.376   3.057
 4503SOL    HW114051   2.727   3.351   2.963
 4503SOL    HW214052   2.811   3.307   3.096
 4504SOL     OW14053   3.213   2.452   3.295
 4504SOL    HW114054   3.241   2.409   3.380
 4504SOL    HW214055   3.238   2.548   3.296
 4505SOL     OW14056   2.665   3.264   2.786
 4505SOL    HW114057   2.755   3.278   2.744
 4505SOL    HW214058   2.594   3.266   2.715
 4506SOL     OW14059   2.784   2.365   2.761
 4506SOL    HW114060   2.759   2.356   2.665
 4506SOL    HW214061   2.832   2.283   2.792
 4507SOL     OW14062   2.401   1.926   2.374
 4507SOL    HW114063   2.320   1.927   2.432
 4507SOL    HW214064   2.404   2.009   2.319
 4508SOL     OW14065   3.296   3.050   1.903
 4508SOL    HW114066   3.328   2.974   1.960
 4508SOL    HW214067   3.204   3.077   1.933
 4509SOL     OW14068   2.797   2.098   2.342
 4509SOL    HW114069   2.749   2.139   2.264
 4509SOL    HW214070   2.896   2.096   2.323
 4510SOL     OW14071   2.938   2.545   3.326
 4510SOL    HW114072   2.858   2.484   3.329
 4510SOL    HW214073   3.019   2.492   3.302
 4511SOL     OW14074   3.089   3.432   2.655
 4511SOL    HW114075   3.110   3.506   2.590
 4511SOL    HW214076   3.157   3.432   2.728
 4512SOL     OW14077   2.321   3.014   2.603
 4512SOL    HW114078   2.250   2.987   2.668
 4512SOL    HW214079   2.295   2.986   2.510
 4513SOL     OW14080   3.133   3.659   2.453
 4513SOL    HW114081   3.177   3.723   2.389
 4513SOL    HW214082   3.083   3.711   2.523
 4514SOL     OW14083   2.894   2.411   1.878
 4514SOL    HW114084   2.853   2.493   1.839
 4514SOL    HW214085   2.958   2.437   1.951
 4515SOL     OW14086   1.940   2.418   3.248
 4515SOL    HW114087   2.032   2.417   3.207
 4515SOL    HW214088   1.934   2.492   3.315
 4516SOL     OW14089   2.423   2.084   3.009
 4516SOL    HW114090   2.461   2.000   3.046
 4516SOL    HW214091   2.335   2.103   3.053
 4517SOL     OW14092   2.728   2.316   2.504
 4517SOL    HW114093   2.696   2.388   2.442
 4517SOL    HW214094   2.752   2.235   2.451
 4518SOL     OW14095   2.879   1.901   2.615
 4518SOL    HW114096   2.807   1.906   2.546
 4518SOL    HW214097   2.855   1.832   2.684
 4519SOL     OW14098   3.291   3.035   2.729
 4519SOL    HW114099   3.236   2.951   2.722
 4519SOL    HW214100   3.317   3.064   2.637
 4520SOL     OW14101   3.328   2.452   2.854
 4520SOL    HW114102   3.298   2.357   2.861
 4520SOL    HW214103   3.401   2.468   2.920
 4521SOL     OW14104   3.719   2.695   2.239
 4521SOL    HW114105   3.761   2.631   2.303
 4521SOL    HW214106   3.681   2.644   2.161
 4522SOL     OW14107   2.350   3.247   2.036
 4522SOL    HW114108   2.263   3.232   2.083
 4522SOL    HW214109   2.333   3.273   1.941
 4523SOL     OW14110   3.526   3.142   2.519
 4523SOL    HW114111   3.625   3.150   2.533
 4523SOL    HW214112   3.481   3.226   2.550
 4524SOL     OW14113   3.252   2.437   1.940
 4524SOL    HW114114   3.198   2.416   2.021
 4524SOL    HW214115   3.343   2.396   1.949
 4525SOL     OW14116   3.616   3.085   3.450
 4525SOL    HW114117   3.707   3.046   3.437
 4525SOL    HW214118   3.624   3.181   3.474
 4526SOL     OW14119   2.926   3.209   3.202
 4526SOL    HW114120   2.846   3.186   3.257
 4526SOL    HW214121   3.009   3.183   3.251
 4527SOL     OW14122   3.454   3.491   3.487
 4527SOL    HW114123   3.481   3.525   3.397
 4527SOL    HW214124   3.533   3.453   3.533
 4528SOL     OW14125   2.973   3.057   2.962
 4528SOL    HW114126   2.933   3.101   3.043
 4528SOL    HW214127   2.932   3.094   2.879
 4529SOL     OW14128   3.500   2.961   2.941
 4529SOL    HW114129   3.505   3.042   3.000
 4529SOL    HW214130   3.414   2.963   2.890
 4530SOL     OW14131   2.777   1.951   3.264
 4530SOL    HW114132   2.802   1.931   3.169
 4530SOL    HW214133   2.849   2.007   3.306
 4531SOL     OW14134   2.842   2.978   3.581
 4531SOL    HW114135   2.743   2.984   3.591
 4531SOL    HW214136   2.865   2.898   3.525
 4532SOL     OW14137   2.567   2.912   2.230
 4532SOL    HW114138   2.553   2.919   2.329
 4532SOL    HW214139   2.651   2.861   2.212
 4533SOL     OW14140   2.272   2.675   3.113
 4533SOL    HW114141   2.358   2.687   3.163
 4533SOL    HW214142   2.230   2.588   3.140
 4534SOL     OW14143   3.136   2.248   3.124
 4534SOL    HW114144   3.157   2.322   3.188
 4534SOL    HW214145   3.047   2.265   3.081
 4535SOL     OW14146   1.926   3.426   3.193
 4535SOL    HW114147   1.880   3.508   3.159
 4535SOL    HW214148   2.024   3.445   3.202
 4536SOL     OW14149   2.229   2.962   2.363
 4536SOL    HW114150   2.222   3.045   2.307
 4536SOL    HW214151   2.233   2.882   2.303
 4537SOL     OW14152   2.428   2.399   2.727
 4537SOL    HW114153   2.440   2.465   2.653
 4537SOL    HW214154   2.474   2.433   2.810
 4538SOL     OW14155   3.114   3.210   2.250
 4538SOL    HW114156   3.164   3.287   2.290
 4538SOL    HW214157   3.019   3.212   2.282
 4539SOL     OW14158   3.134   3.307   3.004
 4539SOL    HW114159   3.181   3.320   3.091
 4539SOL    HW214160   3.068   3.233   3.013
 4540SOL     OW14161   3.444   2.501   2.334
 4540SOL    HW114162   3.413   2.562   2.407
 4540SOL    HW214163   3.494   2.553   2.265
 4541SOL     OW14164   2.216   3.372   3.191
 4541SOL    HW114165   2.195   3.328   3.104
 4541SOL    HW214166   2.313   3.398   3.194
 4542SOL     OW14167   2.264   2.613   3.460
 4542SOL    HW114168   2.332   2.668   3.413
 4542SOL    HW214169   2.304   2.525   3.487
 4543SOL     OW14170   3.449   2.641   3.532
 4543SOL    HW114171   3.357   2.679   3.527
 4543SOL    HW214172   3.509   2.688   3.467
 4544SOL     OW14173   2.875   1.967   3.632
 4544SOL    HW114174   2.881   2.052   3.580
 4544SOL    HW214175   2.907   1.891   3.575
 4545SOL     OW14176   2.366   1.912   3.602
 4545SOL    HW114177   2.324   1.855   3.532
 4545SOL    HW214178   2.300   1.981   3.634
 4546SOL     OW14179   2.435   2.732   2.891
 4546SOL    HW114180   2.479   2.821   2.882
 4546SOL    HW214181   2.372   2.732   2.968
 4547SOL     OW14182   3.222   2.724   2.907
 4547SOL    HW114183   3.147   2.724   2.841
 4547SOL    HW214184   3.259   2.632   2.916
 4548SOL     OW14185   3.071   2.387   2.137
 4548SOL    HW114186   3.084   2.303   2.191
 4548SOL    HW214187   3.042   2.461   2.197
 4549SOL     OW14188   1.899   3.172   3.144
 4549SOL    HW114189   1.952   3.123   3.212
 4549SOL    HW214190   1.921   3.270   3.149
 4550SOL     OW14191   2.594   2.496   2.926
 4550SOL    HW114192   2.653   2.470   2.850
 4550SOL    HW214193   2.566   2.592   2.915
 4551SOL     OW14194   3.590   2.797   3.716
 4551SOL    HW114195   3.544   2.790   3.627
 4551SOL    HW214196   3.528   2.841   3.782
 4552SOL     OW14197   3.484   2.229   2.236
 4552SOL    HW114198   3.486   2.153   2.300
 4552SOL    HW214199   3.436   2.306   2.276
 4553SOL     OW14200   2.885   2.628   2.828
 4553SOL    HW114201   2.900   2.649   2.924
 4553SOL    HW214202   2.855   2.533   2.819
 4554SOL     OW14203   2.842   3.435   3.562
 4554SOL    HW114204   2.822   3.479   3.474
 4554SOL    HW214205   2.881   3.344   3.546
 4555SOL     OW14206   3.721   3.380   3.467
 4555SOL    HW114207   3.735   3.407   3.372
 4555SOL    HW214208   3.804   3.402   3.520
 4556SOL     OW14209   2.212   2.760   3.666
 4556SOL    HW114210   2.288   2.804   3.714
 4556SOL    HW214211   2.247   2.713   3.584
 4557SOL     OW14212   3.402   2.136   1.987
 4557SOL    HW114213   3.341   2.061   2.010
 4557SOL    HW214214   3.424   2.188   2.070
 4558SOL     OW14215   3.165   2.700   1.904
 4558SOL    HW114216   3.199   2.607   1.919
 4558SOL    HW214217   3.183   2.727   1.809
 4559SOL     OW14218   2.930   3.195   2.711
 4559SOL    HW114219   2.937   3.111   2.656
 4559SOL    HW214220   2.992   3.264   2.675
 4560SOL     OW14221   2.181   2.672   2.811
 4560SOL    HW114222   2.274   2.708   2.816
 4560SOL    HW214223   2.175   2.587   2.863
 4561SOL     OW14224   3.000   2.242   3.540
 4561SOL    HW114225   2.955   2.305   3.604
 4561SOL    HW214226   3.093   2.273   3.523
 4562SOL     OW14227   3.022   2.069   3.339
 4562SOL    HW114228   3.022   2.133   3.416
 4562SOL    HW214229   3.050   2.117   3.256
 4563SOL     OW14230   1.870   3.188   2.062
 4563SOL    HW114231   1.777   3.209   2.031
 4563SOL    HW214232   1.880   3.089   2.075
 4564SOL     OW14233   1.950   3.663   2.789
 4564SOL    HW114234   1.908   3.577   2.762
 4564SOL    HW214235   2.044   3.666   2.755
 4565SOL     OW14236   2.366   3.430   2.772
 4565SOL    HW114237   2.432   3.504   2.781
 4565SOL    HW214238   2.410   3.351   2.730
 4566SOL     OW14239   2.864   2.658   3.100
 4566SOL    HW114240   2.905   2.626   3.186
 4566SOL    HW214241   2.768   2.631   3.097
 4567SOL     OW14242   1.902   2.406   2.976
 4567SOL    HW114243   1.987   2.373   2.935
 4567SOL    HW214244   1.915   2.421   3.074
 4568SOL     OW14245   3.231   2.812   3.522
 4568SOL    HW114246   3.270   2.901   3.542
 4568SOL    HW214247   3.241   2.792   3.425
 4569SOL     OW14248   2.677   2.434   2.187
 4569SOL    HW114249   2.684   2.345   2.141
 4569SOL    HW214250   2.583   2.468   2.179
 4570SOL     OW14251   3.519   2.466   3.068
 4570SOL    HW114252   3.481   2.397   3.130
 4570SOL    HW214253   3.601   2.430   3.024
 4571SOL     OW14254   2.114   3.426   3.606
 4571SOL    HW114255   2.084   3.483   3.682
 4571SOL    HW214256   2.107   3.329   3.632
 4572SOL     OW14257   2.792   3.540   3.327
 4572SOL    HW114258   2.768   3.522   3.232
 4572SOL    HW214259   2.822   3.634   3.337
 4573SOL     OW14260   2.021   2.999   3.328
 4573SOL    HW114261   2.043   2.938   3.404
 4573SOL    HW214262   2.031   2.950   3.242
 4574SOL     OW14263   3.209   2.921   3.096
 4574SOL    HW114264   3.233   2.858   3.022
 4574SOL    HW214265   3.119   2.961   3.078
 4575SOL     OW14266   3.164   2.717   2.171
 4575SOL    HW114267   3.078   2.686   2.213
 4575SOL    HW214268   3.160   2.703   2.072
 4576SOL     OW14269   3.621   3.609   3.016
 4576SOL    HW114270   3.682   3.639   2.943
 4576SOL    HW214271   3.583   3.520   2.994
 4577SOL     OW14272   3.114   3.593   2.990
 4577SOL    HW114273   3.198   3.598   2.936
 4577SOL    HW214274   3.091   3.497   3.008
 4578SOL     OW14275   1.945   3.120   2.884
 4578SOL    HW114276   1.940   3.119   2.984
 4578SOL    HW214277   1.862   3.079   2.846
 4579SOL     OW14278   2.550   3.524   3.578
 4579SOL    HW114279   2.494   3.605   3.587
 4579SOL    HW214280   2.602   3.528   3.492
 4580SOL     OW14281   3.588   1.997   2.385
 4580SOL    HW114282   3.661   1.980   2.318
 4580SOL    HW214283   3.557   1.910   2.423
 4581SOL     OW14284   3.250   3.435   2.339
 4581SOL    HW114285   3.317   3.447   2.265
 4581SOL    HW214286   3.210   3.524   2.362
 4582SOL     OW14287   1.992   3.656   3.713
 4582SOL    HW114288   1.951   3.582   3.766
 4582SOL    HW214289   2.056   3.707   3.771
 4583SOL     OW14290   3.142   2.789   2.534
 4583SOL    HW114291   3.202   2.708   2.536
 4583SOL    HW214292   3.182   2.858   2.474
 4584SOL     OW14293   2.692   3.135   3.284
 4584SOL    HW114294   2.687   3.168   3.379
 4584SOL    HW214295   2.606   3.154   3.238
 4585SOL     OW14296   2.534   3.478   2.016
 4585SOL    HW114297   2.543   3.488   1.917
 4585SOL    HW214298   2.494   3.389   2.037
 4586SOL     OW14299   3.512   3.582   3.256
 4586SOL    HW114300   3.565   3.592   3.172
 4586SOL    HW214301   3.485   3.672   3.290
 4587SOL     OW14302   3.703   2.037   2.825
 4587SOL    HW114303   3.742   1.952   2.789
 4587SOL    HW214304   3.605   2.039   2.806
 4588SOL     OW14305   3.056   3.474   1.893
 4588SOL    HW114306   3.062   3.381   1.930
 4588SOL    HW214307   2.997   3.474   1.813
 4589SOL     OW14308   2.684   2.864   3.234
 4589SOL    HW114309   2.724   2.863   3.142
 4589SOL    HW214310   2.694   2.956   3.274
 4590SOL     OW14311   2.778   2.772   2.153
 4590SOL    HW114312   2.841   2.810   2.085
 4590SOL    HW214313   2.818   2.689   2.192
 4591SOL     OW14314   3.366   3.469   1.906
 4591SOL    HW114315   3.274   3.506   1.913
 4591SOL    HW214316   3.404   3.489   1.816
 4592SOL     OW14317   2.234   3.150   3.352
 4592SOL    HW114318   2.221   3.243   3.318
 4592SOL    HW214319   2.150   3.098   3.339
 4593SOL     OW14320   3.476   3.154   3.151
 4593SOL    HW114321   3.536   3.157   3.231
 4593SOL    HW214322   3.401   3.218   3.164
 4594SOL     OW14323   2.901   2.960   2.558
 4594SOL    HW114324   2.831   2.913   2.612
 4594SOL    HW214325   2.960   2.892   2.515
 4595SOL     OW14326   2.876   2.098   2.833
 4595SOL    HW114327   2.868   2.062   2.740
 4595SOL    HW214328   2.874   2.022   2.898
 4596SOL     OW14329   2.452   3.349   2.353
 4596SOL    HW114330   2.494   3.291   2.283
 4596SOL    HW214331   2.408   3.428   2.309
 4597SOL     OW14332   3.571   2.247   3.243
 4597SOL    HW114333   3.644   2.316   3.247
 4597SOL    HW214334   3.599   2.172   3.184
 4598SOL     OW14335   2.117   3.210   2.152
 4598SOL    HW114336   2.021   3.211   2.125
 4598SOL    HW214337   2.129   3.263   2.236
 4599SOL     OW14338   1.967   2.875   3.588
 4599SOL    HW114339   1.890   2.842   3.642
 4599SOL    HW214340   2.052   2.845   3.630
 4600SOL     OW14341   2.534   2.065   3.351
 4600SOL    HW114342   2.624   2.049   3.311
 4600SOL    HW214343   2.542   2.070   3.450
 4601SOL     OW14344   1.937   2.207   1.895
 4601SOL    HW114345   1.845   2.179   1.866
 4601SOL    HW214346   1.968   2.284   1.839
 4602SOL     OW14347   3.302   2.718   3.260
 4602SOL    HW114348   3.245   2.770   3.197
 4602SOL    HW214349   3.398   2.730   3.236
 4603SOL     OW14350   1.934   2.028   2.180
 4603SOL    HW114351   1.917   2.111   2.126
 4603SOL    HW214352   2.024   1.991   2.158
 4604SOL     OW14353   3.045   3.197   1.981
 4604SOL    HW114354   2.946   3.186   1.983
 4604SOL    HW214355   3.079   3.212   2.074
 4605SOL     OW14356   2.475   2.704   3.293
 4605SOL    HW114357   2.531   2.785   3.276
 4605SOL    HW214358   2.534   2.624   3.296
 4606SOL     OW14359   3.355   3.629   2.821
 4606SOL    HW114360   3.388   3.693   2.752
 4606SOL    HW214361   3.421   3.623   2.896
 4607SOL     OW14362   2.578   2.427   3.570
 4607SOL    HW114363   2.597   2.492   3.644
 4607SOL    HW214364   2.638   2.347   3.579
 4608SOL     OW14365   3.312   3.082   3.495
 4608SOL    HW114366   3.303   3.072   3.594
 4608SOL    HW214367   3.408   3.075   3.469
 4609SOL     OW14368   2.252   3.603   3.422
 4609SOL    HW114369   2.161   3.644   3.420
 4609SOL    HW214370   2.245   3.509   3.454
 4610SOL     OW14371   3.536   2.745   3.116
 4610SOL    HW114372   3.509   2.656   3.079
 4610SOL    HW214373   3.537   2.813   3.043
 4611SOL     OW14374   3.087   2.187   2.311
 4611SOL    HW114375   3.152   2.113   2.300
 4611SOL    HW214376   3.107   2.237   2.395
 4612SOL     OW14377   2.456   2.607   2.514
 4612SOL    HW114378   2.506   2.692   2.495
 4612SOL    HW214379   2.368   2.609   2.466
 4613SOL     OW14380   3.639   2.204   3.504
 4613SOL    HW114381   3.622   2.235   3.410
 4613SOL    HW214382   3.555   2.167   3.542
 4614SOL     OW14383   3.592   2.796   3.379
 4614SOL    HW114384   3.630   2.887   3.394
 4614SOL    HW214385   3.584   2.779   3.280
 4615SOL     OW14386   2.721   3.236   1.878
 4615SOL    HW114387   2.675   3.251   1.966
 4615SOL    HW214388   2.765   3.321   1.848
 4616SOL     OW14389   2.523   3.652   2.815
 4616SOL    HW114390   2.477   3.740   2.802
 4616SOL    HW214391   2.622   3.664   2.808
 4617SOL     OW14392   2.721   2.818   2.723
 4617SOL    HW114393   2.775   2.749   2.771
 4617SOL    HW214394   2.689   2.887   2.789
 4618SOL     OW14395   2.945   2.846   1.949
 4618SOL    HW114396   2.922   2.899   1.867
 4618SOL    HW214397   3.026   2.790   1.930
 4619SOL     OW14398   3.723   3.431   2.713
 4619SOL    HW114399   3.652   3.419   2.643
 4619SOL    HW214400   3.724   3.352   2.773
 4620SOL     OW14401   2.083   3.176   3.706
 4620SOL    HW114402   2.018   3.103   3.685
 4620SOL    HW214403   2.087   3.190   3.804
 4621SOL     OW14404   1.941   3.102   2.515
 4621SOL    HW114405   1.940   3.055   2.603
 4621SOL    HW214406   2.023   3.074   2.464
 4622SOL     OW14407   2.534   3.253   3.486
 4622SOL    HW114408   2.456   3.203   3.524
 4622SOL    HW214409   2.531   3.348   3.517
 4623SOL     OW14410   3.686   2.054   3.089
 4623SOL    HW114411   3.682   1.964   3.133
 4623SOL    HW214412   3.689   2.043   2.990
 4624SOL     OW14413   3.567   3.349   2.966
 4624SOL    HW114414   3.474   3.324   2.939
 4624SOL    HW214415   3.593   3.299   3.048
 4625SOL     OW14416   2.674   3.448   2.549
 4625SOL    HW114417   2.706   3.458   2.455
 4625SOL    HW214418   2.595   3.386   2.551
 4626SOL     OW14419   3.286   2.076   2.974
 4626SOL    HW114420   3.338   2.011   3.029
 4626SOL    HW214421   3.237   2.139   3.035
 4627SOL     OW14422   2.863   1.896   3.016
 4627SOL    HW114423   2.800   1.824   2.985
 4627SOL    HW214424   2.956   1.860   3.016
 4628SOL     OW14425   2.632   3.192   2.163
 4628SOL    HW114426   2.586   3.105   2.180
 4628SOL    HW214427   2.723   3.189   2.204
 4629SOL     OW14428   2.480   3.429   3.146
 4629SOL    HW114429   2.475   3.511   3.203
 4629SOL    HW214430   2.569   3.426   3.101
 4630SOL     OW14431   3.214   1.914   2.030
 4630SOL    HW114432   3.249   1.873   1.946
 4630SOL    HW214433   3.124   1.876   2.050
 4631SOL     OW14434   3.162   2.315   2.553
 4631SOL    HW114435   3.103   2.395   2.557
 4631SOL    HW214436   3.177   2.280   2.646
 4632SOL     OW14437   3.455   2.083   2.744
 4632SOL    HW114438   3.371   2.082   2.798
 4632SOL    HW214439   3.457   2.166   2.688
 4633SOL     OW14440   1.901   2.939   2.162
 4633SOL    HW114441   2.000   2.928   2.153
 4633SOL    HW214442   1.861   2.853   2.194
 4634SOL     OW14443   2.737   3.508   2.199
 4634SOL    HW114444   2.660   3.473   2.145
 4634SOL    HW214445   2.705   3.579   2.261
 4635SOL     OW14446   2.092   2.490   3.837
 4635SOL    HW114447   1.999   2.488   3.874
 4635SOL    HW214448   2.093   2.451   3.745
 4636SOL     OW14449   1.881   2.230   4.371
 4636SOL    HW114450   1.799   2.273   4.410
 4636SOL    HW214451   1.853   2.157   4.308
 4637SOL     OW14452   2.431   3.137   4.889
 4637SOL    HW114453   2.338   3.130   4.852
 4637SOL    HW214454   2.442   3.226   4.933
 4638SOL     OW14455   3.417   3.373   4.427
 4638SOL    HW114456   3.360   3.357   4.508
 4638SOL    HW214457   3.358   3.383   4.347
 4639SOL     OW14458   2.997   2.565   4.441
 4639SOL    HW114459   3.054   2.643   4.416
 4639SOL    HW214460   2.937   2.591   4.517
 4640SOL     OW14461   3.617   2.469   3.955
 4640SOL    HW114462   3.605   2.456   3.856
 4640SOL    HW214463   3.587   2.388   4.004
 4641SOL     OW14464   2.630   3.006   4.747
 4641SOL    HW114465   2.552   3.023   4.807
 4641SOL    HW214466   2.664   3.093   4.711
 4642SOL     OW14467   2.547   2.874   4.389
 4642SOL    HW114468   2.616   2.858   4.459
 4642SOL    HW214469   2.474   2.931   4.427
 4643SOL     OW14470   2.548   3.023   5.527
 4643SOL    HW114471   2.608   3.102   5.541
 4643SOL    HW214472   2.462   3.054   5.486
 4644SOL     OW14473   2.197   3.297   4.785
 4644SOL    HW114474   2.119   3.266   4.732
 4644SOL    HW214475   2.255   3.355   4.728
 4645SOL     OW14476   3.322   3.367   5.063
 4645SOL    HW114477   3.346   3.461   5.089
 4645SOL    HW214478   3.306   3.313   5.145
 4646SOL     OW14479   3.465   2.309   4.461
 4646SOL    HW114480   3.391   2.355   4.411
 4646SOL    HW214481   3.516   2.377   4.514
 4647SOL     OW14482   2.093   3.575   4.207
 4647SOL    HW114483   2.127   3.652   4.261
 4647SOL    HW214484   2.137   3.575   4.117
 4648SOL     OW14485   2.989   3.203   5.414
 4648SOL    HW114486   3.036   3.203   5.502
 4648SOL    HW214487   2.941   3.116   5.403
 4649SOL     OW14488   2.092   3.296   4.262
 4649SOL    HW114489   2.066   3.392   4.262
 4649SOL    HW214490   2.021   3.242   4.307
 4650SOL     OW14491   2.482   3.648   5.163
 4650SOL    HW114492   2.390   3.631   5.198
 4650SOL    HW214493   2.510   3.740   5.189
 4651SOL     OW14494   2.468   2.826   3.847
 4651SOL    HW114495   2.475   2.910   3.793
 4651SOL    HW214496   2.514   2.839   3.935
 4652SOL     OW14497   3.456   1.976   5.204
 4652SOL    HW114498   3.438   2.043   5.132
 4652SOL    HW214499   3.453   2.022   5.293
 4653SOL     OW14500   1.984   2.505   4.287
 4653SOL    HW114501   1.939   2.417   4.304
 4653SOL    HW214502   1.983   2.559   4.371
 4654SOL     OW14503   3.704   3.629   4.083
 4654SOL    HW114504   3.758   3.600   4.163
 4654SOL    HW214505   3.734   3.719   4.054
 4655SOL     OW14506   1.889   3.458   3.841
 4655SOL    HW114507   1.870   3.362   3.862
 4655SOL    HW214508   1.856   3.516   3.916
 4656SOL     OW14509   3.551   2.784   4.336
 4656SOL    HW114510   3.646   2.755   4.344
 4656SOL    HW214511   3.543   2.849   4.261
 4657SOL     OW14512   3.503   2.970   4.156
 4657SOL    HW114513   3.589   2.972   4.104
 4657SOL    HW214514   3.517   3.017   4.244
 4658SOL     OW14515   2.475   3.227   4.450
 4658SOL    HW114516   2.426   3.140   4.459
 4658SOL    HW214517   2.452   3.270   4.363
 4659SOL     OW14518   3.155   3.090   5.147
 4659SOL    HW114519   3.192   3.017   5.089
 4659SOL    HW214520   3.207   3.095   5.232
 4660SOL     OW14521   2.671   1.866   4.226
 4660SOL    HW114522   2.711   1.957   4.217
 4660SOL    HW214523   2.571   1.874   4.232
 4661SOL     OW14524   3.387   2.861   3.914
 4661SOL    HW114525   3.324   2.785   3.927
 4661SOL    HW214526   3.435   2.879   4.000
 4662SOL     OW14527   3.049   3.654   5.340
 4662SOL    HW114528   3.073   3.714   5.264
 4662SOL    HW214529   3.056   3.559   5.310
 4663SOL     OW14530   3.328   3.279   4.677
 4663SOL    HW114531   3.269   3.285   4.757
 4663SOL    HW214532   3.313   3.191   4.631
 4664SOL     OW14533   3.529   3.576   4.296
 4664SOL    HW114534   3.488   3.553   4.208
 4664SOL    HW214535   3.511   3.502   4.361
 4665SOL     OW14536   2.460   2.591   3.994
 4665SOL    HW114537   2.484   2.660   3.926
 4665SOL    HW214538   2.382   2.624   4.048
 4666SOL     OW14539   3.143   2.207   4.668
 4666SOL    HW114540   3.057   2.157   4.655
 4666SOL    HW214541   3.205   2.153   4.724
 4667SOL     OW14542   3.438   3.524   4.031
 4667SOL    HW114543   3.527   3.570   4.034
 4667SOL    HW214544   3.417   3.500   3.936
 4668SOL     OW14545   3.256   2.331   5.398
 4668SOL    HW114546   3.236   2.374   5.486
 4668SOL    HW214547   3.334   2.269   5.407
 4669SOL     OW14548   2.903   2.563   4.153
 4669SOL    HW114549   2.929   2.559   4.249
 4669SOL    HW214550   2.818   2.512   4.139
 4670SOL     OW14551   1.938   2.673   4.513
 4670SOL    HW114552   2.037   2.661   4.522
 4670SOL    HW214553   1.914   2.768   4.534
 4671SOL     OW14554   1.992   3.683   5.295
 4671SOL    HW114555   1.982   3.668   5.394
 4671SOL    HW214556   1.906   3.719   5.259
 4672SOL     OW14557   2.727   2.210   3.919
 4672SOL    HW114558   2.786   2.273   3.870
 4672SOL    HW214559   2.746   2.116   3.890
 4673SOL     OW14560   3.581   2.447   5.555
 4673SOL    HW114561   3.555   2.536   5.519
 4673SOL    HW214562   3.579   2.379   5.482
 4674SOL     OW14563   3.224   3.006   4.269
 4674SOL    HW114564   3.307   2.977   4.221
 4674SOL    HW214565   3.175   3.073   4.213
 4675SOL     OW14566   2.870   3.318   4.201
 4675SOL    HW114567   2.824   3.390   4.149
 4675SOL    HW214568   2.866   3.338   4.299
 4676SOL     OW14569   2.213   3.663   4.577
 4676SOL    HW114570   2.263   3.577   4.583
 4676SOL    HW214571   2.278   3.740   4.574
 4677SOL     OW14572   3.657   2.928   4.597
 4677SOL    HW114573   3.595   2.913   4.521
 4677SOL    HW214574   3.605   2.939   4.682
 4678SOL     OW14575   3.089   3.412   5.230
 4678SOL    HW114576   3.095   3.335   5.294
 4678SOL    HW214577   3.037   3.386   5.150
 4679SOL     OW14578   2.183   2.805   3.966
 4679SOL    HW114579   2.265   2.844   3.924
 4679SOL    HW214580   2.156   2.723   3.917
 4680SOL     OW14581   3.320   2.597   4.452
 4680SOL    HW114582   3.315   2.532   4.527
 4680SOL    HW214583   3.400   2.656   4.465
 4681SOL     OW14584   2.323   3.128   5.451
 4681SOL    HW114585   2.273   3.129   5.365
 4681SOL    HW214586   2.260   3.110   5.527
 4682SOL     OW14587   2.973   3.638   3.961
 4682SOL    HW114588   2.913   3.576   4.011
 4682SOL    HW214589   3.004   3.594   3.876
 4683SOL     OW14590   2.064   2.147   5.222
 4683SOL    HW114591   1.984   2.207   5.209
 4683SOL    HW214592   2.054   2.098   5.308
 4684SOL     OW14593   3.494   3.239   3.805
 4684SOL    HW114594   3.462   3.333   3.795
 4684SOL    HW214595   3.418   3.176   3.793
 4685SOL     OW14596   2.326   3.605   4.047
 4685SOL    HW114597   2.359   3.644   4.133
 4685SOL    HW214598   2.402   3.598   3.982
 4686SOL     OW14599   3.262   1.969   4.150
 4686SOL    HW114600   3.238   1.932   4.060
 4686SOL    HW214601   3.361   1.985   4.154
 4687SOL     OW14602   2.111   3.647   4.965
 4687SOL    HW114603   2.168   3.582   5.015
 4687SOL    HW214604   2.095   3.614   4.872
 4688SOL     OW14605   2.802   3.560   4.628
 4688SOL    HW114606   2.882   3.503   4.649
 4688SOL    HW214607   2.753   3.520   4.551
 4689SOL     OW14608   2.244   2.562   4.204
 4689SOL    HW114609   2.289   2.472   4.201
 4689SOL    HW214610   2.150   2.551   4.237
 4690SOL     OW14611   3.409   2.084   5.453
 4690SOL    HW114612   3.404   2.121   5.545
 4690SOL    HW214613   3.337   2.015   5.441
 4691SOL     OW14614   2.476   1.984   3.841
 4691SOL    HW114615   2.574   1.962   3.848
 4691SOL    HW214616   2.445   1.967   3.748
 4692SOL     OW14617   2.643   2.126   5.473
 4692SOL    HW114618   2.710   2.065   5.516
 4692SOL    HW214619   2.570   2.145   5.538
 4693SOL     OW14620   2.750   3.376   4.919
 4693SOL    HW114621   2.727   3.351   4.825
 4693SOL    HW214622   2.811   3.307   4.958
 4694SOL     OW14623   3.213   2.452   5.157
 4694SOL    HW114624   3.241   2.409   5.242
 4694SOL    HW214625   3.238   2.548   5.158
 4695SOL     OW14626   2.665   3.264   4.648
 4695SOL    HW114627   2.755   3.278   4.606
 4695SOL    HW214628   2.594   3.266   4.577
 4696SOL     OW14629   2.784   2.365   4.623
 4696SOL    HW114630   2.759   2.356   4.527
 4696SOL    HW214631   2.832   2.283   4.654
 4697SOL     OW14632   2.401   1.926   4.236
 4697SOL    HW114633   2.320   1.927   4.294
 4697SOL    HW214634   2.404   2.009   4.181
 4698SOL     OW14635   3.296   3.050   3.765
 4698SOL    HW114636   3.328   2.974   3.822
 4698SOL    HW214637   3.204   3.077   3.795
 4699SOL     OW14638   2.159   1.897   3.895
 4699SOL    HW114639   2.208   1.981   3.874
 4699SOL    HW214640   2.221   1.832   3.940
 4700SOL     OW14641   2.797   2.098   4.204
 4700SOL    HW114642   2.749   2.139   4.126
 4700SOL    HW214643   2.896   2.096   4.185
 4701SOL     OW14644   3.089   3.432   4.517
 4701SOL    HW114645   3.110   3.506   4.452
 4701SOL    HW214646   3.157   3.432   4.590
 4702SOL     OW14647   2.321   3.014   4.465
 4702SOL    HW114648   2.250   2.987   4.530
 4702SOL    HW214649   2.295   2.986   4.372
 4703SOL     OW14650   3.133   3.659   4.315
 4703SOL    HW114651   3.177   3.723   4.251
 4703SOL    HW214652   3.083   3.711   4.385
 4704SOL     OW14653   2.894   2.411   3.740
 4704SOL    HW114654   2.853   2.493   3.701
 4704SOL    HW214655   2.958   2.437   3.813
 4705SOL     OW14656   1.940   2.418   5.110
 4705SOL    HW114657   2.032   2.417   5.069
 4705SOL    HW214658   1.934   2.492   5.177
 4706SOL     OW14659   2.728   2.316   4.366
 4706SOL    HW114660   2.696   2.388   4.304
 4706SOL    HW214661   2.752   2.235   4.313
 4707SOL     OW14662   2.879   1.901   4.477
 4707SOL    HW114663   2.807   1.906   4.408
 4707SOL    HW214664   2.855   1.832   4.546
 4708SOL     OW14665   3.291   3.035   4.591
 4708SOL    HW114666   3.236   2.951   4.584
 4708SOL    HW214667   3.317   3.064   4.499
 4709SOL     OW14668   3.328   2.452   4.716
 4709SOL    HW114669   3.298   2.357   4.723
 4709SOL    HW214670   3.401   2.468   4.782
 4710SOL     OW14671   3.719   2.695   4.101
 4710SOL    HW114672   3.761   2.631   4.165
 4710SOL    HW214673   3.681   2.644   4.023
 4711SOL     OW14674   2.350   3.247   3.898
 4711SOL    HW114675   2.263   3.232   3.945
 4711SOL    HW214676   2.333   3.273   3.803
 4712SOL     OW14677   3.526   3.142   4.381
 4712SOL    HW114678   3.625   3.150   4.395
 4712SOL    HW214679   3.481   3.226   4.412
 4713SOL     OW14680   3.252   2.437   3.802
 4713SOL    HW114681   3.198   2.416   3.883
 4713SOL    HW214682   3.343   2.396   3.811
 4714SOL     OW14683   3.616   3.085   5.312
 4714SOL    HW114684   3.707   3.046   5.299
 4714SOL    HW214685   3.624   3.181   5.336
 4715SOL     OW14686   2.926   3.209   5.064
 4715SOL    HW114687   2.846   3.186   5.119
 4715SOL    HW214688   3.009   3.183   5.113
 4716SOL     OW14689   3.454   3.491   5.349
 4716SOL    HW114690   3.481   3.525   5.259
 4716SOL    HW214691   3.533   3.453   5.395
 4717SOL     OW14692   2.973   3.057   4.824
 4717SOL    HW114693   2.933   3.101   4.905
 4717SOL    HW214694   2.932   3.094   4.741
 4718SOL     OW14695   3.500   2.961   4.803
 4718SOL    HW114696   3.505   3.042   4.862
 4718SOL    HW214697   3.414   2.963   4.752
 4719SOL     OW14698   2.842   2.978   5.443
 4719SOL    HW114699   2.743   2.984   5.453
 4719SOL    HW214700   2.865   2.898   5.387
 4720SOL     OW14701   2.567   2.912   4.092
 4720SOL    HW114702   2.553   2.919   4.191
 4720SOL    HW214703   2.651   2.861   4.074
 4721SOL     OW14704   3.136   2.248   4.986
 4721SOL    HW114705   3.157   2.322   5.050
 4721SOL    HW214706   3.047   2.265   4.943
 4722SOL     OW14707   1.926   3.426   5.055
 4722SOL    HW114708   1.880   3.508   5.021
 4722SOL    HW214709   2.024   3.445   5.064
 4723SOL     OW14710   2.229   2.962   4.225
 4723SOL    HW114711   2.222   3.045   4.169
 4723SOL    HW214712   2.233   2.882   4.165
 4724SOL     OW14713   3.114   3.210   4.112
 4724SOL    HW114714   3.164   3.287   4.152
 4724SOL    HW214715   3.019   3.212   4.144
 4725SOL     OW14716   3.134   3.307   4.866
 4725SOL    HW114717   3.181   3.320   4.953
 4725SOL    HW214718   3.068   3.233   4.875
 4726SOL     OW14719   3.444   2.501   4.196
 4726SOL    HW114720   3.413   2.562   4.269
 4726SOL    HW214721   3.494   2.553   4.127
 4727SOL     OW14722   2.216   3.372   5.053
 4727SOL    HW114723   2.195   3.328   4.966
 4727SOL    HW214724   2.313   3.398   5.056
 4728SOL     OW14725   2.264   2.613   5.322
 4728SOL    HW114726   2.332   2.668   5.275
 4728SOL    HW214727   2.304   2.525   5.349
 4729SOL     OW14728   3.449   2.641   5.394
 4729SOL    HW114729   3.357   2.679   5.389
 4729SOL    HW214730   3.509   2.688   5.329
 4730SOL     OW14731   2.366   1.912   5.464
 4730SOL    HW114732   2.324   1.855   5.394
 4730SOL    HW214733   2.300   1.981   5.496
 4731SOL     OW14734   3.222   2.724   4.769
 4731SOL    HW114735   3.147   2.724   4.703
 4731SOL    HW214736   3.259   2.632   4.778
 4732SOL     OW14737   3.071   2.387   3.999
 4732SOL    HW114738   3.084   2.303   4.053
 4732SOL    HW214739   3.042   2.461   4.059
 4733SOL     OW14740   1.899   3.172   5.006
 4733SOL    HW114741   1.952   3.123   5.074
 4733SOL    HW214742   1.921   3.270   5.011
 4734SOL     OW14743   3.590   2.797   5.578
 4734SOL    HW114744   3.544   2.790   5.489
 4734SOL    HW214745   3.528   2.841   5.644
 4735SOL     OW14746   2.169   1.925   4.342
 4735SOL    HW114747   2.158   2.019   4.375
 4735SOL    HW214748   2.164   1.862   4.419
 4736SOL     OW14749   3.484   2.229   4.098
 4736SOL    HW114750   3.486   2.153   4.162
 4736SOL    HW214751   3.436   2.306   4.138
 4737SOL     OW14752   2.842   3.435   5.424
 4737SOL    HW114753   2.822   3.479   5.336
 4737SOL    HW214754   2.881   3.344   5.408
 4738SOL     OW14755   3.721   3.380   5.329
 4738SOL    HW114756   3.735   3.407   5.234
 4738SOL    HW214757   3.804   3.402   5.382
 4739SOL     OW14758   2.212   2.760   5.528
 4739SOL    HW114759   2.288   2.804   5.576
 4739SOL    HW214760   2.247   2.713   5.446
 4740SOL     OW14761   3.402   2.136   3.849
 4740SOL    HW114762   3.341   2.061   3.872
 4740SOL    HW214763   3.424   2.188   3.932
 4741SOL     OW14764   3.165   2.700   3.766
 4741SOL    HW114765   3.199   2.607   3.781
 4741SOL    HW214766   3.183   2.727   3.671
 4742SOL     OW14767   2.930   3.195   4.573
 4742SOL    HW114768   2.937   3.111   4.518
 4742SOL    HW214769   2.992   3.264   4.537
 4743SOL     OW14770   1.870   3.188   3.924
 4743SOL    HW114771   1.777   3.209   3.893
 4743SOL    HW214772   1.880   3.089   3.937
 4744SOL     OW14773   1.950   3.663   4.651
 4744SOL    HW114774   1.908   3.577   4.624
 4744SOL    HW214775   2.044   3.666   4.617
 4745SOL     OW14776   2.366   3.430   4.634
 4745SOL    HW114777   2.432   3.504   4.643
 4745SOL    HW214778   2.410   3.351   4.592
 4746SOL     OW14779   1.902   2.406   4.838
 4746SOL    HW114780   1.987   2.373   4.797
 4746SOL    HW214781   1.915   2.421   4.936
 4747SOL     OW14782   3.231   2.812   5.384
 4747SOL    HW114783   3.270   2.901   5.404
 4747SOL    HW214784   3.241   2.792   5.287
 4748SOL     OW14785   2.677   2.434   4.049
 4748SOL    HW114786   2.684   2.345   4.003
 4748SOL    HW214787   2.583   2.468   4.041
 4749SOL     OW14788   3.519   2.466   4.930
 4749SOL    HW114789   3.481   2.397   4.992
 4749SOL    HW214790   3.601   2.430   4.886
 4750SOL     OW14791   2.114   3.426   5.468
 4750SOL    HW114792   2.084   3.483   5.544
 4750SOL    HW214793   2.107   3.329   5.494
 4751SOL     OW14794   2.533   2.326   4.993
 4751SOL    HW114795   2.499   2.237   4.963
 4751SOL    HW214796   2.559   2.380   4.913
 4752SOL     OW14797   2.792   3.540   5.189
 4752SOL    HW114798   2.768   3.522   5.094
 4752SOL    HW214799   2.822   3.634   5.199
 4753SOL     OW14800   3.209   2.921   4.958
 4753SOL    HW114801   3.233   2.858   4.884
 4753SOL    HW214802   3.119   2.961   4.940
 4754SOL     OW14803   3.164   2.717   4.033
 4754SOL    HW114804   3.078   2.686   4.075
 4754SOL    HW214805   3.160   2.703   3.934
 4755SOL     OW14806   3.621   3.609   4.878
 4755SOL    HW114807   3.682   3.639   4.805
 4755SOL    HW214808   3.583   3.520   4.856
 4756SOL     OW14809   3.114   3.593   4.852
 4756SOL    HW114810   3.198   3.598   4.798
 4756SOL    HW214811   3.091   3.497   4.870
 4757SOL     OW14812   1.945   3.120   4.746
 4757SOL    HW114813   1.940   3.119   4.846
 4757SOL    HW214814   1.862   3.079   4.708
 4758SOL     OW14815   2.550   3.524   5.440
 4758SOL    HW114816   2.494   3.605   5.449
 4758SOL    HW214817   2.602   3.528   5.354
 4759SOL     OW14818   3.588   1.997   4.247
 4759SOL    HW114819   3.661   1.980   4.180
 4759SOL    HW214820   3.557   1.910   4.285
 4760SOL     OW14821   3.250   3.435   4.201
 4760SOL    HW114822   3.317   3.447   4.127
 4760SOL    HW214823   3.210   3.524   4.224
 4761SOL     OW14824   1.992   3.656   5.575
 4761SOL    HW114825   1.951   3.582   5.628
 4761SOL    HW214826   2.056   3.707   5.633
 4762SOL     OW14827   3.142   2.789   4.396
 4762SOL    HW114828   3.202   2.708   4.398
 4762SOL    HW214829   3.182   2.858   4.336
 4763SOL     OW14830   2.692   3.135   5.146
 4763SOL    HW114831   2.687   3.168   5.241
 4763SOL    HW214832   2.606   3.154   5.100
 4764SOL     OW14833   2.534   3.478   3.878
 4764SOL    HW114834   2.543   3.488   3.779
 4764SOL    HW214835   2.494   3.389   3.899
 4765SOL     OW14836   3.512   3.582   5.118
 4765SOL    HW114837   3.565   3.592   5.034
 4765SOL    HW214838   3.485   3.672   5.152
 4766SOL     OW14839   3.703   2.037   4.687
 4766SOL    HW114840   3.742   1.952   4.651
 4766SOL    HW214841   3.605   2.039   4.668
 4767SOL     OW14842   3.056   3.474   3.755
 4767SOL    HW114843   3.062   3.381   3.792
 4767SOL    HW214844   2.997   3.474   3.675
 4768SOL     OW14845   2.778   2.772   4.015
 4768SOL    HW114846   2.841   2.810   3.947
 4768SOL    HW214847   2.818   2.689   4.054
 4769SOL     OW14848   3.366   3.469   3.768
 4769SOL    HW114849   3.274   3.506   3.775
 4769SOL    HW214850   3.404   3.489   3.678
 4770SOL     OW14851   2.234   3.150   5.214
 4770SOL    HW114852   2.221   3.243   5.180
 4770SOL    HW214853   2.150   3.098   5.201
 4771SOL     OW14854   3.476   3.154   5.013
 4771SOL    HW114855   3.536   3.157   5.093
 4771SOL    HW214856   3.401   3.218   5.026
 4772SOL     OW14857   2.901   2.960   4.420
 4772SOL    HW114858   2.831   2.913   4.474
 4772SOL    HW214859   2.960   2.892   4.377
 4773SOL     OW14860   2.452   3.349   4.215
 4773SOL    HW114861   2.494   3.291   4.145
 4773SOL    HW214862   2.408   3.428   4.171
 4774SOL     OW14863   3.571   2.247   5.105
 4774SOL    HW114864   3.644   2.316   5.109
 4774SOL    HW214865   3.599   2.172   5.046
 4775SOL     OW14866   2.117   3.210   4.014
 4775SOL    HW114867   2.021   3.211   3.987
 4775SOL    HW214868   2.129   3.263   4.098
 4776SOL     OW14869   2.534   2.065   5.213
 4776SOL    HW114870   2.624   2.049   5.173
 4776SOL    HW214871   2.542   2.070   5.312
 4777SOL     OW14872   1.937   2.207   3.757
 4777SOL    HW114873   1.845   2.179   3.728
 4777SOL    HW214874   1.968   2.284   3.701
 4778SOL     OW14875   3.302   2.718   5.122
 4778SOL    HW114876   3.245   2.770   5.059
 4778SOL    HW214877   3.398   2.730   5.098
 4779SOL     OW14878   1.934   2.028   4.042
 4779SOL    HW114879   1.917   2.111   3.988
 4779SOL    HW214880   2.024   1.991   4.020
 4780SOL     OW14881   3.045   3.197   3.843
 4780SOL    HW114882   2.946   3.186   3.845
 4780SOL    HW214883   3.079   3.212   3.936
 4781SOL     OW14884   3.355   3.629   4.683
 4781SOL    HW114885   3.388   3.693   4.614
 4781SOL    HW214886   3.421   3.623   4.758
 4782SOL     OW14887   2.578   2.427   5.432
 4782SOL    HW114888   2.597   2.492   5.506
 4782SOL    HW214889   2.638   2.347   5.441
 4783SOL     OW14890   3.312   3.082   5.357
 4783SOL    HW114891   3.303   3.072   5.456
 4783SOL    HW214892   3.408   3.075   5.331
 4784SOL     OW14893   2.252   3.603   5.284
 4784SOL    HW114894   2.161   3.644   5.282
 4784SOL    HW214895   2.245   3.509   5.316
 4785SOL     OW14896   3.536   2.745   4.978
 4785SOL    HW114897   3.509   2.656   4.941
 4785SOL    HW214898   3.537   2.813   4.905
 4786SOL     OW14899   3.087   2.187   4.173
 4786SOL    HW114900   3.152   2.113   4.162
 4786SOL    HW214901   3.107   2.237   4.257
 4787SOL     OW14902   2.456   2.607   4.376
 4787SOL    HW114903   2.506   2.692   4.357
 4787SOL    HW214904   2.368   2.609   4.328
 4788SOL     OW14905   3.639   2.204   5.366
 4788SOL    HW114906   3.622   2.235   5.272
 4788SOL    HW214907   3.555   2.167   5.404
 4789SOL     OW14908   3.592   2.796   5.241
 4789SOL    HW114909   3.630   2.887   5.256
 4789SOL    HW214910   3.584   2.779   5.142
 4790SOL     OW14911   2.721   3.236   3.740
 4790SOL    HW114912   2.675   3.251   3.828
 4790SOL    HW214913   2.765   3.321   3.710
 4791SOL     OW14914   2.523   3.652   4.677
 4791SOL    HW114915   2.477   3.740   4.664
 4791SOL    HW214916   2.622   3.664   4.670
 4792SOL     OW14917   2.945   2.846   3.811
 4792SOL    HW114918   2.922   2.899   3.729
 4792SOL    HW214919   3.026   2.790   3.792
 4793SOL     OW14920   3.723   3.431   4.575
 4793SOL    HW114921   3.652   3.419   4.505
 4793SOL    HW214922   3.724   3.352   4.635
 4794SOL     OW14923   2.083   3.176   5.568
 4794SOL    HW114924   2.018   3.103   5.547
 4794SOL    HW214925   2.087   3.190   5.666
 4795SOL     OW14926   1.941   3.102   4.377
 4795SOL    HW114927   1.940   3.055   4.465
 4795SOL    HW214928   2.023   3.074   4.326
 4796SOL     OW14929   2.534   3.253   5.348
 4796SOL    HW114930   2.456   3.203   5.386
 4796SOL    HW214931   2.531   3.348   5.379
 4797SOL     OW14932   3.686   2.054   4.951
 4797SOL    HW114933   3.682   1.964   4.995
 4797SOL    HW214934   3.689   2.043   4.852
 4798SOL     OW14935   3.567   3.349   4.828
 4798SOL    HW114936   3.474   3.324   4.801
 4798SOL    HW214937   3.593   3.299   4.910
 4799SOL     OW14938   2.674   3.448   4.411
 4799SOL    HW114939   2.706   3.458   4.317
 4799SOL    HW214940   2.595   3.386   4.413
 4800SOL     OW14941   3.286   2.076   4.836
 4800SOL    HW114942   3.338   2.011   4.891
 4800SOL    HW214943   3.237   2.139   4.897
 4801SOL     OW14944   2.632   3.192   4.025
 4801SOL    HW114945   2.586   3.105   4.042
 4801SOL    HW214946   2.723   3.189   4.066
 4802SOL     OW14947   2.480   3.429   5.008
 4802SOL    HW114948   2.475   3.511   5.065
 4802SOL    HW214949   2.569   3.426   4.963
 4803SOL     OW14950   3.214   1.914   3.892
 4803SOL    HW114951   3.249   1.873   3.808
 4803SOL    HW214952   3.124   1.876   3.912
 4804SOL     OW14953   3.162   2.315   4.415
 4804SOL    HW114954   3.103   2.395   4.419
 4804SOL    HW214955   3.177   2.280   4.508
 4805SOL     OW14956   3.455   2.083   4.606
 4805SOL    HW114957   3.371   2.082   4.660
 4805SOL    HW214958   3.457   2.166   4.550
 4806SOL     OW14959   1.901   2.939   4.024
 4806SOL    HW114960   2.000   2.928   4.015
 4806SOL    HW214961   1.861   2.853   4.056
 4807SOL     OW14962   2.737   3.508   4.061
 4807SOL    HW114963   2.660   3.473   4.007
 4807SOL    HW214964   2.705   3.579   4.123
 4808SOL     OW14965   2.092   2.490   5.699
 4808SOL    HW114966   1.999   2.488   5.736
 4808SOL    HW214967   2.093   2.451   5.607
 4809SOL     OW14968   2.431   3.137   6.751
 4809SOL    HW114969   2.338   3.130   6.714
 4809SOL    HW214970   2.442   3.226   6.795
 4810SOL     OW14971   3.417   3.373   6.289
 4810SOL    HW114972   3.360   3.357   6.370
 4810SOL    HW214973   3.358   3.383   6.209
 4811SOL     OW14974   2.997   2.565   6.303
 4811SOL    HW114975   3.054   2.643   6.278
 4811SOL    HW214976   2.937   2.591   6.379
 4812SOL     OW14977   3.617   2.469   5.817
 4812SOL    HW114978   3.605   2.456   5.718
 4812SOL    HW214979   3.587   2.388   5.866
 4813SOL     OW14980   2.630   3.006   6.609
 4813SOL    HW114981   2.552   3.023   6.669
 4813SOL    HW214982   2.664   3.093   6.573
 4814SOL     OW14983   2.712   2.660   7.409
 4814SOL    HW114984   2.708   2.736   7.474
 4814SOL    HW214985   2.734   2.696   7.318
 4815SOL     OW14986   2.548   3.023   7.389
 4815SOL    HW114987   2.608   3.102   7.403
 4815SOL    HW214988   2.462   3.054   7.348
 4816SOL     OW14989   2.197   3.297   6.647
 4816SOL    HW114990   2.119   3.266   6.594
 4816SOL    HW214991   2.255   3.355   6.590
 4817SOL     OW14992   3.322   3.367   6.925
 4817SOL    HW114993   3.346   3.461   6.951
 4817SOL    HW214994   3.306   3.313   7.007
 4818SOL     OW14995   3.465   2.309   6.323
 4818SOL    HW114996   3.391   2.355   6.273
 4818SOL    HW214997   3.516   2.377   6.376
 4819SOL     OW14998   2.093   3.575   6.069
 4819SOL    HW114999   2.127   3.652   6.123
 4819SOL    HW215000   2.137   3.575   5.979
 4820SOL     OW15001   2.989   3.203   7.276
 4820SOL    HW115002   3.036   3.203   7.364
 4820SOL    HW215003   2.941   3.116   7.265
 4821SOL     OW15004   2.092   3.296   6.124
 4821SOL    HW115005   2.066   3.392   6.124
 4821SOL    HW215006   2.021   3.242   6.169
 4822SOL     OW15007   2.102   2.953   6.472
 4822SOL    HW115008   2.116   2.869   6.524
 4822SOL    HW215009   2.047   3.017   6.527
 4823SOL     OW15010   2.482   3.648   7.025
 4823SOL    HW115011   2.390   3.631   7.060
 4823SOL    HW215012   2.510   3.740   7.051
 4824SOL     OW15013   3.456   1.976   7.066
 4824SOL    HW115014   3.438   2.043   6.994
 4824SOL    HW215015   3.453   2.022   7.155
 4825SOL     OW15016   1.984   2.505   6.149
 4825SOL    HW115017   1.939   2.417   6.166
 4825SOL    HW215018   1.983   2.559   6.233
 4826SOL     OW15019   3.704   3.629   5.945
 4826SOL    HW115020   3.758   3.600   6.025
 4826SOL    HW215021   3.734   3.719   5.916
 4827SOL     OW15022   1.889   3.458   5.703
 4827SOL    HW115023   1.870   3.362   5.724
 4827SOL    HW215024   1.856   3.516   5.778
 4828SOL     OW15025   3.551   2.784   6.198
 4828SOL    HW115026   3.646   2.755   6.206
 4828SOL    HW215027   3.543   2.849   6.123
 4829SOL     OW15028   3.503   2.970   6.018
 4829SOL    HW115029   3.589   2.972   5.966
 4829SOL    HW215030   3.517   3.017   6.106
 4830SOL     OW15031   1.975   2.599   7.183
 4830SOL    HW115032   2.063   2.586   7.228
 4830SOL    HW215033   1.962   2.696   7.161
 4831SOL     OW15034   2.475   3.227   6.312
 4831SOL    HW115035   2.426   3.140   6.321
 4831SOL    HW215036   2.452   3.270   6.225
 4832SOL     OW15037   3.155   3.090   7.009
 4832SOL    HW115038   3.192   3.017   6.951
 4832SOL    HW215039   3.207   3.095   7.094
 4833SOL     OW15040   2.059   2.838   6.850
 4833SOL    HW115041   2.148   2.793   6.836
 4833SOL    HW215042   1.986   2.773   6.831
 4834SOL     OW15043   3.387   2.861   5.776
 4834SOL    HW115044   3.324   2.785   5.789
 4834SOL    HW215045   3.435   2.879   5.862
 4835SOL     OW15046   3.049   3.654   7.202
 4835SOL    HW115047   3.073   3.714   7.126
 4835SOL    HW215048   3.056   3.559   7.172
 4836SOL     OW15049   3.328   3.279   6.539
 4836SOL    HW115050   3.269   3.285   6.619
 4836SOL    HW215051   3.313   3.191   6.493
 4837SOL     OW15052   3.529   3.576   6.158
 4837SOL    HW115053   3.488   3.553   6.070
 4837SOL    HW215054   3.511   3.502   6.223
 4838SOL     OW15055   3.143   2.207   6.530
 4838SOL    HW115056   3.057   2.157   6.517
 4838SOL    HW215057   3.205   2.153   6.586
 4839SOL     OW15058   3.438   3.524   5.893
 4839SOL    HW115059   3.527   3.570   5.896
 4839SOL    HW215060   3.417   3.500   5.798
 4840SOL     OW15061   2.669   2.467   7.051
 4840SOL    HW115062   2.622   2.464   7.140
 4840SOL    HW215063   2.618   2.412   6.985
 4841SOL     OW15064   3.256   2.331   7.260
 4841SOL    HW115065   3.236   2.374   7.348
 4841SOL    HW215066   3.334   2.269   7.269
 4842SOL     OW15067   2.835   2.752   7.158
 4842SOL    HW115068   2.881   2.668   7.129
 4842SOL    HW215069   2.779   2.786   7.083
 4843SOL     OW15070   2.853   2.272   6.828
 4843SOL    HW115071   2.776   2.306   6.882
 4843SOL    HW215072   2.819   2.221   6.749
 4844SOL     OW15073   1.992   3.683   7.157
 4844SOL    HW115074   1.982   3.668   7.256
 4844SOL    HW215075   1.906   3.719   7.121
 4845SOL     OW15076   3.581   2.447   7.417
 4845SOL    HW115077   3.555   2.536   7.381
 4845SOL    HW215078   3.579   2.379   7.344
 4846SOL     OW15079   3.224   3.006   6.131
 4846SOL    HW115080   3.307   2.977   6.083
 4846SOL    HW215081   3.175   3.073   6.075
 4847SOL     OW15082   2.412   2.058   6.471
 4847SOL    HW115083   2.407   2.053   6.571
 4847SOL    HW215084   2.414   2.154   6.442
 4848SOL     OW15085   2.870   3.318   6.063
 4848SOL    HW115086   2.824   3.390   6.011
 4848SOL    HW215087   2.866   3.338   6.161
 4849SOL     OW15088   2.213   3.663   6.439
 4849SOL    HW115089   2.263   3.577   6.445
 4849SOL    HW215090   2.278   3.740   6.436
 4850SOL     OW15091   3.657   2.928   6.459
 4850SOL    HW115092   3.595   2.913   6.383
 4850SOL    HW215093   3.605   2.939   6.544
 4851SOL     OW15094   3.089   3.412   7.092
 4851SOL    HW115095   3.095   3.335   7.156
 4851SOL    HW215096   3.037   3.386   7.012
 4852SOL     OW15097   3.320   2.597   6.314
 4852SOL    HW115098   3.315   2.532   6.389
 4852SOL    HW215099   3.400   2.656   6.327
 4853SOL     OW15100   2.323   3.128   7.313
 4853SOL    HW115101   2.273   3.129   7.227
 4853SOL    HW215102   2.260   3.110   7.389
 4854SOL     OW15103   2.973   3.638   5.823
 4854SOL    HW115104   2.913   3.576   5.873
 4854SOL    HW215105   3.004   3.594   5.738
 4855SOL     OW15106   3.494   3.239   5.667
 4855SOL    HW115107   3.462   3.333   5.657
 4855SOL    HW215108   3.418   3.176   5.655
 4856SOL     OW15109   2.326   3.605   5.909
 4856SOL    HW115110   2.359   3.644   5.995
 4856SOL    HW215111   2.402   3.598   5.844
 4857SOL     OW15112   3.262   1.969   6.012
 4857SOL    HW115113   3.238   1.932   5.922
 4857SOL    HW215114   3.361   1.985   6.016
 4858SOL     OW15115   2.111   3.647   6.827
 4858SOL    HW115116   2.168   3.582   6.877
 4858SOL    HW215117   2.095   3.614   6.734
 4859SOL     OW15118   2.802   3.560   6.490
 4859SOL    HW115119   2.882   3.503   6.511
 4859SOL    HW215120   2.753   3.520   6.413
 4860SOL     OW15121   3.409   2.084   7.315
 4860SOL    HW115122   3.404   2.121   7.407
 4860SOL    HW215123   3.337   2.015   7.303
 4861SOL     OW15124   2.476   1.984   5.703
 4861SOL    HW115125   2.574   1.962   5.710
 4861SOL    HW215126   2.445   1.967   5.610
 4862SOL     OW15127   2.643   2.126   7.335
 4862SOL    HW115128   2.710   2.065   7.378
 4862SOL    HW215129   2.570   2.145   7.400
 4863SOL     OW15130   2.750   3.376   6.781
 4863SOL    HW115131   2.727   3.351   6.687
 4863SOL    HW215132   2.811   3.307   6.820
 4864SOL     OW15133   3.213   2.452   7.019
 4864SOL    HW115134   3.241   2.409   7.104
 4864SOL    HW215135   3.238   2.548   7.020
 4865SOL     OW15136   2.665   3.264   6.510
 4865SOL    HW115137   2.755   3.278   6.468
 4865SOL    HW215138   2.594   3.266   6.439
 4866SOL     OW15139   3.296   3.050   5.627
 4866SOL    HW115140   3.328   2.974   5.684
 4866SOL    HW215141   3.204   3.077   5.657
 4867SOL     OW15142   2.159   1.897   5.757
 4867SOL    HW115143   2.208   1.981   5.736
 4867SOL    HW215144   2.221   1.832   5.802
 4868SOL     OW15145   2.938   2.545   7.050
 4868SOL    HW115146   2.858   2.484   7.053
 4868SOL    HW215147   3.019   2.492   7.026
 4869SOL     OW15148   3.089   3.432   6.379
 4869SOL    HW115149   3.110   3.506   6.314
 4869SOL    HW215150   3.157   3.432   6.452
 4870SOL     OW15151   3.133   3.659   6.177
 4870SOL    HW115152   3.177   3.723   6.113
 4870SOL    HW215153   3.083   3.711   6.247
 4871SOL     OW15154   1.940   2.418   6.972
 4871SOL    HW115155   2.032   2.417   6.931
 4871SOL    HW215156   1.934   2.492   7.039
 4872SOL     OW15157   2.423   2.084   6.733
 4872SOL    HW115158   2.461   2.000   6.770
 4872SOL    HW215159   2.335   2.103   6.777
 4873SOL     OW15160   3.291   3.035   6.453
 4873SOL    HW115161   3.236   2.951   6.446
 4873SOL    HW215162   3.317   3.064   6.361
 4874SOL     OW15163   3.328   2.452   6.578
 4874SOL    HW115164   3.298   2.357   6.585
 4874SOL    HW215165   3.401   2.468   6.644
 4875SOL     OW15166   3.719   2.695   5.963
 4875SOL    HW115167   3.761   2.631   6.027
 4875SOL    HW215168   3.681   2.644   5.885
 4876SOL     OW15169   2.350   3.247   5.760
 4876SOL    HW115170   2.263   3.232   5.807
 4876SOL    HW215171   2.333   3.273   5.665
 4877SOL     OW15172   3.526   3.142   6.243
 4877SOL    HW115173   3.625   3.150   6.257
 4877SOL    HW215174   3.481   3.226   6.274
 4878SOL     OW15175   3.252   2.437   5.664
 4878SOL    HW115176   3.198   2.416   5.745
 4878SOL    HW215177   3.343   2.396   5.673
 4879SOL     OW15178   3.616   3.085   7.174
 4879SOL    HW115179   3.707   3.046   7.161
 4879SOL    HW215180   3.624   3.181   7.198
 4880SOL     OW15181   2.926   3.209   6.926
 4880SOL    HW115182   2.846   3.186   6.981
 4880SOL    HW215183   3.009   3.183   6.975
 4881SOL     OW15184   3.454   3.491   7.211
 4881SOL    HW115185   3.481   3.525   7.121
 4881SOL    HW215186   3.533   3.453   7.257
 4882SOL     OW15187   2.973   3.057   6.686
 4882SOL    HW115188   2.933   3.101   6.767
 4882SOL    HW215189   2.932   3.094   6.603
 4883SOL     OW15190   3.500   2.961   6.665
 4883SOL    HW115191   3.505   3.042   6.724
 4883SOL    HW215192   3.414   2.963   6.614
 4884SOL     OW15193   2.777   1.951   6.988
 4884SOL    HW115194   2.802   1.931   6.893
 4884SOL    HW215195   2.849   2.007   7.030
 4885SOL     OW15196   2.842   2.978   7.305
 4885SOL    HW115197   2.743   2.984   7.315
 4885SOL    HW215198   2.865   2.898   7.249
 4886SOL     OW15199   2.272   2.675   6.837
 4886SOL    HW115200   2.358   2.687   6.887
 4886SOL    HW215201   2.230   2.588   6.864
 4887SOL     OW15202   3.136   2.248   6.848
 4887SOL    HW115203   3.157   2.322   6.912
 4887SOL    HW215204   3.047   2.265   6.805
 4888SOL     OW15205   1.926   3.426   6.917
 4888SOL    HW115206   1.880   3.508   6.883
 4888SOL    HW215207   2.024   3.445   6.926
 4889SOL     OW15208   2.428   2.399   6.451
 4889SOL    HW115209   2.440   2.465   6.377
 4889SOL    HW215210   2.474   2.433   6.534
 4890SOL     OW15211   3.114   3.210   5.974
 4890SOL    HW115212   3.164   3.287   6.014
 4890SOL    HW215213   3.019   3.212   6.006
 4891SOL     OW15214   3.134   3.307   6.728
 4891SOL    HW115215   3.181   3.320   6.815
 4891SOL    HW215216   3.068   3.233   6.737
 4892SOL     OW15217   3.444   2.501   6.058
 4892SOL    HW115218   3.413   2.562   6.131
 4892SOL    HW215219   3.494   2.553   5.989
 4893SOL     OW15220   2.216   3.372   6.915
 4893SOL    HW115221   2.195   3.328   6.828
 4893SOL    HW215222   2.313   3.398   6.918
 4894SOL     OW15223   2.264   2.613   7.184
 4894SOL    HW115224   2.332   2.668   7.137
 4894SOL    HW215225   2.304   2.525   7.211
 4895SOL     OW15226   3.449   2.641   7.256
 4895SOL    HW115227   3.357   2.679   7.251
 4895SOL    HW215228   3.509   2.688   7.191
 4896SOL     OW15229   2.875   1.967   7.356
 4896SOL    HW115230   2.881   2.052   7.304
 4896SOL    HW215231   2.907   1.891   7.299
 4897SOL     OW15232   2.366   1.912   7.326
 4897SOL    HW115233   2.324   1.855   7.256
 4897SOL    HW215234   2.300   1.981   7.358
 4898SOL     OW15235   2.435   2.732   6.615
 4898SOL    HW115236   2.479   2.821   6.606
 4898SOL    HW215237   2.372   2.732   6.692
 4899SOL     OW15238   3.222   2.724   6.631
 4899SOL    HW115239   3.147   2.724   6.565
 4899SOL    HW215240   3.259   2.632   6.640
 4900SOL     OW15241   1.899   3.172   6.868
 4900SOL    HW115242   1.952   3.123   6.936
 4900SOL    HW215243   1.921   3.270   6.873
 4901SOL     OW15244   2.594   2.496   6.650
 4901SOL    HW115245   2.653   2.470   6.574
 4901SOL    HW215246   2.566   2.592   6.639
 4902SOL     OW15247   3.590   2.797   7.440
 4902SOL    HW115248   3.544   2.790   7.351
 4902SOL    HW215249   3.528   2.841   7.506
 4903SOL     OW15250   3.484   2.229   5.960
 4903SOL    HW115251   3.486   2.153   6.024
 4903SOL    HW215252   3.436   2.306   6.000
 4904SOL     OW15253   2.885   2.628   6.552
 4904SOL    HW115254   2.900   2.649   6.648
 4904SOL    HW215255   2.855   2.533   6.543
 4905SOL     OW15256   2.842   3.435   7.286
 4905SOL    HW115257   2.822   3.479   7.198
 4905SOL    HW215258   2.881   3.344   7.270
 4906SOL     OW15259   3.721   3.380   7.191
 4906SOL    HW115260   3.735   3.407   7.096
 4906SOL    HW215261   3.804   3.402   7.244
 4907SOL     OW15262   2.212   2.760   7.390
 4907SOL    HW115263   2.288   2.804   7.438
 4907SOL    HW215264   2.247   2.713   7.308
 4908SOL     OW15265   3.402   2.136   5.711
 4908SOL    HW115266   3.341   2.061   5.734
 4908SOL    HW215267   3.424   2.188   5.794
 4909SOL     OW15268   3.165   2.700   5.628
 4909SOL    HW115269   3.199   2.607   5.643
 4909SOL    HW215270   3.183   2.727   5.533
 4910SOL     OW15271   2.930   3.195   6.435
 4910SOL    HW115272   2.937   3.111   6.380
 4910SOL    HW215273   2.992   3.264   6.399
 4911SOL     OW15274   2.181   2.672   6.535
 4911SOL    HW115275   2.274   2.708   6.540
 4911SOL    HW215276   2.175   2.587   6.587
 4912SOL     OW15277   3.000   2.242   7.264
 4912SOL    HW115278   2.955   2.305   7.328
 4912SOL    HW215279   3.093   2.273   7.247
 4913SOL     OW15280   3.022   2.069   7.063
 4913SOL    HW115281   3.022   2.133   7.140
 4913SOL    HW215282   3.050   2.117   6.980
 4914SOL     OW15283   1.870   3.188   5.786
 4914SOL    HW115284   1.777   3.209   5.755
 4914SOL    HW215285   1.880   3.089   5.799
 4915SOL     OW15286   1.950   3.663   6.513
 4915SOL    HW115287   1.908   3.577   6.486
 4915SOL    HW215288   2.044   3.666   6.479
 4916SOL     OW15289   2.366   3.430   6.496
 4916SOL    HW115290   2.432   3.504   6.505
 4916SOL    HW215291   2.410   3.351   6.454
 4917SOL     OW15292   2.864   2.658   6.824
 4917SOL    HW115293   2.905   2.626   6.910
 4917SOL    HW215294   2.768   2.631   6.821
 4918SOL     OW15295   1.902   2.406   6.700
 4918SOL    HW115296   1.987   2.373   6.659
 4918SOL    HW215297   1.915   2.421   6.798
 4919SOL     OW15298   3.231   2.812   7.246
 4919SOL    HW115299   3.270   2.901   7.266
 4919SOL    HW215300   3.241   2.792   7.149
 4920SOL     OW15301   3.519   2.466   6.792
 4920SOL    HW115302   3.481   2.397   6.854
 4920SOL    HW215303   3.601   2.430   6.748
 4921SOL     OW15304   2.114   3.426   7.330
 4921SOL    HW115305   2.084   3.483   7.406
 4921SOL    HW215306   2.107   3.329   7.356
 4922SOL     OW15307   2.792   3.540   7.051
 4922SOL    HW115308   2.768   3.522   6.956
 4922SOL    HW215309   2.822   3.634   7.061
 4923SOL     OW15310   2.021   2.999   7.052
 4923SOL    HW115311   2.043   2.938   7.128
 4923SOL    HW215312   2.031   2.950   6.966
 4924SOL     OW15313   3.209   2.921   6.820
 4924SOL    HW115314   3.233   2.858   6.746
 4924SOL    HW215315   3.119   2.961   6.802
 4925SOL     OW15316   3.164   2.717   5.895
 4925SOL    HW115317   3.078   2.686   5.937
 4925SOL    HW215318   3.160   2.703   5.796
 4926SOL     OW15319   3.621   3.609   6.740
 4926SOL    HW115320   3.682   3.639   6.667
 4926SOL    HW215321   3.583   3.520   6.718
 4927SOL     OW15322   3.114   3.593   6.714
 4927SOL    HW115323   3.198   3.598   6.660
 4927SOL    HW215324   3.091   3.497   6.732
 4928SOL     OW15325   1.945   3.120   6.608
 4928SOL    HW115326   1.940   3.119   6.708
 4928SOL    HW215327   1.862   3.079   6.570
 4929SOL     OW15328   2.550   3.524   7.302
 4929SOL    HW115329   2.494   3.605   7.311
 4929SOL    HW215330   2.602   3.528   7.216
 4930SOL     OW15331   3.588   1.997   6.109
 4930SOL    HW115332   3.661   1.980   6.042
 4930SOL    HW215333   3.557   1.910   6.147
 4931SOL     OW15334   3.250   3.435   6.063
 4931SOL    HW115335   3.317   3.447   5.989
 4931SOL    HW215336   3.210   3.524   6.086
 4932SOL     OW15337   1.992   3.656   7.437
 4932SOL    HW115338   1.951   3.582   7.490
 4932SOL    HW215339   2.056   3.707   7.495
 4933SOL     OW15340   3.142   2.789   6.258
 4933SOL    HW115341   3.202   2.708   6.260
 4933SOL    HW215342   3.182   2.858   6.198
 4934SOL     OW15343   2.692   3.135   7.008
 4934SOL    HW115344   2.687   3.168   7.103
 4934SOL    HW215345   2.606   3.154   6.962
 4935SOL     OW15346   2.534   3.478   5.740
 4935SOL    HW115347   2.543   3.488   5.641
 4935SOL    HW215348   2.494   3.389   5.761
 4936SOL     OW15349   3.512   3.582   6.980
 4936SOL    HW115350   3.565   3.592   6.896
 4936SOL    HW215351   3.485   3.672   7.014
 4937SOL     OW15352   3.703   2.037   6.549
 4937SOL    HW115353   3.742   1.952   6.513
 4937SOL    HW215354   3.605   2.039   6.530
 4938SOL     OW15355   3.056   3.474   5.617
 4938SOL    HW115356   3.062   3.381   5.654
 4938SOL    HW215357   2.997   3.474   5.537
 4939SOL     OW15358   2.684   2.864   6.958
 4939SOL    HW115359   2.724   2.863   6.866
 4939SOL    HW215360   2.694   2.956   6.998
 4940SOL     OW15361   3.366   3.469   5.630
 4940SOL    HW115362   3.274   3.506   5.637
 4940SOL    HW215363   3.404   3.489   5.540
 4941SOL     OW15364   2.234   3.150   7.076
 4941SOL    HW115365   2.221   3.243   7.042
 4941SOL    HW215366   2.150   3.098   7.063
 4942SOL     OW15367   3.476   3.154   6.875
 4942SOL    HW115368   3.536   3.157   6.955
 4942SOL    HW215369   3.401   3.218   6.888
 4943SOL     OW15370   2.901   2.960   6.282
 4943SOL    HW115371   2.831   2.913   6.336
 4943SOL    HW215372   2.960   2.892   6.239
 4944SOL     OW15373   2.876   2.098   6.557
 4944SOL    HW115374   2.868   2.062   6.464
 4944SOL    HW215375   2.874   2.022   6.622
 4945SOL     OW15376   2.452   3.349   6.077
 4945SOL    HW115377   2.494   3.291   6.007
 4945SOL    HW215378   2.408   3.428   6.033
 4946SOL     OW15379   3.571   2.247   6.967
 4946SOL    HW115380   3.644   2.316   6.971
 4946SOL    HW215381   3.599   2.172   6.908
 4947SOL     OW15382   2.117   3.210   5.876
 4947SOL    HW115383   2.021   3.211   5.849
 4947SOL    HW215384   2.129   3.263   5.960
 4948SOL     OW15385   1.967   2.875   7.312
 4948SOL    HW115386   1.890   2.842   7.366
 4948SOL    HW215387   2.052   2.845   7.354
 4949SOL     OW15388   2.534   2.065   7.075
 4949SOL    HW115389   2.624   2.049   7.035
 4949SOL    HW215390   2.542   2.070   7.174
 4950SOL     OW15391   1.937   2.207   5.619
 4950SOL    HW115392   1.845   2.179   5.590
 4950SOL    HW215393   1.968   2.284   5.563
 4951SOL     OW15394   3.302   2.718   6.984
 4951SOL    HW115395   3.245   2.770   6.921
 4951SOL    HW215396   3.398   2.730   6.960
 4952SOL     OW15397   1.934   2.028   5.904
 4952SOL    HW115398   1.917   2.111   5.850
 4952SOL    HW215399   2.024   1.991   5.882
 4953SOL     OW15400   3.045   3.197   5.705
 4953SOL    HW115401   2.946   3.186   5.707
 4953SOL    HW215402   3.079   3.212   5.798
 4954SOL     OW15403   2.475   2.704   7.017
 4954SOL    HW115404   2.531   2.785   7.000
 4954SOL    HW215405   2.534   2.624   7.020
 4955SOL     OW15406   3.355   3.629   6.545
 4955SOL    HW115407   3.388   3.693   6.476
 4955SOL    HW215408   3.421   3.623   6.620
 4956SOL     OW15409   2.578   2.427   7.294
 4956SOL    HW115410   2.597   2.492   7.368
 4956SOL    HW215411   2.638   2.347   7.303
 4957SOL     OW15412   3.312   3.082   7.219
 4957SOL    HW115413   3.303   3.072   7.318
 4957SOL    HW215414   3.408   3.075   7.193
 4958SOL     OW15415   2.252   3.603   7.146
 4958SOL    HW115416   2.161   3.644   7.144
 4958SOL    HW215417   2.245   3.509   7.178
 4959SOL     OW15418   3.536   2.745   6.840
 4959SOL    HW115419   3.509   2.656   6.803
 4959SOL    HW215420   3.537   2.813   6.767
 4960SOL     OW15421   3.639   2.204   7.228
 4960SOL    HW115422   3.622   2.235   7.134
 4960SOL    HW215423   3.555   2.167   7.266
 4961SOL     OW15424   3.592   2.796   7.103
 4961SOL    HW115425   3.630   2.887   7.118
 4961SOL    HW215426   3.584   2.779   7.004
 4962SOL     OW15427   2.721   3.236   5.602
 4962SOL    HW115428   2.675   3.251   5.690
 4962SOL    HW215429   2.765   3.321   5.572
 4963SOL     OW15430   2.523   3.652   6.539
 4963SOL    HW115431   2.477   3.740   6.526
 4963SOL    HW215432   2.622   3.664   6.532
 4964SOL     OW15433   2.721   2.818   6.447
 4964SOL    HW115434   2.775   2.749   6.495
 4964SOL    HW215435   2.689   2.887   6.513
 4965SOL     OW15436   2.945   2.846   5.673
 4965SOL    HW115437   2.922   2.899   5.591
 4965SOL    HW215438   3.026   2.790   5.654
 4966SOL     OW15439   3.723   3.431   6.437
 4966SOL    HW115440   3.652   3.419   6.367
 4966SOL    HW215441   3.724   3.352   6.497
 4967SOL     OW15442   2.083   3.176   7.430
 4967SOL    HW115443   2.018   3.103   7.409
 4967SOL    HW215444   2.087   3.190   7.528
 4968SOL     OW15445   1.941   3.102   6.239
 4968SOL    HW115446   1.940   3.055   6.327
 4968SOL    HW215447   2.023   3.074   6.188
 4969SOL     OW15448   2.534   3.253   7.210
 4969SOL    HW115449   2.456   3.203   7.248
 4969SOL    HW215450   2.531   3.348   7.241
 4970SOL     OW15451   3.686   2.054   6.813
 4970SOL    HW115452   3.682   1.964   6.857
 4970SOL    HW215453   3.689   2.043   6.714
 4971SOL     OW15454   3.567   3.349   6.690
 4971SOL    HW115455   3.474   3.324   6.663
 4971SOL    HW215456   3.593   3.299   6.772
 4972SOL     OW15457   2.674   3.448   6.273
 4972SOL    HW115458   2.706   3.458   6.179
 4972SOL    HW215459   2.595   3.386   6.275
 4973SOL     OW15460   3.286   2.076   6.698
 4973SOL    HW115461   3.338   2.011   6.753
 4973SOL    HW215462   3.237   2.139   6.759
 4974SOL     OW15463   2.863   1.896   6.740
 4974SOL    HW115464   2.800   1.824   6.709
 4974SOL    HW215465   2.956   1.860   6.740
 4975SOL     OW15466   2.480   3.429   6.870
 4975SOL    HW115467   2.475   3.511   6.927
 4975SOL    HW215468   2.569   3.426   6.825
 4976SOL     OW15469   3.214   1.914   5.754
 4976SOL    HW115470   3.249   1.873   5.670
 4976SOL    HW215471   3.124   1.876   5.774
 4977SOL     OW15472   3.162   2.315   6.277
 4977SOL    HW115473   3.103   2.395   6.281
 4977SOL    HW215474   3.177   2.280   6.370
 4978SOL     OW15475   3.455   2.083   6.468
 4978SOL    HW115476   3.371   2.082   6.522
 4978SOL    HW215477   3.457   2.166   6.412
 4979SOL     OW15478   2.737   3.508   5.923
 4979SOL    HW115479   2.660   3.473   5.869
 4979SOL    HW215480   2.705   3.579   5.985
 4980SOL     OW15481   2.092   2.490   7.561
 4980SOL    HW115482   1.999   2.488   7.598
 4980SOL    HW215483   2.093   2.451   7.469
 4981SOL     OW15484   1.881   2.230   8.095
 4981SOL    HW115485   1.799   2.273   8.134
 4981SOL    HW215486   1.853   2.157   8.032
 4982SOL     OW15487   2.431   3.137   8.613
 4982SOL    HW115488   2.338   3.130   8.576
 4982SOL    HW215489   2.442   3.226   8.657
 4983SOL     OW15490   3.417   3.373   8.151
 4983SOL    HW115491   3.360   3.357   8.232
 4983SOL    HW215492   3.358   3.383   8.071
 4984SOL     OW15493   2.997   2.565   8.165
 4984SOL    HW115494   3.054   2.643   8.140
 4984SOL    HW215495   2.937   2.591   8.241
 4985SOL     OW15496   3.617   2.469   7.679
 4985SOL    HW115497   3.605   2.456   7.580
 4985SOL    HW215498   3.587   2.388   7.728
 4986SOL     OW15499   2.630   3.006   8.471
 4986SOL    HW115500   2.552   3.023   8.531
 4986SOL    HW215501   2.664   3.093   8.435
 4987SOL     OW15502   2.712   2.660   9.271
 4987SOL    HW115503   2.708   2.736   9.336
 4987SOL    HW215504   2.734   2.696   9.180
 4988SOL     OW15505   2.547   2.874   8.113
 4988SOL    HW115506   2.616   2.858   8.183
 4988SOL    HW215507   2.474   2.931   8.151
 4989SOL     OW15508   2.548   3.023   9.251
 4989SOL    HW115509   2.608   3.102   9.265
 4989SOL    HW215510   2.462   3.054   9.210
 4990SOL     OW15511   2.197   3.297   8.509
 4990SOL    HW115512   2.119   3.266   8.456
 4990SOL    HW215513   2.255   3.355   8.452
 4991SOL     OW15514   3.322   3.367   8.787
 4991SOL    HW115515   3.346   3.461   8.813
 4991SOL    HW215516   3.306   3.313   8.869
 4992SOL     OW15517   3.465   2.309   8.185
 4992SOL    HW115518   3.391   2.355   8.135
 4992SOL    HW215519   3.516   2.377   8.238
 4993SOL     OW15520   2.093   3.575   7.931
 4993SOL    HW115521   2.127   3.652   7.985
 4993SOL    HW215522   2.137   3.575   7.841
 4994SOL     OW15523   2.989   3.203   9.138
 4994SOL    HW115524   3.036   3.203   9.226
 4994SOL    HW215525   2.941   3.116   9.127
 4995SOL     OW15526   2.092   3.296   7.986
 4995SOL    HW115527   2.066   3.392   7.986
 4995SOL    HW215528   2.021   3.242   8.031
 4996SOL     OW15529   2.102   2.953   8.334
 4996SOL    HW115530   2.116   2.869   8.386
 4996SOL    HW215531   2.047   3.017   8.389
 4997SOL     OW15532   2.482   3.648   8.887
 4997SOL    HW115533   2.390   3.631   8.922
 4997SOL    HW215534   2.510   3.740   8.913
 4998SOL     OW15535   2.468   2.826   7.571
 4998SOL    HW115536   2.475   2.910   7.517
 4998SOL    HW215537   2.514   2.839   7.659
 4999SOL     OW15538   3.456   1.976   8.928
 4999SOL    HW115539   3.438   2.043   8.856
 4999SOL    HW215540   3.453   2.022   9.017
 5000SOL     OW15541   1.984   2.505   8.011
 5000SOL    HW115542   1.939   2.417   8.028
 5000SOL    HW215543   1.983   2.559   8.095
 5001SOL     OW15544   3.704   3.629   7.807
 5001SOL    HW115545   3.758   3.600   7.887
 5001SOL    HW215546   3.734   3.719   7.778
 5002SOL     OW15547   1.889   3.458   7.565
 5002SOL    HW115548   1.870   3.362   7.586
 5002SOL    HW215549   1.856   3.516   7.640
 5003SOL     OW15550   3.551   2.784   8.060
 5003SOL    HW115551   3.646   2.755   8.068
 5003SOL    HW215552   3.543   2.849   7.985
 5004SOL     OW15553   3.503   2.970   7.880
 5004SOL    HW115554   3.589   2.972   7.828
 5004SOL    HW215555   3.517   3.017   7.968
 5005SOL     OW15556   1.975   2.599   9.045
 5005SOL    HW115557   2.063   2.586   9.090
 5005SOL    HW215558   1.962   2.696   9.023
 5006SOL     OW15559   2.475   3.227   8.174
 5006SOL    HW115560   2.426   3.140   8.183
 5006SOL    HW215561   2.452   3.270   8.087
 5007SOL     OW15562   3.155   3.090   8.871
 5007SOL    HW115563   3.192   3.017   8.813
 5007SOL    HW215564   3.207   3.095   8.956
 5008SOL     OW15565   2.671   1.866   7.950
 5008SOL    HW115566   2.711   1.957   7.941
 5008SOL    HW215567   2.571   1.874   7.956
 5009SOL     OW15568   2.059   2.838   8.712
 5009SOL    HW115569   2.148   2.793   8.698
 5009SOL    HW215570   1.986   2.773   8.693
 5010SOL     OW15571   3.387   2.861   7.638
 5010SOL    HW115572   3.324   2.785   7.651
 5010SOL    HW215573   3.435   2.879   7.724
 5011SOL     OW15574   3.049   3.654   9.064
 5011SOL    HW115575   3.073   3.714   8.988
 5011SOL    HW215576   3.056   3.559   9.034
 5012SOL     OW15577   3.328   3.279   8.401
 5012SOL    HW115578   3.269   3.285   8.481
 5012SOL    HW215579   3.313   3.191   8.355
 5013SOL     OW15580   3.529   3.576   8.020
 5013SOL    HW115581   3.488   3.553   7.932
 5013SOL    HW215582   3.511   3.502   8.085
 5014SOL     OW15583   2.460   2.591   7.718
 5014SOL    HW115584   2.484   2.660   7.650
 5014SOL    HW215585   2.382   2.624   7.772
 5015SOL     OW15586   3.143   2.207   8.392
 5015SOL    HW115587   3.057   2.157   8.379
 5015SOL    HW215588   3.205   2.153   8.448
 5016SOL     OW15589   3.438   3.524   7.755
 5016SOL    HW115590   3.527   3.570   7.758
 5016SOL    HW215591   3.417   3.500   7.660
 5017SOL     OW15592   2.669   2.467   8.913
 5017SOL    HW115593   2.622   2.464   9.002
 5017SOL    HW215594   2.618   2.412   8.847
 5018SOL     OW15595   3.256   2.331   9.122
 5018SOL    HW115596   3.236   2.374   9.210
 5018SOL    HW215597   3.334   2.269   9.131
 5019SOL     OW15598   2.835   2.752   9.020
 5019SOL    HW115599   2.881   2.668   8.991
 5019SOL    HW215600   2.779   2.786   8.945
 5020SOL     OW15601   2.853   2.272   8.690
 5020SOL    HW115602   2.776   2.306   8.744
 5020SOL    HW215603   2.819   2.221   8.611
 5021SOL     OW15604   2.903   2.563   7.877
 5021SOL    HW115605   2.929   2.559   7.973
 5021SOL    HW215606   2.818   2.512   7.863
 5022SOL     OW15607   1.938   2.673   8.237
 5022SOL    HW115608   2.037   2.661   8.246
 5022SOL    HW215609   1.914   2.768   8.258
 5023SOL     OW15610   1.992   3.683   9.019
 5023SOL    HW115611   1.982   3.668   9.118
 5023SOL    HW215612   1.906   3.719   8.983
 5024SOL     OW15613   2.727   2.210   7.643
 5024SOL    HW115614   2.786   2.273   7.594
 5024SOL    HW215615   2.746   2.116   7.614
 5025SOL     OW15616   3.581   2.447   9.279
 5025SOL    HW115617   3.555   2.536   9.243
 5025SOL    HW215618   3.579   2.379   9.206
 5026SOL     OW15619   3.224   3.006   7.993
 5026SOL    HW115620   3.307   2.977   7.945
 5026SOL    HW215621   3.175   3.073   7.937
 5027SOL     OW15622   2.870   3.318   7.925
 5027SOL    HW115623   2.824   3.390   7.873
 5027SOL    HW215624   2.866   3.338   8.023
 5028SOL     OW15625   2.213   3.663   8.301
 5028SOL    HW115626   2.263   3.577   8.307
 5028SOL    HW215627   2.278   3.740   8.298
 5029SOL     OW15628   3.657   2.928   8.321
 5029SOL    HW115629   3.595   2.913   8.245
 5029SOL    HW215630   3.605   2.939   8.406
 5030SOL     OW15631   3.089   3.412   8.954
 5030SOL    HW115632   3.095   3.335   9.018
 5030SOL    HW215633   3.037   3.386   8.874
 5031SOL     OW15634   2.183   2.805   7.690
 5031SOL    HW115635   2.265   2.844   7.648
 5031SOL    HW215636   2.156   2.723   7.641
 5032SOL     OW15637   3.320   2.597   8.176
 5032SOL    HW115638   3.315   2.532   8.251
 5032SOL    HW215639   3.400   2.656   8.189
 5033SOL     OW15640   2.323   3.128   9.175
 5033SOL    HW115641   2.273   3.129   9.089
 5033SOL    HW215642   2.260   3.110   9.251
 5034SOL     OW15643   2.973   3.638   7.685
 5034SOL    HW115644   2.913   3.576   7.735
 5034SOL    HW215645   3.004   3.594   7.600
 5035SOL     OW15646   2.064   2.147   8.946
 5035SOL    HW115647   1.984   2.207   8.933
 5035SOL    HW215648   2.054   2.098   9.032
 5036SOL     OW15649   3.494   3.239   7.529
 5036SOL    HW115650   3.462   3.333   7.519
 5036SOL    HW215651   3.418   3.176   7.517
 5037SOL     OW15652   2.326   3.605   7.771
 5037SOL    HW115653   2.359   3.644   7.857
 5037SOL    HW215654   2.402   3.598   7.706
 5038SOL     OW15655   3.262   1.969   7.874
 5038SOL    HW115656   3.238   1.932   7.784
 5038SOL    HW215657   3.361   1.985   7.878
 5039SOL     OW15658   2.111   3.647   8.689
 5039SOL    HW115659   2.168   3.582   8.739
 5039SOL    HW215660   2.095   3.614   8.596
 5040SOL     OW15661   2.802   3.560   8.352
 5040SOL    HW115662   2.882   3.503   8.373
 5040SOL    HW215663   2.753   3.520   8.275
 5041SOL     OW15664   3.409   2.084   9.177
 5041SOL    HW115665   3.404   2.121   9.269
 5041SOL    HW215666   3.337   2.015   9.165
 5042SOL     OW15667   2.476   1.984   7.565
 5042SOL    HW115668   2.574   1.962   7.572
 5042SOL    HW215669   2.445   1.967   7.472
 5043SOL     OW15670   2.643   2.126   9.197
 5043SOL    HW115671   2.710   2.065   9.240
 5043SOL    HW215672   2.570   2.145   9.262
 5044SOL     OW15673   2.750   3.376   8.643
 5044SOL    HW115674   2.727   3.351   8.549
 5044SOL    HW215675   2.811   3.307   8.682
 5045SOL     OW15676   3.213   2.452   8.881
 5045SOL    HW115677   3.241   2.409   8.966
 5045SOL    HW215678   3.238   2.548   8.882
 5046SOL     OW15679   2.665   3.264   8.372
 5046SOL    HW115680   2.755   3.278   8.330
 5046SOL    HW215681   2.594   3.266   8.301
 5047SOL     OW15682   2.784   2.365   8.347
 5047SOL    HW115683   2.759   2.356   8.251
 5047SOL    HW215684   2.832   2.283   8.378
 5048SOL     OW15685   2.401   1.926   7.960
 5048SOL    HW115686   2.320   1.927   8.018
 5048SOL    HW215687   2.404   2.009   7.905
 5049SOL     OW15688   3.296   3.050   7.489
 5049SOL    HW115689   3.328   2.974   7.546
 5049SOL    HW215690   3.204   3.077   7.519
 5050SOL     OW15691   2.159   1.897   7.619
 5050SOL    HW115692   2.208   1.981   7.598
 5050SOL    HW215693   2.221   1.832   7.664
 5051SOL     OW15694   2.797   2.098   7.928
 5051SOL    HW115695   2.749   2.139   7.850
 5051SOL    HW215696   2.896   2.096   7.909
 5052SOL     OW15697   2.938   2.545   8.912
 5052SOL    HW115698   2.858   2.484   8.915
 5052SOL    HW215699   3.019   2.492   8.888
 5053SOL     OW15700   3.089   3.432   8.241
 5053SOL    HW115701   3.110   3.506   8.176
 5053SOL    HW215702   3.157   3.432   8.314
 5054SOL     OW15703   2.321   3.014   8.189
 5054SOL    HW115704   2.250   2.987   8.254
 5054SOL    HW215705   2.295   2.986   8.096
 5055SOL     OW15706   3.133   3.659   8.039
 5055SOL    HW115707   3.177   3.723   7.975
 5055SOL    HW215708   3.083   3.711   8.109
 5056SOL     OW15709   2.894   2.411   7.464
 5056SOL    HW115710   2.853   2.493   7.425
 5056SOL    HW215711   2.958   2.437   7.537
 5057SOL     OW15712   1.940   2.418   8.834
 5057SOL    HW115713   2.032   2.417   8.793
 5057SOL    HW215714   1.934   2.492   8.901
 5058SOL     OW15715   2.728   2.316   8.090
 5058SOL    HW115716   2.696   2.388   8.028
 5058SOL    HW215717   2.752   2.235   8.037
 5059SOL     OW15718   2.879   1.901   8.201
 5059SOL    HW115719   2.807   1.906   8.132
 5059SOL    HW215720   2.855   1.832   8.270
 5060SOL     OW15721   3.291   3.035   8.315
 5060SOL    HW115722   3.236   2.951   8.308
 5060SOL    HW215723   3.317   3.064   8.223
 5061SOL     OW15724   3.328   2.452   8.440
 5061SOL    HW115725   3.298   2.357   8.447
 5061SOL    HW215726   3.401   2.468   8.506
 5062SOL     OW15727   3.719   2.695   7.825
 5062SOL    HW115728   3.761   2.631   7.889
 5062SOL    HW215729   3.681   2.644   7.747
 5063SOL     OW15730   2.350   3.247   7.622
 5063SOL    HW115731   2.263   3.232   7.669
 5063SOL    HW215732   2.333   3.273   7.527
 5064SOL     OW15733   3.526   3.142   8.105
 5064SOL    HW115734   3.625   3.150   8.119
 5064SOL    HW215735   3.481   3.226   8.136
 5065SOL     OW15736   3.252   2.437   7.526
 5065SOL    HW115737   3.198   2.416   7.607
 5065SOL    HW215738   3.343   2.396   7.535
 5066SOL     OW15739   3.616   3.085   9.036
 5066SOL    HW115740   3.707   3.046   9.023
 5066SOL    HW215741   3.624   3.181   9.060
 5067SOL     OW15742   2.926   3.209   8.788
 5067SOL    HW115743   2.846   3.186   8.843
 5067SOL    HW215744   3.009   3.183   8.837
 5068SOL     OW15745   3.454   3.491   9.073
 5068SOL    HW115746   3.481   3.525   8.983
 5068SOL    HW215747   3.533   3.453   9.119
 5069SOL     OW15748   2.973   3.057   8.548
 5069SOL    HW115749   2.933   3.101   8.629
 5069SOL    HW215750   2.932   3.094   8.465
 5070SOL     OW15751   3.500   2.961   8.527
 5070SOL    HW115752   3.505   3.042   8.586
 5070SOL    HW215753   3.414   2.963   8.476
 5071SOL     OW15754   2.777   1.951   8.850
 5071SOL    HW115755   2.802   1.931   8.755
 5071SOL    HW215756   2.849   2.007   8.892
 5072SOL     OW15757   2.842   2.978   9.167
 5072SOL    HW115758   2.743   2.984   9.177
 5072SOL    HW215759   2.865   2.898   9.111
 5073SOL     OW15760   2.567   2.912   7.816
 5073SOL    HW115761   2.553   2.919   7.915
 5073SOL    HW215762   2.651   2.861   7.798
 5074SOL     OW15763   2.272   2.675   8.699
 5074SOL    HW115764   2.358   2.687   8.749
 5074SOL    HW215765   2.230   2.588   8.726
 5075SOL     OW15766   3.136   2.248   8.710
 5075SOL    HW115767   3.157   2.322   8.774
 5075SOL    HW215768   3.047   2.265   8.667
 5076SOL     OW15769   1.926   3.426   8.779
 5076SOL    HW115770   1.880   3.508   8.745
 5076SOL    HW215771   2.024   3.445   8.788
 5077SOL     OW15772   2.229   2.962   7.949
 5077SOL    HW115773   2.222   3.045   7.893
 5077SOL    HW215774   2.233   2.882   7.889
 5078SOL     OW15775   3.114   3.210   7.836
 5078SOL    HW115776   3.164   3.287   7.876
 5078SOL    HW215777   3.019   3.212   7.868
 5079SOL     OW15778   3.134   3.307   8.590
 5079SOL    HW115779   3.181   3.320   8.677
 5079SOL    HW215780   3.068   3.233   8.599
 5080SOL     OW15781   3.444   2.501   7.920
 5080SOL    HW115782   3.413   2.562   7.993
 5080SOL    HW215783   3.494   2.553   7.851
 5081SOL     OW15784   2.216   3.372   8.777
 5081SOL    HW115785   2.195   3.328   8.690
 5081SOL    HW215786   2.313   3.398   8.780
 5082SOL     OW15787   2.264   2.613   9.046
 5082SOL    HW115788   2.332   2.668   8.999
 5082SOL    HW215789   2.304   2.525   9.073
 5083SOL     OW15790   3.449   2.641   9.118
 5083SOL    HW115791   3.357   2.679   9.113
 5083SOL    HW215792   3.509   2.688   9.053
 5084SOL     OW15793   2.875   1.967   9.218
 5084SOL    HW115794   2.881   2.052   9.166
 5084SOL    HW215795   2.907   1.891   9.161
 5085SOL     OW15796   2.366   1.912   9.188
 5085SOL    HW115797   2.324   1.855   9.118
 5085SOL    HW215798   2.300   1.981   9.220
 5086SOL     OW15799   2.435   2.732   8.477
 5086SOL    HW115800   2.479   2.821   8.468
 5086SOL    HW215801   2.372   2.732   8.554
 5087SOL     OW15802   3.222   2.724   8.493
 5087SOL    HW115803   3.147   2.724   8.427
 5087SOL    HW215804   3.259   2.632   8.502
 5088SOL     OW15805   3.071   2.387   7.723
 5088SOL    HW115806   3.084   2.303   7.777
 5088SOL    HW215807   3.042   2.461   7.783
 5089SOL     OW15808   1.899   3.172   8.730
 5089SOL    HW115809   1.952   3.123   8.798
 5089SOL    HW215810   1.921   3.270   8.735
 5090SOL     OW15811   2.594   2.496   8.512
 5090SOL    HW115812   2.653   2.470   8.436
 5090SOL    HW215813   2.566   2.592   8.501
 5091SOL     OW15814   3.590   2.797   9.302
 5091SOL    HW115815   3.544   2.790   9.213
 5091SOL    HW215816   3.528   2.841   9.368
 5092SOL     OW15817   2.169   1.925   8.066
 5092SOL    HW115818   2.158   2.019   8.099
 5092SOL    HW215819   2.164   1.862   8.143
 5093SOL     OW15820   3.484   2.229   7.822
 5093SOL    HW115821   3.486   2.153   7.886
 5093SOL    HW215822   3.436   2.306   7.862
 5094SOL     OW15823   2.885   2.628   8.414
 5094SOL    HW115824   2.900   2.649   8.510
 5094SOL    HW215825   2.855   2.533   8.405
 5095SOL     OW15826   2.842   3.435   9.148
 5095SOL    HW115827   2.822   3.479   9.060
 5095SOL    HW215828   2.881   3.344   9.132
 5096SOL     OW15829   3.721   3.380   9.053
 5096SOL    HW115830   3.735   3.407   8.958
 5096SOL    HW215831   3.804   3.402   9.106
 5097SOL     OW15832   2.212   2.760   9.252
 5097SOL    HW115833   2.288   2.804   9.300
 5097SOL    HW215834   2.247   2.713   9.170
 5098SOL     OW15835   3.402   2.136   7.573
 5098SOL    HW115836   3.341   2.061   7.596
 5098SOL    HW215837   3.424   2.188   7.656
 5099SOL     OW15838   3.165   2.700   7.490
 5099SOL    HW115839   3.199   2.607   7.505
 5099SOL    HW215840   3.183   2.727   7.395
 5100SOL     OW15841   2.930   3.195   8.297
 5100SOL    HW115842   2.937   3.111   8.242
 5100SOL    HW215843   2.992   3.264   8.261
 5101SOL     OW15844   2.181   2.672   8.397
 5101SOL    HW115845   2.274   2.708   8.402
 5101SOL    HW215846   2.175   2.587   8.449
 5102SOL     OW15847   3.000   2.242   9.126
 5102SOL    HW115848   2.955   2.305   9.190
 5102SOL    HW215849   3.093   2.273   9.109
 5103SOL     OW15850   3.022   2.069   8.925
 5103SOL    HW115851   3.022   2.133   9.002
 5103SOL    HW215852   3.050   2.117   8.842
 5104SOL     OW15853   1.870   3.188   7.648
 5104SOL    HW115854   1.777   3.209   7.617
 5104SOL    HW215855   1.880   3.089   7.661
 5105SOL     OW15856   1.950   3.663   8.375
 5105SOL    HW115857   1.908   3.577   8.348
 5105SOL    HW215858   2.044   3.666   8.341
 5106SOL     OW15859   2.366   3.430   8.358
 5106SOL    HW115860   2.432   3.504   8.367
 5106SOL    HW215861   2.410   3.351   8.316
 5107SOL     OW15862   2.864   2.658   8.686
 5107SOL    HW115863   2.905   2.626   8.772
 5107SOL    HW215864   2.768   2.631   8.683
 5108SOL     OW15865   1.902   2.406   8.562
 5108SOL    HW115866   1.987   2.373   8.521
 5108SOL    HW215867   1.915   2.421   8.660
 5109SOL     OW15868   3.231   2.812   9.108
 5109SOL    HW115869   3.270   2.901   9.128
 5109SOL    HW215870   3.241   2.792   9.011
 5110SOL     OW15871   2.677   2.434   7.773
 5110SOL    HW115872   2.684   2.345   7.727
 5110SOL    HW215873   2.583   2.468   7.765
 5111SOL     OW15874   3.519   2.466   8.654
 5111SOL    HW115875   3.481   2.397   8.716
 5111SOL    HW215876   3.601   2.430   8.610
 5112SOL     OW15877   2.114   3.426   9.192
 5112SOL    HW115878   2.084   3.483   9.268
 5112SOL    HW215879   2.107   3.329   9.218
 5113SOL     OW15880   2.792   3.540   8.913
 5113SOL    HW115881   2.768   3.522   8.818
 5113SOL    HW215882   2.822   3.634   8.923
 5114SOL     OW15883   2.021   2.999   8.914
 5114SOL    HW115884   2.043   2.938   8.990
 5114SOL    HW215885   2.031   2.950   8.828
 5115SOL     OW15886   3.209   2.921   8.682
 5115SOL    HW115887   3.233   2.858   8.608
 5115SOL    HW215888   3.119   2.961   8.664
 5116SOL     OW15889   3.164   2.717   7.757
 5116SOL    HW115890   3.078   2.686   7.799
 5116SOL    HW215891   3.160   2.703   7.658
 5117SOL     OW15892   3.621   3.609   8.602
 5117SOL    HW115893   3.682   3.639   8.529
 5117SOL    HW215894   3.583   3.520   8.580
 5118SOL     OW15895   3.114   3.593   8.576
 5118SOL    HW115896   3.198   3.598   8.522
 5118SOL    HW215897   3.091   3.497   8.594
 5119SOL     OW15898   1.945   3.120   8.470
 5119SOL    HW115899   1.940   3.119   8.570
 5119SOL    HW215900   1.862   3.079   8.432
 5120SOL     OW15901   2.550   3.524   9.164
 5120SOL    HW115902   2.494   3.605   9.173
 5120SOL    HW215903   2.602   3.528   9.078
 5121SOL     OW15904   3.588   1.997   7.971
 5121SOL    HW115905   3.661   1.980   7.904
 5121SOL    HW215906   3.557   1.910   8.009
 5122SOL     OW15907   3.250   3.435   7.925
 5122SOL    HW115908   3.317   3.447   7.851
 5122SOL    HW215909   3.210   3.524   7.948
 5123SOL     OW15910   1.992   3.656   9.299
 5123SOL    HW115911   1.951   3.582   9.352
 5123SOL    HW215912   2.056   3.707   9.357
 5124SOL     OW15913   3.142   2.789   8.120
 5124SOL    HW115914   3.202   2.708   8.122
 5124SOL    HW215915   3.182   2.858   8.060
 5125SOL     OW15916   2.692   3.135   8.870
 5125SOL    HW115917   2.687   3.168   8.965
 5125SOL    HW215918   2.606   3.154   8.824
 5126SOL     OW15919   2.534   3.478   7.602
 5126SOL    HW115920   2.543   3.488   7.503
 5126SOL    HW215921   2.494   3.389   7.623
 5127SOL     OW15922   3.512   3.582   8.842
 5127SOL    HW115923   3.565   3.592   8.758
 5127SOL    HW215924   3.485   3.672   8.876
 5128SOL     OW15925   3.703   2.037   8.411
 5128SOL    HW115926   3.742   1.952   8.375
 5128SOL    HW215927   3.605   2.039   8.392
 5129SOL     OW15928   3.056   3.474   7.479
 5129SOL    HW115929   3.062   3.381   7.516
 5129SOL    HW215930   2.997   3.474   7.399
 5130SOL     OW15931   2.684   2.864   8.820
 5130SOL    HW115932   2.724   2.863   8.728
 5130SOL    HW215933   2.694   2.956   8.860
 5131SOL     OW15934   2.778   2.772   7.739
 5131SOL    HW115935   2.841   2.810   7.671
 5131SOL    HW215936   2.818   2.689   7.778
 5132SOL     OW15937   3.366   3.469   7.492
 5132SOL    HW115938   3.274   3.506   7.499
 5132SOL    HW215939   3.404   3.489   7.402
 5133SOL     OW15940   2.234   3.150   8.938
 5133SOL    HW115941   2.221   3.243   8.904
 5133SOL    HW215942   2.150   3.098   8.925
 5134SOL     OW15943   3.476   3.154   8.737
 5134SOL    HW115944   3.536   3.157   8.817
 5134SOL    HW215945   3.401   3.218   8.750
 5135SOL     OW15946   2.901   2.960   8.144
 5135SOL    HW115947   2.831   2.913   8.198
 5135SOL    HW215948   2.960   2.892   8.101
 5136SOL     OW15949   2.876   2.098   8.419
 5136SOL    HW115950   2.868   2.062   8.326
 5136SOL    HW215951   2.874   2.022   8.484
 5137SOL     OW15952   2.452   3.349   7.939
 5137SOL    HW115953   2.494   3.291   7.869
 5137SOL    HW215954   2.408   3.428   7.895
 5138SOL     OW15955   3.571   2.247   8.829
 5138SOL    HW115956   3.644   2.316   8.833
 5138SOL    HW215957   3.599   2.172   8.770
 5139SOL     OW15958   2.117   3.210   7.738
 5139SOL    HW115959   2.021   3.211   7.711
 5139SOL    HW215960   2.129   3.263   7.822
 5140SOL     OW15961   1.967   2.875   9.174
 5140SOL    HW115962   1.890   2.842   9.228
 5140SOL    HW215963   2.052   2.845   9.216
 5141SOL     OW15964   2.534   2.065   8.937
 5141SOL    HW115965   2.624   2.049   8.897
 5141SOL    HW215966   2.542   2.070   9.036
 5142SOL     OW15967   1.937   2.207   7.481
 5142SOL    HW115968   1.845   2.179   7.452
 5142SOL    HW215969   1.968   2.284   7.425
 5143SOL     OW15970   3.302   2.718   8.846
 5143SOL    HW115971   3.245   2.770   8.783
 5143SOL    HW215972   3.398   2.730   8.822
 5144SOL     OW15973   1.934   2.028   7.766
 5144SOL    HW115974   1.917   2.111   7.712
 5144SOL    HW215975   2.024   1.991   7.744
 5145SOL     OW15976   3.045   3.197   7.567
 5145SOL    HW115977   2.946   3.186   7.569
 5145SOL    HW215978   3.079   3.212   7.660
 5146SOL     OW15979   2.475   2.704   8.879
 5146SOL    HW115980   2.531   2.785   8.862
 5146SOL    HW215981   2.534   2.624   8.882
 5147SOL     OW15982   3.355   3.629   8.407
 5147SOL    HW115983   3.388   3.693   8.338
 5147SOL    HW215984   3.421   3.623   8.482
 5148SOL     OW15985   2.578   2.427   9.156
 5148SOL    HW115986   2.597   2.492   9.230
 5148SOL    HW215987   2.638   2.347   9.165
 5149SOL     OW15988   3.312   3.082   9.081
 5149SOL    HW115989   3.303   3.072   9.180
 5149SOL    HW215990   3.408   3.075   9.055
 5150SOL     OW15991   2.252   3.603   9.008
 5150SOL    HW115992   2.161   3.644   9.006
 5150SOL    HW215993   2.245   3.509   9.040
 5151SOL     OW15994   3.536   2.745   8.702
 5151SOL    HW115995   3.509   2.656   8.665
 5151SOL    HW215996   3.537   2.813   8.629
 5152SOL     OW15997   3.087   2.187   7.897
 5152SOL    HW115998   3.152   2.113   7.886
 5152SOL    HW215999   3.107   2.237   7.981
 5153SOL     OW16000   2.456   2.607   8.100
 5153SOL    HW116001   2.506   2.692   8.081
 5153SOL    HW216002   2.368   2.609   8.052
 5154SOL     OW16003   3.639   2.204   9.090
 5154SOL    HW116004   3.622   2.235   8.996
 5154SOL    HW216005   3.555   2.167   9.128
 5155SOL     OW16006   3.592   2.796   8.965
 5155SOL    HW116007   3.630   2.887   8.980
 5155SOL    HW216008   3.584   2.779   8.866
 5156SOL     OW16009   2.721   3.236   7.464
 5156SOL    HW116010   2.675   3.251   7.552
 5156SOL    HW216011   2.765   3.321   7.434
 5157SOL     OW16012   2.523   3.652   8.401
 5157SOL    HW116013   2.477   3.740   8.388
 5157SOL    HW216014   2.622   3.664   8.394
 5158SOL     OW16015   2.721   2.818   8.309
 5158SOL    HW116016   2.775   2.749   8.357
 5158SOL    HW216017   2.689   2.887   8.375
 5159SOL     OW16018   2.945   2.846   7.535
 5159SOL    HW116019   2.922   2.899   7.453
 5159SOL    HW216020   3.026   2.790   7.516
 5160SOL     OW16021   3.723   3.431   8.299
 5160SOL    HW116022   3.652   3.419   8.229
 5160SOL    HW216023   3.724   3.352   8.359
 5161SOL     OW16024   2.083   3.176   9.292
 5161SOL    HW116025   2.018   3.103   9.271
 5161SOL    HW216026   2.087   3.190   9.390
 5162SOL     OW16027   1.941   3.102   8.101
 5162SOL    HW116028   1.940   3.055   8.189
 5162SOL    HW216029   2.023   3.074   8.050
 5163SOL     OW16030   2.534   3.253   9.072
 5163SOL    HW116031   2.456   3.203   9.110
 5163SOL    HW216032   2.531   3.348   9.103
 5164SOL     OW16033   3.686   2.054   8.675
 5164SOL    HW116034   3.682   1.964   8.719
 5164SOL    HW216035   3.689   2.043   8.576
 5165SOL     OW16036   3.567   3.349   8.552
 5165SOL    HW116037   3.474   3.324   8.525
 5165SOL    HW216038   3.593   3.299   8.634
 5166SOL     OW16039   2.674   3.448   8.135
 5166SOL    HW116040   2.706   3.458   8.041
 5166SOL    HW216041   2.595   3.386   8.137
 5167SOL     OW16042   3.286   2.076   8.560
 5167SOL    HW116043   3.338   2.011   8.615
 5167SOL    HW216044   3.237   2.139   8.621
 5168SOL     OW16045   2.863   1.896   8.602
 5168SOL    HW116046   2.800   1.824   8.571
 5168SOL    HW216047   2.956   1.860   8.602
 5169SOL     OW16048   2.632   3.192   7.749
 5169SOL    HW116049   2.586   3.105   7.766
 5169SOL    HW216050   2.723   3.189   7.790
 5170SOL     OW16051   2.480   3.429   8.732
 5170SOL    HW116052   2.475   3.511   8.789
 5170SOL    HW216053   2.569   3.426   8.687
 5171SOL     OW16054   3.214   1.914   7.616
 5171SOL    HW116055   3.249   1.873   7.532
 5171SOL    HW216056   3.124   1.876   7.636
 5172SOL     OW16057   3.162   2.315   8.139
 5172SOL    HW116058   3.103   2.395   8.143
 5172SOL    HW216059   3.177   2.280   8.232
 5173SOL     OW16060   3.455   2.083   8.330
 5173SOL    HW116061   3.371   2.082   8.384
 5173SOL    HW216062   3.457   2.166   8.274
 5174SOL     OW16063   1.901   2.939   7.748
 5174SOL    HW116064   2.000   2.928   7.739
 5174SOL    HW216065   1.861   2.853   7.780
 5175SOL     OW16066   2.737   3.508   7.785
 5175SOL    HW116067   2.660   3.473   7.731
 5175SOL    HW216068   2.705   3.579   7.847
 5176SOL     OW16069   2.092   2.490   9.423
 5176SOL    HW116070   1.999   2.488   9.460
 5176SOL    HW216071   2.093   2.451   9.331
 5177SOL     OW16072   1.881   2.230   9.957
 5177SOL    HW116073   1.799   2.273   9.996
 5177SOL    HW216074   1.853   2.157   9.894
 5178SOL     OW16075   2.431   3.137  10.475
 5178SOL    HW116076   2.338   3.130  10.438
 5178SOL    HW216077   2.442   3.226  10.519
 5179SOL     OW16078   3.417   3.373  10.013
 5179SOL    HW116079   3.360   3.357  10.094
 5179SOL    HW216080   3.358   3.383   9.933
 5180SOL     OW16081   2.997   2.565  10.027
 5180SOL    HW116082   3.054   2.643  10.002
 5180SOL    HW216083   2.937   2.591  10.103
 5181SOL     OW16084   3.617   2.469   9.541
 5181SOL    HW116085   3.605   2.456   9.442
 5181SOL    HW216086   3.587   2.388   9.590
 5182SOL     OW16087   2.630   3.006  10.333
 5182SOL    HW116088   2.552   3.023  10.393
 5182SOL    HW216089   2.664   3.093  10.297
 5183SOL     OW16090   2.712   2.660  11.133
 5183SOL    HW116091   2.708   2.736  11.198
 5183SOL    HW216092   2.734   2.696  11.042
 5184SOL     OW16093   2.547   2.874   9.975
 5184SOL    HW116094   2.616   2.858  10.045
 5184SOL    HW216095   2.474   2.931  10.013
 5185SOL     OW16096   2.197   3.297  10.371
 5185SOL    HW116097   2.119   3.266  10.318
 5185SOL    HW216098   2.255   3.355  10.314
 5186SOL     OW16099   3.322   3.367  10.649
 5186SOL    HW116100   3.346   3.461  10.675
 5186SOL    HW216101   3.306   3.313  10.731
 5187SOL     OW16102   3.465   2.309  10.047
 5187SOL    HW116103   3.391   2.355   9.997
 5187SOL    HW216104   3.516   2.377  10.100
 5188SOL     OW16105   2.093   3.575   9.793
 5188SOL    HW116106   2.127   3.652   9.847
 5188SOL    HW216107   2.137   3.575   9.703
 5189SOL     OW16108   2.092   3.296   9.848
 5189SOL    HW116109   2.066   3.392   9.848
 5189SOL    HW216110   2.021   3.242   9.893
 5190SOL     OW16111   2.102   2.953  10.196
 5190SOL    HW116112   2.116   2.869  10.248
 5190SOL    HW216113   2.047   3.017  10.251
 5191SOL     OW16114   2.482   3.648  10.749
 5191SOL    HW116115   2.390   3.631  10.784
 5191SOL    HW216116   2.510   3.740  10.775
 5192SOL     OW16117   2.468   2.826   9.433
 5192SOL    HW116118   2.475   2.910   9.379
 5192SOL    HW216119   2.514   2.839   9.521
 5193SOL     OW16120   3.456   1.976  10.790
 5193SOL    HW116121   3.438   2.043  10.718
 5193SOL    HW216122   3.453   2.022  10.879
 5194SOL     OW16123   1.984   2.505   9.873
 5194SOL    HW116124   1.939   2.417   9.890
 5194SOL    HW216125   1.983   2.559   9.957
 5195SOL     OW16126   3.704   3.629   9.669
 5195SOL    HW116127   3.758   3.600   9.749
 5195SOL    HW216128   3.734   3.719   9.640
 5196SOL     OW16129   1.889   3.458   9.427
 5196SOL    HW116130   1.870   3.362   9.448
 5196SOL    HW216131   1.856   3.516   9.502
 5197SOL     OW16132   3.551   2.784   9.922
 5197SOL    HW116133   3.646   2.755   9.930
 5197SOL    HW216134   3.543   2.849   9.847
 5198SOL     OW16135   3.503   2.970   9.742
 5198SOL    HW116136   3.589   2.972   9.690
 5198SOL    HW216137   3.517   3.017   9.830
 5199SOL     OW16138   1.975   2.599  10.907
 5199SOL    HW116139   2.063   2.586  10.952
 5199SOL    HW216140   1.962   2.696  10.885
 5200SOL     OW16141   2.475   3.227  10.036
 5200SOL    HW116142   2.426   3.140  10.045
 5200SOL    HW216143   2.452   3.270   9.949
 5201SOL     OW16144   3.155   3.090  10.733
 5201SOL    HW116145   3.192   3.017  10.675
 5201SOL    HW216146   3.207   3.095  10.818
 5202SOL     OW16147   2.671   1.866   9.812
 5202SOL    HW116148   2.711   1.957   9.803
 5202SOL    HW216149   2.571   1.874   9.818
 5203SOL     OW16150   2.059   2.838  10.574
 5203SOL    HW116151   2.148   2.793  10.560
 5203SOL    HW216152   1.986   2.773  10.555
 5204SOL     OW16153   3.387   2.861   9.500
 5204SOL    HW116154   3.324   2.785   9.513
 5204SOL    HW216155   3.435   2.879   9.586
 5205SOL     OW16156   3.049   3.654  10.926
 5205SOL    HW116157   3.073   3.714  10.850
 5205SOL    HW216158   3.056   3.559  10.896
 5206SOL     OW16159   3.328   3.279  10.263
 5206SOL    HW116160   3.269   3.285  10.343
 5206SOL    HW216161   3.313   3.191  10.217
 5207SOL     OW16162   3.529   3.576   9.882
 5207SOL    HW116163   3.488   3.553   9.794
 5207SOL    HW216164   3.511   3.502   9.947
 5208SOL     OW16165   2.460   2.591   9.580
 5208SOL    HW116166   2.484   2.660   9.512
 5208SOL    HW216167   2.382   2.624   9.634
 5209SOL     OW16168   3.143   2.207  10.254
 5209SOL    HW116169   3.057   2.157  10.241
 5209SOL    HW216170   3.205   2.153  10.310
 5210SOL     OW16171   3.438   3.524   9.617
 5210SOL    HW116172   3.527   3.570   9.620
 5210SOL    HW216173   3.417   3.500   9.522
 5211SOL     OW16174   2.669   2.467  10.775
 5211SOL    HW116175   2.622   2.464  10.864
 5211SOL    HW216176   2.618   2.412  10.709
 5212SOL     OW16177   2.835   2.752  10.882
 5212SOL    HW116178   2.881   2.668  10.853
 5212SOL    HW216179   2.779   2.786  10.807
 5213SOL     OW16180   2.853   2.272  10.552
 5213SOL    HW116181   2.776   2.306  10.606
 5213SOL    HW216182   2.819   2.221  10.473
 5214SOL     OW16183   2.903   2.563   9.739
 5214SOL    HW116184   2.929   2.559   9.835
 5214SOL    HW216185   2.818   2.512   9.725
 5215SOL     OW16186   1.938   2.673  10.099
 5215SOL    HW116187   2.037   2.661  10.108
 5215SOL    HW216188   1.914   2.768  10.120
 5216SOL     OW16189   1.992   3.683  10.881
 5216SOL    HW116190   1.982   3.668  10.980
 5216SOL    HW216191   1.906   3.719  10.845
 5217SOL     OW16192   2.727   2.210   9.505
 5217SOL    HW116193   2.786   2.273   9.456
 5217SOL    HW216194   2.746   2.116   9.476
 5218SOL     OW16195   3.224   3.006   9.855
 5218SOL    HW116196   3.307   2.977   9.807
 5218SOL    HW216197   3.175   3.073   9.799
 5219SOL     OW16198   2.870   3.318   9.787
 5219SOL    HW116199   2.824   3.390   9.735
 5219SOL    HW216200   2.866   3.338   9.885
 5220SOL     OW16201   2.213   3.663  10.163
 5220SOL    HW116202   2.263   3.577  10.169
 5220SOL    HW216203   2.278   3.740  10.160
 5221SOL     OW16204   3.657   2.928  10.183
 5221SOL    HW116205   3.595   2.913  10.107
 5221SOL    HW216206   3.605   2.939  10.268
 5222SOL     OW16207   3.089   3.412  10.816
 5222SOL    HW116208   3.095   3.335  10.880
 5222SOL    HW216209   3.037   3.386  10.736
 5223SOL     OW16210   2.183   2.805   9.552
 5223SOL    HW116211   2.265   2.844   9.510
 5223SOL    HW216212   2.156   2.723   9.503
 5224SOL     OW16213   3.320   2.597  10.038
 5224SOL    HW116214   3.315   2.532  10.113
 5224SOL    HW216215   3.400   2.656  10.051
 5225SOL     OW16216   2.323   3.128  11.037
 5225SOL    HW116217   2.273   3.129  10.951
 5225SOL    HW216218   2.260   3.110  11.113
 5226SOL     OW16219   2.973   3.638   9.547
 5226SOL    HW116220   2.913   3.576   9.597
 5226SOL    HW216221   3.004   3.594   9.462
 5227SOL     OW16222   3.494   3.239   9.391
 5227SOL    HW116223   3.462   3.333   9.381
 5227SOL    HW216224   3.418   3.176   9.379
 5228SOL     OW16225   2.326   3.605   9.633
 5228SOL    HW116226   2.359   3.644   9.719
 5228SOL    HW216227   2.402   3.598   9.568
 5229SOL     OW16228   3.262   1.969   9.736
 5229SOL    HW116229   3.238   1.932   9.646
 5229SOL    HW216230   3.361   1.985   9.740
 5230SOL     OW16231   2.111   3.647  10.551
 5230SOL    HW116232   2.168   3.582  10.601
 5230SOL    HW216233   2.095   3.614  10.458
 5231SOL     OW16234   2.802   3.560  10.214
 5231SOL    HW116235   2.882   3.503  10.235
 5231SOL    HW216236   2.753   3.520  10.137
 5232SOL     OW16237   2.476   1.984   9.427
 5232SOL    HW116238   2.574   1.962   9.434
 5232SOL    HW216239   2.445   1.967   9.334
 5233SOL     OW16240   2.643   2.126  11.059
 5233SOL    HW116241   2.710   2.065  11.102
 5233SOL    HW216242   2.570   2.145  11.124
 5234SOL     OW16243   2.750   3.376  10.505
 5234SOL    HW116244   2.727   3.351  10.411
 5234SOL    HW216245   2.811   3.307  10.544
 5235SOL     OW16246   3.213   2.452  10.743
 5235SOL    HW116247   3.241   2.409  10.828
 5235SOL    HW216248   3.238   2.548  10.744
 5236SOL     OW16249   2.665   3.264  10.234
 5236SOL    HW116250   2.755   3.278  10.192
 5236SOL    HW216251   2.594   3.266  10.163
 5237SOL     OW16252   2.784   2.365  10.209
 5237SOL    HW116253   2.759   2.356  10.113
 5237SOL    HW216254   2.832   2.283  10.240
 5238SOL     OW16255   2.401   1.926   9.822
 5238SOL    HW116256   2.320   1.927   9.880
 5238SOL    HW216257   2.404   2.009   9.767
 5239SOL     OW16258   3.296   3.050   9.351
 5239SOL    HW116259   3.328   2.974   9.408
 5239SOL    HW216260   3.204   3.077   9.381
 5240SOL     OW16261   2.159   1.897   9.481
 5240SOL    HW116262   2.208   1.981   9.460
 5240SOL    HW216263   2.221   1.832   9.526
 5241SOL     OW16264   2.797   2.098   9.790
 5241SOL    HW116265   2.749   2.139   9.712
 5241SOL    HW216266   2.896   2.096   9.771
 5242SOL     OW16267   2.938   2.545  10.774
 5242SOL    HW116268   2.858   2.484  10.777
 5242SOL    HW216269   3.019   2.492  10.750
 5243SOL     OW16270   3.089   3.432  10.103
 5243SOL    HW116271   3.110   3.506  10.038
 5243SOL    HW216272   3.157   3.432  10.176
 5244SOL     OW16273   2.321   3.014  10.051
 5244SOL    HW116274   2.250   2.987  10.116
 5244SOL    HW216275   2.295   2.986   9.958
 5245SOL     OW16276   3.133   3.659   9.901
 5245SOL    HW116277   3.177   3.723   9.837
 5245SOL    HW216278   3.083   3.711   9.971
 5246SOL     OW16279   2.894   2.411   9.326
 5246SOL    HW116280   2.853   2.493   9.287
 5246SOL    HW216281   2.958   2.437   9.399
 5247SOL     OW16282   1.940   2.418  10.696
 5247SOL    HW116283   2.032   2.417  10.655
 5247SOL    HW216284   1.934   2.492  10.763
 5248SOL     OW16285   2.423   2.084  10.457
 5248SOL    HW116286   2.461   2.000  10.494
 5248SOL    HW216287   2.335   2.103  10.501
 5249SOL     OW16288   2.728   2.316   9.952
 5249SOL    HW116289   2.696   2.388   9.890
 5249SOL    HW216290   2.752   2.235   9.899
 5250SOL     OW16291   2.879   1.901  10.063
 5250SOL    HW116292   2.807   1.906   9.994
 5250SOL    HW216293   2.855   1.832  10.132
 5251SOL     OW16294   3.291   3.035  10.177
 5251SOL    HW116295   3.236   2.951  10.170
 5251SOL    HW216296   3.317   3.064  10.085
 5252SOL     OW16297   3.328   2.452  10.302
 5252SOL    HW116298   3.298   2.357  10.309
 5252SOL    HW216299   3.401   2.468  10.368
 5253SOL     OW16300   3.719   2.695   9.687
 5253SOL    HW116301   3.761   2.631   9.751
 5253SOL    HW216302   3.681   2.644   9.609
 5254SOL     OW16303   2.350   3.247   9.484
 5254SOL    HW116304   2.263   3.232   9.531
 5254SOL    HW216305   2.333   3.273   9.389
 5255SOL     OW16306   3.526   3.142   9.967
 5255SOL    HW116307   3.625   3.150   9.981
 5255SOL    HW216308   3.481   3.226   9.998
 5256SOL     OW16309   3.252   2.437   9.388
 5256SOL    HW116310   3.198   2.416   9.469
 5256SOL    HW216311   3.343   2.396   9.397
 5257SOL     OW16312   3.616   3.085  10.898
 5257SOL    HW116313   3.707   3.046  10.885
 5257SOL    HW216314   3.624   3.181  10.922
 5258SOL     OW16315   2.926   3.209  10.650
 5258SOL    HW116316   2.846   3.186  10.705
 5258SOL    HW216317   3.009   3.183  10.699
 5259SOL     OW16318   2.973   3.057  10.410
 5259SOL    HW116319   2.933   3.101  10.491
 5259SOL    HW216320   2.932   3.094  10.327
 5260SOL     OW16321   3.500   2.961  10.389
 5260SOL    HW116322   3.505   3.042  10.448
 5260SOL    HW216323   3.414   2.963  10.338
 5261SOL     OW16324   2.777   1.951  10.712
 5261SOL    HW116325   2.802   1.931  10.617
 5261SOL    HW216326   2.849   2.007  10.754
 5262SOL     OW16327   2.567   2.912   9.678
 5262SOL    HW116328   2.553   2.919   9.777
 5262SOL    HW216329   2.651   2.861   9.660
 5263SOL     OW16330   2.272   2.675  10.561
 5263SOL    HW116331   2.358   2.687  10.611
 5263SOL    HW216332   2.230   2.588  10.588
 5264SOL     OW16333   3.136   2.248  10.572
 5264SOL    HW116334   3.157   2.322  10.636
 5264SOL    HW216335   3.047   2.265  10.529
 5265SOL     OW16336   1.926   3.426  10.641
 5265SOL    HW116337   1.880   3.508  10.607
 5265SOL    HW216338   2.024   3.445  10.650
 5266SOL     OW16339   2.229   2.962   9.811
 5266SOL    HW116340   2.222   3.045   9.755
 5266SOL    HW216341   2.233   2.882   9.751
 5267SOL     OW16342   2.428   2.399  10.175
 5267SOL    HW116343   2.440   2.465  10.101
 5267SOL    HW216344   2.474   2.433  10.258
 5268SOL     OW16345   3.114   3.210   9.698
 5268SOL    HW116346   3.164   3.287   9.738
 5268SOL    HW216347   3.019   3.212   9.730
 5269SOL     OW16348   3.134   3.307  10.452
 5269SOL    HW116349   3.181   3.320  10.539
 5269SOL    HW216350   3.068   3.233  10.461
 5270SOL     OW16351   3.444   2.501   9.782
 5270SOL    HW116352   3.413   2.562   9.855
 5270SOL    HW216353   3.494   2.553   9.713
 5271SOL     OW16354   2.216   3.372  10.639
 5271SOL    HW116355   2.195   3.328  10.552
 5271SOL    HW216356   2.313   3.398  10.642
 5272SOL     OW16357   2.264   2.613  10.908
 5272SOL    HW116358   2.332   2.668  10.861
 5272SOL    HW216359   2.304   2.525  10.935
 5273SOL     OW16360   3.449   2.641  10.980
 5273SOL    HW116361   3.357   2.679  10.975
 5273SOL    HW216362   3.509   2.688  10.915
 5274SOL     OW16363   2.435   2.732  10.339
 5274SOL    HW116364   2.479   2.821  10.330
 5274SOL    HW216365   2.372   2.732  10.416
 5275SOL     OW16366   3.222   2.724  10.355
 5275SOL    HW116367   3.147   2.724  10.289
 5275SOL    HW216368   3.259   2.632  10.364
 5276SOL     OW16369   3.071   2.387   9.585
 5276SOL    HW116370   3.084   2.303   9.639
 5276SOL    HW216371   3.042   2.461   9.645
 5277SOL     OW16372   1.899   3.172  10.592
 5277SOL    HW116373   1.952   3.123  10.660
 5277SOL    HW216374   1.921   3.270  10.597
 5278SOL     OW16375   2.594   2.496  10.374
 5278SOL    HW116376   2.653   2.470  10.298
 5278SOL    HW216377   2.566   2.592  10.363
 5279SOL     OW16378   2.169   1.925   9.928
 5279SOL    HW116379   2.158   2.019   9.961
 5279SOL    HW216380   2.164   1.862  10.005
 5280SOL     OW16381   3.484   2.229   9.684
 5280SOL    HW116382   3.486   2.153   9.748
 5280SOL    HW216383   3.436   2.306   9.724
 5281SOL     OW16384   2.885   2.628  10.276
 5281SOL    HW116385   2.900   2.649  10.372
 5281SOL    HW216386   2.855   2.533  10.267
 5282SOL     OW16387   2.842   3.435  11.010
 5282SOL    HW116388   2.822   3.479  10.922
 5282SOL    HW216389   2.881   3.344  10.994
 5283SOL     OW16390   3.721   3.380  10.915
 5283SOL    HW116391   3.735   3.407  10.820
 5283SOL    HW216392   3.804   3.402  10.968
 5284SOL     OW16393   2.212   2.760  11.114
 5284SOL    HW116394   2.288   2.804  11.162
 5284SOL    HW216395   2.247   2.713  11.032
 5285SOL     OW16396   3.402   2.136   9.435
 5285SOL    HW116397   3.341   2.061   9.458
 5285SOL    HW216398   3.424   2.188   9.518
 5286SOL     OW16399   3.165   2.700   9.352
 5286SOL    HW116400   3.199   2.607   9.367
 5286SOL    HW216401   3.183   2.727   9.257
 5287SOL     OW16402   2.930   3.195  10.159
 5287SOL    HW116403   2.937   3.111  10.104
 5287SOL    HW216404   2.992   3.264  10.123
 5288SOL     OW16405   2.181   2.672  10.259
 5288SOL    HW116406   2.274   2.708  10.264
 5288SOL    HW216407   2.175   2.587  10.311
 5289SOL     OW16408   3.022   2.069  10.787
 5289SOL    HW116409   3.022   2.133  10.864
 5289SOL    HW216410   3.050   2.117  10.704
 5290SOL     OW16411   1.870   3.188   9.510
 5290SOL    HW116412   1.777   3.209   9.479
 5290SOL    HW216413   1.880   3.089   9.523
 5291SOL     OW16414   1.950   3.663  10.237
 5291SOL    HW116415   1.908   3.577  10.210
 5291SOL    HW216416   2.044   3.666  10.203
 5292SOL     OW16417   2.366   3.430  10.220
 5292SOL    HW116418   2.432   3.504  10.229
 5292SOL    HW216419   2.410   3.351  10.178
 5293SOL     OW16420   2.864   2.658  10.548
 5293SOL    HW116421   2.905   2.626  10.634
 5293SOL    HW216422   2.768   2.631  10.545
 5294SOL     OW16423   1.902   2.406  10.424
 5294SOL    HW116424   1.987   2.373  10.383
 5294SOL    HW216425   1.915   2.421  10.522
 5295SOL     OW16426   2.677   2.434   9.635
 5295SOL    HW116427   2.684   2.345   9.589
 5295SOL    HW216428   2.583   2.468   9.627
 5296SOL     OW16429   3.519   2.466  10.516
 5296SOL    HW116430   3.481   2.397  10.578
 5296SOL    HW216431   3.601   2.430  10.472
 5297SOL     OW16432   2.114   3.426  11.054
 5297SOL    HW116433   2.084   3.483  11.130
 5297SOL    HW216434   2.107   3.329  11.080
 5298SOL     OW16435   2.792   3.540  10.775
 5298SOL    HW116436   2.768   3.522  10.680
 5298SOL    HW216437   2.822   3.634  10.785
 5299SOL     OW16438   2.021   2.999  10.776
 5299SOL    HW116439   2.043   2.938  10.852
 5299SOL    HW216440   2.031   2.950  10.690
 5300SOL     OW16441   3.209   2.921  10.544
 5300SOL    HW116442   3.233   2.858  10.470
 5300SOL    HW216443   3.119   2.961  10.526
 5301SOL     OW16444   3.164   2.717   9.619
 5301SOL    HW116445   3.078   2.686   9.661
 5301SOL    HW216446   3.160   2.703   9.520
 5302SOL     OW16447   3.621   3.609  10.464
 5302SOL    HW116448   3.682   3.639  10.391
 5302SOL    HW216449   3.583   3.520  10.442
 5303SOL     OW16450   3.114   3.593  10.438
 5303SOL    HW116451   3.198   3.598  10.384
 5303SOL    HW216452   3.091   3.497  10.456
 5304SOL     OW16453   1.945   3.120  10.332
 5304SOL    HW116454   1.940   3.119  10.432
 5304SOL    HW216455   1.862   3.079  10.294
 5305SOL     OW16456   3.588   1.997   9.833
 5305SOL    HW116457   3.661   1.980   9.766
 5305SOL    HW216458   3.557   1.910   9.871
 5306SOL     OW16459   3.250   3.435   9.787
 5306SOL    HW116460   3.317   3.447   9.713
 5306SOL    HW216461   3.210   3.524   9.810
 5307SOL     OW16462   3.142   2.789   9.982
 5307SOL    HW116463   3.202   2.708   9.984
 5307SOL    HW216464   3.182   2.858   9.922
 5308SOL     OW16465   2.692   3.135  10.732
 5308SOL    HW116466   2.687   3.168  10.827
 5308SOL    HW216467   2.606   3.154  10.686
 5309SOL     OW16468   2.534   3.478   9.464
 5309SOL    HW116469   2.543   3.488   9.365
 5309SOL    HW216470   2.494   3.389   9.485
 5310SOL     OW16471   3.512   3.582  10.704
 5310SOL    HW116472   3.565   3.592  10.620
 5310SOL    HW216473   3.485   3.672  10.738
 5311SOL     OW16474   3.703   2.037  10.273
 5311SOL    HW116475   3.742   1.952  10.237
 5311SOL    HW216476   3.605   2.039  10.254
 5312SOL     OW16477   3.056   3.474   9.341
 5312SOL    HW116478   3.062   3.381   9.378
 5312SOL    HW216479   2.997   3.474   9.261
 5313SOL     OW16480   2.684   2.864  10.682
 5313SOL    HW116481   2.724   2.863  10.590
 5313SOL    HW216482   2.694   2.956  10.722
 5314SOL     OW16483   2.778   2.772   9.601
 5314SOL    HW116484   2.841   2.810   9.533
 5314SOL    HW216485   2.818   2.689   9.640
 5315SOL     OW16486   3.366   3.469   9.354
 5315SOL    HW116487   3.274   3.506   9.361
 5315SOL    HW216488   3.404   3.489   9.264
 5316SOL     OW16489   2.234   3.150  10.800
 5316SOL    HW116490   2.221   3.243  10.766
 5316SOL    HW216491   2.150   3.098  10.787
 5317SOL     OW16492   3.476   3.154  10.599
 5317SOL    HW116493   3.536   3.157  10.679
 5317SOL    HW216494   3.401   3.218  10.612
 5318SOL     OW16495   2.901   2.960  10.006
 5318SOL    HW116496   2.831   2.913  10.060
 5318SOL    HW216497   2.960   2.892   9.963
 5319SOL     OW16498   2.876   2.098  10.281
 5319SOL    HW116499   2.868   2.062  10.188
 5319SOL    HW216500   2.874   2.022  10.346
 5320SOL     OW16501   2.452   3.349   9.801
 5320SOL    HW116502   2.494   3.291   9.731
 5320SOL    HW216503   2.408   3.428   9.757
 5321SOL     OW16504   3.571   2.247  10.691
 5321SOL    HW116505   3.644   2.316  10.695
 5321SOL    HW216506   3.599   2.172  10.632
 5322SOL     OW16507   2.117   3.210   9.600
 5322SOL    HW116508   2.021   3.211   9.573
 5322SOL    HW216509   2.129   3.263   9.684
 5323SOL     OW16510   1.967   2.875  11.036
 5323SOL    HW116511   1.890   2.842  11.090
 5323SOL    HW216512   2.052   2.845  11.078
 5324SOL     OW16513   2.534   2.065  10.799
 5324SOL    HW116514   2.624   2.049  10.759
 5324SOL    HW216515   2.542   2.070  10.898
 5325SOL     OW16516   1.937   2.207   9.343
 5325SOL    HW116517   1.845   2.179   9.314
 5325SOL    HW216518   1.968   2.284   9.287
 5326SOL     OW16519   3.302   2.718  10.708
 5326SOL    HW116520   3.245   2.770  10.645
 5326SOL    HW216521   3.398   2.730  10.684
 5327SOL     OW16522   1.934   2.028   9.628
 5327SOL    HW116523   1.917   2.111   9.574
 5327SOL    HW216524   2.024   1.991   9.606
 5328SOL     OW16525   3.045   3.197   9.429
 5328SOL    HW116526   2.946   3.186   9.431
 5328SOL    HW216527   3.079   3.212   9.522
 5329SOL     OW16528   2.475   2.704  10.741
 5329SOL    HW116529   2.531   2.785  10.724
 5329SOL    HW216530   2.534   2.624  10.744
 5330SOL     OW16531   3.355   3.629  10.269
 5330SOL    HW116532   3.388   3.693  10.200
 5330SOL    HW216533   3.421   3.623  10.344
 5331SOL     OW16534   2.578   2.427  11.018
 5331SOL    HW116535   2.597   2.492  11.092
 5331SOL    HW216536   2.638   2.347  11.027
 5332SOL     OW16537   2.252   3.603  10.870
 5332SOL    HW116538   2.161   3.644  10.868
 5332SOL    HW216539   2.245   3.509  10.902
 5333SOL     OW16540   3.536   2.745  10.564
 5333SOL    HW116541   3.509   2.656  10.527
 5333SOL    HW216542   3.537   2.813  10.491
 5334SOL     OW16543   3.087   2.187   9.759
 5334SOL    HW116544   3.152   2.113   9.748
 5334SOL    HW216545   3.107   2.237   9.843
 5335SOL     OW16546   2.456   2.607   9.962
 5335SOL    HW116547   2.506   2.692   9.943
 5335SOL    HW216548   2.368   2.609   9.914
 5336SOL     OW16549   3.639   2.204  10.952
 5336SOL    HW116550   3.622   2.235  10.858
 5336SOL    HW216551   3.555   2.167  10.990
 5337SOL     OW16552   3.592   2.796  10.827
 5337SOL    HW116553   3.630   2.887  10.842
 5337SOL    HW216554   3.584   2.779  10.728
 5338SOL     OW16555   2.721   3.236   9.326
 5338SOL    HW116556   2.675   3.251   9.414
 5338SOL    HW216557   2.765   3.321   9.296
 5339SOL     OW16558   2.523   3.652  10.263
 5339SOL    HW116559   2.477   3.740  10.250
 5339SOL    HW216560   2.622   3.664  10.256
 5340SOL     OW16561   2.721   2.818  10.171
 5340SOL    HW116562   2.775   2.749  10.219
 5340SOL    HW216563   2.689   2.887  10.237
 5341SOL     OW16564   2.945   2.846   9.397
 5341SOL    HW116565   2.922   2.899   9.315
 5341SOL    HW216566   3.026   2.790   9.378
 5342SOL     OW16567   3.723   3.431  10.161
 5342SOL    HW116568   3.652   3.419  10.091
 5342SOL    HW216569   3.724   3.352  10.221
 5343SOL     OW16570   1.941   3.102   9.963
 5343SOL    HW116571   1.940   3.055  10.051
 5343SOL    HW216572   2.023   3.074   9.912
 5344SOL     OW16573   2.534   3.253  10.934
 5344SOL    HW116574   2.456   3.203  10.972
 5344SOL    HW216575   2.531   3.348  10.965
 5345SOL     OW16576   3.686   2.054  10.537
 5345SOL    HW116577   3.682   1.964  10.581
 5345SOL    HW216578   3.689   2.043  10.438
 5346SOL     OW16579   3.567   3.349  10.414
 5346SOL    HW116580   3.474   3.324  10.387
 5346SOL    HW216581   3.593   3.299  10.496
 5347SOL     OW16582   2.674   3.448   9.997
 5347SOL    HW116583   2.706   3.458   9.903
 5347SOL    HW216584   2.595   3.386   9.999
 5348SOL     OW16585   3.286   2.076  10.422
 5348SOL    HW116586   3.338   2.011  10.477
 5348SOL    HW216587   3.237   2.139  10.483
 5349SOL     OW16588   2.863   1.896  10.464
 5349SOL    HW116589   2.800   1.824  10.433
 5349SOL    HW216590   2.956   1.860  10.464
 5350SOL     OW16591   2.632   3.192   9.611
 5350SOL    HW116592   2.586   3.105   9.628
 5350SOL    HW216593   2.723   3.189   9.652
 5351SOL     OW16594   2.480   3.429  10.594
 5351SOL    HW116595   2.475   3.511  10.651
 5351SOL    HW216596   2.569   3.426  10.549
 5352SOL     OW16597   3.214   1.914   9.478
 5352SOL    HW116598   3.249   1.873   9.394
 5352SOL    HW216599   3.124   1.876   9.498
 5353SOL     OW16600   3.162   2.315  10.001
 5353SOL    HW116601   3.103   2.395  10.005
 5353SOL    HW216602   3.177   2.280  10.094
 5354SOL     OW16603   3.455   2.083  10.192
 5354SOL    HW116604   3.371   2.082  10.246
 5354SOL    HW216605   3.457   2.166  10.136
 5355SOL     OW16606   1.901   2.939   9.610
 5355SOL    HW116607   2.000   2.928   9.601
 5355SOL    HW216608   1.861   2.853   9.642
 5356SOL     OW16609   2.737   3.508   9.647
 5356SOL    HW116610   2.660   3.473   9.593
 5356SOL    HW216611   2.705   3.579   9.709
 5357SOL     OW16612   2.092   4.352   0.113
 5357SOL    HW116613   1.999   4.350   0.150
 5357SOL    HW216614   2.093   4.313   0.021
 5358SOL     OW16615   2.087   3.999   0.996
 5358SOL    HW116616   2.122   3.982   1.088
 5358SOL    HW216617   1.999   3.954   0.984
 5359SOL     OW16618   1.881   4.092   0.647
 5359SOL    HW116619   1.799   4.135   0.686
 5359SOL    HW216620   1.853   4.019   0.584
 5360SOL     OW16621   3.617   4.331   0.231
 5360SOL    HW116622   3.605   4.318   0.132
 5360SOL    HW216623   3.587   4.250   0.280
 5361SOL     OW16624   2.547   4.736   0.665
 5361SOL    HW116625   2.616   4.720   0.735
 5361SOL    HW216626   2.474   4.793   0.703
 5362SOL     OW16627   2.300   4.116   1.499
 5362SOL    HW116628   2.382   4.060   1.508
 5362SOL    HW216629   2.219   4.058   1.503
 5363SOL     OW16630   3.465   4.171   0.737
 5363SOL    HW116631   3.391   4.217   0.687
 5363SOL    HW216632   3.516   4.239   0.790
 5364SOL     OW16633   3.456   3.838   1.480
 5364SOL    HW116634   3.438   3.905   1.408
 5364SOL    HW216635   3.453   3.884   1.569
 5365SOL     OW16636   1.984   4.367   0.563
 5365SOL    HW116637   1.939   4.279   0.580
 5365SOL    HW216638   1.983   4.421   0.647
 5366SOL     OW16639   1.975   4.461   1.597
 5366SOL    HW116640   2.063   4.448   1.642
 5366SOL    HW216641   1.962   4.558   1.575
 5367SOL     OW16642   2.671   3.728   0.502
 5367SOL    HW116643   2.711   3.819   0.493
 5367SOL    HW216644   2.571   3.736   0.508
 5368SOL     OW16645   2.179   3.975   1.801
 5368SOL    HW116646   2.250   4.046   1.807
 5368SOL    HW216647   2.091   4.014   1.829
 5369SOL     OW16648   3.143   4.069   0.944
 5369SOL    HW116649   3.057   4.019   0.931
 5369SOL    HW216650   3.205   4.015   1.000
 5370SOL     OW16651   2.669   4.329   1.465
 5370SOL    HW116652   2.622   4.326   1.554
 5370SOL    HW216653   2.618   4.274   1.399
 5371SOL     OW16654   3.256   4.193   1.674
 5371SOL    HW116655   3.236   4.236   1.762
 5371SOL    HW216656   3.334   4.131   1.683
 5372SOL     OW16657   2.853   4.134   1.242
 5372SOL    HW116658   2.776   4.168   1.296
 5372SOL    HW216659   2.819   4.083   1.163
 5373SOL     OW16660   2.903   4.425   0.429
 5373SOL    HW116661   2.929   4.421   0.525
 5373SOL    HW216662   2.818   4.374   0.415
 5374SOL     OW16663   2.727   4.072   0.195
 5374SOL    HW116664   2.786   4.135   0.146
 5374SOL    HW216665   2.746   3.978   0.166
 5375SOL     OW16666   3.581   4.309   1.831
 5375SOL    HW116667   3.555   4.398   1.795
 5375SOL    HW216668   3.579   4.241   1.758
 5376SOL     OW16669   2.412   3.920   0.885
 5376SOL    HW116670   2.407   3.915   0.985
 5376SOL    HW216671   2.414   4.016   0.856
 5377SOL     OW16672   3.320   4.459   0.728
 5377SOL    HW116673   3.315   4.394   0.803
 5377SOL    HW216674   3.400   4.518   0.741
 5378SOL     OW16675   2.064   4.009   1.498
 5378SOL    HW116676   1.984   4.069   1.485
 5378SOL    HW216677   2.054   3.960   1.584
 5379SOL     OW16678   3.262   3.831   0.426
 5379SOL    HW116679   3.238   3.794   0.336
 5379SOL    HW216680   3.361   3.847   0.430
 5380SOL     OW16681   2.244   4.424   0.480
 5380SOL    HW116682   2.289   4.334   0.477
 5380SOL    HW216683   2.150   4.413   0.513
 5381SOL     OW16684   3.409   3.946   1.729
 5381SOL    HW116685   3.404   3.983   1.821
 5381SOL    HW216686   3.337   3.877   1.717
 5382SOL     OW16687   2.476   3.846   0.117
 5382SOL    HW116688   2.574   3.824   0.124
 5382SOL    HW216689   2.445   3.829   0.024
 5383SOL     OW16690   2.643   3.988   1.749
 5383SOL    HW116691   2.710   3.927   1.792
 5383SOL    HW216692   2.570   4.007   1.814
 5384SOL     OW16693   3.213   4.314   1.433
 5384SOL    HW116694   3.241   4.271   1.518
 5384SOL    HW216695   3.238   4.410   1.434
 5385SOL     OW16696   2.784   4.227   0.899
 5385SOL    HW116697   2.759   4.218   0.803
 5385SOL    HW216698   2.832   4.145   0.930
 5386SOL     OW16699   2.401   3.788   0.512
 5386SOL    HW116700   2.320   3.789   0.570
 5386SOL    HW216701   2.404   3.871   0.457
 5387SOL     OW16702   2.159   3.759   0.171
 5387SOL    HW116703   2.208   3.843   0.150
 5387SOL    HW216704   2.221   3.694   0.216
 5388SOL     OW16705   2.797   3.960   0.480
 5388SOL    HW116706   2.749   4.001   0.402
 5388SOL    HW216707   2.896   3.958   0.461
 5389SOL     OW16708   2.938   4.407   1.464
 5389SOL    HW116709   2.858   4.346   1.467
 5389SOL    HW216710   3.019   4.354   1.440
 5390SOL     OW16711   2.894   4.273   0.016
 5390SOL    HW116712   2.853   4.355  -0.023
 5390SOL    HW216713   2.958   4.299   0.089
 5391SOL     OW16714   1.940   4.280   1.386
 5391SOL    HW116715   2.032   4.279   1.345
 5391SOL    HW216716   1.934   4.354   1.453
 5392SOL     OW16717   2.423   3.946   1.147
 5392SOL    HW116718   2.461   3.862   1.184
 5392SOL    HW216719   2.335   3.965   1.191
 5393SOL     OW16720   2.728   4.178   0.642
 5393SOL    HW116721   2.696   4.250   0.580
 5393SOL    HW216722   2.752   4.097   0.589
 5394SOL     OW16723   2.879   3.763   0.753
 5394SOL    HW116724   2.807   3.768   0.684
 5394SOL    HW216725   2.855   3.694   0.822
 5395SOL     OW16726   3.328   4.314   0.992
 5395SOL    HW116727   3.298   4.219   0.999
 5395SOL    HW216728   3.401   4.330   1.058
 5396SOL     OW16729   3.252   4.299   0.078
 5396SOL    HW116730   3.198   4.278   0.159
 5396SOL    HW216731   3.343   4.258   0.087
 5397SOL     OW16732   2.389   3.980   0.328
 5397SOL    HW116733   2.416   3.921   0.253
 5397SOL    HW216734   2.389   4.075   0.297
 5398SOL     OW16735   2.777   3.813   1.402
 5398SOL    HW116736   2.802   3.793   1.307
 5398SOL    HW216737   2.849   3.869   1.444
 5399SOL     OW16738   2.272   4.537   1.251
 5399SOL    HW116739   2.358   4.549   1.301
 5399SOL    HW216740   2.230   4.450   1.278
 5400SOL     OW16741   3.136   4.110   1.262
 5400SOL    HW116742   3.157   4.184   1.326
 5400SOL    HW216743   3.047   4.127   1.219
 5401SOL     OW16744   2.428   4.261   0.865
 5401SOL    HW116745   2.440   4.327   0.791
 5401SOL    HW216746   2.474   4.295   0.948
 5402SOL     OW16747   3.444   4.363   0.472
 5402SOL    HW116748   3.413   4.424   0.545
 5402SOL    HW216749   3.494   4.415   0.403
 5403SOL     OW16750   2.875   3.829   1.770
 5403SOL    HW116751   2.881   3.914   1.718
 5403SOL    HW216752   2.907   3.753   1.713
 5404SOL     OW16753   2.366   3.774   1.740
 5404SOL    HW116754   2.324   3.717   1.670
 5404SOL    HW216755   2.300   3.843   1.772
 5405SOL     OW16756   3.071   4.249   0.275
 5405SOL    HW116757   3.084   4.165   0.329
 5405SOL    HW216758   3.042   4.323   0.335
 5406SOL     OW16759   2.169   3.937   1.231
 5406SOL    HW116760   2.146   3.974   1.321
 5406SOL    HW216761   2.139   3.842   1.225
 5407SOL     OW16762   2.594   4.358   1.064
 5407SOL    HW116763   2.653   4.332   0.988
 5407SOL    HW216764   2.566   4.454   1.053
 5408SOL     OW16765   3.590   4.659   1.854
 5408SOL    HW116766   3.544   4.652   1.765
 5408SOL    HW216767   3.528   4.703   1.920
 5409SOL     OW16768   2.169   3.787   0.618
 5409SOL    HW116769   2.158   3.881   0.651
 5409SOL    HW216770   2.164   3.724   0.695
 5410SOL     OW16771   3.484   4.091   0.374
 5410SOL    HW116772   3.486   4.015   0.438
 5410SOL    HW216773   3.436   4.168   0.414
 5411SOL     OW16774   3.402   3.998   0.125
 5411SOL    HW116775   3.341   3.923   0.148
 5411SOL    HW216776   3.424   4.050   0.208
 5412SOL     OW16777   2.181   4.534   0.949
 5412SOL    HW116778   2.274   4.570   0.954
 5412SOL    HW216779   2.175   4.449   1.001
 5413SOL     OW16780   2.201   4.233   1.006
 5413SOL    HW116781   2.149   4.150   0.989
 5413SOL    HW216782   2.278   4.238   0.942
 5414SOL     OW16783   3.000   4.104   1.678
 5414SOL    HW116784   2.955   4.167   1.742
 5414SOL    HW216785   3.093   4.135   1.661
 5415SOL     OW16786   3.022   3.931   1.477
 5415SOL    HW116787   3.022   3.995   1.554
 5415SOL    HW216788   3.050   3.979   1.394
 5416SOL     OW16789   1.902   4.268   1.114
 5416SOL    HW116790   1.987   4.235   1.073
 5416SOL    HW216791   1.915   4.283   1.212
 5417SOL     OW16792   2.051   4.244   1.722
 5417SOL    HW116793   2.110   4.204   1.652
 5417SOL    HW216794   1.993   4.315   1.681
 5418SOL     OW16795   2.677   4.296   0.325
 5418SOL    HW116796   2.684   4.207   0.279
 5418SOL    HW216797   2.583   4.330   0.317
 5419SOL     OW16798   3.519   4.328   1.206
 5419SOL    HW116799   3.481   4.259   1.268
 5419SOL    HW216800   3.601   4.292   1.162
 5420SOL     OW16801   2.533   4.188   1.269
 5420SOL    HW116802   2.499   4.099   1.239
 5420SOL    HW216803   2.559   4.242   1.189
 5421SOL     OW16804   2.335   4.224   0.191
 5421SOL    HW116805   2.396   4.304   0.195
 5421SOL    HW216806   2.240   4.255   0.198
 5422SOL     OW16807   2.765   3.810   0.133
 5422SOL    HW116808   2.816   3.811   0.047
 5422SOL    HW216809   2.821   3.768   0.204
 5423SOL     OW16810   3.588   3.859   0.523
 5423SOL    HW116811   3.661   3.842   0.456
 5423SOL    HW216812   3.557   3.772   0.561
 5424SOL     OW16813   3.142   4.651   0.672
 5424SOL    HW116814   3.202   4.570   0.674
 5424SOL    HW216815   3.182   4.720   0.612
 5425SOL     OW16816   3.703   3.899   0.963
 5425SOL    HW116817   3.742   3.814   0.927
 5425SOL    HW216818   3.605   3.901   0.944
 5426SOL     OW16819   2.125   4.050   0.720
 5426SOL    HW116820   2.046   4.101   0.686
 5426SOL    HW216821   2.116   4.035   0.818
 5427SOL     OW16822   2.901   4.822   0.696
 5427SOL    HW116823   2.831   4.775   0.750
 5427SOL    HW216824   2.960   4.754   0.653
 5428SOL     OW16825   2.876   3.960   0.971
 5428SOL    HW116826   2.868   3.924   0.878
 5428SOL    HW216827   2.874   3.884   1.036
 5429SOL     OW16828   3.571   4.109   1.381
 5429SOL    HW116829   3.644   4.178   1.385
 5429SOL    HW216830   3.599   4.034   1.322
 5430SOL     OW16831   2.534   3.927   1.489
 5430SOL    HW116832   2.624   3.911   1.449
 5430SOL    HW216833   2.542   3.932   1.588
 5431SOL     OW16834   1.937   4.069   0.033
 5431SOL    HW116835   1.845   4.041   0.004
 5431SOL    HW216836   1.968   4.146  -0.023
 5432SOL     OW16837   1.934   3.890   0.318
 5432SOL    HW116838   1.917   3.973   0.264
 5432SOL    HW216839   2.024   3.853   0.296
 5433SOL     OW16840   2.578   4.289   1.708
 5433SOL    HW116841   2.597   4.354   1.782
 5433SOL    HW216842   2.638   4.209   1.717
 5434SOL     OW16843   3.087   4.049   0.449
 5434SOL    HW116844   3.152   3.975   0.438
 5434SOL    HW216845   3.107   4.099   0.533
 5435SOL     OW16846   3.639   4.066   1.642
 5435SOL    HW116847   3.622   4.097   1.548
 5435SOL    HW216848   3.555   4.029   1.680
 5436SOL     OW16849   2.945   4.708   0.087
 5436SOL    HW116850   2.922   4.761   0.005
 5436SOL    HW216851   3.026   4.652   0.068
 5437SOL     OW16852   3.686   3.916   1.227
 5437SOL    HW116853   3.682   3.826   1.271
 5437SOL    HW216854   3.689   3.905   1.128
 5438SOL     OW16855   2.290   4.148   0.520
 5438SOL    HW116856   2.320   4.076   0.458
 5438SOL    HW216857   2.251   4.108   0.603
 5439SOL     OW16858   2.179   4.271   1.280
 5439SOL    HW116859   2.217   4.212   1.352
 5439SOL    HW216860   2.219   4.245   1.192
 5440SOL     OW16861   3.286   3.938   1.112
 5440SOL    HW116862   3.338   3.873   1.167
 5440SOL    HW216863   3.237   4.001   1.173
 5441SOL     OW16864   2.863   3.758   1.154
 5441SOL    HW116865   2.800   3.686   1.123
 5441SOL    HW216866   2.956   3.722   1.154
 5442SOL     OW16867   3.214   3.776   0.168
 5442SOL    HW116868   3.249   3.735   0.084
 5442SOL    HW216869   3.124   3.738   0.188
 5443SOL     OW16870   3.162   4.177   0.691
 5443SOL    HW116871   3.103   4.257   0.695
 5443SOL    HW216872   3.177   4.142   0.784
 5444SOL     OW16873   3.455   3.945   0.882
 5444SOL    HW116874   3.371   3.944   0.936
 5444SOL    HW216875   3.457   4.028   0.826
 5445SOL     OW16876   2.092   4.352   1.975
 5445SOL    HW116877   1.999   4.350   2.012
 5445SOL    HW216878   2.093   4.313   1.883
 5446SOL     OW16879   2.087   3.999   2.858
 5446SOL    HW116880   2.122   3.982   2.950
 5446SOL    HW216881   1.999   3.954   2.846
 5447SOL     OW16882   1.881   4.092   2.509
 5447SOL    HW116883   1.799   4.135   2.548
 5447SOL    HW216884   1.853   4.019   2.446
 5448SOL     OW16885   3.617   4.331   2.093
 5448SOL    HW116886   3.605   4.318   1.994
 5448SOL    HW216887   3.587   4.250   2.142
 5449SOL     OW16888   2.547   4.736   2.527
 5449SOL    HW116889   2.616   4.720   2.597
 5449SOL    HW216890   2.474   4.793   2.565
 5450SOL     OW16891   2.300   4.116   3.361
 5450SOL    HW116892   2.382   4.060   3.370
 5450SOL    HW216893   2.219   4.058   3.365
 5451SOL     OW16894   3.465   4.171   2.599
 5451SOL    HW116895   3.391   4.217   2.549
 5451SOL    HW216896   3.516   4.239   2.652
 5452SOL     OW16897   3.456   3.838   3.342
 5452SOL    HW116898   3.438   3.905   3.270
 5452SOL    HW216899   3.453   3.884   3.431
 5453SOL     OW16900   1.984   4.367   2.425
 5453SOL    HW116901   1.939   4.279   2.442
 5453SOL    HW216902   1.983   4.421   2.509
 5454SOL     OW16903   1.975   4.461   3.459
 5454SOL    HW116904   2.063   4.448   3.504
 5454SOL    HW216905   1.962   4.558   3.437
 5455SOL     OW16906   2.671   3.728   2.364
 5455SOL    HW116907   2.711   3.819   2.355
 5455SOL    HW216908   2.571   3.736   2.370
 5456SOL     OW16909   2.179   3.975   3.663
 5456SOL    HW116910   2.250   4.046   3.669
 5456SOL    HW216911   2.091   4.014   3.691
 5457SOL     OW16912   3.143   4.069   2.806
 5457SOL    HW116913   3.057   4.019   2.793
 5457SOL    HW216914   3.205   4.015   2.862
 5458SOL     OW16915   2.669   4.329   3.327
 5458SOL    HW116916   2.622   4.326   3.416
 5458SOL    HW216917   2.618   4.274   3.261
 5459SOL     OW16918   3.256   4.193   3.536
 5459SOL    HW116919   3.236   4.236   3.624
 5459SOL    HW216920   3.334   4.131   3.545
 5460SOL     OW16921   2.853   4.134   3.104
 5460SOL    HW116922   2.776   4.168   3.158
 5460SOL    HW216923   2.819   4.083   3.025
 5461SOL     OW16924   2.903   4.425   2.291
 5461SOL    HW116925   2.929   4.421   2.387
 5461SOL    HW216926   2.818   4.374   2.277
 5462SOL     OW16927   2.727   4.072   2.057
 5462SOL    HW116928   2.786   4.135   2.008
 5462SOL    HW216929   2.746   3.978   2.028
 5463SOL     OW16930   3.581   4.309   3.693
 5463SOL    HW116931   3.555   4.398   3.657
 5463SOL    HW216932   3.579   4.241   3.620
 5464SOL     OW16933   2.412   3.920   2.747
 5464SOL    HW116934   2.407   3.915   2.847
 5464SOL    HW216935   2.414   4.016   2.718
 5465SOL     OW16936   3.320   4.459   2.590
 5465SOL    HW116937   3.315   4.394   2.665
 5465SOL    HW216938   3.400   4.518   2.603
 5466SOL     OW16939   2.064   4.009   3.360
 5466SOL    HW116940   1.984   4.069   3.347
 5466SOL    HW216941   2.054   3.960   3.446
 5467SOL     OW16942   3.262   3.831   2.288
 5467SOL    HW116943   3.238   3.794   2.198
 5467SOL    HW216944   3.361   3.847   2.292
 5468SOL     OW16945   2.244   4.424   2.342
 5468SOL    HW116946   2.289   4.334   2.339
 5468SOL    HW216947   2.150   4.413   2.375
 5469SOL     OW16948   3.409   3.946   3.591
 5469SOL    HW116949   3.404   3.983   3.683
 5469SOL    HW216950   3.337   3.877   3.579
 5470SOL     OW16951   2.476   3.846   1.979
 5470SOL    HW116952   2.574   3.824   1.986
 5470SOL    HW216953   2.445   3.829   1.886
 5471SOL     OW16954   2.643   3.988   3.611
 5471SOL    HW116955   2.710   3.927   3.654
 5471SOL    HW216956   2.570   4.007   3.676
 5472SOL     OW16957   3.213   4.314   3.295
 5472SOL    HW116958   3.241   4.271   3.380
 5472SOL    HW216959   3.238   4.410   3.296
 5473SOL     OW16960   2.784   4.227   2.761
 5473SOL    HW116961   2.759   4.218   2.665
 5473SOL    HW216962   2.832   4.145   2.792
 5474SOL     OW16963   2.401   3.788   2.374
 5474SOL    HW116964   2.320   3.789   2.432
 5474SOL    HW216965   2.404   3.871   2.319
 5475SOL     OW16966   2.159   3.759   2.033
 5475SOL    HW116967   2.208   3.843   2.012
 5475SOL    HW216968   2.221   3.694   2.078
 5476SOL     OW16969   2.797   3.960   2.342
 5476SOL    HW116970   2.749   4.001   2.264
 5476SOL    HW216971   2.896   3.958   2.323
 5477SOL     OW16972   2.938   4.407   3.326
 5477SOL    HW116973   2.858   4.346   3.329
 5477SOL    HW216974   3.019   4.354   3.302
 5478SOL     OW16975   2.894   4.273   1.878
 5478SOL    HW116976   2.853   4.355   1.839
 5478SOL    HW216977   2.958   4.299   1.951
 5479SOL     OW16978   1.940   4.280   3.248
 5479SOL    HW116979   2.032   4.279   3.207
 5479SOL    HW216980   1.934   4.354   3.315
 5480SOL     OW16981   2.423   3.946   3.009
 5480SOL    HW116982   2.461   3.862   3.046
 5480SOL    HW216983   2.335   3.965   3.053
 5481SOL     OW16984   2.728   4.178   2.504
 5481SOL    HW116985   2.696   4.250   2.442
 5481SOL    HW216986   2.752   4.097   2.451
 5482SOL     OW16987   2.879   3.763   2.615
 5482SOL    HW116988   2.807   3.768   2.546
 5482SOL    HW216989   2.855   3.694   2.684
 5483SOL     OW16990   3.328   4.314   2.854
 5483SOL    HW116991   3.298   4.219   2.861
 5483SOL    HW216992   3.401   4.330   2.920
 5484SOL     OW16993   3.252   4.299   1.940
 5484SOL    HW116994   3.198   4.278   2.021
 5484SOL    HW216995   3.343   4.258   1.949
 5485SOL     OW16996   2.389   3.980   2.190
 5485SOL    HW116997   2.416   3.921   2.115
 5485SOL    HW216998   2.389   4.075   2.159
 5486SOL     OW16999   2.777   3.813   3.264
 5486SOL    HW117000   2.802   3.793   3.169
 5486SOL    HW217001   2.849   3.869   3.306
 5487SOL     OW17002   2.272   4.537   3.113
 5487SOL    HW117003   2.358   4.549   3.163
 5487SOL    HW217004   2.230   4.450   3.140
 5488SOL     OW17005   3.136   4.110   3.124
 5488SOL    HW117006   3.157   4.184   3.188
 5488SOL    HW217007   3.047   4.127   3.081
 5489SOL     OW17008   2.428   4.261   2.727
 5489SOL    HW117009   2.440   4.327   2.653
 5489SOL    HW217010   2.474   4.295   2.810
 5490SOL     OW17011   3.444   4.363   2.334
 5490SOL    HW117012   3.413   4.424   2.407
 5490SOL    HW217013   3.494   4.415   2.265
 5491SOL     OW17014   2.875   3.829   3.632
 5491SOL    HW117015   2.881   3.914   3.580
 5491SOL    HW217016   2.907   3.753   3.575
 5492SOL     OW17017   2.366   3.774   3.602
 5492SOL    HW117018   2.324   3.717   3.532
 5492SOL    HW217019   2.300   3.843   3.634
 5493SOL     OW17020   3.071   4.249   2.137
 5493SOL    HW117021   3.084   4.165   2.191
 5493SOL    HW217022   3.042   4.323   2.197
 5494SOL     OW17023   2.169   3.937   3.093
 5494SOL    HW117024   2.146   3.974   3.183
 5494SOL    HW217025   2.139   3.842   3.087
 5495SOL     OW17026   2.594   4.358   2.926
 5495SOL    HW117027   2.653   4.332   2.850
 5495SOL    HW217028   2.566   4.454   2.915
 5496SOL     OW17029   3.590   4.659   3.716
 5496SOL    HW117030   3.544   4.652   3.627
 5496SOL    HW217031   3.528   4.703   3.782
 5497SOL     OW17032   2.169   3.787   2.480
 5497SOL    HW117033   2.158   3.881   2.513
 5497SOL    HW217034   2.164   3.724   2.557
 5498SOL     OW17035   3.484   4.091   2.236
 5498SOL    HW117036   3.486   4.015   2.300
 5498SOL    HW217037   3.436   4.168   2.276
 5499SOL     OW17038   3.402   3.998   1.987
 5499SOL    HW117039   3.341   3.923   2.010
 5499SOL    HW217040   3.424   4.050   2.070
 5500SOL     OW17041   2.181   4.534   2.811
 5500SOL    HW117042   2.274   4.570   2.816
 5500SOL    HW217043   2.175   4.449   2.863
 5501SOL     OW17044   2.201   4.233   2.868
 5501SOL    HW117045   2.149   4.150   2.851
 5501SOL    HW217046   2.278   4.238   2.804
 5502SOL     OW17047   3.000   4.104   3.540
 5502SOL    HW117048   2.955   4.167   3.604
 5502SOL    HW217049   3.093   4.135   3.523
 5503SOL     OW17050   3.022   3.931   3.339
 5503SOL    HW117051   3.022   3.995   3.416
 5503SOL    HW217052   3.050   3.979   3.256
 5504SOL     OW17053   1.902   4.268   2.976
 5504SOL    HW117054   1.987   4.235   2.935
 5504SOL    HW217055   1.915   4.283   3.074
 5505SOL     OW17056   2.051   4.244   3.584
 5505SOL    HW117057   2.110   4.204   3.514
 5505SOL    HW217058   1.993   4.315   3.543
 5506SOL     OW17059   2.677   4.296   2.187
 5506SOL    HW117060   2.684   4.207   2.141
 5506SOL    HW217061   2.583   4.330   2.179
 5507SOL     OW17062   3.519   4.328   3.068
 5507SOL    HW117063   3.481   4.259   3.130
 5507SOL    HW217064   3.601   4.292   3.024
 5508SOL     OW17065   2.533   4.188   3.131
 5508SOL    HW117066   2.499   4.099   3.101
 5508SOL    HW217067   2.559   4.242   3.051
 5509SOL     OW17068   2.335   4.224   2.053
 5509SOL    HW117069   2.396   4.304   2.057
 5509SOL    HW217070   2.240   4.255   2.060
 5510SOL     OW17071   3.588   3.859   2.385
 5510SOL    HW117072   3.661   3.842   2.318
 5510SOL    HW217073   3.557   3.772   2.423
 5511SOL     OW17074   3.142   4.651   2.534
 5511SOL    HW117075   3.202   4.570   2.536
 5511SOL    HW217076   3.182   4.720   2.474
 5512SOL     OW17077   3.703   3.899   2.825
 5512SOL    HW117078   3.742   3.814   2.789
 5512SOL    HW217079   3.605   3.901   2.806
 5513SOL     OW17080   2.125   4.050   2.582
 5513SOL    HW117081   2.046   4.101   2.548
 5513SOL    HW217082   2.116   4.035   2.680
 5514SOL     OW17083   2.778   4.634   2.153
 5514SOL    HW117084   2.841   4.672   2.085
 5514SOL    HW217085   2.818   4.551   2.192
 5515SOL     OW17086   2.901   4.822   2.558
 5515SOL    HW117087   2.831   4.775   2.612
 5515SOL    HW217088   2.960   4.754   2.515
 5516SOL     OW17089   2.876   3.960   2.833
 5516SOL    HW117090   2.868   3.924   2.740
 5516SOL    HW217091   2.874   3.884   2.898
 5517SOL     OW17092   3.571   4.109   3.243
 5517SOL    HW117093   3.644   4.178   3.247
 5517SOL    HW217094   3.599   4.034   3.184
 5518SOL     OW17095   2.534   3.927   3.351
 5518SOL    HW117096   2.624   3.911   3.311
 5518SOL    HW217097   2.542   3.932   3.450
 5519SOL     OW17098   1.937   4.069   1.895
 5519SOL    HW117099   1.845   4.041   1.866
 5519SOL    HW217100   1.968   4.146   1.839
 5520SOL     OW17101   1.934   3.890   2.180
 5520SOL    HW117102   1.917   3.973   2.126
 5520SOL    HW217103   2.024   3.853   2.158
 5521SOL     OW17104   2.578   4.289   3.570
 5521SOL    HW117105   2.597   4.354   3.644
 5521SOL    HW217106   2.638   4.209   3.579
 5522SOL     OW17107   3.087   4.049   2.311
 5522SOL    HW117108   3.152   3.975   2.300
 5522SOL    HW217109   3.107   4.099   2.395
 5523SOL     OW17110   3.639   4.066   3.504
 5523SOL    HW117111   3.622   4.097   3.410
 5523SOL    HW217112   3.555   4.029   3.542
 5524SOL     OW17113   2.945   4.708   1.949
 5524SOL    HW117114   2.922   4.761   1.867
 5524SOL    HW217115   3.026   4.652   1.930
 5525SOL     OW17116   3.686   3.916   3.089
 5525SOL    HW117117   3.682   3.826   3.133
 5525SOL    HW217118   3.689   3.905   2.990
 5526SOL     OW17119   2.290   4.148   2.382
 5526SOL    HW117120   2.320   4.076   2.320
 5526SOL    HW217121   2.251   4.108   2.465
 5527SOL     OW17122   2.179   4.271   3.142
 5527SOL    HW117123   2.217   4.212   3.214
 5527SOL    HW217124   2.219   4.245   3.054
 5528SOL     OW17125   3.286   3.938   2.974
 5528SOL    HW117126   3.338   3.873   3.029
 5528SOL    HW217127   3.237   4.001   3.035
 5529SOL     OW17128   2.863   3.758   3.016
 5529SOL    HW117129   2.800   3.686   2.985
 5529SOL    HW217130   2.956   3.722   3.016
 5530SOL     OW17131   3.214   3.776   2.030
 5530SOL    HW117132   3.249   3.735   1.946
 5530SOL    HW217133   3.124   3.738   2.050
 5531SOL     OW17134   3.162   4.177   2.553
 5531SOL    HW117135   3.103   4.257   2.557
 5531SOL    HW217136   3.177   4.142   2.646
 5532SOL     OW17137   3.455   3.945   2.744
 5532SOL    HW117138   3.371   3.944   2.798
 5532SOL    HW217139   3.457   4.028   2.688
 5533SOL     OW17140   2.092   4.352   3.837
 5533SOL    HW117141   1.999   4.350   3.874
 5533SOL    HW217142   2.093   4.313   3.745
 5534SOL     OW17143   2.087   3.999   4.720
 5534SOL    HW117144   2.122   3.982   4.812
 5534SOL    HW217145   1.999   3.954   4.708
 5535SOL     OW17146   1.881   4.092   4.371
 5535SOL    HW117147   1.799   4.135   4.410
 5535SOL    HW217148   1.853   4.019   4.308
 5536SOL     OW17149   3.617   4.331   3.955
 5536SOL    HW117150   3.605   4.318   3.856
 5536SOL    HW217151   3.587   4.250   4.004
 5537SOL     OW17152   2.547   4.736   4.389
 5537SOL    HW117153   2.616   4.720   4.459
 5537SOL    HW217154   2.474   4.793   4.427
 5538SOL     OW17155   2.300   4.116   5.223
 5538SOL    HW117156   2.382   4.060   5.232
 5538SOL    HW217157   2.219   4.058   5.227
 5539SOL     OW17158   3.465   4.171   4.461
 5539SOL    HW117159   3.391   4.217   4.411
 5539SOL    HW217160   3.516   4.239   4.514
 5540SOL     OW17161   3.456   3.838   5.204
 5540SOL    HW117162   3.438   3.905   5.132
 5540SOL    HW217163   3.453   3.884   5.293
 5541SOL     OW17164   1.984   4.367   4.287
 5541SOL    HW117165   1.939   4.279   4.304
 5541SOL    HW217166   1.983   4.421   4.371
 5542SOL     OW17167   1.975   4.461   5.321
 5542SOL    HW117168   2.063   4.448   5.366
 5542SOL    HW217169   1.962   4.558   5.299
 5543SOL     OW17170   2.671   3.728   4.226
 5543SOL    HW117171   2.711   3.819   4.217
 5543SOL    HW217172   2.571   3.736   4.232
 5544SOL     OW17173   2.179   3.975   5.525
 5544SOL    HW117174   2.250   4.046   5.531
 5544SOL    HW217175   2.091   4.014   5.553
 5545SOL     OW17176   3.143   4.069   4.668
 5545SOL    HW117177   3.057   4.019   4.655
 5545SOL    HW217178   3.205   4.015   4.724
 5546SOL     OW17179   2.669   4.329   5.189
 5546SOL    HW117180   2.622   4.326   5.278
 5546SOL    HW217181   2.618   4.274   5.123
 5547SOL     OW17182   3.256   4.193   5.398
 5547SOL    HW117183   3.236   4.236   5.486
 5547SOL    HW217184   3.334   4.131   5.407
 5548SOL     OW17185   2.853   4.134   4.966
 5548SOL    HW117186   2.776   4.168   5.020
 5548SOL    HW217187   2.819   4.083   4.887
 5549SOL     OW17188   2.903   4.425   4.153
 5549SOL    HW117189   2.929   4.421   4.249
 5549SOL    HW217190   2.818   4.374   4.139
 5550SOL     OW17191   2.727   4.072   3.919
 5550SOL    HW117192   2.786   4.135   3.870
 5550SOL    HW217193   2.746   3.978   3.890
 5551SOL     OW17194   3.581   4.309   5.555
 5551SOL    HW117195   3.555   4.398   5.519
 5551SOL    HW217196   3.579   4.241   5.482
 5552SOL     OW17197   2.412   3.920   4.609
 5552SOL    HW117198   2.407   3.915   4.709
 5552SOL    HW217199   2.414   4.016   4.580
 5553SOL     OW17200   3.320   4.459   4.452
 5553SOL    HW117201   3.315   4.394   4.527
 5553SOL    HW217202   3.400   4.518   4.465
 5554SOL     OW17203   2.064   4.009   5.222
 5554SOL    HW117204   1.984   4.069   5.209
 5554SOL    HW217205   2.054   3.960   5.308
 5555SOL     OW17206   3.262   3.831   4.150
 5555SOL    HW117207   3.238   3.794   4.060
 5555SOL    HW217208   3.361   3.847   4.154
 5556SOL     OW17209   2.244   4.424   4.204
 5556SOL    HW117210   2.289   4.334   4.201
 5556SOL    HW217211   2.150   4.413   4.237
 5557SOL     OW17212   3.409   3.946   5.453
 5557SOL    HW117213   3.404   3.983   5.545
 5557SOL    HW217214   3.337   3.877   5.441
 5558SOL     OW17215   2.476   3.846   3.841
 5558SOL    HW117216   2.574   3.824   3.848
 5558SOL    HW217217   2.445   3.829   3.748
 5559SOL     OW17218   2.643   3.988   5.473
 5559SOL    HW117219   2.710   3.927   5.516
 5559SOL    HW217220   2.570   4.007   5.538
 5560SOL     OW17221   3.213   4.314   5.157
 5560SOL    HW117222   3.241   4.271   5.242
 5560SOL    HW217223   3.238   4.410   5.158
 5561SOL     OW17224   2.784   4.227   4.623
 5561SOL    HW117225   2.759   4.218   4.527
 5561SOL    HW217226   2.832   4.145   4.654
 5562SOL     OW17227   2.401   3.788   4.236
 5562SOL    HW117228   2.320   3.789   4.294
 5562SOL    HW217229   2.404   3.871   4.181
 5563SOL     OW17230   2.159   3.759   3.895
 5563SOL    HW117231   2.208   3.843   3.874
 5563SOL    HW217232   2.221   3.694   3.940
 5564SOL     OW17233   2.797   3.960   4.204
 5564SOL    HW117234   2.749   4.001   4.126
 5564SOL    HW217235   2.896   3.958   4.185
 5565SOL     OW17236   2.938   4.407   5.188
 5565SOL    HW117237   2.858   4.346   5.191
 5565SOL    HW217238   3.019   4.354   5.164
 5566SOL     OW17239   2.894   4.273   3.740
 5566SOL    HW117240   2.853   4.355   3.701
 5566SOL    HW217241   2.958   4.299   3.813
 5567SOL     OW17242   1.940   4.280   5.110
 5567SOL    HW117243   2.032   4.279   5.069
 5567SOL    HW217244   1.934   4.354   5.177
 5568SOL     OW17245   2.423   3.946   4.871
 5568SOL    HW117246   2.461   3.862   4.908
 5568SOL    HW217247   2.335   3.965   4.915
 5569SOL     OW17248   2.728   4.178   4.366
 5569SOL    HW117249   2.696   4.250   4.304
 5569SOL    HW217250   2.752   4.097   4.313
 5570SOL     OW17251   2.879   3.763   4.477
 5570SOL    HW117252   2.807   3.768   4.408
 5570SOL    HW217253   2.855   3.694   4.546
 5571SOL     OW17254   3.328   4.314   4.716
 5571SOL    HW117255   3.298   4.219   4.723
 5571SOL    HW217256   3.401   4.330   4.782
 5572SOL     OW17257   3.252   4.299   3.802
 5572SOL    HW117258   3.198   4.278   3.883
 5572SOL    HW217259   3.343   4.258   3.811
 5573SOL     OW17260   2.389   3.980   4.052
 5573SOL    HW117261   2.416   3.921   3.977
 5573SOL    HW217262   2.389   4.075   4.021
 5574SOL     OW17263   2.777   3.813   5.126
 5574SOL    HW117264   2.802   3.793   5.031
 5574SOL    HW217265   2.849   3.869   5.168
 5575SOL     OW17266   2.272   4.537   4.975
 5575SOL    HW117267   2.358   4.549   5.025
 5575SOL    HW217268   2.230   4.450   5.002
 5576SOL     OW17269   3.136   4.110   4.986
 5576SOL    HW117270   3.157   4.184   5.050
 5576SOL    HW217271   3.047   4.127   4.943
 5577SOL     OW17272   2.428   4.261   4.589
 5577SOL    HW117273   2.440   4.327   4.515
 5577SOL    HW217274   2.474   4.295   4.672
 5578SOL     OW17275   3.444   4.363   4.196
 5578SOL    HW117276   3.413   4.424   4.269
 5578SOL    HW217277   3.494   4.415   4.127
 5579SOL     OW17278   2.875   3.829   5.494
 5579SOL    HW117279   2.881   3.914   5.442
 5579SOL    HW217280   2.907   3.753   5.437
 5580SOL     OW17281   2.366   3.774   5.464
 5580SOL    HW117282   2.324   3.717   5.394
 5580SOL    HW217283   2.300   3.843   5.496
 5581SOL     OW17284   3.071   4.249   3.999
 5581SOL    HW117285   3.084   4.165   4.053
 5581SOL    HW217286   3.042   4.323   4.059
 5582SOL     OW17287   2.169   3.937   4.955
 5582SOL    HW117288   2.146   3.974   5.045
 5582SOL    HW217289   2.139   3.842   4.949
 5583SOL     OW17290   2.594   4.358   4.788
 5583SOL    HW117291   2.653   4.332   4.712
 5583SOL    HW217292   2.566   4.454   4.777
 5584SOL     OW17293   3.590   4.659   5.578
 5584SOL    HW117294   3.544   4.652   5.489
 5584SOL    HW217295   3.528   4.703   5.644
 5585SOL     OW17296   2.169   3.787   4.342
 5585SOL    HW117297   2.158   3.881   4.375
 5585SOL    HW217298   2.164   3.724   4.419
 5586SOL     OW17299   3.484   4.091   4.098
 5586SOL    HW117300   3.486   4.015   4.162
 5586SOL    HW217301   3.436   4.168   4.138
 5587SOL     OW17302   3.402   3.998   3.849
 5587SOL    HW117303   3.341   3.923   3.872
 5587SOL    HW217304   3.424   4.050   3.932
 5588SOL     OW17305   2.181   4.534   4.673
 5588SOL    HW117306   2.274   4.570   4.678
 5588SOL    HW217307   2.175   4.449   4.725
 5589SOL     OW17308   2.201   4.233   4.730
 5589SOL    HW117309   2.149   4.150   4.713
 5589SOL    HW217310   2.278   4.238   4.666
 5590SOL     OW17311   3.000   4.104   5.402
 5590SOL    HW117312   2.955   4.167   5.466
 5590SOL    HW217313   3.093   4.135   5.385
 5591SOL     OW17314   3.022   3.931   5.201
 5591SOL    HW117315   3.022   3.995   5.278
 5591SOL    HW217316   3.050   3.979   5.118
 5592SOL     OW17317   1.902   4.268   4.838
 5592SOL    HW117318   1.987   4.235   4.797
 5592SOL    HW217319   1.915   4.283   4.936
 5593SOL     OW17320   2.051   4.244   5.446
 5593SOL    HW117321   2.110   4.204   5.376
 5593SOL    HW217322   1.993   4.315   5.405
 5594SOL     OW17323   2.677   4.296   4.049
 5594SOL    HW117324   2.684   4.207   4.003
 5594SOL    HW217325   2.583   4.330   4.041
 5595SOL     OW17326   3.519   4.328   4.930
 5595SOL    HW117327   3.481   4.259   4.992
 5595SOL    HW217328   3.601   4.292   4.886
 5596SOL     OW17329   2.533   4.188   4.993
 5596SOL    HW117330   2.499   4.099   4.963
 5596SOL    HW217331   2.559   4.242   4.913
 5597SOL     OW17332   2.335   4.224   3.915
 5597SOL    HW117333   2.396   4.304   3.919
 5597SOL    HW217334   2.240   4.255   3.922
 5598SOL     OW17335   3.588   3.859   4.247
 5598SOL    HW117336   3.661   3.842   4.180
 5598SOL    HW217337   3.557   3.772   4.285
 5599SOL     OW17338   3.142   4.651   4.396
 5599SOL    HW117339   3.202   4.570   4.398
 5599SOL    HW217340   3.182   4.720   4.336
 5600SOL     OW17341   3.703   3.899   4.687
 5600SOL    HW117342   3.742   3.814   4.651
 5600SOL    HW217343   3.605   3.901   4.668
 5601SOL     OW17344   2.125   4.050   4.444
 5601SOL    HW117345   2.046   4.101   4.410
 5601SOL    HW217346   2.116   4.035   4.542
 5602SOL     OW17347   2.778   4.634   4.015
 5602SOL    HW117348   2.841   4.672   3.947
 5602SOL    HW217349   2.818   4.551   4.054
 5603SOL     OW17350   2.901   4.822   4.420
 5603SOL    HW117351   2.831   4.775   4.474
 5603SOL    HW217352   2.960   4.754   4.377
 5604SOL     OW17353   2.876   3.960   4.695
 5604SOL    HW117354   2.868   3.924   4.602
 5604SOL    HW217355   2.874   3.884   4.760
 5605SOL     OW17356   3.571   4.109   5.105
 5605SOL    HW117357   3.644   4.178   5.109
 5605SOL    HW217358   3.599   4.034   5.046
 5606SOL     OW17359   2.534   3.927   5.213
 5606SOL    HW117360   2.624   3.911   5.173
 5606SOL    HW217361   2.542   3.932   5.312
 5607SOL     OW17362   1.937   4.069   3.757
 5607SOL    HW117363   1.845   4.041   3.728
 5607SOL    HW217364   1.968   4.146   3.701
 5608SOL     OW17365   1.934   3.890   4.042
 5608SOL    HW117366   1.917   3.973   3.988
 5608SOL    HW217367   2.024   3.853   4.020
 5609SOL     OW17368   2.578   4.289   5.432
 5609SOL    HW117369   2.597   4.354   5.506
 5609SOL    HW217370   2.638   4.209   5.441
 5610SOL     OW17371   3.087   4.049   4.173
 5610SOL    HW117372   3.152   3.975   4.162
 5610SOL    HW217373   3.107   4.099   4.257
 5611SOL     OW17374   3.639   4.066   5.366
 5611SOL    HW117375   3.622   4.097   5.272
 5611SOL    HW217376   3.555   4.029   5.404
 5612SOL     OW17377   2.945   4.708   3.811
 5612SOL    HW117378   2.922   4.761   3.729
 5612SOL    HW217379   3.026   4.652   3.792
 5613SOL     OW17380   3.686   3.916   4.951
 5613SOL    HW117381   3.682   3.826   4.995
 5613SOL    HW217382   3.689   3.905   4.852
 5614SOL     OW17383   2.290   4.148   4.244
 5614SOL    HW117384   2.320   4.076   4.182
 5614SOL    HW217385   2.251   4.108   4.327
 5615SOL     OW17386   2.179   4.271   5.004
 5615SOL    HW117387   2.217   4.212   5.076
 5615SOL    HW217388   2.219   4.245   4.916
 5616SOL     OW17389   3.286   3.938   4.836
 5616SOL    HW117390   3.338   3.873   4.891
 5616SOL    HW217391   3.237   4.001   4.897
 5617SOL     OW17392   2.863   3.758   4.878
 5617SOL    HW117393   2.800   3.686   4.847
 5617SOL    HW217394   2.956   3.722   4.878
 5618SOL     OW17395   3.214   3.776   3.892
 5618SOL    HW117396   3.249   3.735   3.808
 5618SOL    HW217397   3.124   3.738   3.912
 5619SOL     OW17398   3.162   4.177   4.415
 5619SOL    HW117399   3.103   4.257   4.419
 5619SOL    HW217400   3.177   4.142   4.508
 5620SOL     OW17401   3.455   3.945   4.606
 5620SOL    HW117402   3.371   3.944   4.660
 5620SOL    HW217403   3.457   4.028   4.550
 5621SOL     OW17404   2.092   4.352   5.699
 5621SOL    HW117405   1.999   4.350   5.736
 5621SOL    HW217406   2.093   4.313   5.607
 5622SOL     OW17407   2.087   3.999   6.582
 5622SOL    HW117408   2.122   3.982   6.674
 5622SOL    HW217409   1.999   3.954   6.570
 5623SOL     OW17410   1.881   4.092   6.233
 5623SOL    HW117411   1.799   4.135   6.272
 5623SOL    HW217412   1.853   4.019   6.170
 5624SOL     OW17413   3.617   4.331   5.817
 5624SOL    HW117414   3.605   4.318   5.718
 5624SOL    HW217415   3.587   4.250   5.866
 5625SOL     OW17416   2.547   4.736   6.251
 5625SOL    HW117417   2.616   4.720   6.321
 5625SOL    HW217418   2.474   4.793   6.289
 5626SOL     OW17419   2.300   4.116   7.085
 5626SOL    HW117420   2.382   4.060   7.094
 5626SOL    HW217421   2.219   4.058   7.089
 5627SOL     OW17422   3.465   4.171   6.323
 5627SOL    HW117423   3.391   4.217   6.273
 5627SOL    HW217424   3.516   4.239   6.376
 5628SOL     OW17425   3.456   3.838   7.066
 5628SOL    HW117426   3.438   3.905   6.994
 5628SOL    HW217427   3.453   3.884   7.155
 5629SOL     OW17428   1.984   4.367   6.149
 5629SOL    HW117429   1.939   4.279   6.166
 5629SOL    HW217430   1.983   4.421   6.233
 5630SOL     OW17431   1.975   4.461   7.183
 5630SOL    HW117432   2.063   4.448   7.228
 5630SOL    HW217433   1.962   4.558   7.161
 5631SOL     OW17434   2.671   3.728   6.088
 5631SOL    HW117435   2.711   3.819   6.079
 5631SOL    HW217436   2.571   3.736   6.094
 5632SOL     OW17437   2.179   3.975   7.387
 5632SOL    HW117438   2.250   4.046   7.393
 5632SOL    HW217439   2.091   4.014   7.415
 5633SOL     OW17440   3.143   4.069   6.530
 5633SOL    HW117441   3.057   4.019   6.517
 5633SOL    HW217442   3.205   4.015   6.586
 5634SOL     OW17443   2.669   4.329   7.051
 5634SOL    HW117444   2.622   4.326   7.140
 5634SOL    HW217445   2.618   4.274   6.985
 5635SOL     OW17446   3.256   4.193   7.260
 5635SOL    HW117447   3.236   4.236   7.348
 5635SOL    HW217448   3.334   4.131   7.269
 5636SOL     OW17449   2.853   4.134   6.828
 5636SOL    HW117450   2.776   4.168   6.882
 5636SOL    HW217451   2.819   4.083   6.749
 5637SOL     OW17452   2.903   4.425   6.015
 5637SOL    HW117453   2.929   4.421   6.111
 5637SOL    HW217454   2.818   4.374   6.001
 5638SOL     OW17455   2.727   4.072   5.781
 5638SOL    HW117456   2.786   4.135   5.732
 5638SOL    HW217457   2.746   3.978   5.752
 5639SOL     OW17458   3.581   4.309   7.417
 5639SOL    HW117459   3.555   4.398   7.381
 5639SOL    HW217460   3.579   4.241   7.344
 5640SOL     OW17461   2.412   3.920   6.471
 5640SOL    HW117462   2.407   3.915   6.571
 5640SOL    HW217463   2.414   4.016   6.442
 5641SOL     OW17464   3.320   4.459   6.314
 5641SOL    HW117465   3.315   4.394   6.389
 5641SOL    HW217466   3.400   4.518   6.327
 5642SOL     OW17467   2.064   4.009   7.084
 5642SOL    HW117468   1.984   4.069   7.071
 5642SOL    HW217469   2.054   3.960   7.170
 5643SOL     OW17470   3.262   3.831   6.012
 5643SOL    HW117471   3.238   3.794   5.922
 5643SOL    HW217472   3.361   3.847   6.016
 5644SOL     OW17473   2.244   4.424   6.066
 5644SOL    HW117474   2.289   4.334   6.063
 5644SOL    HW217475   2.150   4.413   6.099
 5645SOL     OW17476   3.409   3.946   7.315
 5645SOL    HW117477   3.404   3.983   7.407
 5645SOL    HW217478   3.337   3.877   7.303
 5646SOL     OW17479   2.476   3.846   5.703
 5646SOL    HW117480   2.574   3.824   5.710
 5646SOL    HW217481   2.445   3.829   5.610
 5647SOL     OW17482   2.643   3.988   7.335
 5647SOL    HW117483   2.710   3.927   7.378
 5647SOL    HW217484   2.570   4.007   7.400
 5648SOL     OW17485   3.213   4.314   7.019
 5648SOL    HW117486   3.241   4.271   7.104
 5648SOL    HW217487   3.238   4.410   7.020
 5649SOL     OW17488   2.784   4.227   6.485
 5649SOL    HW117489   2.759   4.218   6.389
 5649SOL    HW217490   2.832   4.145   6.516
 5650SOL     OW17491   2.401   3.788   6.098
 5650SOL    HW117492   2.320   3.789   6.156
 5650SOL    HW217493   2.404   3.871   6.043
 5651SOL     OW17494   2.159   3.759   5.757
 5651SOL    HW117495   2.208   3.843   5.736
 5651SOL    HW217496   2.221   3.694   5.802
 5652SOL     OW17497   2.797   3.960   6.066
 5652SOL    HW117498   2.749   4.001   5.988
 5652SOL    HW217499   2.896   3.958   6.047
 5653SOL     OW17500   2.938   4.407   7.050
 5653SOL    HW117501   2.858   4.346   7.053
 5653SOL    HW217502   3.019   4.354   7.026
 5654SOL     OW17503   2.894   4.273   5.602
 5654SOL    HW117504   2.853   4.355   5.563
 5654SOL    HW217505   2.958   4.299   5.675
 5655SOL     OW17506   1.940   4.280   6.972
 5655SOL    HW117507   2.032   4.279   6.931
 5655SOL    HW217508   1.934   4.354   7.039
 5656SOL     OW17509   2.423   3.946   6.733
 5656SOL    HW117510   2.461   3.862   6.770
 5656SOL    HW217511   2.335   3.965   6.777
 5657SOL     OW17512   2.728   4.178   6.228
 5657SOL    HW117513   2.696   4.250   6.166
 5657SOL    HW217514   2.752   4.097   6.175
 5658SOL     OW17515   2.879   3.763   6.339
 5658SOL    HW117516   2.807   3.768   6.270
 5658SOL    HW217517   2.855   3.694   6.408
 5659SOL     OW17518   3.328   4.314   6.578
 5659SOL    HW117519   3.298   4.219   6.585
 5659SOL    HW217520   3.401   4.330   6.644
 5660SOL     OW17521   3.252   4.299   5.664
 5660SOL    HW117522   3.198   4.278   5.745
 5660SOL    HW217523   3.343   4.258   5.673
 5661SOL     OW17524   2.389   3.980   5.914
 5661SOL    HW117525   2.416   3.921   5.839
 5661SOL    HW217526   2.389   4.075   5.883
 5662SOL     OW17527   2.777   3.813   6.988
 5662SOL    HW117528   2.802   3.793   6.893
 5662SOL    HW217529   2.849   3.869   7.030
 5663SOL     OW17530   2.272   4.537   6.837
 5663SOL    HW117531   2.358   4.549   6.887
 5663SOL    HW217532   2.230   4.450   6.864
 5664SOL     OW17533   3.136   4.110   6.848
 5664SOL    HW117534   3.157   4.184   6.912
 5664SOL    HW217535   3.047   4.127   6.805
 5665SOL     OW17536   2.428   4.261   6.451
 5665SOL    HW117537   2.440   4.327   6.377
 5665SOL    HW217538   2.474   4.295   6.534
 5666SOL     OW17539   3.444   4.363   6.058
 5666SOL    HW117540   3.413   4.424   6.131
 5666SOL    HW217541   3.494   4.415   5.989
 5667SOL     OW17542   2.875   3.829   7.356
 5667SOL    HW117543   2.881   3.914   7.304
 5667SOL    HW217544   2.907   3.753   7.299
 5668SOL     OW17545   2.366   3.774   7.326
 5668SOL    HW117546   2.324   3.717   7.256
 5668SOL    HW217547   2.300   3.843   7.358
 5669SOL     OW17548   3.071   4.249   5.861
 5669SOL    HW117549   3.084   4.165   5.915
 5669SOL    HW217550   3.042   4.323   5.921
 5670SOL     OW17551   2.169   3.937   6.817
 5670SOL    HW117552   2.146   3.974   6.907
 5670SOL    HW217553   2.139   3.842   6.811
 5671SOL     OW17554   2.594   4.358   6.650
 5671SOL    HW117555   2.653   4.332   6.574
 5671SOL    HW217556   2.566   4.454   6.639
 5672SOL     OW17557   3.590   4.659   7.440
 5672SOL    HW117558   3.544   4.652   7.351
 5672SOL    HW217559   3.528   4.703   7.506
 5673SOL     OW17560   2.169   3.787   6.204
 5673SOL    HW117561   2.158   3.881   6.237
 5673SOL    HW217562   2.164   3.724   6.281
 5674SOL     OW17563   3.484   4.091   5.960
 5674SOL    HW117564   3.486   4.015   6.024
 5674SOL    HW217565   3.436   4.168   6.000
 5675SOL     OW17566   3.402   3.998   5.711
 5675SOL    HW117567   3.341   3.923   5.734
 5675SOL    HW217568   3.424   4.050   5.794
 5676SOL     OW17569   2.181   4.534   6.535
 5676SOL    HW117570   2.274   4.570   6.540
 5676SOL    HW217571   2.175   4.449   6.587
 5677SOL     OW17572   2.201   4.233   6.592
 5677SOL    HW117573   2.149   4.150   6.575
 5677SOL    HW217574   2.278   4.238   6.528
 5678SOL     OW17575   3.000   4.104   7.264
 5678SOL    HW117576   2.955   4.167   7.328
 5678SOL    HW217577   3.093   4.135   7.247
 5679SOL     OW17578   3.022   3.931   7.063
 5679SOL    HW117579   3.022   3.995   7.140
 5679SOL    HW217580   3.050   3.979   6.980
 5680SOL     OW17581   1.902   4.268   6.700
 5680SOL    HW117582   1.987   4.235   6.659
 5680SOL    HW217583   1.915   4.283   6.798
 5681SOL     OW17584   2.051   4.244   7.308
 5681SOL    HW117585   2.110   4.204   7.238
 5681SOL    HW217586   1.993   4.315   7.267
 5682SOL     OW17587   2.677   4.296   5.911
 5682SOL    HW117588   2.684   4.207   5.865
 5682SOL    HW217589   2.583   4.330   5.903
 5683SOL     OW17590   3.519   4.328   6.792
 5683SOL    HW117591   3.481   4.259   6.854
 5683SOL    HW217592   3.601   4.292   6.748
 5684SOL     OW17593   2.533   4.188   6.855
 5684SOL    HW117594   2.499   4.099   6.825
 5684SOL    HW217595   2.559   4.242   6.775
 5685SOL     OW17596   2.335   4.224   5.777
 5685SOL    HW117597   2.396   4.304   5.781
 5685SOL    HW217598   2.240   4.255   5.784
 5686SOL     OW17599   3.588   3.859   6.109
 5686SOL    HW117600   3.661   3.842   6.042
 5686SOL    HW217601   3.557   3.772   6.147
 5687SOL     OW17602   3.142   4.651   6.258
 5687SOL    HW117603   3.202   4.570   6.260
 5687SOL    HW217604   3.182   4.720   6.198
 5688SOL     OW17605   3.703   3.899   6.549
 5688SOL    HW117606   3.742   3.814   6.513
 5688SOL    HW217607   3.605   3.901   6.530
 5689SOL     OW17608   2.125   4.050   6.306
 5689SOL    HW117609   2.046   4.101   6.272
 5689SOL    HW217610   2.116   4.035   6.404
 5690SOL     OW17611   2.778   4.634   5.877
 5690SOL    HW117612   2.841   4.672   5.809
 5690SOL    HW217613   2.818   4.551   5.916
 5691SOL     OW17614   2.901   4.822   6.282
 5691SOL    HW117615   2.831   4.775   6.336
 5691SOL    HW217616   2.960   4.754   6.239
 5692SOL     OW17617   2.876   3.960   6.557
 5692SOL    HW117618   2.868   3.924   6.464
 5692SOL    HW217619   2.874   3.884   6.622
 5693SOL     OW17620   3.571   4.109   6.967
 5693SOL    HW117621   3.644   4.178   6.971
 5693SOL    HW217622   3.599   4.034   6.908
 5694SOL     OW17623   2.534   3.927   7.075
 5694SOL    HW117624   2.624   3.911   7.035
 5694SOL    HW217625   2.542   3.932   7.174
 5695SOL     OW17626   1.937   4.069   5.619
 5695SOL    HW117627   1.845   4.041   5.590
 5695SOL    HW217628   1.968   4.146   5.563
 5696SOL     OW17629   1.934   3.890   5.904
 5696SOL    HW117630   1.917   3.973   5.850
 5696SOL    HW217631   2.024   3.853   5.882
 5697SOL     OW17632   2.578   4.289   7.294
 5697SOL    HW117633   2.597   4.354   7.368
 5697SOL    HW217634   2.638   4.209   7.303
 5698SOL     OW17635   3.087   4.049   6.035
 5698SOL    HW117636   3.152   3.975   6.024
 5698SOL    HW217637   3.107   4.099   6.119
 5699SOL     OW17638   3.639   4.066   7.228
 5699SOL    HW117639   3.622   4.097   7.134
 5699SOL    HW217640   3.555   4.029   7.266
 5700SOL     OW17641   2.945   4.708   5.673
 5700SOL    HW117642   2.922   4.761   5.591
 5700SOL    HW217643   3.026   4.652   5.654
 5701SOL     OW17644   3.686   3.916   6.813
 5701SOL    HW117645   3.682   3.826   6.857
 5701SOL    HW217646   3.689   3.905   6.714
 5702SOL     OW17647   2.290   4.148   6.106
 5702SOL    HW117648   2.320   4.076   6.044
 5702SOL    HW217649   2.251   4.108   6.189
 5703SOL     OW17650   2.179   4.271   6.866
 5703SOL    HW117651   2.217   4.212   6.938
 5703SOL    HW217652   2.219   4.245   6.778
 5704SOL     OW17653   3.286   3.938   6.698
 5704SOL    HW117654   3.338   3.873   6.753
 5704SOL    HW217655   3.237   4.001   6.759
 5705SOL     OW17656   2.863   3.758   6.740
 5705SOL    HW117657   2.800   3.686   6.709
 5705SOL    HW217658   2.956   3.722   6.740
 5706SOL     OW17659   3.214   3.776   5.754
 5706SOL    HW117660   3.249   3.735   5.670
 5706SOL    HW217661   3.124   3.738   5.774
 5707SOL     OW17662   3.162   4.177   6.277
 5707SOL    HW117663   3.103   4.257   6.281
 5707SOL    HW217664   3.177   4.142   6.370
 5708SOL     OW17665   3.455   3.945   6.468
 5708SOL    HW117666   3.371   3.944   6.522
 5708SOL    HW217667   3.457   4.028   6.412
 5709SOL     OW17668   2.092   4.352   7.561
 5709SOL    HW117669   1.999   4.350   7.598
 5709SOL    HW217670   2.093   4.313   7.469
 5710SOL     OW17671   2.087   3.999   8.444
 5710SOL    HW117672   2.122   3.982   8.536
 5710SOL    HW217673   1.999   3.954   8.432
 5711SOL     OW17674   1.881   4.092   8.095
 5711SOL    HW117675   1.799   4.135   8.134
 5711SOL    HW217676   1.853   4.019   8.032
 5712SOL     OW17677   3.617   4.331   7.679
 5712SOL    HW117678   3.605   4.318   7.580
 5712SOL    HW217679   3.587   4.250   7.728
 5713SOL     OW17680   2.547   4.736   8.113
 5713SOL    HW117681   2.616   4.720   8.183
 5713SOL    HW217682   2.474   4.793   8.151
 5714SOL     OW17683   2.300   4.116   8.947
 5714SOL    HW117684   2.382   4.060   8.956
 5714SOL    HW217685   2.219   4.058   8.951
 5715SOL     OW17686   3.465   4.171   8.185
 5715SOL    HW117687   3.391   4.217   8.135
 5715SOL    HW217688   3.516   4.239   8.238
 5716SOL     OW17689   3.456   3.838   8.928
 5716SOL    HW117690   3.438   3.905   8.856
 5716SOL    HW217691   3.453   3.884   9.017
 5717SOL     OW17692   1.984   4.367   8.011
 5717SOL    HW117693   1.939   4.279   8.028
 5717SOL    HW217694   1.983   4.421   8.095
 5718SOL     OW17695   1.975   4.461   9.045
 5718SOL    HW117696   2.063   4.448   9.090
 5718SOL    HW217697   1.962   4.558   9.023
 5719SOL     OW17698   2.671   3.728   7.950
 5719SOL    HW117699   2.711   3.819   7.941
 5719SOL    HW217700   2.571   3.736   7.956
 5720SOL     OW17701   2.179   3.975   9.249
 5720SOL    HW117702   2.250   4.046   9.255
 5720SOL    HW217703   2.091   4.014   9.277
 5721SOL     OW17704   3.143   4.069   8.392
 5721SOL    HW117705   3.057   4.019   8.379
 5721SOL    HW217706   3.205   4.015   8.448
 5722SOL     OW17707   2.669   4.329   8.913
 5722SOL    HW117708   2.622   4.326   9.002
 5722SOL    HW217709   2.618   4.274   8.847
 5723SOL     OW17710   3.256   4.193   9.122
 5723SOL    HW117711   3.236   4.236   9.210
 5723SOL    HW217712   3.334   4.131   9.131
 5724SOL     OW17713   2.853   4.134   8.690
 5724SOL    HW117714   2.776   4.168   8.744
 5724SOL    HW217715   2.819   4.083   8.611
 5725SOL     OW17716   2.903   4.425   7.877
 5725SOL    HW117717   2.929   4.421   7.973
 5725SOL    HW217718   2.818   4.374   7.863
 5726SOL     OW17719   2.727   4.072   7.643
 5726SOL    HW117720   2.786   4.135   7.594
 5726SOL    HW217721   2.746   3.978   7.614
 5727SOL     OW17722   3.581   4.309   9.279
 5727SOL    HW117723   3.555   4.398   9.243
 5727SOL    HW217724   3.579   4.241   9.206
 5728SOL     OW17725   2.412   3.920   8.333
 5728SOL    HW117726   2.407   3.915   8.433
 5728SOL    HW217727   2.414   4.016   8.304
 5729SOL     OW17728   3.320   4.459   8.176
 5729SOL    HW117729   3.315   4.394   8.251
 5729SOL    HW217730   3.400   4.518   8.189
 5730SOL     OW17731   2.064   4.009   8.946
 5730SOL    HW117732   1.984   4.069   8.933
 5730SOL    HW217733   2.054   3.960   9.032
 5731SOL     OW17734   3.262   3.831   7.874
 5731SOL    HW117735   3.238   3.794   7.784
 5731SOL    HW217736   3.361   3.847   7.878
 5732SOL     OW17737   2.244   4.424   7.928
 5732SOL    HW117738   2.289   4.334   7.925
 5732SOL    HW217739   2.150   4.413   7.961
 5733SOL     OW17740   3.409   3.946   9.177
 5733SOL    HW117741   3.404   3.983   9.269
 5733SOL    HW217742   3.337   3.877   9.165
 5734SOL     OW17743   2.476   3.846   7.565
 5734SOL    HW117744   2.574   3.824   7.572
 5734SOL    HW217745   2.445   3.829   7.472
 5735SOL     OW17746   2.643   3.988   9.197
 5735SOL    HW117747   2.710   3.927   9.240
 5735SOL    HW217748   2.570   4.007   9.262
 5736SOL     OW17749   3.213   4.314   8.881
 5736SOL    HW117750   3.241   4.271   8.966
 5736SOL    HW217751   3.238   4.410   8.882
 5737SOL     OW17752   2.784   4.227   8.347
 5737SOL    HW117753   2.759   4.218   8.251
 5737SOL    HW217754   2.832   4.145   8.378
 5738SOL     OW17755   2.401   3.788   7.960
 5738SOL    HW117756   2.320   3.789   8.018
 5738SOL    HW217757   2.404   3.871   7.905
 5739SOL     OW17758   2.159   3.759   7.619
 5739SOL    HW117759   2.208   3.843   7.598
 5739SOL    HW217760   2.221   3.694   7.664
 5740SOL     OW17761   2.797   3.960   7.928
 5740SOL    HW117762   2.749   4.001   7.850
 5740SOL    HW217763   2.896   3.958   7.909
 5741SOL     OW17764   2.938   4.407   8.912
 5741SOL    HW117765   2.858   4.346   8.915
 5741SOL    HW217766   3.019   4.354   8.888
 5742SOL     OW17767   2.894   4.273   7.464
 5742SOL    HW117768   2.853   4.355   7.425
 5742SOL    HW217769   2.958   4.299   7.537
 5743SOL     OW17770   1.940   4.280   8.834
 5743SOL    HW117771   2.032   4.279   8.793
 5743SOL    HW217772   1.934   4.354   8.901
 5744SOL     OW17773   2.423   3.946   8.595
 5744SOL    HW117774   2.461   3.862   8.632
 5744SOL    HW217775   2.335   3.965   8.639
 5745SOL     OW17776   2.728   4.178   8.090
 5745SOL    HW117777   2.696   4.250   8.028
 5745SOL    HW217778   2.752   4.097   8.037
 5746SOL     OW17779   2.879   3.763   8.201
 5746SOL    HW117780   2.807   3.768   8.132
 5746SOL    HW217781   2.855   3.694   8.270
 5747SOL     OW17782   3.328   4.314   8.440
 5747SOL    HW117783   3.298   4.219   8.447
 5747SOL    HW217784   3.401   4.330   8.506
 5748SOL     OW17785   3.252   4.299   7.526
 5748SOL    HW117786   3.198   4.278   7.607
 5748SOL    HW217787   3.343   4.258   7.535
 5749SOL     OW17788   2.389   3.980   7.776
 5749SOL    HW117789   2.416   3.921   7.701
 5749SOL    HW217790   2.389   4.075   7.745
 5750SOL     OW17791   2.777   3.813   8.850
 5750SOL    HW117792   2.802   3.793   8.755
 5750SOL    HW217793   2.849   3.869   8.892
 5751SOL     OW17794   2.272   4.537   8.699
 5751SOL    HW117795   2.358   4.549   8.749
 5751SOL    HW217796   2.230   4.450   8.726
 5752SOL     OW17797   3.136   4.110   8.710
 5752SOL    HW117798   3.157   4.184   8.774
 5752SOL    HW217799   3.047   4.127   8.667
 5753SOL     OW17800   2.428   4.261   8.313
 5753SOL    HW117801   2.440   4.327   8.239
 5753SOL    HW217802   2.474   4.295   8.396
 5754SOL     OW17803   3.444   4.363   7.920
 5754SOL    HW117804   3.413   4.424   7.993
 5754SOL    HW217805   3.494   4.415   7.851
 5755SOL     OW17806   2.875   3.829   9.218
 5755SOL    HW117807   2.881   3.914   9.166
 5755SOL    HW217808   2.907   3.753   9.161
 5756SOL     OW17809   2.366   3.774   9.188
 5756SOL    HW117810   2.324   3.717   9.118
 5756SOL    HW217811   2.300   3.843   9.220
 5757SOL     OW17812   3.071   4.249   7.723
 5757SOL    HW117813   3.084   4.165   7.777
 5757SOL    HW217814   3.042   4.323   7.783
 5758SOL     OW17815   2.169   3.937   8.679
 5758SOL    HW117816   2.146   3.974   8.769
 5758SOL    HW217817   2.139   3.842   8.673
 5759SOL     OW17818   2.594   4.358   8.512
 5759SOL    HW117819   2.653   4.332   8.436
 5759SOL    HW217820   2.566   4.454   8.501
 5760SOL     OW17821   3.590   4.659   9.302
 5760SOL    HW117822   3.544   4.652   9.213
 5760SOL    HW217823   3.528   4.703   9.368
 5761SOL     OW17824   2.169   3.787   8.066
 5761SOL    HW117825   2.158   3.881   8.099
 5761SOL    HW217826   2.164   3.724   8.143
 5762SOL     OW17827   3.484   4.091   7.822
 5762SOL    HW117828   3.486   4.015   7.886
 5762SOL    HW217829   3.436   4.168   7.862
 5763SOL     OW17830   3.402   3.998   7.573
 5763SOL    HW117831   3.341   3.923   7.596
 5763SOL    HW217832   3.424   4.050   7.656
 5764SOL     OW17833   2.181   4.534   8.397
 5764SOL    HW117834   2.274   4.570   8.402
 5764SOL    HW217835   2.175   4.449   8.449
 5765SOL     OW17836   2.201   4.233   8.454
 5765SOL    HW117837   2.149   4.150   8.437
 5765SOL    HW217838   2.278   4.238   8.390
 5766SOL     OW17839   3.000   4.104   9.126
 5766SOL    HW117840   2.955   4.167   9.190
 5766SOL    HW217841   3.093   4.135   9.109
 5767SOL     OW17842   3.022   3.931   8.925
 5767SOL    HW117843   3.022   3.995   9.002
 5767SOL    HW217844   3.050   3.979   8.842
 5768SOL     OW17845   1.902   4.268   8.562
 5768SOL    HW117846   1.987   4.235   8.521
 5768SOL    HW217847   1.915   4.283   8.660
 5769SOL     OW17848   2.051   4.244   9.170
 5769SOL    HW117849   2.110   4.204   9.100
 5769SOL    HW217850   1.993   4.315   9.129
 5770SOL     OW17851   2.677   4.296   7.773
 5770SOL    HW117852   2.684   4.207   7.727
 5770SOL    HW217853   2.583   4.330   7.765
 5771SOL     OW17854   3.519   4.328   8.654
 5771SOL    HW117855   3.481   4.259   8.716
 5771SOL    HW217856   3.601   4.292   8.610
 5772SOL     OW17857   2.533   4.188   8.717
 5772SOL    HW117858   2.499   4.099   8.687
 5772SOL    HW217859   2.559   4.242   8.637
 5773SOL     OW17860   2.335   4.224   7.639
 5773SOL    HW117861   2.396   4.304   7.643
 5773SOL    HW217862   2.240   4.255   7.646
 5774SOL     OW17863   3.588   3.859   7.971
 5774SOL    HW117864   3.661   3.842   7.904
 5774SOL    HW217865   3.557   3.772   8.009
 5775SOL     OW17866   3.142   4.651   8.120
 5775SOL    HW117867   3.202   4.570   8.122
 5775SOL    HW217868   3.182   4.720   8.060
 5776SOL     OW17869   3.703   3.899   8.411
 5776SOL    HW117870   3.742   3.814   8.375
 5776SOL    HW217871   3.605   3.901   8.392
 5777SOL     OW17872   2.125   4.050   8.168
 5777SOL    HW117873   2.046   4.101   8.134
 5777SOL    HW217874   2.116   4.035   8.266
 5778SOL     OW17875   2.778   4.634   7.739
 5778SOL    HW117876   2.841   4.672   7.671
 5778SOL    HW217877   2.818   4.551   7.778
 5779SOL     OW17878   2.901   4.822   8.144
 5779SOL    HW117879   2.831   4.775   8.198
 5779SOL    HW217880   2.960   4.754   8.101
 5780SOL     OW17881   2.876   3.960   8.419
 5780SOL    HW117882   2.868   3.924   8.326
 5780SOL    HW217883   2.874   3.884   8.484
 5781SOL     OW17884   3.571   4.109   8.829
 5781SOL    HW117885   3.644   4.178   8.833
 5781SOL    HW217886   3.599   4.034   8.770
 5782SOL     OW17887   2.534   3.927   8.937
 5782SOL    HW117888   2.624   3.911   8.897
 5782SOL    HW217889   2.542   3.932   9.036
 5783SOL     OW17890   1.937   4.069   7.481
 5783SOL    HW117891   1.845   4.041   7.452
 5783SOL    HW217892   1.968   4.146   7.425
 5784SOL     OW17893   1.934   3.890   7.766
 5784SOL    HW117894   1.917   3.973   7.712
 5784SOL    HW217895   2.024   3.853   7.744
 5785SOL     OW17896   2.578   4.289   9.156
 5785SOL    HW117897   2.597   4.354   9.230
 5785SOL    HW217898   2.638   4.209   9.165
 5786SOL     OW17899   3.087   4.049   7.897
 5786SOL    HW117900   3.152   3.975   7.886
 5786SOL    HW217901   3.107   4.099   7.981
 5787SOL     OW17902   3.639   4.066   9.090
 5787SOL    HW117903   3.622   4.097   8.996
 5787SOL    HW217904   3.555   4.029   9.128
 5788SOL     OW17905   2.945   4.708   7.535
 5788SOL    HW117906   2.922   4.761   7.453
 5788SOL    HW217907   3.026   4.652   7.516
 5789SOL     OW17908   3.686   3.916   8.675
 5789SOL    HW117909   3.682   3.826   8.719
 5789SOL    HW217910   3.689   3.905   8.576
 5790SOL     OW17911   2.290   4.148   7.968
 5790SOL    HW117912   2.320   4.076   7.906
 5790SOL    HW217913   2.251   4.108   8.051
 5791SOL     OW17914   2.179   4.271   8.728
 5791SOL    HW117915   2.217   4.212   8.800
 5791SOL    HW217916   2.219   4.245   8.640
 5792SOL     OW17917   3.286   3.938   8.560
 5792SOL    HW117918   3.338   3.873   8.615
 5792SOL    HW217919   3.237   4.001   8.621
 5793SOL     OW17920   2.863   3.758   8.602
 5793SOL    HW117921   2.800   3.686   8.571
 5793SOL    HW217922   2.956   3.722   8.602
 5794SOL     OW17923   3.214   3.776   7.616
 5794SOL    HW117924   3.249   3.735   7.532
 5794SOL    HW217925   3.124   3.738   7.636
 5795SOL     OW17926   3.162   4.177   8.139
 5795SOL    HW117927   3.103   4.257   8.143
 5795SOL    HW217928   3.177   4.142   8.232
 5796SOL     OW17929   3.455   3.945   8.330
 5796SOL    HW117930   3.371   3.944   8.384
 5796SOL    HW217931   3.457   4.028   8.274
 5797SOL     OW17932   2.092   4.352   9.423
 5797SOL    HW117933   1.999   4.350   9.460
 5797SOL    HW217934   2.093   4.313   9.331
 5798SOL     OW17935   2.087   3.999  10.306
 5798SOL    HW117936   2.122   3.982  10.398
 5798SOL    HW217937   1.999   3.954  10.294
 5799SOL     OW17938   1.881   4.092   9.957
 5799SOL    HW117939   1.799   4.135   9.996
 5799SOL    HW217940   1.853   4.019   9.894
 5800SOL     OW17941   3.617   4.331   9.541
 5800SOL    HW117942   3.605   4.318   9.442
 5800SOL    HW217943   3.587   4.250   9.590
 5801SOL     OW17944   2.547   4.736   9.975
 5801SOL    HW117945   2.616   4.720  10.045
 5801SOL    HW217946   2.474   4.793  10.013
 5802SOL     OW17947   2.300   4.116  10.809
 5802SOL    HW117948   2.382   4.060  10.818
 5802SOL    HW217949   2.219   4.058  10.813
 5803SOL     OW17950   3.465   4.171  10.047
 5803SOL    HW117951   3.391   4.217   9.997
 5803SOL    HW217952   3.516   4.239  10.100
 5804SOL     OW17953   3.456   3.838  10.790
 5804SOL    HW117954   3.438   3.905  10.718
 5804SOL    HW217955   3.453   3.884  10.879
 5805SOL     OW17956   1.984   4.367   9.873
 5805SOL    HW117957   1.939   4.279   9.890
 5805SOL    HW217958   1.983   4.421   9.957
 5806SOL     OW17959   1.975   4.461  10.907
 5806SOL    HW117960   2.063   4.448  10.952
 5806SOL    HW217961   1.962   4.558  10.885
 5807SOL     OW17962   2.671   3.728   9.812
 5807SOL    HW117963   2.711   3.819   9.803
 5807SOL    HW217964   2.571   3.736   9.818
 5808SOL     OW17965   2.179   3.975  11.111
 5808SOL    HW117966   2.250   4.046  11.117
 5808SOL    HW217967   2.091   4.014  11.139
 5809SOL     OW17968   3.143   4.069  10.254
 5809SOL    HW117969   3.057   4.019  10.241
 5809SOL    HW217970   3.205   4.015  10.310
 5810SOL     OW17971   2.669   4.329  10.775
 5810SOL    HW117972   2.622   4.326  10.864
 5810SOL    HW217973   2.618   4.274  10.709
 5811SOL     OW17974   2.853   4.134  10.552
 5811SOL    HW117975   2.776   4.168  10.606
 5811SOL    HW217976   2.819   4.083  10.473
 5812SOL     OW17977   2.903   4.425   9.739
 5812SOL    HW117978   2.929   4.421   9.835
 5812SOL    HW217979   2.818   4.374   9.725
 5813SOL     OW17980   2.727   4.072   9.505
 5813SOL    HW117981   2.786   4.135   9.456
 5813SOL    HW217982   2.746   3.978   9.476
 5814SOL     OW17983   2.412   3.920  10.195
 5814SOL    HW117984   2.407   3.915  10.295
 5814SOL    HW217985   2.414   4.016  10.166
 5815SOL     OW17986   3.320   4.459  10.038
 5815SOL    HW117987   3.315   4.394  10.113
 5815SOL    HW217988   3.400   4.518  10.051
 5816SOL     OW17989   2.064   4.009  10.808
 5816SOL    HW117990   1.984   4.069  10.795
 5816SOL    HW217991   2.054   3.960  10.894
 5817SOL     OW17992   3.262   3.831   9.736
 5817SOL    HW117993   3.238   3.794   9.646
 5817SOL    HW217994   3.361   3.847   9.740
 5818SOL     OW17995   2.244   4.424   9.790
 5818SOL    HW117996   2.289   4.334   9.787
 5818SOL    HW217997   2.150   4.413   9.823
 5819SOL     OW17998   2.476   3.846   9.427
 5819SOL    HW117999   2.574   3.824   9.434
 5819SOL    HW218000   2.445   3.829   9.334
 5820SOL     OW18001   2.643   3.988  11.059
 5820SOL    HW118002   2.710   3.927  11.102
 5820SOL    HW218003   2.570   4.007  11.124
 5821SOL     OW18004   3.213   4.314  10.743
 5821SOL    HW118005   3.241   4.271  10.828
 5821SOL    HW218006   3.238   4.410  10.744
 5822SOL     OW18007   2.784   4.227  10.209
 5822SOL    HW118008   2.759   4.218  10.113
 5822SOL    HW218009   2.832   4.145  10.240
 5823SOL     OW18010   2.401   3.788   9.822
 5823SOL    HW118011   2.320   3.789   9.880
 5823SOL    HW218012   2.404   3.871   9.767
 5824SOL     OW18013   2.159   3.759   9.481
 5824SOL    HW118014   2.208   3.843   9.460
 5824SOL    HW218015   2.221   3.694   9.526
 5825SOL     OW18016   2.797   3.960   9.790
 5825SOL    HW118017   2.749   4.001   9.712
 5825SOL    HW218018   2.896   3.958   9.771
 5826SOL     OW18019   2.938   4.407  10.774
 5826SOL    HW118020   2.858   4.346  10.777
 5826SOL    HW218021   3.019   4.354  10.750
 5827SOL     OW18022   2.894   4.273   9.326
 5827SOL    HW118023   2.853   4.355   9.287
 5827SOL    HW218024   2.958   4.299   9.399
 5828SOL     OW18025   1.940   4.280  10.696
 5828SOL    HW118026   2.032   4.279  10.655
 5828SOL    HW218027   1.934   4.354  10.763
 5829SOL     OW18028   2.423   3.946  10.457
 5829SOL    HW118029   2.461   3.862  10.494
 5829SOL    HW218030   2.335   3.965  10.501
 5830SOL     OW18031   2.728   4.178   9.952
 5830SOL    HW118032   2.696   4.250   9.890
 5830SOL    HW218033   2.752   4.097   9.899
 5831SOL     OW18034   2.879   3.763  10.063
 5831SOL    HW118035   2.807   3.768   9.994
 5831SOL    HW218036   2.855   3.694  10.132
 5832SOL     OW18037   3.328   4.314  10.302
 5832SOL    HW118038   3.298   4.219  10.309
 5832SOL    HW218039   3.401   4.330  10.368
 5833SOL     OW18040   3.252   4.299   9.388
 5833SOL    HW118041   3.198   4.278   9.469
 5833SOL    HW218042   3.343   4.258   9.397
 5834SOL     OW18043   2.389   3.980   9.638
 5834SOL    HW118044   2.416   3.921   9.563
 5834SOL    HW218045   2.389   4.075   9.607
 5835SOL     OW18046   2.777   3.813  10.712
 5835SOL    HW118047   2.802   3.793  10.617
 5835SOL    HW218048   2.849   3.869  10.754
 5836SOL     OW18049   2.272   4.537  10.561
 5836SOL    HW118050   2.358   4.549  10.611
 5836SOL    HW218051   2.230   4.450  10.588
 5837SOL     OW18052   3.136   4.110  10.572
 5837SOL    HW118053   3.157   4.184  10.636
 5837SOL    HW218054   3.047   4.127  10.529
 5838SOL     OW18055   2.428   4.261  10.175
 5838SOL    HW118056   2.440   4.327  10.101
 5838SOL    HW218057   2.474   4.295  10.258
 5839SOL     OW18058   3.444   4.363   9.782
 5839SOL    HW118059   3.413   4.424   9.855
 5839SOL    HW218060   3.494   4.415   9.713
 5840SOL     OW18061   2.264   4.475  10.908
 5840SOL    HW118062   2.332   4.530  10.861
 5840SOL    HW218063   2.304   4.387  10.935
 5841SOL     OW18064   3.071   4.249   9.585
 5841SOL    HW118065   3.084   4.165   9.639
 5841SOL    HW218066   3.042   4.323   9.645
 5842SOL     OW18067   2.169   3.937  10.541
 5842SOL    HW118068   2.146   3.974  10.631
 5842SOL    HW218069   2.139   3.842  10.535
 5843SOL     OW18070   2.594   4.358  10.374
 5843SOL    HW118071   2.653   4.332  10.298
 5843SOL    HW218072   2.566   4.454  10.363
 5844SOL     OW18073   2.169   3.787   9.928
 5844SOL    HW118074   2.158   3.881   9.961
 5844SOL    HW218075   2.164   3.724  10.005
 5845SOL     OW18076   3.484   4.091   9.684
 5845SOL    HW118077   3.486   4.015   9.748
 5845SOL    HW218078   3.436   4.168   9.724
 5846SOL     OW18079   3.402   3.998   9.435
 5846SOL    HW118080   3.341   3.923   9.458
 5846SOL    HW218081   3.424   4.050   9.518
 5847SOL     OW18082   2.181   4.534  10.259
 5847SOL    HW118083   2.274   4.570  10.264
 5847SOL    HW218084   2.175   4.449  10.311
 5848SOL     OW18085   2.201   4.233  10.316
 5848SOL    HW118086   2.149   4.150  10.299
 5848SOL    HW218087   2.278   4.238  10.252
 5849SOL     OW18088   3.022   3.931  10.787
 5849SOL    HW118089   3.022   3.995  10.864
 5849SOL    HW218090   3.050   3.979  10.704
 5850SOL     OW18091   1.902   4.268  10.424
 5850SOL    HW118092   1.987   4.235  10.383
 5850SOL    HW218093   1.915   4.283  10.522
 5851SOL     OW18094   3.231   4.674  10.970
 5851SOL    HW118095   3.270   4.763  10.990
 5851SOL    HW218096   3.241   4.654  10.873
 5852SOL     OW18097   2.677   4.296   9.635
 5852SOL    HW118098   2.684   4.207   9.589
 5852SOL    HW218099   2.583   4.330   9.627
 5853SOL     OW18100   3.519   4.328  10.516
 5853SOL    HW118101   3.481   4.259  10.578
 5853SOL    HW218102   3.601   4.292  10.472
 5854SOL     OW18103   2.533   4.188  10.579
 5854SOL    HW118104   2.499   4.099  10.549
 5854SOL    HW218105   2.559   4.242  10.499
 5855SOL     OW18106   2.335   4.224   9.501
 5855SOL    HW118107   2.396   4.304   9.505
 5855SOL    HW218108   2.240   4.255   9.508
 5856SOL     OW18109   3.588   3.859   9.833
 5856SOL    HW118110   3.661   3.842   9.766
 5856SOL    HW218111   3.557   3.772   9.871
 5857SOL     OW18112   3.142   4.651   9.982
 5857SOL    HW118113   3.202   4.570   9.984
 5857SOL    HW218114   3.182   4.720   9.922
 5858SOL     OW18115   3.703   3.899  10.273
 5858SOL    HW118116   3.742   3.814  10.237
 5858SOL    HW218117   3.605   3.901  10.254
 5859SOL     OW18118   2.125   4.050  10.030
 5859SOL    HW118119   2.046   4.101   9.996
 5859SOL    HW218120   2.116   4.035  10.128
 5860SOL     OW18121   2.778   4.634   9.601
 5860SOL    HW118122   2.841   4.672   9.533
 5860SOL    HW218123   2.818   4.551   9.640
 5861SOL     OW18124   2.901   4.822  10.006
 5861SOL    HW118125   2.831   4.775  10.060
 5861SOL    HW218126   2.960   4.754   9.963
 5862SOL     OW18127   2.876   3.960  10.281
 5862SOL    HW118128   2.868   3.924  10.188
 5862SOL    HW218129   2.874   3.884  10.346
 5863SOL     OW18130   3.571   4.109  10.691
 5863SOL    HW118131   3.644   4.178  10.695
 5863SOL    HW218132   3.599   4.034  10.632
 5864SOL     OW18133   2.534   3.927  10.799
 5864SOL    HW118134   2.624   3.911  10.759
 5864SOL    HW218135   2.542   3.932  10.898
 5865SOL     OW18136   1.937   4.069   9.343
 5865SOL    HW118137   1.845   4.041   9.314
 5865SOL    HW218138   1.968   4.146   9.287
 5866SOL     OW18139   1.934   3.890   9.628
 5866SOL    HW118140   1.917   3.973   9.574
 5866SOL    HW218141   2.024   3.853   9.606
 5867SOL     OW18142   2.578   4.289  11.018
 5867SOL    HW118143   2.597   4.354  11.092
 5867SOL    HW218144   2.638   4.209  11.027
 5868SOL     OW18145   3.087   4.049   9.759
 5868SOL    HW118146   3.152   3.975   9.748
 5868SOL    HW218147   3.107   4.099   9.843
 5869SOL     OW18148   3.639   4.066  10.952
 5869SOL    HW118149   3.622   4.097  10.858
 5869SOL    HW218150   3.555   4.029  10.990
 5870SOL     OW18151   2.945   4.708   9.397
 5870SOL    HW118152   2.922   4.761   9.315
 5870SOL    HW218153   3.026   4.652   9.378
 5871SOL     OW18154   3.686   3.916  10.537
 5871SOL    HW118155   3.682   3.826  10.581
 5871SOL    HW218156   3.689   3.905  10.438
 5872SOL     OW18157   2.290   4.148   9.830
 5872SOL    HW118158   2.320   4.076   9.768
 5872SOL    HW218159   2.251   4.108   9.913
 5873SOL     OW18160   2.179   4.271  10.590
 5873SOL    HW118161   2.217   4.212  10.662
 5873SOL    HW218162   2.219   4.245  10.502
 5874SOL     OW18163   3.286   3.938  10.422
 5874SOL    HW118164   3.338   3.873  10.477
 5874SOL    HW218165   3.237   4.001  10.483
 5875SOL     OW18166   2.863   3.758  10.464
 5875SOL    HW118167   2.800   3.686  10.433
 5875SOL    HW218168   2.956   3.722  10.464
 5876SOL     OW18169   3.214   3.776   9.478
 5876SOL    HW118170   3.249   3.735   9.394
 5876SOL    HW218171   3.124   3.738   9.498
 5877SOL     OW18172   3.162   4.177  10.001
 5877SOL    HW118173   3.103   4.257  10.005
 5877SOL    HW218174   3.177   4.142  10.094
 5878SOL     OW18175   3.455   3.945  10.192
 5878SOL    HW118176   3.371   3.944  10.246
 5878SOL    HW218177   3.457   4.028  10.136
 5879SOL     OW18178   3.954   0.628   0.113
 5879SOL    HW118179   3.861   0.626   0.150
 5879SOL    HW218180   3.955   0.589   0.021
 5880SOL     OW18181   3.949   0.275   0.996
 5880SOL    HW118182   3.984   0.258   1.088
 5880SOL    HW218183   3.861   0.230   0.984
 5881SOL     OW18184   3.743   0.368   0.647
 5881SOL    HW118185   3.661   0.411   0.686
 5881SOL    HW218186   3.715   0.295   0.584
 5882SOL     OW18187   4.293   1.275   1.165
 5882SOL    HW118188   4.200   1.268   1.128
 5882SOL    HW218189   4.304   1.364   1.209
 5883SOL     OW18190   4.574   0.798   1.823
 5883SOL    HW118191   4.570   0.874   1.888
 5883SOL    HW218192   4.596   0.834   1.732
 5884SOL     OW18193   4.409   1.012   0.665
 5884SOL    HW118194   4.478   0.996   0.735
 5884SOL    HW218195   4.336   1.069   0.703
 5885SOL     OW18196   4.410   1.161   1.803
 5885SOL    HW118197   4.470   1.240   1.817
 5885SOL    HW218198   4.324   1.192   1.762
 5886SOL     OW18199   4.059   1.435   1.061
 5886SOL    HW118200   3.981   1.404   1.008
 5886SOL    HW218201   4.117   1.493   1.004
 5887SOL     OW18202   4.162   0.392   1.499
 5887SOL    HW118203   4.244   0.336   1.508
 5887SOL    HW218204   4.081   0.334   1.503
 5888SOL     OW18205   3.955   1.713   0.483
 5888SOL    HW118206   3.989   1.790   0.537
 5888SOL    HW218207   3.999   1.713   0.393
 5889SOL     OW18208   3.954   1.434   0.538
 5889SOL    HW118209   3.928   1.530   0.538
 5889SOL    HW218210   3.883   1.380   0.583
 5890SOL     OW18211   3.964   1.091   0.886
 5890SOL    HW118212   3.978   1.007   0.938
 5890SOL    HW218213   3.909   1.155   0.941
 5891SOL     OW18214   4.344   1.786   1.439
 5891SOL    HW118215   4.252   1.769   1.474
 5891SOL    HW218216   4.372   1.878   1.465
 5892SOL     OW18217   4.330   0.964   0.123
 5892SOL    HW118218   4.337   1.048   0.069
 5892SOL    HW218219   4.376   0.977   0.211
 5893SOL     OW18220   3.846   0.643   0.563
 5893SOL    HW118221   3.801   0.555   0.580
 5893SOL    HW218222   3.845   0.697   0.647
 5894SOL     OW18223   3.751   1.596   0.117
 5894SOL    HW118224   3.732   1.500   0.138
 5894SOL    HW218225   3.718   1.654   0.192
 5895SOL     OW18226   3.837   0.737   1.597
 5895SOL    HW118227   3.925   0.724   1.642
 5895SOL    HW218228   3.824   0.834   1.575
 5896SOL     OW18229   4.337   1.365   0.726
 5896SOL    HW118230   4.288   1.278   0.735
 5896SOL    HW218231   4.314   1.408   0.639
 5897SOL     OW18232   4.533   0.004   0.502
 5897SOL    HW118233   4.573   0.095   0.493
 5897SOL    HW218234   4.433   0.012   0.508
 5898SOL     OW18235   3.921   0.976   1.264
 5898SOL    HW118236   4.010   0.931   1.250
 5898SOL    HW218237   3.848   0.911   1.245
 5899SOL     OW18238   4.041   0.251   1.801
 5899SOL    HW118239   4.112   0.322   1.807
 5899SOL    HW218240   3.953   0.290   1.829
 5900SOL     OW18241   4.322   0.729   0.270
 5900SOL    HW118242   4.346   0.798   0.202
 5900SOL    HW218243   4.244   0.762   0.324
 5901SOL     OW18244   3.800   0.811   0.789
 5901SOL    HW118245   3.899   0.799   0.798
 5901SOL    HW218246   3.776   0.906   0.810
 5902SOL     OW18247   3.854   1.821   1.571
 5902SOL    HW118248   3.844   1.806   1.670
 5902SOL    HW218249   3.768   1.857   1.535
 5903SOL     OW18250   4.274   0.196   0.885
 5903SOL    HW118251   4.269   0.191   0.985
 5903SOL    HW218252   4.276   0.292   0.856
 5904SOL     OW18253   4.075   1.801   0.853
 5904SOL    HW118254   4.125   1.715   0.859
 5904SOL    HW218255   4.140   1.878   0.850
 5905SOL     OW18256   4.045   0.943   0.242
 5905SOL    HW118257   4.127   0.982   0.200
 5905SOL    HW218258   4.018   0.861   0.193
 5906SOL     OW18259   4.185   1.266   1.727
 5906SOL    HW118260   4.135   1.267   1.641
 5906SOL    HW218261   4.122   1.248   1.803
 5907SOL     OW18262   3.926   0.285   1.498
 5907SOL    HW118263   3.846   0.345   1.485
 5907SOL    HW218264   3.916   0.236   1.584
 5908SOL     OW18265   4.188   1.743   0.323
 5908SOL    HW118266   4.221   1.782   0.409
 5908SOL    HW218267   4.264   1.736   0.258
 5909SOL     OW18268   3.973   1.785   1.241
 5909SOL    HW118269   4.030   1.720   1.291
 5909SOL    HW218270   3.957   1.752   1.148
 5910SOL     OW18271   4.106   0.700   0.480
 5910SOL    HW118272   4.151   0.610   0.477
 5910SOL    HW218273   4.012   0.689   0.513
 5911SOL     OW18274   4.338   0.122   0.117
 5911SOL    HW118275   4.436   0.100   0.124
 5911SOL    HW218276   4.307   0.105   0.024
 5912SOL     OW18277   4.527   1.402   0.924
 5912SOL    HW118278   4.617   1.416   0.882
 5912SOL    HW218279   4.456   1.404   0.853
 5913SOL     OW18280   4.263   0.064   0.512
 5913SOL    HW118281   4.182   0.065   0.570
 5913SOL    HW218282   4.266   0.147   0.457
 5914SOL     OW18283   4.021   0.035   0.171
 5914SOL    HW118284   4.070   0.119   0.150
 5914SOL    HW218285   4.083  -0.030   0.216
 5915SOL     OW18286   4.800   0.683   1.464
 5915SOL    HW118287   4.720   0.622   1.467
 5915SOL    HW218288   4.881   0.630   1.440
 5916SOL     OW18289   4.183   1.152   0.741
 5916SOL    HW118290   4.112   1.125   0.806
 5916SOL    HW218291   4.157   1.124   0.648
 5917SOL     OW18292   3.802   0.556   1.386
 5917SOL    HW118293   3.894   0.555   1.345
 5917SOL    HW218294   3.796   0.630   1.453
 5918SOL     OW18295   4.285   0.222   1.147
 5918SOL    HW118296   4.323   0.138   1.184
 5918SOL    HW218297   4.197   0.241   1.191
 5919SOL     OW18298   4.212   1.385   0.174
 5919SOL    HW118299   4.125   1.370   0.221
 5919SOL    HW218300   4.195   1.411   0.079
 5920SOL     OW18301   4.251   0.256   0.328
 5920SOL    HW118302   4.278   0.197   0.253
 5920SOL    HW218303   4.251   0.351   0.297
 5921SOL     OW18304   4.134   0.813   1.251
 5921SOL    HW118305   4.220   0.825   1.301
 5921SOL    HW218306   4.092   0.726   1.278
 5922SOL     OW18307   3.788   1.564   1.331
 5922SOL    HW118308   3.742   1.646   1.297
 5922SOL    HW218309   3.886   1.583   1.340
 5923SOL     OW18310   4.091   1.100   0.501
 5923SOL    HW118311   4.084   1.183   0.445
 5923SOL    HW218312   4.095   1.020   0.441
 5924SOL     OW18313   4.290   0.537   0.865
 5924SOL    HW118314   4.302   0.603   0.791
 5924SOL    HW218315   4.336   0.571   0.948
 5925SOL     OW18316   4.078   1.510   1.329
 5925SOL    HW118317   4.057   1.466   1.242
 5925SOL    HW218318   4.175   1.536   1.332
 5926SOL     OW18319   4.126   0.751   1.598
 5926SOL    HW118320   4.194   0.806   1.551
 5926SOL    HW218321   4.166   0.663   1.625
 5927SOL     OW18322   4.228   0.050   1.740
 5927SOL    HW118323   4.186  -0.007   1.670
 5927SOL    HW218324   4.162   0.119   1.772
 5928SOL     OW18325   4.297   0.870   1.029
 5928SOL    HW118326   4.341   0.959   1.020
 5928SOL    HW218327   4.234   0.870   1.106
 5929SOL     OW18328   4.031   0.213   1.231
 5929SOL    HW118329   4.008   0.250   1.321
 5929SOL    HW218330   4.001   0.118   1.225
 5930SOL     OW18331   3.761   1.310   1.282
 5930SOL    HW118332   3.814   1.261   1.350
 5930SOL    HW218333   3.783   1.408   1.287
 5931SOL     OW18334   4.031   0.063   0.618
 5931SOL    HW118335   4.020   0.157   0.651
 5931SOL    HW218336   4.026   0.000   0.695
 5932SOL     OW18337   4.074   0.898   1.804
 5932SOL    HW118338   4.150   0.942   1.852
 5932SOL    HW218339   4.109   0.851   1.722
 5933SOL     OW18340   4.043   0.810   0.949
 5933SOL    HW118341   4.136   0.846   0.954
 5933SOL    HW218342   4.037   0.725   1.001
 5934SOL     OW18343   4.063   0.509   1.006
 5934SOL    HW118344   4.011   0.426   0.989
 5934SOL    HW218345   4.140   0.514   0.942
 5935SOL     OW18346   3.732   1.326   0.200
 5935SOL    HW118347   3.639   1.347   0.169
 5935SOL    HW218348   3.742   1.227   0.213
 5936SOL     OW18349   3.812   1.801   0.927
 5936SOL    HW118350   3.770   1.715   0.900
 5936SOL    HW218351   3.906   1.804   0.893
 5937SOL     OW18352   4.228   1.568   0.910
 5937SOL    HW118353   4.294   1.642   0.919
 5937SOL    HW218354   4.272   1.489   0.868
 5938SOL     OW18355   3.764   0.544   1.114
 5938SOL    HW118356   3.849   0.511   1.073
 5938SOL    HW218357   3.777   0.559   1.212
 5939SOL     OW18358   3.913   0.520   1.722
 5939SOL    HW118359   3.972   0.480   1.652
 5939SOL    HW218360   3.855   0.591   1.681
 5940SOL     OW18361   4.539   0.572   0.325
 5940SOL    HW118362   4.546   0.483   0.279
 5940SOL    HW218363   4.445   0.606   0.317
 5941SOL     OW18364   3.976   1.564   1.744
 5941SOL    HW118365   3.946   1.621   1.820
 5941SOL    HW218366   3.969   1.467   1.770
 5942SOL     OW18367   4.197   0.500   0.191
 5942SOL    HW118368   4.258   0.580   0.195
 5942SOL    HW218369   4.102   0.531   0.198
 5943SOL     OW18370   3.883   1.137   1.466
 5943SOL    HW118371   3.905   1.076   1.542
 5943SOL    HW218372   3.893   1.088   1.380
 5944SOL     OW18373   3.807   1.258   1.022
 5944SOL    HW118374   3.802   1.257   1.122
 5944SOL    HW218375   3.724   1.217   0.984
 5945SOL     OW18376   4.412   1.662   1.716
 5945SOL    HW118377   4.356   1.743   1.725
 5945SOL    HW218378   4.464   1.666   1.630
 5946SOL     OW18379   3.854   1.794   1.851
 5946SOL    HW118380   3.813   1.720   1.904
 5946SOL    HW218381   3.918   1.845   1.909
 5947SOL     OW18382   3.987   0.326   0.720
 5947SOL    HW118383   3.908   0.377   0.686
 5947SOL    HW218384   3.978   0.311   0.818
 5948SOL     OW18385   4.096   1.288   1.490
 5948SOL    HW118386   4.083   1.381   1.456
 5948SOL    HW218387   4.012   1.236   1.477
 5949SOL     OW18388   4.314   1.487   0.491
 5949SOL    HW118389   4.356   1.429   0.421
 5949SOL    HW218390   4.270   1.566   0.447
 5950SOL     OW18391   3.979   1.348   0.290
 5950SOL    HW118392   3.883   1.349   0.263
 5950SOL    HW218393   3.991   1.401   0.374
 5951SOL     OW18394   3.829   1.013   1.726
 5951SOL    HW118395   3.752   0.980   1.780
 5951SOL    HW218396   3.914   0.983   1.768
 5952SOL     OW18397   4.396   0.203   1.489
 5952SOL    HW118398   4.486   0.187   1.449
 5952SOL    HW218399   4.404   0.208   1.588
 5953SOL     OW18400   3.799   0.345   0.033
 5953SOL    HW118401   3.707   0.317   0.004
 5953SOL    HW218402   3.830   0.422  -0.023
 5954SOL     OW18403   3.796   0.166   0.318
 5954SOL    HW118404   3.779   0.249   0.264
 5954SOL    HW218405   3.886   0.129   0.296
 5955SOL     OW18406   4.337   0.842   1.431
 5955SOL    HW118407   4.393   0.923   1.414
 5955SOL    HW218408   4.396   0.762   1.434
 5956SOL     OW18409   4.440   0.565   1.708
 5956SOL    HW118410   4.459   0.630   1.782
 5956SOL    HW218411   4.500   0.485   1.717
 5957SOL     OW18412   4.114   1.741   1.560
 5957SOL    HW118413   4.023   1.782   1.558
 5957SOL    HW218414   4.107   1.647   1.592
 5958SOL     OW18415   4.318   0.745   0.652
 5958SOL    HW118416   4.368   0.830   0.633
 5958SOL    HW218417   4.230   0.747   0.604
 5959SOL     OW18418   3.945   1.314   1.844
 5959SOL    HW118419   3.880   1.241   1.823
 5959SOL    HW218420   3.949   1.328   1.942
 5960SOL     OW18421   3.803   1.240   0.653
 5960SOL    HW118422   3.802   1.193   0.741
 5960SOL    HW218423   3.885   1.212   0.602
 5961SOL     OW18424   4.396   1.391   1.624
 5961SOL    HW118425   4.318   1.341   1.662
 5961SOL    HW218426   4.393   1.486   1.655
 5962SOL     OW18427   4.152   0.424   0.520
 5962SOL    HW118428   4.182   0.352   0.458
 5962SOL    HW218429   4.113   0.384   0.603
 5963SOL     OW18430   4.041   0.547   1.280
 5963SOL    HW118431   4.079   0.488   1.352
 5963SOL    HW218432   4.081   0.521   1.192
 5964SOL     OW18433   4.536   1.586   0.687
 5964SOL    HW118434   4.568   1.596   0.593
 5964SOL    HW218435   4.457   1.524   0.689
 5965SOL     OW18436   3.763   1.077   0.300
 5965SOL    HW118437   3.862   1.066   0.291
 5965SOL    HW218438   3.723   0.991   0.332
 5966SOL     OW18439   3.954   0.628   1.975
 5966SOL    HW118440   3.861   0.626   2.012
 5966SOL    HW218441   3.955   0.589   1.883
 5967SOL     OW18442   3.949   0.275   2.858
 5967SOL    HW118443   3.984   0.258   2.950
 5967SOL    HW218444   3.861   0.230   2.846
 5968SOL     OW18445   3.743   0.368   2.509
 5968SOL    HW118446   3.661   0.411   2.548
 5968SOL    HW218447   3.715   0.295   2.446
 5969SOL     OW18448   4.293   1.275   3.027
 5969SOL    HW118449   4.200   1.268   2.990
 5969SOL    HW218450   4.304   1.364   3.071
 5970SOL     OW18451   4.574   0.798   3.685
 5970SOL    HW118452   4.570   0.874   3.750
 5970SOL    HW218453   4.596   0.834   3.594
 5971SOL     OW18454   4.409   1.012   2.527
 5971SOL    HW118455   4.478   0.996   2.597
 5971SOL    HW218456   4.336   1.069   2.565
 5972SOL     OW18457   4.410   1.161   3.665
 5972SOL    HW118458   4.470   1.240   3.679
 5972SOL    HW218459   4.324   1.192   3.624
 5973SOL     OW18460   4.059   1.435   2.923
 5973SOL    HW118461   3.981   1.404   2.870
 5973SOL    HW218462   4.117   1.493   2.866
 5974SOL     OW18463   4.162   0.392   3.361
 5974SOL    HW118464   4.244   0.336   3.370
 5974SOL    HW218465   4.081   0.334   3.365
 5975SOL     OW18466   3.955   1.713   2.345
 5975SOL    HW118467   3.989   1.790   2.399
 5975SOL    HW218468   3.999   1.713   2.255
 5976SOL     OW18469   3.954   1.434   2.400
 5976SOL    HW118470   3.928   1.530   2.400
 5976SOL    HW218471   3.883   1.380   2.445
 5977SOL     OW18472   3.964   1.091   2.748
 5977SOL    HW118473   3.978   1.007   2.800
 5977SOL    HW218474   3.909   1.155   2.803
 5978SOL     OW18475   4.344   1.786   3.301
 5978SOL    HW118476   4.252   1.769   3.336
 5978SOL    HW218477   4.372   1.878   3.327
 5979SOL     OW18478   4.330   0.964   1.985
 5979SOL    HW118479   4.337   1.048   1.931
 5979SOL    HW218480   4.376   0.977   2.073
 5980SOL     OW18481   3.846   0.643   2.425
 5980SOL    HW118482   3.801   0.555   2.442
 5980SOL    HW218483   3.845   0.697   2.509
 5981SOL     OW18484   3.751   1.596   1.979
 5981SOL    HW118485   3.732   1.500   2.000
 5981SOL    HW218486   3.718   1.654   2.054
 5982SOL     OW18487   3.837   0.737   3.459
 5982SOL    HW118488   3.925   0.724   3.504
 5982SOL    HW218489   3.824   0.834   3.437
 5983SOL     OW18490   4.337   1.365   2.588
 5983SOL    HW118491   4.288   1.278   2.597
 5983SOL    HW218492   4.314   1.408   2.501
 5984SOL     OW18493   4.533   0.004   2.364
 5984SOL    HW118494   4.573   0.095   2.355
 5984SOL    HW218495   4.433   0.012   2.370
 5985SOL     OW18496   3.921   0.976   3.126
 5985SOL    HW118497   4.010   0.931   3.112
 5985SOL    HW218498   3.848   0.911   3.107
 5986SOL     OW18499   4.041   0.251   3.663
 5986SOL    HW118500   4.112   0.322   3.669
 5986SOL    HW218501   3.953   0.290   3.691
 5987SOL     OW18502   4.322   0.729   2.132
 5987SOL    HW118503   4.346   0.798   2.064
 5987SOL    HW218504   4.244   0.762   2.186
 5988SOL     OW18505   3.800   0.811   2.651
 5988SOL    HW118506   3.899   0.799   2.660
 5988SOL    HW218507   3.776   0.906   2.672
 5989SOL     OW18508   3.854   1.821   3.433
 5989SOL    HW118509   3.844   1.806   3.532
 5989SOL    HW218510   3.768   1.857   3.397
 5990SOL     OW18511   4.274   0.196   2.747
 5990SOL    HW118512   4.269   0.191   2.847
 5990SOL    HW218513   4.276   0.292   2.718
 5991SOL     OW18514   4.075   1.801   2.715
 5991SOL    HW118515   4.125   1.715   2.721
 5991SOL    HW218516   4.140   1.878   2.712
 5992SOL     OW18517   4.045   0.943   2.104
 5992SOL    HW118518   4.127   0.982   2.062
 5992SOL    HW218519   4.018   0.861   2.055
 5993SOL     OW18520   4.185   1.266   3.589
 5993SOL    HW118521   4.135   1.267   3.503
 5993SOL    HW218522   4.122   1.248   3.665
 5994SOL     OW18523   3.926   0.285   3.360
 5994SOL    HW118524   3.846   0.345   3.347
 5994SOL    HW218525   3.916   0.236   3.446
 5995SOL     OW18526   4.188   1.743   2.185
 5995SOL    HW118527   4.221   1.782   2.271
 5995SOL    HW218528   4.264   1.736   2.120
 5996SOL     OW18529   3.973   1.785   3.103
 5996SOL    HW118530   4.030   1.720   3.153
 5996SOL    HW218531   3.957   1.752   3.010
 5997SOL     OW18532   4.106   0.700   2.342
 5997SOL    HW118533   4.151   0.610   2.339
 5997SOL    HW218534   4.012   0.689   2.375
 5998SOL     OW18535   4.338   0.122   1.979
 5998SOL    HW118536   4.436   0.100   1.986
 5998SOL    HW218537   4.307   0.105   1.886
 5999SOL     OW18538   4.527   1.402   2.786
 5999SOL    HW118539   4.617   1.416   2.744
 5999SOL    HW218540   4.456   1.404   2.715
 6000SOL     OW18541   4.263   0.064   2.374
 6000SOL    HW118542   4.182   0.065   2.432
 6000SOL    HW218543   4.266   0.147   2.319
 6001SOL     OW18544   4.021   0.035   2.033
 6001SOL    HW118545   4.070   0.119   2.012
 6001SOL    HW218546   4.083  -0.030   2.078
 6002SOL     OW18547   4.800   0.683   3.326
 6002SOL    HW118548   4.720   0.622   3.329
 6002SOL    HW218549   4.881   0.630   3.302
 6003SOL     OW18550   4.183   1.152   2.603
 6003SOL    HW118551   4.112   1.125   2.668
 6003SOL    HW218552   4.157   1.124   2.510
 6004SOL     OW18553   3.802   0.556   3.248
 6004SOL    HW118554   3.894   0.555   3.207
 6004SOL    HW218555   3.796   0.630   3.315
 6005SOL     OW18556   4.285   0.222   3.009
 6005SOL    HW118557   4.323   0.138   3.046
 6005SOL    HW218558   4.197   0.241   3.053
 6006SOL     OW18559   4.212   1.385   2.036
 6006SOL    HW118560   4.125   1.370   2.083
 6006SOL    HW218561   4.195   1.411   1.941
 6007SOL     OW18562   4.251   0.256   2.190
 6007SOL    HW118563   4.278   0.197   2.115
 6007SOL    HW218564   4.251   0.351   2.159
 6008SOL     OW18565   4.134   0.813   3.113
 6008SOL    HW118566   4.220   0.825   3.163
 6008SOL    HW218567   4.092   0.726   3.140
 6009SOL     OW18568   3.788   1.564   3.193
 6009SOL    HW118569   3.742   1.646   3.159
 6009SOL    HW218570   3.886   1.583   3.202
 6010SOL     OW18571   4.091   1.100   2.363
 6010SOL    HW118572   4.084   1.183   2.307
 6010SOL    HW218573   4.095   1.020   2.303
 6011SOL     OW18574   4.290   0.537   2.727
 6011SOL    HW118575   4.302   0.603   2.653
 6011SOL    HW218576   4.336   0.571   2.810
 6012SOL     OW18577   4.078   1.510   3.191
 6012SOL    HW118578   4.057   1.466   3.104
 6012SOL    HW218579   4.175   1.536   3.194
 6013SOL     OW18580   4.126   0.751   3.460
 6013SOL    HW118581   4.194   0.806   3.413
 6013SOL    HW218582   4.166   0.663   3.487
 6014SOL     OW18583   4.228   0.050   3.602
 6014SOL    HW118584   4.186  -0.007   3.532
 6014SOL    HW218585   4.162   0.119   3.634
 6015SOL     OW18586   4.297   0.870   2.891
 6015SOL    HW118587   4.341   0.959   2.882
 6015SOL    HW218588   4.234   0.870   2.968
 6016SOL     OW18589   4.031   0.213   3.093
 6016SOL    HW118590   4.008   0.250   3.183
 6016SOL    HW218591   4.001   0.118   3.087
 6017SOL     OW18592   3.761   1.310   3.144
 6017SOL    HW118593   3.814   1.261   3.212
 6017SOL    HW218594   3.783   1.408   3.149
 6018SOL     OW18595   4.031   0.063   2.480
 6018SOL    HW118596   4.020   0.157   2.513
 6018SOL    HW218597   4.026   0.000   2.557
 6019SOL     OW18598   4.074   0.898   3.666
 6019SOL    HW118599   4.150   0.942   3.714
 6019SOL    HW218600   4.109   0.851   3.584
 6020SOL     OW18601   4.043   0.810   2.811
 6020SOL    HW118602   4.136   0.846   2.816
 6020SOL    HW218603   4.037   0.725   2.863
 6021SOL     OW18604   4.063   0.509   2.868
 6021SOL    HW118605   4.011   0.426   2.851
 6021SOL    HW218606   4.140   0.514   2.804
 6022SOL     OW18607   3.732   1.326   2.062
 6022SOL    HW118608   3.639   1.347   2.031
 6022SOL    HW218609   3.742   1.227   2.075
 6023SOL     OW18610   3.812   1.801   2.789
 6023SOL    HW118611   3.770   1.715   2.762
 6023SOL    HW218612   3.906   1.804   2.755
 6024SOL     OW18613   4.228   1.568   2.772
 6024SOL    HW118614   4.294   1.642   2.781
 6024SOL    HW218615   4.272   1.489   2.730
 6025SOL     OW18616   3.764   0.544   2.976
 6025SOL    HW118617   3.849   0.511   2.935
 6025SOL    HW218618   3.777   0.559   3.074
 6026SOL     OW18619   3.913   0.520   3.584
 6026SOL    HW118620   3.972   0.480   3.514
 6026SOL    HW218621   3.855   0.591   3.543
 6027SOL     OW18622   4.539   0.572   2.187
 6027SOL    HW118623   4.546   0.483   2.141
 6027SOL    HW218624   4.445   0.606   2.179
 6028SOL     OW18625   3.976   1.564   3.606
 6028SOL    HW118626   3.946   1.621   3.682
 6028SOL    HW218627   3.969   1.467   3.632
 6029SOL     OW18628   4.197   0.500   2.053
 6029SOL    HW118629   4.258   0.580   2.057
 6029SOL    HW218630   4.102   0.531   2.060
 6030SOL     OW18631   3.883   1.137   3.328
 6030SOL    HW118632   3.905   1.076   3.404
 6030SOL    HW218633   3.893   1.088   3.242
 6031SOL     OW18634   3.807   1.258   2.884
 6031SOL    HW118635   3.802   1.257   2.984
 6031SOL    HW218636   3.724   1.217   2.846
 6032SOL     OW18637   4.412   1.662   3.578
 6032SOL    HW118638   4.356   1.743   3.587
 6032SOL    HW218639   4.464   1.666   3.492
 6033SOL     OW18640   3.854   1.794   3.713
 6033SOL    HW118641   3.813   1.720   3.766
 6033SOL    HW218642   3.918   1.845   3.771
 6034SOL     OW18643   3.987   0.326   2.582
 6034SOL    HW118644   3.908   0.377   2.548
 6034SOL    HW218645   3.978   0.311   2.680
 6035SOL     OW18646   4.096   1.288   3.352
 6035SOL    HW118647   4.083   1.381   3.318
 6035SOL    HW218648   4.012   1.236   3.339
 6036SOL     OW18649   4.314   1.487   2.353
 6036SOL    HW118650   4.356   1.429   2.283
 6036SOL    HW218651   4.270   1.566   2.309
 6037SOL     OW18652   3.979   1.348   2.152
 6037SOL    HW118653   3.883   1.349   2.125
 6037SOL    HW218654   3.991   1.401   2.236
 6038SOL     OW18655   3.829   1.013   3.588
 6038SOL    HW118656   3.752   0.980   3.642
 6038SOL    HW218657   3.914   0.983   3.630
 6039SOL     OW18658   4.396   0.203   3.351
 6039SOL    HW118659   4.486   0.187   3.311
 6039SOL    HW218660   4.404   0.208   3.450
 6040SOL     OW18661   3.799   0.345   1.895
 6040SOL    HW118662   3.707   0.317   1.866
 6040SOL    HW218663   3.830   0.422   1.839
 6041SOL     OW18664   3.796   0.166   2.180
 6041SOL    HW118665   3.779   0.249   2.126
 6041SOL    HW218666   3.886   0.129   2.158
 6042SOL     OW18667   4.337   0.842   3.293
 6042SOL    HW118668   4.393   0.923   3.276
 6042SOL    HW218669   4.396   0.762   3.296
 6043SOL     OW18670   4.440   0.565   3.570
 6043SOL    HW118671   4.459   0.630   3.644
 6043SOL    HW218672   4.500   0.485   3.579
 6044SOL     OW18673   4.114   1.741   3.422
 6044SOL    HW118674   4.023   1.782   3.420
 6044SOL    HW218675   4.107   1.647   3.454
 6045SOL     OW18676   4.318   0.745   2.514
 6045SOL    HW118677   4.368   0.830   2.495
 6045SOL    HW218678   4.230   0.747   2.466
 6046SOL     OW18679   3.945   1.314   3.706
 6046SOL    HW118680   3.880   1.241   3.685
 6046SOL    HW218681   3.949   1.328   3.804
 6047SOL     OW18682   3.803   1.240   2.515
 6047SOL    HW118683   3.802   1.193   2.603
 6047SOL    HW218684   3.885   1.212   2.464
 6048SOL     OW18685   4.396   1.391   3.486
 6048SOL    HW118686   4.318   1.341   3.524
 6048SOL    HW218687   4.393   1.486   3.517
 6049SOL     OW18688   4.152   0.424   2.382
 6049SOL    HW118689   4.182   0.352   2.320
 6049SOL    HW218690   4.113   0.384   2.465
 6050SOL     OW18691   4.041   0.547   3.142
 6050SOL    HW118692   4.079   0.488   3.214
 6050SOL    HW218693   4.081   0.521   3.054
 6051SOL     OW18694   4.536   1.586   2.549
 6051SOL    HW118695   4.568   1.596   2.455
 6051SOL    HW218696   4.457   1.524   2.551
 6052SOL     OW18697   3.763   1.077   2.162
 6052SOL    HW118698   3.862   1.066   2.153
 6052SOL    HW218699   3.723   0.991   2.194
 6053SOL     OW18700   3.954   0.628   3.837
 6053SOL    HW118701   3.861   0.626   3.874
 6053SOL    HW218702   3.955   0.589   3.745
 6054SOL     OW18703   3.949   0.275   4.720
 6054SOL    HW118704   3.984   0.258   4.812
 6054SOL    HW218705   3.861   0.230   4.708
 6055SOL     OW18706   3.743   0.368   4.371
 6055SOL    HW118707   3.661   0.411   4.410
 6055SOL    HW218708   3.715   0.295   4.308
 6056SOL     OW18709   4.293   1.275   4.889
 6056SOL    HW118710   4.200   1.268   4.852
 6056SOL    HW218711   4.304   1.364   4.933
 6057SOL     OW18712   4.574   0.798   5.547
 6057SOL    HW118713   4.570   0.874   5.612
 6057SOL    HW218714   4.596   0.834   5.456
 6058SOL     OW18715   4.409   1.012   4.389
 6058SOL    HW118716   4.478   0.996   4.459
 6058SOL    HW218717   4.336   1.069   4.427
 6059SOL     OW18718   4.410   1.161   5.527
 6059SOL    HW118719   4.470   1.240   5.541
 6059SOL    HW218720   4.324   1.192   5.486
 6060SOL     OW18721   4.059   1.435   4.785
 6060SOL    HW118722   3.981   1.404   4.732
 6060SOL    HW218723   4.117   1.493   4.728
 6061SOL     OW18724   4.162   0.392   5.223
 6061SOL    HW118725   4.244   0.336   5.232
 6061SOL    HW218726   4.081   0.334   5.227
 6062SOL     OW18727   3.955   1.713   4.207
 6062SOL    HW118728   3.989   1.790   4.261
 6062SOL    HW218729   3.999   1.713   4.117
 6063SOL     OW18730   3.954   1.434   4.262
 6063SOL    HW118731   3.928   1.530   4.262
 6063SOL    HW218732   3.883   1.380   4.307
 6064SOL     OW18733   3.964   1.091   4.610
 6064SOL    HW118734   3.978   1.007   4.662
 6064SOL    HW218735   3.909   1.155   4.665
 6065SOL     OW18736   4.344   1.786   5.163
 6065SOL    HW118737   4.252   1.769   5.198
 6065SOL    HW218738   4.372   1.878   5.189
 6066SOL     OW18739   4.330   0.964   3.847
 6066SOL    HW118740   4.337   1.048   3.793
 6066SOL    HW218741   4.376   0.977   3.935
 6067SOL     OW18742   3.846   0.643   4.287
 6067SOL    HW118743   3.801   0.555   4.304
 6067SOL    HW218744   3.845   0.697   4.371
 6068SOL     OW18745   3.751   1.596   3.841
 6068SOL    HW118746   3.732   1.500   3.862
 6068SOL    HW218747   3.718   1.654   3.916
 6069SOL     OW18748   3.837   0.737   5.321
 6069SOL    HW118749   3.925   0.724   5.366
 6069SOL    HW218750   3.824   0.834   5.299
 6070SOL     OW18751   4.337   1.365   4.450
 6070SOL    HW118752   4.288   1.278   4.459
 6070SOL    HW218753   4.314   1.408   4.363
 6071SOL     OW18754   4.533   0.004   4.226
 6071SOL    HW118755   4.573   0.095   4.217
 6071SOL    HW218756   4.433   0.012   4.232
 6072SOL     OW18757   3.921   0.976   4.988
 6072SOL    HW118758   4.010   0.931   4.974
 6072SOL    HW218759   3.848   0.911   4.969
 6073SOL     OW18760   4.041   0.251   5.525
 6073SOL    HW118761   4.112   0.322   5.531
 6073SOL    HW218762   3.953   0.290   5.553
 6074SOL     OW18763   4.322   0.729   3.994
 6074SOL    HW118764   4.346   0.798   3.926
 6074SOL    HW218765   4.244   0.762   4.048
 6075SOL     OW18766   3.800   0.811   4.513
 6075SOL    HW118767   3.899   0.799   4.522
 6075SOL    HW218768   3.776   0.906   4.534
 6076SOL     OW18769   3.854   1.821   5.295
 6076SOL    HW118770   3.844   1.806   5.394
 6076SOL    HW218771   3.768   1.857   5.259
 6077SOL     OW18772   4.274   0.196   4.609
 6077SOL    HW118773   4.269   0.191   4.709
 6077SOL    HW218774   4.276   0.292   4.580
 6078SOL     OW18775   4.075   1.801   4.577
 6078SOL    HW118776   4.125   1.715   4.583
 6078SOL    HW218777   4.140   1.878   4.574
 6079SOL     OW18778   4.045   0.943   3.966
 6079SOL    HW118779   4.127   0.982   3.924
 6079SOL    HW218780   4.018   0.861   3.917
 6080SOL     OW18781   4.185   1.266   5.451
 6080SOL    HW118782   4.135   1.267   5.365
 6080SOL    HW218783   4.122   1.248   5.527
 6081SOL     OW18784   3.926   0.285   5.222
 6081SOL    HW118785   3.846   0.345   5.209
 6081SOL    HW218786   3.916   0.236   5.308
 6082SOL     OW18787   4.188   1.743   4.047
 6082SOL    HW118788   4.221   1.782   4.133
 6082SOL    HW218789   4.264   1.736   3.982
 6083SOL     OW18790   3.973   1.785   4.965
 6083SOL    HW118791   4.030   1.720   5.015
 6083SOL    HW218792   3.957   1.752   4.872
 6084SOL     OW18793   4.106   0.700   4.204
 6084SOL    HW118794   4.151   0.610   4.201
 6084SOL    HW218795   4.012   0.689   4.237
 6085SOL     OW18796   4.338   0.122   3.841
 6085SOL    HW118797   4.436   0.100   3.848
 6085SOL    HW218798   4.307   0.105   3.748
 6086SOL     OW18799   4.527   1.402   4.648
 6086SOL    HW118800   4.617   1.416   4.606
 6086SOL    HW218801   4.456   1.404   4.577
 6087SOL     OW18802   4.263   0.064   4.236
 6087SOL    HW118803   4.182   0.065   4.294
 6087SOL    HW218804   4.266   0.147   4.181
 6088SOL     OW18805   4.021   0.035   3.895
 6088SOL    HW118806   4.070   0.119   3.874
 6088SOL    HW218807   4.083  -0.030   3.940
 6089SOL     OW18808   4.800   0.683   5.188
 6089SOL    HW118809   4.720   0.622   5.191
 6089SOL    HW218810   4.881   0.630   5.164
 6090SOL     OW18811   4.183   1.152   4.465
 6090SOL    HW118812   4.112   1.125   4.530
 6090SOL    HW218813   4.157   1.124   4.372
 6091SOL     OW18814   3.802   0.556   5.110
 6091SOL    HW118815   3.894   0.555   5.069
 6091SOL    HW218816   3.796   0.630   5.177
 6092SOL     OW18817   4.285   0.222   4.871
 6092SOL    HW118818   4.323   0.138   4.908
 6092SOL    HW218819   4.197   0.241   4.915
 6093SOL     OW18820   4.212   1.385   3.898
 6093SOL    HW118821   4.125   1.370   3.945
 6093SOL    HW218822   4.195   1.411   3.803
 6094SOL     OW18823   4.251   0.256   4.052
 6094SOL    HW118824   4.278   0.197   3.977
 6094SOL    HW218825   4.251   0.351   4.021
 6095SOL     OW18826   4.134   0.813   4.975
 6095SOL    HW118827   4.220   0.825   5.025
 6095SOL    HW218828   4.092   0.726   5.002
 6096SOL     OW18829   3.788   1.564   5.055
 6096SOL    HW118830   3.742   1.646   5.021
 6096SOL    HW218831   3.886   1.583   5.064
 6097SOL     OW18832   4.091   1.100   4.225
 6097SOL    HW118833   4.084   1.183   4.169
 6097SOL    HW218834   4.095   1.020   4.165
 6098SOL     OW18835   4.290   0.537   4.589
 6098SOL    HW118836   4.302   0.603   4.515
 6098SOL    HW218837   4.336   0.571   4.672
 6099SOL     OW18838   4.078   1.510   5.053
 6099SOL    HW118839   4.057   1.466   4.966
 6099SOL    HW218840   4.175   1.536   5.056
 6100SOL     OW18841   4.126   0.751   5.322
 6100SOL    HW118842   4.194   0.806   5.275
 6100SOL    HW218843   4.166   0.663   5.349
 6101SOL     OW18844   4.228   0.050   5.464
 6101SOL    HW118845   4.186  -0.007   5.394
 6101SOL    HW218846   4.162   0.119   5.496
 6102SOL     OW18847   4.297   0.870   4.753
 6102SOL    HW118848   4.341   0.959   4.744
 6102SOL    HW218849   4.234   0.870   4.830
 6103SOL     OW18850   4.031   0.213   4.955
 6103SOL    HW118851   4.008   0.250   5.045
 6103SOL    HW218852   4.001   0.118   4.949
 6104SOL     OW18853   3.761   1.310   5.006
 6104SOL    HW118854   3.814   1.261   5.074
 6104SOL    HW218855   3.783   1.408   5.011
 6105SOL     OW18856   4.031   0.063   4.342
 6105SOL    HW118857   4.020   0.157   4.375
 6105SOL    HW218858   4.026   0.000   4.419
 6106SOL     OW18859   4.074   0.898   5.528
 6106SOL    HW118860   4.150   0.942   5.576
 6106SOL    HW218861   4.109   0.851   5.446
 6107SOL     OW18862   4.043   0.810   4.673
 6107SOL    HW118863   4.136   0.846   4.678
 6107SOL    HW218864   4.037   0.725   4.725
 6108SOL     OW18865   4.063   0.509   4.730
 6108SOL    HW118866   4.011   0.426   4.713
 6108SOL    HW218867   4.140   0.514   4.666
 6109SOL     OW18868   3.732   1.326   3.924
 6109SOL    HW118869   3.639   1.347   3.893
 6109SOL    HW218870   3.742   1.227   3.937
 6110SOL     OW18871   3.812   1.801   4.651
 6110SOL    HW118872   3.770   1.715   4.624
 6110SOL    HW218873   3.906   1.804   4.617
 6111SOL     OW18874   4.228   1.568   4.634
 6111SOL    HW118875   4.294   1.642   4.643
 6111SOL    HW218876   4.272   1.489   4.592
 6112SOL     OW18877   3.764   0.544   4.838
 6112SOL    HW118878   3.849   0.511   4.797
 6112SOL    HW218879   3.777   0.559   4.936
 6113SOL     OW18880   3.913   0.520   5.446
 6113SOL    HW118881   3.972   0.480   5.376
 6113SOL    HW218882   3.855   0.591   5.405
 6114SOL     OW18883   4.539   0.572   4.049
 6114SOL    HW118884   4.546   0.483   4.003
 6114SOL    HW218885   4.445   0.606   4.041
 6115SOL     OW18886   3.976   1.564   5.468
 6115SOL    HW118887   3.946   1.621   5.544
 6115SOL    HW218888   3.969   1.467   5.494
 6116SOL     OW18889   4.197   0.500   3.915
 6116SOL    HW118890   4.258   0.580   3.919
 6116SOL    HW218891   4.102   0.531   3.922
 6117SOL     OW18892   3.883   1.137   5.190
 6117SOL    HW118893   3.905   1.076   5.266
 6117SOL    HW218894   3.893   1.088   5.104
 6118SOL     OW18895   3.807   1.258   4.746
 6118SOL    HW118896   3.802   1.257   4.846
 6118SOL    HW218897   3.724   1.217   4.708
 6119SOL     OW18898   4.412   1.662   5.440
 6119SOL    HW118899   4.356   1.743   5.449
 6119SOL    HW218900   4.464   1.666   5.354
 6120SOL     OW18901   3.854   1.794   5.575
 6120SOL    HW118902   3.813   1.720   5.628
 6120SOL    HW218903   3.918   1.845   5.633
 6121SOL     OW18904   3.987   0.326   4.444
 6121SOL    HW118905   3.908   0.377   4.410
 6121SOL    HW218906   3.978   0.311   4.542
 6122SOL     OW18907   4.096   1.288   5.214
 6122SOL    HW118908   4.083   1.381   5.180
 6122SOL    HW218909   4.012   1.236   5.201
 6123SOL     OW18910   4.314   1.487   4.215
 6123SOL    HW118911   4.356   1.429   4.145
 6123SOL    HW218912   4.270   1.566   4.171
 6124SOL     OW18913   3.979   1.348   4.014
 6124SOL    HW118914   3.883   1.349   3.987
 6124SOL    HW218915   3.991   1.401   4.098
 6125SOL     OW18916   3.829   1.013   5.450
 6125SOL    HW118917   3.752   0.980   5.504
 6125SOL    HW218918   3.914   0.983   5.492
 6126SOL     OW18919   4.396   0.203   5.213
 6126SOL    HW118920   4.486   0.187   5.173
 6126SOL    HW218921   4.404   0.208   5.312
 6127SOL     OW18922   3.799   0.345   3.757
 6127SOL    HW118923   3.707   0.317   3.728
 6127SOL    HW218924   3.830   0.422   3.701
 6128SOL     OW18925   3.796   0.166   4.042
 6128SOL    HW118926   3.779   0.249   3.988
 6128SOL    HW218927   3.886   0.129   4.020
 6129SOL     OW18928   4.337   0.842   5.155
 6129SOL    HW118929   4.393   0.923   5.138
 6129SOL    HW218930   4.396   0.762   5.158
 6130SOL     OW18931   4.440   0.565   5.432
 6130SOL    HW118932   4.459   0.630   5.506
 6130SOL    HW218933   4.500   0.485   5.441
 6131SOL     OW18934   4.114   1.741   5.284
 6131SOL    HW118935   4.023   1.782   5.282
 6131SOL    HW218936   4.107   1.647   5.316
 6132SOL     OW18937   4.318   0.745   4.376
 6132SOL    HW118938   4.368   0.830   4.357
 6132SOL    HW218939   4.230   0.747   4.328
 6133SOL     OW18940   3.945   1.314   5.568
 6133SOL    HW118941   3.880   1.241   5.547
 6133SOL    HW218942   3.949   1.328   5.666
 6134SOL     OW18943   3.803   1.240   4.377
 6134SOL    HW118944   3.802   1.193   4.465
 6134SOL    HW218945   3.885   1.212   4.326
 6135SOL     OW18946   4.396   1.391   5.348
 6135SOL    HW118947   4.318   1.341   5.386
 6135SOL    HW218948   4.393   1.486   5.379
 6136SOL     OW18949   4.152   0.424   4.244
 6136SOL    HW118950   4.182   0.352   4.182
 6136SOL    HW218951   4.113   0.384   4.327
 6137SOL     OW18952   4.041   0.547   5.004
 6137SOL    HW118953   4.079   0.488   5.076
 6137SOL    HW218954   4.081   0.521   4.916
 6138SOL     OW18955   4.536   1.586   4.411
 6138SOL    HW118956   4.568   1.596   4.317
 6138SOL    HW218957   4.457   1.524   4.413
 6139SOL     OW18958   3.763   1.077   4.024
 6139SOL    HW118959   3.862   1.066   4.015
 6139SOL    HW218960   3.723   0.991   4.056
 6140SOL     OW18961   3.954   0.628   5.699
 6140SOL    HW118962   3.861   0.626   5.736
 6140SOL    HW218963   3.955   0.589   5.607
 6141SOL     OW18964   3.949   0.275   6.582
 6141SOL    HW118965   3.984   0.258   6.674
 6141SOL    HW218966   3.861   0.230   6.570
 6142SOL     OW18967   3.743   0.368   6.233
 6142SOL    HW118968   3.661   0.411   6.272
 6142SOL    HW218969   3.715   0.295   6.170
 6143SOL     OW18970   4.293   1.275   6.751
 6143SOL    HW118971   4.200   1.268   6.714
 6143SOL    HW218972   4.304   1.364   6.795
 6144SOL     OW18973   4.574   0.798   7.409
 6144SOL    HW118974   4.570   0.874   7.474
 6144SOL    HW218975   4.596   0.834   7.318
 6145SOL     OW18976   4.409   1.012   6.251
 6145SOL    HW118977   4.478   0.996   6.321
 6145SOL    HW218978   4.336   1.069   6.289
 6146SOL     OW18979   4.410   1.161   7.389
 6146SOL    HW118980   4.470   1.240   7.403
 6146SOL    HW218981   4.324   1.192   7.348
 6147SOL     OW18982   4.059   1.435   6.647
 6147SOL    HW118983   3.981   1.404   6.594
 6147SOL    HW218984   4.117   1.493   6.590
 6148SOL     OW18985   4.162   0.392   7.085
 6148SOL    HW118986   4.244   0.336   7.094
 6148SOL    HW218987   4.081   0.334   7.089
 6149SOL     OW18988   3.955   1.713   6.069
 6149SOL    HW118989   3.989   1.790   6.123
 6149SOL    HW218990   3.999   1.713   5.979
 6150SOL     OW18991   3.954   1.434   6.124
 6150SOL    HW118992   3.928   1.530   6.124
 6150SOL    HW218993   3.883   1.380   6.169
 6151SOL     OW18994   3.964   1.091   6.472
 6151SOL    HW118995   3.978   1.007   6.524
 6151SOL    HW218996   3.909   1.155   6.527
 6152SOL     OW18997   4.344   1.786   7.025
 6152SOL    HW118998   4.252   1.769   7.060
 6152SOL    HW218999   4.372   1.878   7.051
 6153SOL     OW19000   4.330   0.964   5.709
 6153SOL    HW119001   4.337   1.048   5.655
 6153SOL    HW219002   4.376   0.977   5.797
 6154SOL     OW19003   3.846   0.643   6.149
 6154SOL    HW119004   3.801   0.555   6.166
 6154SOL    HW219005   3.845   0.697   6.233
 6155SOL     OW19006   3.751   1.596   5.703
 6155SOL    HW119007   3.732   1.500   5.724
 6155SOL    HW219008   3.718   1.654   5.778
 6156SOL     OW19009   3.837   0.737   7.183
 6156SOL    HW119010   3.925   0.724   7.228
 6156SOL    HW219011   3.824   0.834   7.161
 6157SOL     OW19012   4.337   1.365   6.312
 6157SOL    HW119013   4.288   1.278   6.321
 6157SOL    HW219014   4.314   1.408   6.225
 6158SOL     OW19015   4.533   0.004   6.088
 6158SOL    HW119016   4.573   0.095   6.079
 6158SOL    HW219017   4.433   0.012   6.094
 6159SOL     OW19018   3.921   0.976   6.850
 6159SOL    HW119019   4.010   0.931   6.836
 6159SOL    HW219020   3.848   0.911   6.831
 6160SOL     OW19021   4.041   0.251   7.387
 6160SOL    HW119022   4.112   0.322   7.393
 6160SOL    HW219023   3.953   0.290   7.415
 6161SOL     OW19024   4.322   0.729   5.856
 6161SOL    HW119025   4.346   0.798   5.788
 6161SOL    HW219026   4.244   0.762   5.910
 6162SOL     OW19027   3.800   0.811   6.375
 6162SOL    HW119028   3.899   0.799   6.384
 6162SOL    HW219029   3.776   0.906   6.396
 6163SOL     OW19030   3.854   1.821   7.157
 6163SOL    HW119031   3.844   1.806   7.256
 6163SOL    HW219032   3.768   1.857   7.121
 6164SOL     OW19033   4.274   0.196   6.471
 6164SOL    HW119034   4.269   0.191   6.571
 6164SOL    HW219035   4.276   0.292   6.442
 6165SOL     OW19036   4.075   1.801   6.439
 6165SOL    HW119037   4.125   1.715   6.445
 6165SOL    HW219038   4.140   1.878   6.436
 6166SOL     OW19039   4.045   0.943   5.828
 6166SOL    HW119040   4.127   0.982   5.786
 6166SOL    HW219041   4.018   0.861   5.779
 6167SOL     OW19042   4.185   1.266   7.313
 6167SOL    HW119043   4.135   1.267   7.227
 6167SOL    HW219044   4.122   1.248   7.389
 6168SOL     OW19045   3.926   0.285   7.084
 6168SOL    HW119046   3.846   0.345   7.071
 6168SOL    HW219047   3.916   0.236   7.170
 6169SOL     OW19048   4.188   1.743   5.909
 6169SOL    HW119049   4.221   1.782   5.995
 6169SOL    HW219050   4.264   1.736   5.844
 6170SOL     OW19051   3.973   1.785   6.827
 6170SOL    HW119052   4.030   1.720   6.877
 6170SOL    HW219053   3.957   1.752   6.734
 6171SOL     OW19054   4.106   0.700   6.066
 6171SOL    HW119055   4.151   0.610   6.063
 6171SOL    HW219056   4.012   0.689   6.099
 6172SOL     OW19057   4.338   0.122   5.703
 6172SOL    HW119058   4.436   0.100   5.710
 6172SOL    HW219059   4.307   0.105   5.610
 6173SOL     OW19060   4.527   1.402   6.510
 6173SOL    HW119061   4.617   1.416   6.468
 6173SOL    HW219062   4.456   1.404   6.439
 6174SOL     OW19063   4.263   0.064   6.098
 6174SOL    HW119064   4.182   0.065   6.156
 6174SOL    HW219065   4.266   0.147   6.043
 6175SOL     OW19066   4.021   0.035   5.757
 6175SOL    HW119067   4.070   0.119   5.736
 6175SOL    HW219068   4.083  -0.030   5.802
 6176SOL     OW19069   4.800   0.683   7.050
 6176SOL    HW119070   4.720   0.622   7.053
 6176SOL    HW219071   4.881   0.630   7.026
 6177SOL     OW19072   4.183   1.152   6.327
 6177SOL    HW119073   4.112   1.125   6.392
 6177SOL    HW219074   4.157   1.124   6.234
 6178SOL     OW19075   3.802   0.556   6.972
 6178SOL    HW119076   3.894   0.555   6.931
 6178SOL    HW219077   3.796   0.630   7.039
 6179SOL     OW19078   4.285   0.222   6.733
 6179SOL    HW119079   4.323   0.138   6.770
 6179SOL    HW219080   4.197   0.241   6.777
 6180SOL     OW19081   4.212   1.385   5.760
 6180SOL    HW119082   4.125   1.370   5.807
 6180SOL    HW219083   4.195   1.411   5.665
 6181SOL     OW19084   4.251   0.256   5.914
 6181SOL    HW119085   4.278   0.197   5.839
 6181SOL    HW219086   4.251   0.351   5.883
 6182SOL     OW19087   4.134   0.813   6.837
 6182SOL    HW119088   4.220   0.825   6.887
 6182SOL    HW219089   4.092   0.726   6.864
 6183SOL     OW19090   3.788   1.564   6.917
 6183SOL    HW119091   3.742   1.646   6.883
 6183SOL    HW219092   3.886   1.583   6.926
 6184SOL     OW19093   4.091   1.100   6.087
 6184SOL    HW119094   4.084   1.183   6.031
 6184SOL    HW219095   4.095   1.020   6.027
 6185SOL     OW19096   4.290   0.537   6.451
 6185SOL    HW119097   4.302   0.603   6.377
 6185SOL    HW219098   4.336   0.571   6.534
 6186SOL     OW19099   4.078   1.510   6.915
 6186SOL    HW119100   4.057   1.466   6.828
 6186SOL    HW219101   4.175   1.536   6.918
 6187SOL     OW19102   4.126   0.751   7.184
 6187SOL    HW119103   4.194   0.806   7.137
 6187SOL    HW219104   4.166   0.663   7.211
 6188SOL     OW19105   4.228   0.050   7.326
 6188SOL    HW119106   4.186  -0.007   7.256
 6188SOL    HW219107   4.162   0.119   7.358
 6189SOL     OW19108   4.297   0.870   6.615
 6189SOL    HW119109   4.341   0.959   6.606
 6189SOL    HW219110   4.234   0.870   6.692
 6190SOL     OW19111   4.031   0.213   6.817
 6190SOL    HW119112   4.008   0.250   6.907
 6190SOL    HW219113   4.001   0.118   6.811
 6191SOL     OW19114   3.761   1.310   6.868
 6191SOL    HW119115   3.814   1.261   6.936
 6191SOL    HW219116   3.783   1.408   6.873
 6192SOL     OW19117   4.031   0.063   6.204
 6192SOL    HW119118   4.020   0.157   6.237
 6192SOL    HW219119   4.026   0.000   6.281
 6193SOL     OW19120   4.074   0.898   7.390
 6193SOL    HW119121   4.150   0.942   7.438
 6193SOL    HW219122   4.109   0.851   7.308
 6194SOL     OW19123   4.043   0.810   6.535
 6194SOL    HW119124   4.136   0.846   6.540
 6194SOL    HW219125   4.037   0.725   6.587
 6195SOL     OW19126   4.063   0.509   6.592
 6195SOL    HW119127   4.011   0.426   6.575
 6195SOL    HW219128   4.140   0.514   6.528
 6196SOL     OW19129   3.732   1.326   5.786
 6196SOL    HW119130   3.639   1.347   5.755
 6196SOL    HW219131   3.742   1.227   5.799
 6197SOL     OW19132   3.812   1.801   6.513
 6197SOL    HW119133   3.770   1.715   6.486
 6197SOL    HW219134   3.906   1.804   6.479
 6198SOL     OW19135   4.228   1.568   6.496
 6198SOL    HW119136   4.294   1.642   6.505
 6198SOL    HW219137   4.272   1.489   6.454
 6199SOL     OW19138   3.764   0.544   6.700
 6199SOL    HW119139   3.849   0.511   6.659
 6199SOL    HW219140   3.777   0.559   6.798
 6200SOL     OW19141   3.913   0.520   7.308
 6200SOL    HW119142   3.972   0.480   7.238
 6200SOL    HW219143   3.855   0.591   7.267
 6201SOL     OW19144   4.539   0.572   5.911
 6201SOL    HW119145   4.546   0.483   5.865
 6201SOL    HW219146   4.445   0.606   5.903
 6202SOL     OW19147   3.976   1.564   7.330
 6202SOL    HW119148   3.946   1.621   7.406
 6202SOL    HW219149   3.969   1.467   7.356
 6203SOL     OW19150   4.197   0.500   5.777
 6203SOL    HW119151   4.258   0.580   5.781
 6203SOL    HW219152   4.102   0.531   5.784
 6204SOL     OW19153   3.883   1.137   7.052
 6204SOL    HW119154   3.905   1.076   7.128
 6204SOL    HW219155   3.893   1.088   6.966
 6205SOL     OW19156   3.807   1.258   6.608
 6205SOL    HW119157   3.802   1.257   6.708
 6205SOL    HW219158   3.724   1.217   6.570
 6206SOL     OW19159   4.412   1.662   7.302
 6206SOL    HW119160   4.356   1.743   7.311
 6206SOL    HW219161   4.464   1.666   7.216
 6207SOL     OW19162   3.854   1.794   7.437
 6207SOL    HW119163   3.813   1.720   7.490
 6207SOL    HW219164   3.918   1.845   7.495
 6208SOL     OW19165   3.987   0.326   6.306
 6208SOL    HW119166   3.908   0.377   6.272
 6208SOL    HW219167   3.978   0.311   6.404
 6209SOL     OW19168   4.096   1.288   7.076
 6209SOL    HW119169   4.083   1.381   7.042
 6209SOL    HW219170   4.012   1.236   7.063
 6210SOL     OW19171   4.314   1.487   6.077
 6210SOL    HW119172   4.356   1.429   6.007
 6210SOL    HW219173   4.270   1.566   6.033
 6211SOL     OW19174   3.979   1.348   5.876
 6211SOL    HW119175   3.883   1.349   5.849
 6211SOL    HW219176   3.991   1.401   5.960
 6212SOL     OW19177   3.829   1.013   7.312
 6212SOL    HW119178   3.752   0.980   7.366
 6212SOL    HW219179   3.914   0.983   7.354
 6213SOL     OW19180   4.396   0.203   7.075
 6213SOL    HW119181   4.486   0.187   7.035
 6213SOL    HW219182   4.404   0.208   7.174
 6214SOL     OW19183   3.799   0.345   5.619
 6214SOL    HW119184   3.707   0.317   5.590
 6214SOL    HW219185   3.830   0.422   5.563
 6215SOL     OW19186   3.796   0.166   5.904
 6215SOL    HW119187   3.779   0.249   5.850
 6215SOL    HW219188   3.886   0.129   5.882
 6216SOL     OW19189   4.337   0.842   7.017
 6216SOL    HW119190   4.393   0.923   7.000
 6216SOL    HW219191   4.396   0.762   7.020
 6217SOL     OW19192   4.440   0.565   7.294
 6217SOL    HW119193   4.459   0.630   7.368
 6217SOL    HW219194   4.500   0.485   7.303
 6218SOL     OW19195   4.114   1.741   7.146
 6218SOL    HW119196   4.023   1.782   7.144
 6218SOL    HW219197   4.107   1.647   7.178
 6219SOL     OW19198   4.318   0.745   6.238
 6219SOL    HW119199   4.368   0.830   6.219
 6219SOL    HW219200   4.230   0.747   6.190
 6220SOL     OW19201   3.945   1.314   7.430
 6220SOL    HW119202   3.880   1.241   7.409
 6220SOL    HW219203   3.949   1.328   7.528
 6221SOL     OW19204   3.803   1.240   6.239
 6221SOL    HW119205   3.802   1.193   6.327
 6221SOL    HW219206   3.885   1.212   6.188
 6222SOL     OW19207   4.396   1.391   7.210
 6222SOL    HW119208   4.318   1.341   7.248
 6222SOL    HW219209   4.393   1.486   7.241
 6223SOL     OW19210   4.152   0.424   6.106
 6223SOL    HW119211   4.182   0.352   6.044
 6223SOL    HW219212   4.113   0.384   6.189
 6224SOL     OW19213   4.041   0.547   6.866
 6224SOL    HW119214   4.079   0.488   6.938
 6224SOL    HW219215   4.081   0.521   6.778
 6225SOL     OW19216   4.536   1.586   6.273
 6225SOL    HW119217   4.568   1.596   6.179
 6225SOL    HW219218   4.457   1.524   6.275
 6226SOL     OW19219   3.763   1.077   5.886
 6226SOL    HW119220   3.862   1.066   5.877
 6226SOL    HW219221   3.723   0.991   5.918
 6227SOL     OW19222   3.954   0.628   7.561
 6227SOL    HW119223   3.861   0.626   7.598
 6227SOL    HW219224   3.955   0.589   7.469
 6228SOL     OW19225   3.949   0.275   8.444
 6228SOL    HW119226   3.984   0.258   8.536
 6228SOL    HW219227   3.861   0.230   8.432
 6229SOL     OW19228   3.743   0.368   8.095
 6229SOL    HW119229   3.661   0.411   8.134
 6229SOL    HW219230   3.715   0.295   8.032
 6230SOL     OW19231   4.293   1.275   8.613
 6230SOL    HW119232   4.200   1.268   8.576
 6230SOL    HW219233   4.304   1.364   8.657
 6231SOL     OW19234   4.574   0.798   9.271
 6231SOL    HW119235   4.570   0.874   9.336
 6231SOL    HW219236   4.596   0.834   9.180
 6232SOL     OW19237   4.409   1.012   8.113
 6232SOL    HW119238   4.478   0.996   8.183
 6232SOL    HW219239   4.336   1.069   8.151
 6233SOL     OW19240   4.410   1.161   9.251
 6233SOL    HW119241   4.470   1.240   9.265
 6233SOL    HW219242   4.324   1.192   9.210
 6234SOL     OW19243   4.059   1.435   8.509
 6234SOL    HW119244   3.981   1.404   8.456
 6234SOL    HW219245   4.117   1.493   8.452
 6235SOL     OW19246   4.162   0.392   8.947
 6235SOL    HW119247   4.244   0.336   8.956
 6235SOL    HW219248   4.081   0.334   8.951
 6236SOL     OW19249   3.955   1.713   7.931
 6236SOL    HW119250   3.989   1.790   7.985
 6236SOL    HW219251   3.999   1.713   7.841
 6237SOL     OW19252   3.954   1.434   7.986
 6237SOL    HW119253   3.928   1.530   7.986
 6237SOL    HW219254   3.883   1.380   8.031
 6238SOL     OW19255   3.964   1.091   8.334
 6238SOL    HW119256   3.978   1.007   8.386
 6238SOL    HW219257   3.909   1.155   8.389
 6239SOL     OW19258   4.344   1.786   8.887
 6239SOL    HW119259   4.252   1.769   8.922
 6239SOL    HW219260   4.372   1.878   8.913
 6240SOL     OW19261   4.330   0.964   7.571
 6240SOL    HW119262   4.337   1.048   7.517
 6240SOL    HW219263   4.376   0.977   7.659
 6241SOL     OW19264   3.846   0.643   8.011
 6241SOL    HW119265   3.801   0.555   8.028
 6241SOL    HW219266   3.845   0.697   8.095
 6242SOL     OW19267   3.751   1.596   7.565
 6242SOL    HW119268   3.732   1.500   7.586
 6242SOL    HW219269   3.718   1.654   7.640
 6243SOL     OW19270   3.837   0.737   9.045
 6243SOL    HW119271   3.925   0.724   9.090
 6243SOL    HW219272   3.824   0.834   9.023
 6244SOL     OW19273   4.337   1.365   8.174
 6244SOL    HW119274   4.288   1.278   8.183
 6244SOL    HW219275   4.314   1.408   8.087
 6245SOL     OW19276   4.533   0.004   7.950
 6245SOL    HW119277   4.573   0.095   7.941
 6245SOL    HW219278   4.433   0.012   7.956
 6246SOL     OW19279   3.921   0.976   8.712
 6246SOL    HW119280   4.010   0.931   8.698
 6246SOL    HW219281   3.848   0.911   8.693
 6247SOL     OW19282   4.041   0.251   9.249
 6247SOL    HW119283   4.112   0.322   9.255
 6247SOL    HW219284   3.953   0.290   9.277
 6248SOL     OW19285   4.322   0.729   7.718
 6248SOL    HW119286   4.346   0.798   7.650
 6248SOL    HW219287   4.244   0.762   7.772
 6249SOL     OW19288   3.800   0.811   8.237
 6249SOL    HW119289   3.899   0.799   8.246
 6249SOL    HW219290   3.776   0.906   8.258
 6250SOL     OW19291   3.854   1.821   9.019
 6250SOL    HW119292   3.844   1.806   9.118
 6250SOL    HW219293   3.768   1.857   8.983
 6251SOL     OW19294   4.274   0.196   8.333
 6251SOL    HW119295   4.269   0.191   8.433
 6251SOL    HW219296   4.276   0.292   8.304
 6252SOL     OW19297   4.075   1.801   8.301
 6252SOL    HW119298   4.125   1.715   8.307
 6252SOL    HW219299   4.140   1.878   8.298
 6253SOL     OW19300   4.045   0.943   7.690
 6253SOL    HW119301   4.127   0.982   7.648
 6253SOL    HW219302   4.018   0.861   7.641
 6254SOL     OW19303   4.185   1.266   9.175
 6254SOL    HW119304   4.135   1.267   9.089
 6254SOL    HW219305   4.122   1.248   9.251
 6255SOL     OW19306   3.926   0.285   8.946
 6255SOL    HW119307   3.846   0.345   8.933
 6255SOL    HW219308   3.916   0.236   9.032
 6256SOL     OW19309   4.188   1.743   7.771
 6256SOL    HW119310   4.221   1.782   7.857
 6256SOL    HW219311   4.264   1.736   7.706
 6257SOL     OW19312   3.973   1.785   8.689
 6257SOL    HW119313   4.030   1.720   8.739
 6257SOL    HW219314   3.957   1.752   8.596
 6258SOL     OW19315   4.106   0.700   7.928
 6258SOL    HW119316   4.151   0.610   7.925
 6258SOL    HW219317   4.012   0.689   7.961
 6259SOL     OW19318   4.338   0.122   7.565
 6259SOL    HW119319   4.436   0.100   7.572
 6259SOL    HW219320   4.307   0.105   7.472
 6260SOL     OW19321   4.527   1.402   8.372
 6260SOL    HW119322   4.617   1.416   8.330
 6260SOL    HW219323   4.456   1.404   8.301
 6261SOL     OW19324   4.263   0.064   7.960
 6261SOL    HW119325   4.182   0.065   8.018
 6261SOL    HW219326   4.266   0.147   7.905
 6262SOL     OW19327   4.021   0.035   7.619
 6262SOL    HW119328   4.070   0.119   7.598
 6262SOL    HW219329   4.083  -0.030   7.664
 6263SOL     OW19330   4.800   0.683   8.912
 6263SOL    HW119331   4.720   0.622   8.915
 6263SOL    HW219332   4.881   0.630   8.888
 6264SOL     OW19333   4.183   1.152   8.189
 6264SOL    HW119334   4.112   1.125   8.254
 6264SOL    HW219335   4.157   1.124   8.096
 6265SOL     OW19336   3.802   0.556   8.834
 6265SOL    HW119337   3.894   0.555   8.793
 6265SOL    HW219338   3.796   0.630   8.901
 6266SOL     OW19339   4.285   0.222   8.595
 6266SOL    HW119340   4.323   0.138   8.632
 6266SOL    HW219341   4.197   0.241   8.639
 6267SOL     OW19342   4.212   1.385   7.622
 6267SOL    HW119343   4.125   1.370   7.669
 6267SOL    HW219344   4.195   1.411   7.527
 6268SOL     OW19345   4.251   0.256   7.776
 6268SOL    HW119346   4.278   0.197   7.701
 6268SOL    HW219347   4.251   0.351   7.745
 6269SOL     OW19348   4.134   0.813   8.699
 6269SOL    HW119349   4.220   0.825   8.749
 6269SOL    HW219350   4.092   0.726   8.726
 6270SOL     OW19351   3.788   1.564   8.779
 6270SOL    HW119352   3.742   1.646   8.745
 6270SOL    HW219353   3.886   1.583   8.788
 6271SOL     OW19354   4.091   1.100   7.949
 6271SOL    HW119355   4.084   1.183   7.893
 6271SOL    HW219356   4.095   1.020   7.889
 6272SOL     OW19357   4.290   0.537   8.313
 6272SOL    HW119358   4.302   0.603   8.239
 6272SOL    HW219359   4.336   0.571   8.396
 6273SOL     OW19360   4.078   1.510   8.777
 6273SOL    HW119361   4.057   1.466   8.690
 6273SOL    HW219362   4.175   1.536   8.780
 6274SOL     OW19363   4.126   0.751   9.046
 6274SOL    HW119364   4.194   0.806   8.999
 6274SOL    HW219365   4.166   0.663   9.073
 6275SOL     OW19366   4.228   0.050   9.188
 6275SOL    HW119367   4.186  -0.007   9.118
 6275SOL    HW219368   4.162   0.119   9.220
 6276SOL     OW19369   4.297   0.870   8.477
 6276SOL    HW119370   4.341   0.959   8.468
 6276SOL    HW219371   4.234   0.870   8.554
 6277SOL     OW19372   4.031   0.213   8.679
 6277SOL    HW119373   4.008   0.250   8.769
 6277SOL    HW219374   4.001   0.118   8.673
 6278SOL     OW19375   3.761   1.310   8.730
 6278SOL    HW119376   3.814   1.261   8.798
 6278SOL    HW219377   3.783   1.408   8.735
 6279SOL     OW19378   4.031   0.063   8.066
 6279SOL    HW119379   4.020   0.157   8.099
 6279SOL    HW219380   4.026   0.000   8.143
 6280SOL     OW19381   4.074   0.898   9.252
 6280SOL    HW119382   4.150   0.942   9.300
 6280SOL    HW219383   4.109   0.851   9.170
 6281SOL     OW19384   4.043   0.810   8.397
 6281SOL    HW119385   4.136   0.846   8.402
 6281SOL    HW219386   4.037   0.725   8.449
 6282SOL     OW19387   4.063   0.509   8.454
 6282SOL    HW119388   4.011   0.426   8.437
 6282SOL    HW219389   4.140   0.514   8.390
 6283SOL     OW19390   3.732   1.326   7.648
 6283SOL    HW119391   3.639   1.347   7.617
 6283SOL    HW219392   3.742   1.227   7.661
 6284SOL     OW19393   3.812   1.801   8.375
 6284SOL    HW119394   3.770   1.715   8.348
 6284SOL    HW219395   3.906   1.804   8.341
 6285SOL     OW19396   4.228   1.568   8.358
 6285SOL    HW119397   4.294   1.642   8.367
 6285SOL    HW219398   4.272   1.489   8.316
 6286SOL     OW19399   3.764   0.544   8.562
 6286SOL    HW119400   3.849   0.511   8.521
 6286SOL    HW219401   3.777   0.559   8.660
 6287SOL     OW19402   3.913   0.520   9.170
 6287SOL    HW119403   3.972   0.480   9.100
 6287SOL    HW219404   3.855   0.591   9.129
 6288SOL     OW19405   4.539   0.572   7.773
 6288SOL    HW119406   4.546   0.483   7.727
 6288SOL    HW219407   4.445   0.606   7.765
 6289SOL     OW19408   3.976   1.564   9.192
 6289SOL    HW119409   3.946   1.621   9.268
 6289SOL    HW219410   3.969   1.467   9.218
 6290SOL     OW19411   4.197   0.500   7.639
 6290SOL    HW119412   4.258   0.580   7.643
 6290SOL    HW219413   4.102   0.531   7.646
 6291SOL     OW19414   3.883   1.137   8.914
 6291SOL    HW119415   3.905   1.076   8.990
 6291SOL    HW219416   3.893   1.088   8.828
 6292SOL     OW19417   3.807   1.258   8.470
 6292SOL    HW119418   3.802   1.257   8.570
 6292SOL    HW219419   3.724   1.217   8.432
 6293SOL     OW19420   4.412   1.662   9.164
 6293SOL    HW119421   4.356   1.743   9.173
 6293SOL    HW219422   4.464   1.666   9.078
 6294SOL     OW19423   3.854   1.794   9.299
 6294SOL    HW119424   3.813   1.720   9.352
 6294SOL    HW219425   3.918   1.845   9.357
 6295SOL     OW19426   3.987   0.326   8.168
 6295SOL    HW119427   3.908   0.377   8.134
 6295SOL    HW219428   3.978   0.311   8.266
 6296SOL     OW19429   4.096   1.288   8.938
 6296SOL    HW119430   4.083   1.381   8.904
 6296SOL    HW219431   4.012   1.236   8.925
 6297SOL     OW19432   4.314   1.487   7.939
 6297SOL    HW119433   4.356   1.429   7.869
 6297SOL    HW219434   4.270   1.566   7.895
 6298SOL     OW19435   3.979   1.348   7.738
 6298SOL    HW119436   3.883   1.349   7.711
 6298SOL    HW219437   3.991   1.401   7.822
 6299SOL     OW19438   3.829   1.013   9.174
 6299SOL    HW119439   3.752   0.980   9.228
 6299SOL    HW219440   3.914   0.983   9.216
 6300SOL     OW19441   4.396   0.203   8.937
 6300SOL    HW119442   4.486   0.187   8.897
 6300SOL    HW219443   4.404   0.208   9.036
 6301SOL     OW19444   3.799   0.345   7.481
 6301SOL    HW119445   3.707   0.317   7.452
 6301SOL    HW219446   3.830   0.422   7.425
 6302SOL     OW19447   3.796   0.166   7.766
 6302SOL    HW119448   3.779   0.249   7.712
 6302SOL    HW219449   3.886   0.129   7.744
 6303SOL     OW19450   4.337   0.842   8.879
 6303SOL    HW119451   4.393   0.923   8.862
 6303SOL    HW219452   4.396   0.762   8.882
 6304SOL     OW19453   4.440   0.565   9.156
 6304SOL    HW119454   4.459   0.630   9.230
 6304SOL    HW219455   4.500   0.485   9.165
 6305SOL     OW19456   4.114   1.741   9.008
 6305SOL    HW119457   4.023   1.782   9.006
 6305SOL    HW219458   4.107   1.647   9.040
 6306SOL     OW19459   4.318   0.745   8.100
 6306SOL    HW119460   4.368   0.830   8.081
 6306SOL    HW219461   4.230   0.747   8.052
 6307SOL     OW19462   3.945   1.314   9.292
 6307SOL    HW119463   3.880   1.241   9.271
 6307SOL    HW219464   3.949   1.328   9.390
 6308SOL     OW19465   3.803   1.240   8.101
 6308SOL    HW119466   3.802   1.193   8.189
 6308SOL    HW219467   3.885   1.212   8.050
 6309SOL     OW19468   4.396   1.391   9.072
 6309SOL    HW119469   4.318   1.341   9.110
 6309SOL    HW219470   4.393   1.486   9.103
 6310SOL     OW19471   4.152   0.424   7.968
 6310SOL    HW119472   4.182   0.352   7.906
 6310SOL    HW219473   4.113   0.384   8.051
 6311SOL     OW19474   4.041   0.547   8.728
 6311SOL    HW119475   4.079   0.488   8.800
 6311SOL    HW219476   4.081   0.521   8.640
 6312SOL     OW19477   4.536   1.586   8.135
 6312SOL    HW119478   4.568   1.596   8.041
 6312SOL    HW219479   4.457   1.524   8.137
 6313SOL     OW19480   3.763   1.077   7.748
 6313SOL    HW119481   3.862   1.066   7.739
 6313SOL    HW219482   3.723   0.991   7.780
 6314SOL     OW19483   3.954   0.628   9.423
 6314SOL    HW119484   3.861   0.626   9.460
 6314SOL    HW219485   3.955   0.589   9.331
 6315SOL     OW19486   3.949   0.275  10.306
 6315SOL    HW119487   3.984   0.258  10.398
 6315SOL    HW219488   3.861   0.230  10.294
 6316SOL     OW19489   3.743   0.368   9.957
 6316SOL    HW119490   3.661   0.411   9.996
 6316SOL    HW219491   3.715   0.295   9.894
 6317SOL     OW19492   4.293   1.275  10.475
 6317SOL    HW119493   4.200   1.268  10.438
 6317SOL    HW219494   4.304   1.364  10.519
 6318SOL     OW19495   4.574   0.798  11.133
 6318SOL    HW119496   4.570   0.874  11.198
 6318SOL    HW219497   4.596   0.834  11.042
 6319SOL     OW19498   4.409   1.012   9.975
 6319SOL    HW119499   4.478   0.996  10.045
 6319SOL    HW219500   4.336   1.069  10.013
 6320SOL     OW19501   4.059   1.435  10.371
 6320SOL    HW119502   3.981   1.404  10.318
 6320SOL    HW219503   4.117   1.493  10.314
 6321SOL     OW19504   4.162   0.392  10.809
 6321SOL    HW119505   4.244   0.336  10.818
 6321SOL    HW219506   4.081   0.334  10.813
 6322SOL     OW19507   3.955   1.713   9.793
 6322SOL    HW119508   3.989   1.790   9.847
 6322SOL    HW219509   3.999   1.713   9.703
 6323SOL     OW19510   3.954   1.434   9.848
 6323SOL    HW119511   3.928   1.530   9.848
 6323SOL    HW219512   3.883   1.380   9.893
 6324SOL     OW19513   3.964   1.091  10.196
 6324SOL    HW119514   3.978   1.007  10.248
 6324SOL    HW219515   3.909   1.155  10.251
 6325SOL     OW19516   4.344   1.786  10.749
 6325SOL    HW119517   4.252   1.769  10.784
 6325SOL    HW219518   4.372   1.878  10.775
 6326SOL     OW19519   4.330   0.964   9.433
 6326SOL    HW119520   4.337   1.048   9.379
 6326SOL    HW219521   4.376   0.977   9.521
 6327SOL     OW19522   3.846   0.643   9.873
 6327SOL    HW119523   3.801   0.555   9.890
 6327SOL    HW219524   3.845   0.697   9.957
 6328SOL     OW19525   3.751   1.596   9.427
 6328SOL    HW119526   3.732   1.500   9.448
 6328SOL    HW219527   3.718   1.654   9.502
 6329SOL     OW19528   3.837   0.737  10.907
 6329SOL    HW119529   3.925   0.724  10.952
 6329SOL    HW219530   3.824   0.834  10.885
 6330SOL     OW19531   4.337   1.365  10.036
 6330SOL    HW119532   4.288   1.278  10.045
 6330SOL    HW219533   4.314   1.408   9.949
 6331SOL     OW19534   4.533   0.004   9.812
 6331SOL    HW119535   4.573   0.095   9.803
 6331SOL    HW219536   4.433   0.012   9.818
 6332SOL     OW19537   3.921   0.976  10.574
 6332SOL    HW119538   4.010   0.931  10.560
 6332SOL    HW219539   3.848   0.911  10.555
 6333SOL     OW19540   4.041   0.251  11.111
 6333SOL    HW119541   4.112   0.322  11.117
 6333SOL    HW219542   3.953   0.290  11.139
 6334SOL     OW19543   4.322   0.729   9.580
 6334SOL    HW119544   4.346   0.798   9.512
 6334SOL    HW219545   4.244   0.762   9.634
 6335SOL     OW19546   3.800   0.811  10.099
 6335SOL    HW119547   3.899   0.799  10.108
 6335SOL    HW219548   3.776   0.906  10.120
 6336SOL     OW19549   3.854   1.821  10.881
 6336SOL    HW119550   3.844   1.806  10.980
 6336SOL    HW219551   3.768   1.857  10.845
 6337SOL     OW19552   4.274   0.196  10.195
 6337SOL    HW119553   4.269   0.191  10.295
 6337SOL    HW219554   4.276   0.292  10.166
 6338SOL     OW19555   4.075   1.801  10.163
 6338SOL    HW119556   4.125   1.715  10.169
 6338SOL    HW219557   4.140   1.878  10.160
 6339SOL     OW19558   4.045   0.943   9.552
 6339SOL    HW119559   4.127   0.982   9.510
 6339SOL    HW219560   4.018   0.861   9.503
 6340SOL     OW19561   4.185   1.266  11.037
 6340SOL    HW119562   4.135   1.267  10.951
 6340SOL    HW219563   4.122   1.248  11.113
 6341SOL     OW19564   3.926   0.285  10.808
 6341SOL    HW119565   3.846   0.345  10.795
 6341SOL    HW219566   3.916   0.236  10.894
 6342SOL     OW19567   4.188   1.743   9.633
 6342SOL    HW119568   4.221   1.782   9.719
 6342SOL    HW219569   4.264   1.736   9.568
 6343SOL     OW19570   3.973   1.785  10.551
 6343SOL    HW119571   4.030   1.720  10.601
 6343SOL    HW219572   3.957   1.752  10.458
 6344SOL     OW19573   4.106   0.700   9.790
 6344SOL    HW119574   4.151   0.610   9.787
 6344SOL    HW219575   4.012   0.689   9.823
 6345SOL     OW19576   4.338   0.122   9.427
 6345SOL    HW119577   4.436   0.100   9.434
 6345SOL    HW219578   4.307   0.105   9.334
 6346SOL     OW19579   4.527   1.402  10.234
 6346SOL    HW119580   4.617   1.416  10.192
 6346SOL    HW219581   4.456   1.404  10.163
 6347SOL     OW19582   4.263   0.064   9.822
 6347SOL    HW119583   4.182   0.065   9.880
 6347SOL    HW219584   4.266   0.147   9.767
 6348SOL     OW19585   4.021   0.035   9.481
 6348SOL    HW119586   4.070   0.119   9.460
 6348SOL    HW219587   4.083  -0.030   9.526
 6349SOL     OW19588   4.800   0.683  10.774
 6349SOL    HW119589   4.720   0.622  10.777
 6349SOL    HW219590   4.881   0.630  10.750
 6350SOL     OW19591   4.183   1.152  10.051
 6350SOL    HW119592   4.112   1.125  10.116
 6350SOL    HW219593   4.157   1.124   9.958
 6351SOL     OW19594   3.802   0.556  10.696
 6351SOL    HW119595   3.894   0.555  10.655
 6351SOL    HW219596   3.796   0.630  10.763
 6352SOL     OW19597   4.285   0.222  10.457
 6352SOL    HW119598   4.323   0.138  10.494
 6352SOL    HW219599   4.197   0.241  10.501
 6353SOL     OW19600   4.212   1.385   9.484
 6353SOL    HW119601   4.125   1.370   9.531
 6353SOL    HW219602   4.195   1.411   9.389
 6354SOL     OW19603   4.251   0.256   9.638
 6354SOL    HW119604   4.278   0.197   9.563
 6354SOL    HW219605   4.251   0.351   9.607
 6355SOL     OW19606   4.134   0.813  10.561
 6355SOL    HW119607   4.220   0.825  10.611
 6355SOL    HW219608   4.092   0.726  10.588
 6356SOL     OW19609   3.788   1.564  10.641
 6356SOL    HW119610   3.742   1.646  10.607
 6356SOL    HW219611   3.886   1.583  10.650
 6357SOL     OW19612   4.091   1.100   9.811
 6357SOL    HW119613   4.084   1.183   9.755
 6357SOL    HW219614   4.095   1.020   9.751
 6358SOL     OW19615   4.290   0.537  10.175
 6358SOL    HW119616   4.302   0.603  10.101
 6358SOL    HW219617   4.336   0.571  10.258
 6359SOL     OW19618   4.078   1.510  10.639
 6359SOL    HW119619   4.057   1.466  10.552
 6359SOL    HW219620   4.175   1.536  10.642
 6360SOL     OW19621   4.126   0.751  10.908
 6360SOL    HW119622   4.194   0.806  10.861
 6360SOL    HW219623   4.166   0.663  10.935
 6361SOL     OW19624   4.297   0.870  10.339
 6361SOL    HW119625   4.341   0.959  10.330
 6361SOL    HW219626   4.234   0.870  10.416
 6362SOL     OW19627   4.031   0.213  10.541
 6362SOL    HW119628   4.008   0.250  10.631
 6362SOL    HW219629   4.001   0.118  10.535
 6363SOL     OW19630   3.761   1.310  10.592
 6363SOL    HW119631   3.814   1.261  10.660
 6363SOL    HW219632   3.783   1.408  10.597
 6364SOL     OW19633   4.031   0.063   9.928
 6364SOL    HW119634   4.020   0.157   9.961
 6364SOL    HW219635   4.026   0.000  10.005
 6365SOL     OW19636   4.074   0.898  11.114
 6365SOL    HW119637   4.150   0.942  11.162
 6365SOL    HW219638   4.109   0.851  11.032
 6366SOL     OW19639   4.043   0.810  10.259
 6366SOL    HW119640   4.136   0.846  10.264
 6366SOL    HW219641   4.037   0.725  10.311
 6367SOL     OW19642   4.063   0.509  10.316
 6367SOL    HW119643   4.011   0.426  10.299
 6367SOL    HW219644   4.140   0.514  10.252
 6368SOL     OW19645   3.732   1.326   9.510
 6368SOL    HW119646   3.639   1.347   9.479
 6368SOL    HW219647   3.742   1.227   9.523
 6369SOL     OW19648   3.812   1.801  10.237
 6369SOL    HW119649   3.770   1.715  10.210
 6369SOL    HW219650   3.906   1.804  10.203
 6370SOL     OW19651   4.228   1.568  10.220
 6370SOL    HW119652   4.294   1.642  10.229
 6370SOL    HW219653   4.272   1.489  10.178
 6371SOL     OW19654   3.764   0.544  10.424
 6371SOL    HW119655   3.849   0.511  10.383
 6371SOL    HW219656   3.777   0.559  10.522
 6372SOL     OW19657   4.539   0.572   9.635
 6372SOL    HW119658   4.546   0.483   9.589
 6372SOL    HW219659   4.445   0.606   9.627
 6373SOL     OW19660   3.976   1.564  11.054
 6373SOL    HW119661   3.946   1.621  11.130
 6373SOL    HW219662   3.969   1.467  11.080
 6374SOL     OW19663   4.197   0.500   9.501
 6374SOL    HW119664   4.258   0.580   9.505
 6374SOL    HW219665   4.102   0.531   9.508
 6375SOL     OW19666   3.883   1.137  10.776
 6375SOL    HW119667   3.905   1.076  10.852
 6375SOL    HW219668   3.893   1.088  10.690
 6376SOL     OW19669   3.807   1.258  10.332
 6376SOL    HW119670   3.802   1.257  10.432
 6376SOL    HW219671   3.724   1.217  10.294
 6377SOL     OW19672   4.412   1.662  11.026
 6377SOL    HW119673   4.356   1.743  11.035
 6377SOL    HW219674   4.464   1.666  10.940
 6378SOL     OW19675   3.987   0.326  10.030
 6378SOL    HW119676   3.908   0.377   9.996
 6378SOL    HW219677   3.978   0.311  10.128
 6379SOL     OW19678   4.096   1.288  10.800
 6379SOL    HW119679   4.083   1.381  10.766
 6379SOL    HW219680   4.012   1.236  10.787
 6380SOL     OW19681   4.314   1.487   9.801
 6380SOL    HW119682   4.356   1.429   9.731
 6380SOL    HW219683   4.270   1.566   9.757
 6381SOL     OW19684   3.979   1.348   9.600
 6381SOL    HW119685   3.883   1.349   9.573
 6381SOL    HW219686   3.991   1.401   9.684
 6382SOL     OW19687   3.829   1.013  11.036
 6382SOL    HW119688   3.752   0.980  11.090
 6382SOL    HW219689   3.914   0.983  11.078
 6383SOL     OW19690   4.396   0.203  10.799
 6383SOL    HW119691   4.486   0.187  10.759
 6383SOL    HW219692   4.404   0.208  10.898
 6384SOL     OW19693   3.799   0.345   9.343
 6384SOL    HW119694   3.707   0.317   9.314
 6384SOL    HW219695   3.830   0.422   9.287
 6385SOL     OW19696   3.796   0.166   9.628
 6385SOL    HW119697   3.779   0.249   9.574
 6385SOL    HW219698   3.886   0.129   9.606
 6386SOL     OW19699   4.337   0.842  10.741
 6386SOL    HW119700   4.393   0.923  10.724
 6386SOL    HW219701   4.396   0.762  10.744
 6387SOL     OW19702   4.114   1.741  10.870
 6387SOL    HW119703   4.023   1.782  10.868
 6387SOL    HW219704   4.107   1.647  10.902
 6388SOL     OW19705   4.318   0.745   9.962
 6388SOL    HW119706   4.368   0.830   9.943
 6388SOL    HW219707   4.230   0.747   9.914
 6389SOL     OW19708   3.803   1.240   9.963
 6389SOL    HW119709   3.802   1.193  10.051
 6389SOL    HW219710   3.885   1.212   9.912
 6390SOL     OW19711   4.396   1.391  10.934
 6390SOL    HW119712   4.318   1.341  10.972
 6390SOL    HW219713   4.393   1.486  10.965
 6391SOL     OW19714   4.152   0.424   9.830
 6391SOL    HW119715   4.182   0.352   9.768
 6391SOL    HW219716   4.113   0.384   9.913
 6392SOL     OW19717   4.041   0.547  10.590
 6392SOL    HW119718   4.079   0.488  10.662
 6392SOL    HW219719   4.081   0.521  10.502
 6393SOL     OW19720   4.536   1.586   9.997
 6393SOL    HW119721   4.568   1.596   9.903
 6393SOL    HW219722   4.457   1.524   9.999
 6394SOL     OW19723   3.763   1.077   9.610
 6394SOL    HW119724   3.862   1.066   9.601
 6394SOL    HW219725   3.723   0.991   9.642
 6395SOL     OW19726   3.954   2.490   0.113
 6395SOL    HW119727   3.861   2.488   0.150
 6395SOL    HW219728   3.955   2.451   0.021
 6396SOL     OW19729   3.949   2.137   0.996
 6396SOL    HW119730   3.984   2.120   1.088
 6396SOL    HW219731   3.861   2.092   0.984
 6397SOL     OW19732   3.743   2.230   0.647
 6397SOL    HW119733   3.661   2.273   0.686
 6397SOL    HW219734   3.715   2.157   0.584
 6398SOL     OW19735   4.293   3.137   1.165
 6398SOL    HW119736   4.200   3.130   1.128
 6398SOL    HW219737   4.304   3.226   1.209
 6399SOL     OW19738   4.574   2.660   1.823
 6399SOL    HW119739   4.570   2.736   1.888
 6399SOL    HW219740   4.596   2.696   1.732
 6400SOL     OW19741   4.409   2.874   0.665
 6400SOL    HW119742   4.478   2.858   0.735
 6400SOL    HW219743   4.336   2.931   0.703
 6401SOL     OW19744   4.410   3.023   1.803
 6401SOL    HW119745   4.470   3.102   1.817
 6401SOL    HW219746   4.324   3.054   1.762
 6402SOL     OW19747   4.059   3.297   1.061
 6402SOL    HW119748   3.981   3.266   1.008
 6402SOL    HW219749   4.117   3.355   1.004
 6403SOL     OW19750   4.162   2.254   1.499
 6403SOL    HW119751   4.244   2.198   1.508
 6403SOL    HW219752   4.081   2.196   1.503
 6404SOL     OW19753   3.955   3.575   0.483
 6404SOL    HW119754   3.989   3.652   0.537
 6404SOL    HW219755   3.999   3.575   0.393
 6405SOL     OW19756   3.954   3.296   0.538
 6405SOL    HW119757   3.928   3.392   0.538
 6405SOL    HW219758   3.883   3.242   0.583
 6406SOL     OW19759   3.964   2.953   0.886
 6406SOL    HW119760   3.978   2.869   0.938
 6406SOL    HW219761   3.909   3.017   0.941
 6407SOL     OW19762   4.344   3.648   1.439
 6407SOL    HW119763   4.252   3.631   1.474
 6407SOL    HW219764   4.372   3.740   1.465
 6408SOL     OW19765   4.330   2.826   0.123
 6408SOL    HW119766   4.337   2.910   0.069
 6408SOL    HW219767   4.376   2.839   0.211
 6409SOL     OW19768   3.846   2.505   0.563
 6409SOL    HW119769   3.801   2.417   0.580
 6409SOL    HW219770   3.845   2.559   0.647
 6410SOL     OW19771   3.751   3.458   0.117
 6410SOL    HW119772   3.732   3.362   0.138
 6410SOL    HW219773   3.718   3.516   0.192
 6411SOL     OW19774   3.837   2.599   1.597
 6411SOL    HW119775   3.925   2.586   1.642
 6411SOL    HW219776   3.824   2.696   1.575
 6412SOL     OW19777   4.337   3.227   0.726
 6412SOL    HW119778   4.288   3.140   0.735
 6412SOL    HW219779   4.314   3.270   0.639
 6413SOL     OW19780   4.533   1.866   0.502
 6413SOL    HW119781   4.573   1.957   0.493
 6413SOL    HW219782   4.433   1.874   0.508
 6414SOL     OW19783   3.921   2.838   1.264
 6414SOL    HW119784   4.010   2.793   1.250
 6414SOL    HW219785   3.848   2.773   1.245
 6415SOL     OW19786   4.041   2.113   1.801
 6415SOL    HW119787   4.112   2.184   1.807
 6415SOL    HW219788   3.953   2.152   1.829
 6416SOL     OW19789   4.322   2.591   0.270
 6416SOL    HW119790   4.346   2.660   0.202
 6416SOL    HW219791   4.244   2.624   0.324
 6417SOL     OW19792   3.800   2.673   0.789
 6417SOL    HW119793   3.899   2.661   0.798
 6417SOL    HW219794   3.776   2.768   0.810
 6418SOL     OW19795   3.854   3.683   1.571
 6418SOL    HW119796   3.844   3.668   1.670
 6418SOL    HW219797   3.768   3.719   1.535
 6419SOL     OW19798   4.274   2.058   0.885
 6419SOL    HW119799   4.269   2.053   0.985
 6419SOL    HW219800   4.276   2.154   0.856
 6420SOL     OW19801   4.075   3.663   0.853
 6420SOL    HW119802   4.125   3.577   0.859
 6420SOL    HW219803   4.140   3.740   0.850
 6421SOL     OW19804   4.045   2.805   0.242
 6421SOL    HW119805   4.127   2.844   0.200
 6421SOL    HW219806   4.018   2.723   0.193
 6422SOL     OW19807   4.185   3.128   1.727
 6422SOL    HW119808   4.135   3.129   1.641
 6422SOL    HW219809   4.122   3.110   1.803
 6423SOL     OW19810   3.926   2.147   1.498
 6423SOL    HW119811   3.846   2.207   1.485
 6423SOL    HW219812   3.916   2.098   1.584
 6424SOL     OW19813   4.188   3.605   0.323
 6424SOL    HW119814   4.221   3.644   0.409
 6424SOL    HW219815   4.264   3.598   0.258
 6425SOL     OW19816   3.973   3.647   1.241
 6425SOL    HW119817   4.030   3.582   1.291
 6425SOL    HW219818   3.957   3.614   1.148
 6426SOL     OW19819   4.106   2.562   0.480
 6426SOL    HW119820   4.151   2.472   0.477
 6426SOL    HW219821   4.012   2.551   0.513
 6427SOL     OW19822   4.338   1.984   0.117
 6427SOL    HW119823   4.436   1.962   0.124
 6427SOL    HW219824   4.307   1.967   0.024
 6428SOL     OW19825   4.527   3.264   0.924
 6428SOL    HW119826   4.617   3.278   0.882
 6428SOL    HW219827   4.456   3.266   0.853
 6429SOL     OW19828   4.263   1.926   0.512
 6429SOL    HW119829   4.182   1.927   0.570
 6429SOL    HW219830   4.266   2.009   0.457
 6430SOL     OW19831   4.021   1.897   0.171
 6430SOL    HW119832   4.070   1.981   0.150
 6430SOL    HW219833   4.083   1.832   0.216
 6431SOL     OW19834   4.800   2.545   1.464
 6431SOL    HW119835   4.720   2.484   1.467
 6431SOL    HW219836   4.881   2.492   1.440
 6432SOL     OW19837   4.183   3.014   0.741
 6432SOL    HW119838   4.112   2.987   0.806
 6432SOL    HW219839   4.157   2.986   0.648
 6433SOL     OW19840   3.802   2.418   1.386
 6433SOL    HW119841   3.894   2.417   1.345
 6433SOL    HW219842   3.796   2.492   1.453
 6434SOL     OW19843   4.285   2.084   1.147
 6434SOL    HW119844   4.323   2.000   1.184
 6434SOL    HW219845   4.197   2.103   1.191
 6435SOL     OW19846   4.212   3.247   0.174
 6435SOL    HW119847   4.125   3.232   0.221
 6435SOL    HW219848   4.195   3.273   0.079
 6436SOL     OW19849   4.251   2.118   0.328
 6436SOL    HW119850   4.278   2.059   0.253
 6436SOL    HW219851   4.251   2.213   0.297
 6437SOL     OW19852   4.134   2.675   1.251
 6437SOL    HW119853   4.220   2.687   1.301
 6437SOL    HW219854   4.092   2.588   1.278
 6438SOL     OW19855   3.788   3.426   1.331
 6438SOL    HW119856   3.742   3.508   1.297
 6438SOL    HW219857   3.886   3.445   1.340
 6439SOL     OW19858   4.091   2.962   0.501
 6439SOL    HW119859   4.084   3.045   0.445
 6439SOL    HW219860   4.095   2.882   0.441
 6440SOL     OW19861   4.290   2.399   0.865
 6440SOL    HW119862   4.302   2.465   0.791
 6440SOL    HW219863   4.336   2.433   0.948
 6441SOL     OW19864   4.078   3.372   1.329
 6441SOL    HW119865   4.057   3.328   1.242
 6441SOL    HW219866   4.175   3.398   1.332
 6442SOL     OW19867   4.126   2.613   1.598
 6442SOL    HW119868   4.194   2.668   1.551
 6442SOL    HW219869   4.166   2.525   1.625
 6443SOL     OW19870   4.228   1.912   1.740
 6443SOL    HW119871   4.186   1.855   1.670
 6443SOL    HW219872   4.162   1.981   1.772
 6444SOL     OW19873   4.297   2.732   1.029
 6444SOL    HW119874   4.341   2.821   1.020
 6444SOL    HW219875   4.234   2.732   1.106
 6445SOL     OW19876   4.031   2.075   1.231
 6445SOL    HW119877   4.008   2.112   1.321
 6445SOL    HW219878   4.001   1.980   1.225
 6446SOL     OW19879   3.761   3.172   1.282
 6446SOL    HW119880   3.814   3.123   1.350
 6446SOL    HW219881   3.783   3.270   1.287
 6447SOL     OW19882   4.031   1.925   0.618
 6447SOL    HW119883   4.020   2.019   0.651
 6447SOL    HW219884   4.026   1.862   0.695
 6448SOL     OW19885   4.074   2.760   1.804
 6448SOL    HW119886   4.150   2.804   1.852
 6448SOL    HW219887   4.109   2.713   1.722
 6449SOL     OW19888   4.043   2.672   0.949
 6449SOL    HW119889   4.136   2.708   0.954
 6449SOL    HW219890   4.037   2.587   1.001
 6450SOL     OW19891   4.063   2.371   1.006
 6450SOL    HW119892   4.011   2.288   0.989
 6450SOL    HW219893   4.140   2.376   0.942
 6451SOL     OW19894   3.732   3.188   0.200
 6451SOL    HW119895   3.639   3.209   0.169
 6451SOL    HW219896   3.742   3.089   0.213
 6452SOL     OW19897   3.812   3.663   0.927
 6452SOL    HW119898   3.770   3.577   0.900
 6452SOL    HW219899   3.906   3.666   0.893
 6453SOL     OW19900   4.228   3.430   0.910
 6453SOL    HW119901   4.294   3.504   0.919
 6453SOL    HW219902   4.272   3.351   0.868
 6454SOL     OW19903   3.764   2.406   1.114
 6454SOL    HW119904   3.849   2.373   1.073
 6454SOL    HW219905   3.777   2.421   1.212
 6455SOL     OW19906   3.913   2.382   1.722
 6455SOL    HW119907   3.972   2.342   1.652
 6455SOL    HW219908   3.855   2.453   1.681
 6456SOL     OW19909   4.539   2.434   0.325
 6456SOL    HW119910   4.546   2.345   0.279
 6456SOL    HW219911   4.445   2.468   0.317
 6457SOL     OW19912   3.976   3.426   1.744
 6457SOL    HW119913   3.946   3.483   1.820
 6457SOL    HW219914   3.969   3.329   1.770
 6458SOL     OW19915   4.197   2.362   0.191
 6458SOL    HW119916   4.258   2.442   0.195
 6458SOL    HW219917   4.102   2.393   0.198
 6459SOL     OW19918   3.883   2.999   1.466
 6459SOL    HW119919   3.905   2.938   1.542
 6459SOL    HW219920   3.893   2.950   1.380
 6460SOL     OW19921   3.807   3.120   1.022
 6460SOL    HW119922   3.802   3.119   1.122
 6460SOL    HW219923   3.724   3.079   0.984
 6461SOL     OW19924   4.412   3.524   1.716
 6461SOL    HW119925   4.356   3.605   1.725
 6461SOL    HW219926   4.464   3.528   1.630
 6462SOL     OW19927   3.854   3.656   1.851
 6462SOL    HW119928   3.813   3.582   1.904
 6462SOL    HW219929   3.918   3.707   1.909
 6463SOL     OW19930   3.987   2.188   0.720
 6463SOL    HW119931   3.908   2.239   0.686
 6463SOL    HW219932   3.978   2.173   0.818
 6464SOL     OW19933   4.096   3.150   1.490
 6464SOL    HW119934   4.083   3.243   1.456
 6464SOL    HW219935   4.012   3.098   1.477
 6465SOL     OW19936   4.314   3.349   0.491
 6465SOL    HW119937   4.356   3.291   0.421
 6465SOL    HW219938   4.270   3.428   0.447
 6466SOL     OW19939   3.979   3.210   0.290
 6466SOL    HW119940   3.883   3.211   0.263
 6466SOL    HW219941   3.991   3.263   0.374
 6467SOL     OW19942   3.829   2.875   1.726
 6467SOL    HW119943   3.752   2.842   1.780
 6467SOL    HW219944   3.914   2.845   1.768
 6468SOL     OW19945   4.396   2.065   1.489
 6468SOL    HW119946   4.486   2.049   1.449
 6468SOL    HW219947   4.404   2.070   1.588
 6469SOL     OW19948   3.799   2.207   0.033
 6469SOL    HW119949   3.707   2.179   0.004
 6469SOL    HW219950   3.830   2.284  -0.023
 6470SOL     OW19951   3.796   2.028   0.318
 6470SOL    HW119952   3.779   2.111   0.264
 6470SOL    HW219953   3.886   1.991   0.296
 6471SOL     OW19954   4.337   2.704   1.431
 6471SOL    HW119955   4.393   2.785   1.414
 6471SOL    HW219956   4.396   2.624   1.434
 6472SOL     OW19957   4.440   2.427   1.708
 6472SOL    HW119958   4.459   2.492   1.782
 6472SOL    HW219959   4.500   2.347   1.717
 6473SOL     OW19960   4.114   3.603   1.560
 6473SOL    HW119961   4.023   3.644   1.558
 6473SOL    HW219962   4.107   3.509   1.592
 6474SOL     OW19963   4.318   2.607   0.652
 6474SOL    HW119964   4.368   2.692   0.633
 6474SOL    HW219965   4.230   2.609   0.604
 6475SOL     OW19966   3.945   3.176   1.844
 6475SOL    HW119967   3.880   3.103   1.823
 6475SOL    HW219968   3.949   3.190   1.942
 6476SOL     OW19969   3.803   3.102   0.653
 6476SOL    HW119970   3.802   3.055   0.741
 6476SOL    HW219971   3.885   3.074   0.602
 6477SOL     OW19972   4.396   3.253   1.624
 6477SOL    HW119973   4.318   3.203   1.662
 6477SOL    HW219974   4.393   3.348   1.655
 6478SOL     OW19975   4.152   2.286   0.520
 6478SOL    HW119976   4.182   2.214   0.458
 6478SOL    HW219977   4.113   2.246   0.603
 6479SOL     OW19978   4.041   2.409   1.280
 6479SOL    HW119979   4.079   2.350   1.352
 6479SOL    HW219980   4.081   2.383   1.192
 6480SOL     OW19981   4.536   3.448   0.687
 6480SOL    HW119982   4.568   3.458   0.593
 6480SOL    HW219983   4.457   3.386   0.689
 6481SOL     OW19984   3.763   2.939   0.300
 6481SOL    HW119985   3.862   2.928   0.291
 6481SOL    HW219986   3.723   2.853   0.332
 6482SOL     OW19987   3.954   2.490   1.975
 6482SOL    HW119988   3.861   2.488   2.012
 6482SOL    HW219989   3.955   2.451   1.883
 6483SOL     OW19990   3.949   2.137   2.858
 6483SOL    HW119991   3.984   2.120   2.950
 6483SOL    HW219992   3.861   2.092   2.846
 6484SOL     OW19993   3.743   2.230   2.509
 6484SOL    HW119994   3.661   2.273   2.548
 6484SOL    HW219995   3.715   2.157   2.446
 6485SOL     OW19996   4.293   3.137   3.027
 6485SOL    HW119997   4.200   3.130   2.990
 6485SOL    HW219998   4.304   3.226   3.071
 6486SOL     OW19999   4.574   2.660   3.685
 6486SOL    HW120000   4.570   2.736   3.750
 6486SOL    HW220001   4.596   2.696   3.594
 6487SOL     OW20002   4.409   2.874   2.527
 6487SOL    HW120003   4.478   2.858   2.597
 6487SOL    HW220004   4.336   2.931   2.565
 6488SOL     OW20005   4.410   3.023   3.665
 6488SOL    HW120006   4.470   3.102   3.679
 6488SOL    HW220007   4.324   3.054   3.624
 6489SOL     OW20008   4.059   3.297   2.923
 6489SOL    HW120009   3.981   3.266   2.870
 6489SOL    HW220010   4.117   3.355   2.866
 6490SOL     OW20011   4.162   2.254   3.361
 6490SOL    HW120012   4.244   2.198   3.370
 6490SOL    HW220013   4.081   2.196   3.365
 6491SOL     OW20014   3.955   3.575   2.345
 6491SOL    HW120015   3.989   3.652   2.399
 6491SOL    HW220016   3.999   3.575   2.255
 6492SOL     OW20017   3.954   3.296   2.400
 6492SOL    HW120018   3.928   3.392   2.400
 6492SOL    HW220019   3.883   3.242   2.445
 6493SOL     OW20020   3.964   2.953   2.748
 6493SOL    HW120021   3.978   2.869   2.800
 6493SOL    HW220022   3.909   3.017   2.803
 6494SOL     OW20023   4.344   3.648   3.301
 6494SOL    HW120024   4.252   3.631   3.336
 6494SOL    HW220025   4.372   3.740   3.327
 6495SOL     OW20026   4.330   2.826   1.985
 6495SOL    HW120027   4.337   2.910   1.931
 6495SOL    HW220028   4.376   2.839   2.073
 6496SOL     OW20029   3.846   2.505   2.425
 6496SOL    HW120030   3.801   2.417   2.442
 6496SOL    HW220031   3.845   2.559   2.509
 6497SOL     OW20032   3.751   3.458   1.979
 6497SOL    HW120033   3.732   3.362   2.000
 6497SOL    HW220034   3.718   3.516   2.054
 6498SOL     OW20035   3.837   2.599   3.459
 6498SOL    HW120036   3.925   2.586   3.504
 6498SOL    HW220037   3.824   2.696   3.437
 6499SOL     OW20038   4.337   3.227   2.588
 6499SOL    HW120039   4.288   3.140   2.597
 6499SOL    HW220040   4.314   3.270   2.501
 6500SOL     OW20041   4.533   1.866   2.364
 6500SOL    HW120042   4.573   1.957   2.355
 6500SOL    HW220043   4.433   1.874   2.370
 6501SOL     OW20044   3.921   2.838   3.126
 6501SOL    HW120045   4.010   2.793   3.112
 6501SOL    HW220046   3.848   2.773   3.107
 6502SOL     OW20047   4.041   2.113   3.663
 6502SOL    HW120048   4.112   2.184   3.669
 6502SOL    HW220049   3.953   2.152   3.691
 6503SOL     OW20050   4.322   2.591   2.132
 6503SOL    HW120051   4.346   2.660   2.064
 6503SOL    HW220052   4.244   2.624   2.186
 6504SOL     OW20053   3.800   2.673   2.651
 6504SOL    HW120054   3.899   2.661   2.660
 6504SOL    HW220055   3.776   2.768   2.672
 6505SOL     OW20056   3.854   3.683   3.433
 6505SOL    HW120057   3.844   3.668   3.532
 6505SOL    HW220058   3.768   3.719   3.397
 6506SOL     OW20059   4.274   2.058   2.747
 6506SOL    HW120060   4.269   2.053   2.847
 6506SOL    HW220061   4.276   2.154   2.718
 6507SOL     OW20062   4.075   3.663   2.715
 6507SOL    HW120063   4.125   3.577   2.721
 6507SOL    HW220064   4.140   3.740   2.712
 6508SOL     OW20065   4.045   2.805   2.104
 6508SOL    HW120066   4.127   2.844   2.062
 6508SOL    HW220067   4.018   2.723   2.055
 6509SOL     OW20068   4.185   3.128   3.589
 6509SOL    HW120069   4.135   3.129   3.503
 6509SOL    HW220070   4.122   3.110   3.665
 6510SOL     OW20071   3.926   2.147   3.360
 6510SOL    HW120072   3.846   2.207   3.347
 6510SOL    HW220073   3.916   2.098   3.446
 6511SOL     OW20074   4.188   3.605   2.185
 6511SOL    HW120075   4.221   3.644   2.271
 6511SOL    HW220076   4.264   3.598   2.120
 6512SOL     OW20077   3.973   3.647   3.103
 6512SOL    HW120078   4.030   3.582   3.153
 6512SOL    HW220079   3.957   3.614   3.010
 6513SOL     OW20080   4.106   2.562   2.342
 6513SOL    HW120081   4.151   2.472   2.339
 6513SOL    HW220082   4.012   2.551   2.375
 6514SOL     OW20083   4.338   1.984   1.979
 6514SOL    HW120084   4.436   1.962   1.986
 6514SOL    HW220085   4.307   1.967   1.886
 6515SOL     OW20086   4.527   3.264   2.786
 6515SOL    HW120087   4.617   3.278   2.744
 6515SOL    HW220088   4.456   3.266   2.715
 6516SOL     OW20089   4.263   1.926   2.374
 6516SOL    HW120090   4.182   1.927   2.432
 6516SOL    HW220091   4.266   2.009   2.319
 6517SOL     OW20092   4.021   1.897   2.033
 6517SOL    HW120093   4.070   1.981   2.012
 6517SOL    HW220094   4.083   1.832   2.078
 6518SOL     OW20095   4.800   2.545   3.326
 6518SOL    HW120096   4.720   2.484   3.329
 6518SOL    HW220097   4.881   2.492   3.302
 6519SOL     OW20098   4.183   3.014   2.603
 6519SOL    HW120099   4.112   2.987   2.668
 6519SOL    HW220100   4.157   2.986   2.510
 6520SOL     OW20101   3.802   2.418   3.248
 6520SOL    HW120102   3.894   2.417   3.207
 6520SOL    HW220103   3.796   2.492   3.315
 6521SOL     OW20104   4.285   2.084   3.009
 6521SOL    HW120105   4.323   2.000   3.046
 6521SOL    HW220106   4.197   2.103   3.053
 6522SOL     OW20107   4.212   3.247   2.036
 6522SOL    HW120108   4.125   3.232   2.083
 6522SOL    HW220109   4.195   3.273   1.941
 6523SOL     OW20110   4.251   2.118   2.190
 6523SOL    HW120111   4.278   2.059   2.115
 6523SOL    HW220112   4.251   2.213   2.159
 6524SOL     OW20113   4.134   2.675   3.113
 6524SOL    HW120114   4.220   2.687   3.163
 6524SOL    HW220115   4.092   2.588   3.140
 6525SOL     OW20116   3.788   3.426   3.193
 6525SOL    HW120117   3.742   3.508   3.159
 6525SOL    HW220118   3.886   3.445   3.202
 6526SOL     OW20119   4.091   2.962   2.363
 6526SOL    HW120120   4.084   3.045   2.307
 6526SOL    HW220121   4.095   2.882   2.303
 6527SOL     OW20122   4.290   2.399   2.727
 6527SOL    HW120123   4.302   2.465   2.653
 6527SOL    HW220124   4.336   2.433   2.810
 6528SOL     OW20125   4.078   3.372   3.191
 6528SOL    HW120126   4.057   3.328   3.104
 6528SOL    HW220127   4.175   3.398   3.194
 6529SOL     OW20128   4.126   2.613   3.460
 6529SOL    HW120129   4.194   2.668   3.413
 6529SOL    HW220130   4.166   2.525   3.487
 6530SOL     OW20131   4.228   1.912   3.602
 6530SOL    HW120132   4.186   1.855   3.532
 6530SOL    HW220133   4.162   1.981   3.634
 6531SOL     OW20134   4.297   2.732   2.891
 6531SOL    HW120135   4.341   2.821   2.882
 6531SOL    HW220136   4.234   2.732   2.968
 6532SOL     OW20137   4.031   2.075   3.093
 6532SOL    HW120138   4.008   2.112   3.183
 6532SOL    HW220139   4.001   1.980   3.087
 6533SOL     OW20140   3.761   3.172   3.144
 6533SOL    HW120141   3.814   3.123   3.212
 6533SOL    HW220142   3.783   3.270   3.149
 6534SOL     OW20143   4.031   1.925   2.480
 6534SOL    HW120144   4.020   2.019   2.513
 6534SOL    HW220145   4.026   1.862   2.557
 6535SOL     OW20146   4.074   2.760   3.666
 6535SOL    HW120147   4.150   2.804   3.714
 6535SOL    HW220148   4.109   2.713   3.584
 6536SOL     OW20149   4.043   2.672   2.811
 6536SOL    HW120150   4.136   2.708   2.816
 6536SOL    HW220151   4.037   2.587   2.863
 6537SOL     OW20152   4.063   2.371   2.868
 6537SOL    HW120153   4.011   2.288   2.851
 6537SOL    HW220154   4.140   2.376   2.804
 6538SOL     OW20155   3.732   3.188   2.062
 6538SOL    HW120156   3.639   3.209   2.031
 6538SOL    HW220157   3.742   3.089   2.075
 6539SOL     OW20158   3.812   3.663   2.789
 6539SOL    HW120159   3.770   3.577   2.762
 6539SOL    HW220160   3.906   3.666   2.755
 6540SOL     OW20161   4.228   3.430   2.772
 6540SOL    HW120162   4.294   3.504   2.781
 6540SOL    HW220163   4.272   3.351   2.730
 6541SOL     OW20164   3.764   2.406   2.976
 6541SOL    HW120165   3.849   2.373   2.935
 6541SOL    HW220166   3.777   2.421   3.074
 6542SOL     OW20167   3.913   2.382   3.584
 6542SOL    HW120168   3.972   2.342   3.514
 6542SOL    HW220169   3.855   2.453   3.543
 6543SOL     OW20170   4.539   2.434   2.187
 6543SOL    HW120171   4.546   2.345   2.141
 6543SOL    HW220172   4.445   2.468   2.179
 6544SOL     OW20173   3.976   3.426   3.606
 6544SOL    HW120174   3.946   3.483   3.682
 6544SOL    HW220175   3.969   3.329   3.632
 6545SOL     OW20176   4.197   2.362   2.053
 6545SOL    HW120177   4.258   2.442   2.057
 6545SOL    HW220178   4.102   2.393   2.060
 6546SOL     OW20179   3.883   2.999   3.328
 6546SOL    HW120180   3.905   2.938   3.404
 6546SOL    HW220181   3.893   2.950   3.242
 6547SOL     OW20182   3.807   3.120   2.884
 6547SOL    HW120183   3.802   3.119   2.984
 6547SOL    HW220184   3.724   3.079   2.846
 6548SOL     OW20185   4.412   3.524   3.578
 6548SOL    HW120186   4.356   3.605   3.587
 6548SOL    HW220187   4.464   3.528   3.492
 6549SOL     OW20188   3.854   3.656   3.713
 6549SOL    HW120189   3.813   3.582   3.766
 6549SOL    HW220190   3.918   3.707   3.771
 6550SOL     OW20191   3.987   2.188   2.582
 6550SOL    HW120192   3.908   2.239   2.548
 6550SOL    HW220193   3.978   2.173   2.680
 6551SOL     OW20194   4.096   3.150   3.352
 6551SOL    HW120195   4.083   3.243   3.318
 6551SOL    HW220196   4.012   3.098   3.339
 6552SOL     OW20197   4.314   3.349   2.353
 6552SOL    HW120198   4.356   3.291   2.283
 6552SOL    HW220199   4.270   3.428   2.309
 6553SOL     OW20200   3.979   3.210   2.152
 6553SOL    HW120201   3.883   3.211   2.125
 6553SOL    HW220202   3.991   3.263   2.236
 6554SOL     OW20203   3.829   2.875   3.588
 6554SOL    HW120204   3.752   2.842   3.642
 6554SOL    HW220205   3.914   2.845   3.630
 6555SOL     OW20206   4.396   2.065   3.351
 6555SOL    HW120207   4.486   2.049   3.311
 6555SOL    HW220208   4.404   2.070   3.450
 6556SOL     OW20209   3.799   2.207   1.895
 6556SOL    HW120210   3.707   2.179   1.866
 6556SOL    HW220211   3.830   2.284   1.839
 6557SOL     OW20212   3.796   2.028   2.180
 6557SOL    HW120213   3.779   2.111   2.126
 6557SOL    HW220214   3.886   1.991   2.158
 6558SOL     OW20215   4.337   2.704   3.293
 6558SOL    HW120216   4.393   2.785   3.276
 6558SOL    HW220217   4.396   2.624   3.296
 6559SOL     OW20218   4.440   2.427   3.570
 6559SOL    HW120219   4.459   2.492   3.644
 6559SOL    HW220220   4.500   2.347   3.579
 6560SOL     OW20221   4.114   3.603   3.422
 6560SOL    HW120222   4.023   3.644   3.420
 6560SOL    HW220223   4.107   3.509   3.454
 6561SOL     OW20224   4.318   2.607   2.514
 6561SOL    HW120225   4.368   2.692   2.495
 6561SOL    HW220226   4.230   2.609   2.466
 6562SOL     OW20227   3.945   3.176   3.706
 6562SOL    HW120228   3.880   3.103   3.685
 6562SOL    HW220229   3.949   3.190   3.804
 6563SOL     OW20230   3.803   3.102   2.515
 6563SOL    HW120231   3.802   3.055   2.603
 6563SOL    HW220232   3.885   3.074   2.464
 6564SOL     OW20233   4.396   3.253   3.486
 6564SOL    HW120234   4.318   3.203   3.524
 6564SOL    HW220235   4.393   3.348   3.517
 6565SOL     OW20236   4.152   2.286   2.382
 6565SOL    HW120237   4.182   2.214   2.320
 6565SOL    HW220238   4.113   2.246   2.465
 6566SOL     OW20239   4.041   2.409   3.142
 6566SOL    HW120240   4.079   2.350   3.214
 6566SOL    HW220241   4.081   2.383   3.054
 6567SOL     OW20242   4.536   3.448   2.549
 6567SOL    HW120243   4.568   3.458   2.455
 6567SOL    HW220244   4.457   3.386   2.551
 6568SOL     OW20245   3.763   2.939   2.162
 6568SOL    HW120246   3.862   2.928   2.153
 6568SOL    HW220247   3.723   2.853   2.194
 6569SOL     OW20248   3.954   2.490   3.837
 6569SOL    HW120249   3.861   2.488   3.874
 6569SOL    HW220250   3.955   2.451   3.745
 6570SOL     OW20251   3.949   2.137   4.720
 6570SOL    HW120252   3.984   2.120   4.812
 6570SOL    HW220253   3.861   2.092   4.708
 6571SOL     OW20254   3.743   2.230   4.371
 6571SOL    HW120255   3.661   2.273   4.410
 6571SOL    HW220256   3.715   2.157   4.308
 6572SOL     OW20257   4.293   3.137   4.889
 6572SOL    HW120258   4.200   3.130   4.852
 6572SOL    HW220259   4.304   3.226   4.933
 6573SOL     OW20260   4.574   2.660   5.547
 6573SOL    HW120261   4.570   2.736   5.612
 6573SOL    HW220262   4.596   2.696   5.456
 6574SOL     OW20263   4.409   2.874   4.389
 6574SOL    HW120264   4.478   2.858   4.459
 6574SOL    HW220265   4.336   2.931   4.427
 6575SOL     OW20266   4.410   3.023   5.527
 6575SOL    HW120267   4.470   3.102   5.541
 6575SOL    HW220268   4.324   3.054   5.486
 6576SOL     OW20269   4.059   3.297   4.785
 6576SOL    HW120270   3.981   3.266   4.732
 6576SOL    HW220271   4.117   3.355   4.728
 6577SOL     OW20272   4.162   2.254   5.223
 6577SOL    HW120273   4.244   2.198   5.232
 6577SOL    HW220274   4.081   2.196   5.227
 6578SOL     OW20275   3.955   3.575   4.207
 6578SOL    HW120276   3.989   3.652   4.261
 6578SOL    HW220277   3.999   3.575   4.117
 6579SOL     OW20278   3.954   3.296   4.262
 6579SOL    HW120279   3.928   3.392   4.262
 6579SOL    HW220280   3.883   3.242   4.307
 6580SOL     OW20281   3.964   2.953   4.610
 6580SOL    HW120282   3.978   2.869   4.662
 6580SOL    HW220283   3.909   3.017   4.665
 6581SOL     OW20284   4.344   3.648   5.163
 6581SOL    HW120285   4.252   3.631   5.198
 6581SOL    HW220286   4.372   3.740   5.189
 6582SOL     OW20287   4.330   2.826   3.847
 6582SOL    HW120288   4.337   2.910   3.793
 6582SOL    HW220289   4.376   2.839   3.935
 6583SOL     OW20290   3.846   2.505   4.287
 6583SOL    HW120291   3.801   2.417   4.304
 6583SOL    HW220292   3.845   2.559   4.371
 6584SOL     OW20293   3.751   3.458   3.841
 6584SOL    HW120294   3.732   3.362   3.862
 6584SOL    HW220295   3.718   3.516   3.916
 6585SOL     OW20296   3.837   2.599   5.321
 6585SOL    HW120297   3.925   2.586   5.366
 6585SOL    HW220298   3.824   2.696   5.299
 6586SOL     OW20299   4.337   3.227   4.450
 6586SOL    HW120300   4.288   3.140   4.459
 6586SOL    HW220301   4.314   3.270   4.363
 6587SOL     OW20302   4.533   1.866   4.226
 6587SOL    HW120303   4.573   1.957   4.217
 6587SOL    HW220304   4.433   1.874   4.232
 6588SOL     OW20305   3.921   2.838   4.988
 6588SOL    HW120306   4.010   2.793   4.974
 6588SOL    HW220307   3.848   2.773   4.969
 6589SOL     OW20308   4.041   2.113   5.525
 6589SOL    HW120309   4.112   2.184   5.531
 6589SOL    HW220310   3.953   2.152   5.553
 6590SOL     OW20311   4.322   2.591   3.994
 6590SOL    HW120312   4.346   2.660   3.926
 6590SOL    HW220313   4.244   2.624   4.048
 6591SOL     OW20314   3.800   2.673   4.513
 6591SOL    HW120315   3.899   2.661   4.522
 6591SOL    HW220316   3.776   2.768   4.534
 6592SOL     OW20317   3.854   3.683   5.295
 6592SOL    HW120318   3.844   3.668   5.394
 6592SOL    HW220319   3.768   3.719   5.259
 6593SOL     OW20320   4.274   2.058   4.609
 6593SOL    HW120321   4.269   2.053   4.709
 6593SOL    HW220322   4.276   2.154   4.580
 6594SOL     OW20323   4.075   3.663   4.577
 6594SOL    HW120324   4.125   3.577   4.583
 6594SOL    HW220325   4.140   3.740   4.574
 6595SOL     OW20326   4.045   2.805   3.966
 6595SOL    HW120327   4.127   2.844   3.924
 6595SOL    HW220328   4.018   2.723   3.917
 6596SOL     OW20329   4.185   3.128   5.451
 6596SOL    HW120330   4.135   3.129   5.365
 6596SOL    HW220331   4.122   3.110   5.527
 6597SOL     OW20332   3.926   2.147   5.222
 6597SOL    HW120333   3.846   2.207   5.209
 6597SOL    HW220334   3.916   2.098   5.308
 6598SOL     OW20335   4.188   3.605   4.047
 6598SOL    HW120336   4.221   3.644   4.133
 6598SOL    HW220337   4.264   3.598   3.982
 6599SOL     OW20338   3.973   3.647   4.965
 6599SOL    HW120339   4.030   3.582   5.015
 6599SOL    HW220340   3.957   3.614   4.872
 6600SOL     OW20341   4.106   2.562   4.204
 6600SOL    HW120342   4.151   2.472   4.201
 6600SOL    HW220343   4.012   2.551   4.237
 6601SOL     OW20344   4.338   1.984   3.841
 6601SOL    HW120345   4.436   1.962   3.848
 6601SOL    HW220346   4.307   1.967   3.748
 6602SOL     OW20347   4.527   3.264   4.648
 6602SOL    HW120348   4.617   3.278   4.606
 6602SOL    HW220349   4.456   3.266   4.577
 6603SOL     OW20350   4.263   1.926   4.236
 6603SOL    HW120351   4.182   1.927   4.294
 6603SOL    HW220352   4.266   2.009   4.181
 6604SOL     OW20353   4.021   1.897   3.895
 6604SOL    HW120354   4.070   1.981   3.874
 6604SOL    HW220355   4.083   1.832   3.940
 6605SOL     OW20356   4.800   2.545   5.188
 6605SOL    HW120357   4.720   2.484   5.191
 6605SOL    HW220358   4.881   2.492   5.164
 6606SOL     OW20359   4.183   3.014   4.465
 6606SOL    HW120360   4.112   2.987   4.530
 6606SOL    HW220361   4.157   2.986   4.372
 6607SOL     OW20362   3.802   2.418   5.110
 6607SOL    HW120363   3.894   2.417   5.069
 6607SOL    HW220364   3.796   2.492   5.177
 6608SOL     OW20365   4.285   2.084   4.871
 6608SOL    HW120366   4.323   2.000   4.908
 6608SOL    HW220367   4.197   2.103   4.915
 6609SOL     OW20368   4.212   3.247   3.898
 6609SOL    HW120369   4.125   3.232   3.945
 6609SOL    HW220370   4.195   3.273   3.803
 6610SOL     OW20371   4.251   2.118   4.052
 6610SOL    HW120372   4.278   2.059   3.977
 6610SOL    HW220373   4.251   2.213   4.021
 6611SOL     OW20374   4.134   2.675   4.975
 6611SOL    HW120375   4.220   2.687   5.025
 6611SOL    HW220376   4.092   2.588   5.002
 6612SOL     OW20377   3.788   3.426   5.055
 6612SOL    HW120378   3.742   3.508   5.021
 6612SOL    HW220379   3.886   3.445   5.064
 6613SOL     OW20380   4.091   2.962   4.225
 6613SOL    HW120381   4.084   3.045   4.169
 6613SOL    HW220382   4.095   2.882   4.165
 6614SOL     OW20383   4.290   2.399   4.589
 6614SOL    HW120384   4.302   2.465   4.515
 6614SOL    HW220385   4.336   2.433   4.672
 6615SOL     OW20386   4.078   3.372   5.053
 6615SOL    HW120387   4.057   3.328   4.966
 6615SOL    HW220388   4.175   3.398   5.056
 6616SOL     OW20389   4.126   2.613   5.322
 6616SOL    HW120390   4.194   2.668   5.275
 6616SOL    HW220391   4.166   2.525   5.349
 6617SOL     OW20392   4.228   1.912   5.464
 6617SOL    HW120393   4.186   1.855   5.394
 6617SOL    HW220394   4.162   1.981   5.496
 6618SOL     OW20395   4.297   2.732   4.753
 6618SOL    HW120396   4.341   2.821   4.744
 6618SOL    HW220397   4.234   2.732   4.830
 6619SOL     OW20398   4.031   2.075   4.955
 6619SOL    HW120399   4.008   2.112   5.045
 6619SOL    HW220400   4.001   1.980   4.949
 6620SOL     OW20401   3.761   3.172   5.006
 6620SOL    HW120402   3.814   3.123   5.074
 6620SOL    HW220403   3.783   3.270   5.011
 6621SOL     OW20404   4.031   1.925   4.342
 6621SOL    HW120405   4.020   2.019   4.375
 6621SOL    HW220406   4.026   1.862   4.419
 6622SOL     OW20407   4.074   2.760   5.528
 6622SOL    HW120408   4.150   2.804   5.576
 6622SOL    HW220409   4.109   2.713   5.446
 6623SOL     OW20410   4.043   2.672   4.673
 6623SOL    HW120411   4.136   2.708   4.678
 6623SOL    HW220412   4.037   2.587   4.725
 6624SOL     OW20413   4.063   2.371   4.730
 6624SOL    HW120414   4.011   2.288   4.713
 6624SOL    HW220415   4.140   2.376   4.666
 6625SOL     OW20416   3.732   3.188   3.924
 6625SOL    HW120417   3.639   3.209   3.893
 6625SOL    HW220418   3.742   3.089   3.937
 6626SOL     OW20419   3.812   3.663   4.651
 6626SOL    HW120420   3.770   3.577   4.624
 6626SOL    HW220421   3.906   3.666   4.617
 6627SOL     OW20422   4.228   3.430   4.634
 6627SOL    HW120423   4.294   3.504   4.643
 6627SOL    HW220424   4.272   3.351   4.592
 6628SOL     OW20425   3.764   2.406   4.838
 6628SOL    HW120426   3.849   2.373   4.797
 6628SOL    HW220427   3.777   2.421   4.936
 6629SOL     OW20428   3.913   2.382   5.446
 6629SOL    HW120429   3.972   2.342   5.376
 6629SOL    HW220430   3.855   2.453   5.405
 6630SOL     OW20431   4.539   2.434   4.049
 6630SOL    HW120432   4.546   2.345   4.003
 6630SOL    HW220433   4.445   2.468   4.041
 6631SOL     OW20434   3.976   3.426   5.468
 6631SOL    HW120435   3.946   3.483   5.544
 6631SOL    HW220436   3.969   3.329   5.494
 6632SOL     OW20437   4.197   2.362   3.915
 6632SOL    HW120438   4.258   2.442   3.919
 6632SOL    HW220439   4.102   2.393   3.922
 6633SOL     OW20440   3.883   2.999   5.190
 6633SOL    HW120441   3.905   2.938   5.266
 6633SOL    HW220442   3.893   2.950   5.104
 6634SOL     OW20443   3.807   3.120   4.746
 6634SOL    HW120444   3.802   3.119   4.846
 6634SOL    HW220445   3.724   3.079   4.708
 6635SOL     OW20446   4.412   3.524   5.440
 6635SOL    HW120447   4.356   3.605   5.449
 6635SOL    HW220448   4.464   3.528   5.354
 6636SOL     OW20449   3.854   3.656   5.575
 6636SOL    HW120450   3.813   3.582   5.628
 6636SOL    HW220451   3.918   3.707   5.633
 6637SOL     OW20452   3.987   2.188   4.444
 6637SOL    HW120453   3.908   2.239   4.410
 6637SOL    HW220454   3.978   2.173   4.542
 6638SOL     OW20455   4.096   3.150   5.214
 6638SOL    HW120456   4.083   3.243   5.180
 6638SOL    HW220457   4.012   3.098   5.201
 6639SOL     OW20458   4.314   3.349   4.215
 6639SOL    HW120459   4.356   3.291   4.145
 6639SOL    HW220460   4.270   3.428   4.171
 6640SOL     OW20461   3.979   3.210   4.014
 6640SOL    HW120462   3.883   3.211   3.987
 6640SOL    HW220463   3.991   3.263   4.098
 6641SOL     OW20464   3.829   2.875   5.450
 6641SOL    HW120465   3.752   2.842   5.504
 6641SOL    HW220466   3.914   2.845   5.492
 6642SOL     OW20467   4.396   2.065   5.213
 6642SOL    HW120468   4.486   2.049   5.173
 6642SOL    HW220469   4.404   2.070   5.312
 6643SOL     OW20470   3.799   2.207   3.757
 6643SOL    HW120471   3.707   2.179   3.728
 6643SOL    HW220472   3.830   2.284   3.701
 6644SOL     OW20473   3.796   2.028   4.042
 6644SOL    HW120474   3.779   2.111   3.988
 6644SOL    HW220475   3.886   1.991   4.020
 6645SOL     OW20476   4.337   2.704   5.155
 6645SOL    HW120477   4.393   2.785   5.138
 6645SOL    HW220478   4.396   2.624   5.158
 6646SOL     OW20479   4.440   2.427   5.432
 6646SOL    HW120480   4.459   2.492   5.506
 6646SOL    HW220481   4.500   2.347   5.441
 6647SOL     OW20482   4.114   3.603   5.284
 6647SOL    HW120483   4.023   3.644   5.282
 6647SOL    HW220484   4.107   3.509   5.316
 6648SOL     OW20485   4.318   2.607   4.376
 6648SOL    HW120486   4.368   2.692   4.357
 6648SOL    HW220487   4.230   2.609   4.328
 6649SOL     OW20488   3.945   3.176   5.568
 6649SOL    HW120489   3.880   3.103   5.547
 6649SOL    HW220490   3.949   3.190   5.666
 6650SOL     OW20491   3.803   3.102   4.377
 6650SOL    HW120492   3.802   3.055   4.465
 6650SOL    HW220493   3.885   3.074   4.326
 6651SOL     OW20494   4.396   3.253   5.348
 6651SOL    HW120495   4.318   3.203   5.386
 6651SOL    HW220496   4.393   3.348   5.379
 6652SOL     OW20497   4.152   2.286   4.244
 6652SOL    HW120498   4.182   2.214   4.182
 6652SOL    HW220499   4.113   2.246   4.327
 6653SOL     OW20500   4.041   2.409   5.004
 6653SOL    HW120501   4.079   2.350   5.076
 6653SOL    HW220502   4.081   2.383   4.916
 6654SOL     OW20503   4.536   3.448   4.411
 6654SOL    HW120504   4.568   3.458   4.317
 6654SOL    HW220505   4.457   3.386   4.413
 6655SOL     OW20506   3.763   2.939   4.024
 6655SOL    HW120507   3.862   2.928   4.015
 6655SOL    HW220508   3.723   2.853   4.056
 6656SOL     OW20509   3.954   2.490   5.699
 6656SOL    HW120510   3.861   2.488   5.736
 6656SOL    HW220511   3.955   2.451   5.607
 6657SOL     OW20512   3.949   2.137   6.582
 6657SOL    HW120513   3.984   2.120   6.674
 6657SOL    HW220514   3.861   2.092   6.570
 6658SOL     OW20515   3.743   2.230   6.233
 6658SOL    HW120516   3.661   2.273   6.272
 6658SOL    HW220517   3.715   2.157   6.170
 6659SOL     OW20518   4.293   3.137   6.751
 6659SOL    HW120519   4.200   3.130   6.714
 6659SOL    HW220520   4.304   3.226   6.795
 6660SOL     OW20521   4.574   2.660   7.409
 6660SOL    HW120522   4.570   2.736   7.474
 6660SOL    HW220523   4.596   2.696   7.318
 6661SOL     OW20524   4.409   2.874   6.251
 6661SOL    HW120525   4.478   2.858   6.321
 6661SOL    HW220526   4.336   2.931   6.289
 6662SOL     OW20527   4.410   3.023   7.389
 6662SOL    HW120528   4.470   3.102   7.403
 6662SOL    HW220529   4.324   3.054   7.348
 6663SOL     OW20530   4.059   3.297   6.647
 6663SOL    HW120531   3.981   3.266   6.594
 6663SOL    HW220532   4.117   3.355   6.590
 6664SOL     OW20533   4.162   2.254   7.085
 6664SOL    HW120534   4.244   2.198   7.094
 6664SOL    HW220535   4.081   2.196   7.089
 6665SOL     OW20536   3.955   3.575   6.069
 6665SOL    HW120537   3.989   3.652   6.123
 6665SOL    HW220538   3.999   3.575   5.979
 6666SOL     OW20539   3.954   3.296   6.124
 6666SOL    HW120540   3.928   3.392   6.124
 6666SOL    HW220541   3.883   3.242   6.169
 6667SOL     OW20542   3.964   2.953   6.472
 6667SOL    HW120543   3.978   2.869   6.524
 6667SOL    HW220544   3.909   3.017   6.527
 6668SOL     OW20545   4.344   3.648   7.025
 6668SOL    HW120546   4.252   3.631   7.060
 6668SOL    HW220547   4.372   3.740   7.051
 6669SOL     OW20548   4.330   2.826   5.709
 6669SOL    HW120549   4.337   2.910   5.655
 6669SOL    HW220550   4.376   2.839   5.797
 6670SOL     OW20551   3.846   2.505   6.149
 6670SOL    HW120552   3.801   2.417   6.166
 6670SOL    HW220553   3.845   2.559   6.233
 6671SOL     OW20554   3.751   3.458   5.703
 6671SOL    HW120555   3.732   3.362   5.724
 6671SOL    HW220556   3.718   3.516   5.778
 6672SOL     OW20557   3.837   2.599   7.183
 6672SOL    HW120558   3.925   2.586   7.228
 6672SOL    HW220559   3.824   2.696   7.161
 6673SOL     OW20560   4.337   3.227   6.312
 6673SOL    HW120561   4.288   3.140   6.321
 6673SOL    HW220562   4.314   3.270   6.225
 6674SOL     OW20563   4.533   1.866   6.088
 6674SOL    HW120564   4.573   1.957   6.079
 6674SOL    HW220565   4.433   1.874   6.094
 6675SOL     OW20566   3.921   2.838   6.850
 6675SOL    HW120567   4.010   2.793   6.836
 6675SOL    HW220568   3.848   2.773   6.831
 6676SOL     OW20569   4.041   2.113   7.387
 6676SOL    HW120570   4.112   2.184   7.393
 6676SOL    HW220571   3.953   2.152   7.415
 6677SOL     OW20572   4.322   2.591   5.856
 6677SOL    HW120573   4.346   2.660   5.788
 6677SOL    HW220574   4.244   2.624   5.910
 6678SOL     OW20575   3.800   2.673   6.375
 6678SOL    HW120576   3.899   2.661   6.384
 6678SOL    HW220577   3.776   2.768   6.396
 6679SOL     OW20578   3.854   3.683   7.157
 6679SOL    HW120579   3.844   3.668   7.256
 6679SOL    HW220580   3.768   3.719   7.121
 6680SOL     OW20581   4.274   2.058   6.471
 6680SOL    HW120582   4.269   2.053   6.571
 6680SOL    HW220583   4.276   2.154   6.442
 6681SOL     OW20584   4.075   3.663   6.439
 6681SOL    HW120585   4.125   3.577   6.445
 6681SOL    HW220586   4.140   3.740   6.436
 6682SOL     OW20587   4.045   2.805   5.828
 6682SOL    HW120588   4.127   2.844   5.786
 6682SOL    HW220589   4.018   2.723   5.779
 6683SOL     OW20590   4.185   3.128   7.313
 6683SOL    HW120591   4.135   3.129   7.227
 6683SOL    HW220592   4.122   3.110   7.389
 6684SOL     OW20593   3.926   2.147   7.084
 6684SOL    HW120594   3.846   2.207   7.071
 6684SOL    HW220595   3.916   2.098   7.170
 6685SOL     OW20596   4.188   3.605   5.909
 6685SOL    HW120597   4.221   3.644   5.995
 6685SOL    HW220598   4.264   3.598   5.844
 6686SOL     OW20599   3.973   3.647   6.827
 6686SOL    HW120600   4.030   3.582   6.877
 6686SOL    HW220601   3.957   3.614   6.734
 6687SOL     OW20602   4.106   2.562   6.066
 6687SOL    HW120603   4.151   2.472   6.063
 6687SOL    HW220604   4.012   2.551   6.099
 6688SOL     OW20605   4.338   1.984   5.703
 6688SOL    HW120606   4.436   1.962   5.710
 6688SOL    HW220607   4.307   1.967   5.610
 6689SOL     OW20608   4.527   3.264   6.510
 6689SOL    HW120609   4.617   3.278   6.468
 6689SOL    HW220610   4.456   3.266   6.439
 6690SOL     OW20611   4.263   1.926   6.098
 6690SOL    HW120612   4.182   1.927   6.156
 6690SOL    HW220613   4.266   2.009   6.043
 6691SOL     OW20614   4.021   1.897   5.757
 6691SOL    HW120615   4.070   1.981   5.736
 6691SOL    HW220616   4.083   1.832   5.802
 6692SOL     OW20617   4.800   2.545   7.050
 6692SOL    HW120618   4.720   2.484   7.053
 6692SOL    HW220619   4.881   2.492   7.026
 6693SOL     OW20620   4.183   3.014   6.327
 6693SOL    HW120621   4.112   2.987   6.392
 6693SOL    HW220622   4.157   2.986   6.234
 6694SOL     OW20623   3.802   2.418   6.972
 6694SOL    HW120624   3.894   2.417   6.931
 6694SOL    HW220625   3.796   2.492   7.039
 6695SOL     OW20626   4.285   2.084   6.733
 6695SOL    HW120627   4.323   2.000   6.770
 6695SOL    HW220628   4.197   2.103   6.777
 6696SOL     OW20629   4.212   3.247   5.760
 6696SOL    HW120630   4.125   3.232   5.807
 6696SOL    HW220631   4.195   3.273   5.665
 6697SOL     OW20632   4.251   2.118   5.914
 6697SOL    HW120633   4.278   2.059   5.839
 6697SOL    HW220634   4.251   2.213   5.883
 6698SOL     OW20635   4.134   2.675   6.837
 6698SOL    HW120636   4.220   2.687   6.887
 6698SOL    HW220637   4.092   2.588   6.864
 6699SOL     OW20638   3.788   3.426   6.917
 6699SOL    HW120639   3.742   3.508   6.883
 6699SOL    HW220640   3.886   3.445   6.926
 6700SOL     OW20641   4.091   2.962   6.087
 6700SOL    HW120642   4.084   3.045   6.031
 6700SOL    HW220643   4.095   2.882   6.027
 6701SOL     OW20644   4.290   2.399   6.451
 6701SOL    HW120645   4.302   2.465   6.377
 6701SOL    HW220646   4.336   2.433   6.534
 6702SOL     OW20647   4.078   3.372   6.915
 6702SOL    HW120648   4.057   3.328   6.828
 6702SOL    HW220649   4.175   3.398   6.918
 6703SOL     OW20650   4.126   2.613   7.184
 6703SOL    HW120651   4.194   2.668   7.137
 6703SOL    HW220652   4.166   2.525   7.211
 6704SOL     OW20653   4.228   1.912   7.326
 6704SOL    HW120654   4.186   1.855   7.256
 6704SOL    HW220655   4.162   1.981   7.358
 6705SOL     OW20656   4.297   2.732   6.615
 6705SOL    HW120657   4.341   2.821   6.606
 6705SOL    HW220658   4.234   2.732   6.692
 6706SOL     OW20659   4.031   2.075   6.817
 6706SOL    HW120660   4.008   2.112   6.907
 6706SOL    HW220661   4.001   1.980   6.811
 6707SOL     OW20662   3.761   3.172   6.868
 6707SOL    HW120663   3.814   3.123   6.936
 6707SOL    HW220664   3.783   3.270   6.873
 6708SOL     OW20665   4.031   1.925   6.204
 6708SOL    HW120666   4.020   2.019   6.237
 6708SOL    HW220667   4.026   1.862   6.281
 6709SOL     OW20668   4.074   2.760   7.390
 6709SOL    HW120669   4.150   2.804   7.438
 6709SOL    HW220670   4.109   2.713   7.308
 6710SOL     OW20671   4.043   2.672   6.535
 6710SOL    HW120672   4.136   2.708   6.540
 6710SOL    HW220673   4.037   2.587   6.587
 6711SOL     OW20674   4.063   2.371   6.592
 6711SOL    HW120675   4.011   2.288   6.575
 6711SOL    HW220676   4.140   2.376   6.528
 6712SOL     OW20677   3.732   3.188   5.786
 6712SOL    HW120678   3.639   3.209   5.755
 6712SOL    HW220679   3.742   3.089   5.799
 6713SOL     OW20680   3.812   3.663   6.513
 6713SOL    HW120681   3.770   3.577   6.486
 6713SOL    HW220682   3.906   3.666   6.479
 6714SOL     OW20683   4.228   3.430   6.496
 6714SOL    HW120684   4.294   3.504   6.505
 6714SOL    HW220685   4.272   3.351   6.454
 6715SOL     OW20686   3.764   2.406   6.700
 6715SOL    HW120687   3.849   2.373   6.659
 6715SOL    HW220688   3.777   2.421   6.798
 6716SOL     OW20689   3.913   2.382   7.308
 6716SOL    HW120690   3.972   2.342   7.238
 6716SOL    HW220691   3.855   2.453   7.267
 6717SOL     OW20692   4.539   2.434   5.911
 6717SOL    HW120693   4.546   2.345   5.865
 6717SOL    HW220694   4.445   2.468   5.903
 6718SOL     OW20695   3.976   3.426   7.330
 6718SOL    HW120696   3.946   3.483   7.406
 6718SOL    HW220697   3.969   3.329   7.356
 6719SOL     OW20698   4.197   2.362   5.777
 6719SOL    HW120699   4.258   2.442   5.781
 6719SOL    HW220700   4.102   2.393   5.784
 6720SOL     OW20701   3.883   2.999   7.052
 6720SOL    HW120702   3.905   2.938   7.128
 6720SOL    HW220703   3.893   2.950   6.966
 6721SOL     OW20704   3.807   3.120   6.608
 6721SOL    HW120705   3.802   3.119   6.708
 6721SOL    HW220706   3.724   3.079   6.570
 6722SOL     OW20707   4.412   3.524   7.302
 6722SOL    HW120708   4.356   3.605   7.311
 6722SOL    HW220709   4.464   3.528   7.216
 6723SOL     OW20710   3.854   3.656   7.437
 6723SOL    HW120711   3.813   3.582   7.490
 6723SOL    HW220712   3.918   3.707   7.495
 6724SOL     OW20713   3.987   2.188   6.306
 6724SOL    HW120714   3.908   2.239   6.272
 6724SOL    HW220715   3.978   2.173   6.404
 6725SOL     OW20716   4.096   3.150   7.076
 6725SOL    HW120717   4.083   3.243   7.042
 6725SOL    HW220718   4.012   3.098   7.063
 6726SOL     OW20719   4.314   3.349   6.077
 6726SOL    HW120720   4.356   3.291   6.007
 6726SOL    HW220721   4.270   3.428   6.033
 6727SOL     OW20722   3.979   3.210   5.876
 6727SOL    HW120723   3.883   3.211   5.849
 6727SOL    HW220724   3.991   3.263   5.960
 6728SOL     OW20725   3.829   2.875   7.312
 6728SOL    HW120726   3.752   2.842   7.366
 6728SOL    HW220727   3.914   2.845   7.354
 6729SOL     OW20728   4.396   2.065   7.075
 6729SOL    HW120729   4.486   2.049   7.035
 6729SOL    HW220730   4.404   2.070   7.174
 6730SOL     OW20731   3.799   2.207   5.619
 6730SOL    HW120732   3.707   2.179   5.590
 6730SOL    HW220733   3.830   2.284   5.563
 6731SOL     OW20734   3.796   2.028   5.904
 6731SOL    HW120735   3.779   2.111   5.850
 6731SOL    HW220736   3.886   1.991   5.882
 6732SOL     OW20737   4.337   2.704   7.017
 6732SOL    HW120738   4.393   2.785   7.000
 6732SOL    HW220739   4.396   2.624   7.020
 6733SOL     OW20740   4.440   2.427   7.294
 6733SOL    HW120741   4.459   2.492   7.368
 6733SOL    HW220742   4.500   2.347   7.303
 6734SOL     OW20743   4.114   3.603   7.146
 6734SOL    HW120744   4.023   3.644   7.144
 6734SOL    HW220745   4.107   3.509   7.178
 6735SOL     OW20746   4.318   2.607   6.238
 6735SOL    HW120747   4.368   2.692   6.219
 6735SOL    HW220748   4.230   2.609   6.190
 6736SOL     OW20749   3.945   3.176   7.430
 6736SOL    HW120750   3.880   3.103   7.409
 6736SOL    HW220751   3.949   3.190   7.528
 6737SOL     OW20752   3.803   3.102   6.239
 6737SOL    HW120753   3.802   3.055   6.327
 6737SOL    HW220754   3.885   3.074   6.188
 6738SOL     OW20755   4.396   3.253   7.210
 6738SOL    HW120756   4.318   3.203   7.248
 6738SOL    HW220757   4.393   3.348   7.241
 6739SOL     OW20758   4.152   2.286   6.106
 6739SOL    HW120759   4.182   2.214   6.044
 6739SOL    HW220760   4.113   2.246   6.189
 6740SOL     OW20761   4.041   2.409   6.866
 6740SOL    HW120762   4.079   2.350   6.938
 6740SOL    HW220763   4.081   2.383   6.778
 6741SOL     OW20764   4.536   3.448   6.273
 6741SOL    HW120765   4.568   3.458   6.179
 6741SOL    HW220766   4.457   3.386   6.275
 6742SOL     OW20767   3.763   2.939   5.886
 6742SOL    HW120768   3.862   2.928   5.877
 6742SOL    HW220769   3.723   2.853   5.918
 6743SOL     OW20770   3.954   2.490   7.561
 6743SOL    HW120771   3.861   2.488   7.598
 6743SOL    HW220772   3.955   2.451   7.469
 6744SOL     OW20773   3.949   2.137   8.444
 6744SOL    HW120774   3.984   2.120   8.536
 6744SOL    HW220775   3.861   2.092   8.432
 6745SOL     OW20776   3.743   2.230   8.095
 6745SOL    HW120777   3.661   2.273   8.134
 6745SOL    HW220778   3.715   2.157   8.032
 6746SOL     OW20779   4.293   3.137   8.613
 6746SOL    HW120780   4.200   3.130   8.576
 6746SOL    HW220781   4.304   3.226   8.657
 6747SOL     OW20782   4.574   2.660   9.271
 6747SOL    HW120783   4.570   2.736   9.336
 6747SOL    HW220784   4.596   2.696   9.180
 6748SOL     OW20785   4.409   2.874   8.113
 6748SOL    HW120786   4.478   2.858   8.183
 6748SOL    HW220787   4.336   2.931   8.151
 6749SOL     OW20788   4.410   3.023   9.251
 6749SOL    HW120789   4.470   3.102   9.265
 6749SOL    HW220790   4.324   3.054   9.210
 6750SOL     OW20791   4.059   3.297   8.509
 6750SOL    HW120792   3.981   3.266   8.456
 6750SOL    HW220793   4.117   3.355   8.452
 6751SOL     OW20794   4.162   2.254   8.947
 6751SOL    HW120795   4.244   2.198   8.956
 6751SOL    HW220796   4.081   2.196   8.951
 6752SOL     OW20797   3.955   3.575   7.931
 6752SOL    HW120798   3.989   3.652   7.985
 6752SOL    HW220799   3.999   3.575   7.841
 6753SOL     OW20800   3.954   3.296   7.986
 6753SOL    HW120801   3.928   3.392   7.986
 6753SOL    HW220802   3.883   3.242   8.031
 6754SOL     OW20803   3.964   2.953   8.334
 6754SOL    HW120804   3.978   2.869   8.386
 6754SOL    HW220805   3.909   3.017   8.389
 6755SOL     OW20806   4.344   3.648   8.887
 6755SOL    HW120807   4.252   3.631   8.922
 6755SOL    HW220808   4.372   3.740   8.913
 6756SOL     OW20809   4.330   2.826   7.571
 6756SOL    HW120810   4.337   2.910   7.517
 6756SOL    HW220811   4.376   2.839   7.659
 6757SOL     OW20812   3.846   2.505   8.011
 6757SOL    HW120813   3.801   2.417   8.028
 6757SOL    HW220814   3.845   2.559   8.095
 6758SOL     OW20815   3.751   3.458   7.565
 6758SOL    HW120816   3.732   3.362   7.586
 6758SOL    HW220817   3.718   3.516   7.640
 6759SOL     OW20818   3.837   2.599   9.045
 6759SOL    HW120819   3.925   2.586   9.090
 6759SOL    HW220820   3.824   2.696   9.023
 6760SOL     OW20821   4.337   3.227   8.174
 6760SOL    HW120822   4.288   3.140   8.183
 6760SOL    HW220823   4.314   3.270   8.087
 6761SOL     OW20824   4.533   1.866   7.950
 6761SOL    HW120825   4.573   1.957   7.941
 6761SOL    HW220826   4.433   1.874   7.956
 6762SOL     OW20827   3.921   2.838   8.712
 6762SOL    HW120828   4.010   2.793   8.698
 6762SOL    HW220829   3.848   2.773   8.693
 6763SOL     OW20830   4.041   2.113   9.249
 6763SOL    HW120831   4.112   2.184   9.255
 6763SOL    HW220832   3.953   2.152   9.277
 6764SOL     OW20833   4.322   2.591   7.718
 6764SOL    HW120834   4.346   2.660   7.650
 6764SOL    HW220835   4.244   2.624   7.772
 6765SOL     OW20836   3.800   2.673   8.237
 6765SOL    HW120837   3.899   2.661   8.246
 6765SOL    HW220838   3.776   2.768   8.258
 6766SOL     OW20839   3.854   3.683   9.019
 6766SOL    HW120840   3.844   3.668   9.118
 6766SOL    HW220841   3.768   3.719   8.983
 6767SOL     OW20842   4.274   2.058   8.333
 6767SOL    HW120843   4.269   2.053   8.433
 6767SOL    HW220844   4.276   2.154   8.304
 6768SOL     OW20845   4.075   3.663   8.301
 6768SOL    HW120846   4.125   3.577   8.307
 6768SOL    HW220847   4.140   3.740   8.298
 6769SOL     OW20848   4.045   2.805   7.690
 6769SOL    HW120849   4.127   2.844   7.648
 6769SOL    HW220850   4.018   2.723   7.641
 6770SOL     OW20851   4.185   3.128   9.175
 6770SOL    HW120852   4.135   3.129   9.089
 6770SOL    HW220853   4.122   3.110   9.251
 6771SOL     OW20854   3.926   2.147   8.946
 6771SOL    HW120855   3.846   2.207   8.933
 6771SOL    HW220856   3.916   2.098   9.032
 6772SOL     OW20857   4.188   3.605   7.771
 6772SOL    HW120858   4.221   3.644   7.857
 6772SOL    HW220859   4.264   3.598   7.706
 6773SOL     OW20860   3.973   3.647   8.689
 6773SOL    HW120861   4.030   3.582   8.739
 6773SOL    HW220862   3.957   3.614   8.596
 6774SOL     OW20863   4.106   2.562   7.928
 6774SOL    HW120864   4.151   2.472   7.925
 6774SOL    HW220865   4.012   2.551   7.961
 6775SOL     OW20866   4.338   1.984   7.565
 6775SOL    HW120867   4.436   1.962   7.572
 6775SOL    HW220868   4.307   1.967   7.472
 6776SOL     OW20869   4.527   3.264   8.372
 6776SOL    HW120870   4.617   3.278   8.330
 6776SOL    HW220871   4.456   3.266   8.301
 6777SOL     OW20872   4.263   1.926   7.960
 6777SOL    HW120873   4.182   1.927   8.018
 6777SOL    HW220874   4.266   2.009   7.905
 6778SOL     OW20875   4.021   1.897   7.619
 6778SOL    HW120876   4.070   1.981   7.598
 6778SOL    HW220877   4.083   1.832   7.664
 6779SOL     OW20878   4.800   2.545   8.912
 6779SOL    HW120879   4.720   2.484   8.915
 6779SOL    HW220880   4.881   2.492   8.888
 6780SOL     OW20881   4.183   3.014   8.189
 6780SOL    HW120882   4.112   2.987   8.254
 6780SOL    HW220883   4.157   2.986   8.096
 6781SOL     OW20884   3.802   2.418   8.834
 6781SOL    HW120885   3.894   2.417   8.793
 6781SOL    HW220886   3.796   2.492   8.901
 6782SOL     OW20887   4.285   2.084   8.595
 6782SOL    HW120888   4.323   2.000   8.632
 6782SOL    HW220889   4.197   2.103   8.639
 6783SOL     OW20890   4.212   3.247   7.622
 6783SOL    HW120891   4.125   3.232   7.669
 6783SOL    HW220892   4.195   3.273   7.527
 6784SOL     OW20893   4.251   2.118   7.776
 6784SOL    HW120894   4.278   2.059   7.701
 6784SOL    HW220895   4.251   2.213   7.745
 6785SOL     OW20896   4.134   2.675   8.699
 6785SOL    HW120897   4.220   2.687   8.749
 6785SOL    HW220898   4.092   2.588   8.726
 6786SOL     OW20899   3.788   3.426   8.779
 6786SOL    HW120900   3.742   3.508   8.745
 6786SOL    HW220901   3.886   3.445   8.788
 6787SOL     OW20902   4.091   2.962   7.949
 6787SOL    HW120903   4.084   3.045   7.893
 6787SOL    HW220904   4.095   2.882   7.889
 6788SOL     OW20905   4.290   2.399   8.313
 6788SOL    HW120906   4.302   2.465   8.239
 6788SOL    HW220907   4.336   2.433   8.396
 6789SOL     OW20908   4.078   3.372   8.777
 6789SOL    HW120909   4.057   3.328   8.690
 6789SOL    HW220910   4.175   3.398   8.780
 6790SOL     OW20911   4.126   2.613   9.046
 6790SOL    HW120912   4.194   2.668   8.999
 6790SOL    HW220913   4.166   2.525   9.073
 6791SOL     OW20914   4.228   1.912   9.188
 6791SOL    HW120915   4.186   1.855   9.118
 6791SOL    HW220916   4.162   1.981   9.220
 6792SOL     OW20917   4.297   2.732   8.477
 6792SOL    HW120918   4.341   2.821   8.468
 6792SOL    HW220919   4.234   2.732   8.554
 6793SOL     OW20920   4.031   2.075   8.679
 6793SOL    HW120921   4.008   2.112   8.769
 6793SOL    HW220922   4.001   1.980   8.673
 6794SOL     OW20923   3.761   3.172   8.730
 6794SOL    HW120924   3.814   3.123   8.798
 6794SOL    HW220925   3.783   3.270   8.735
 6795SOL     OW20926   4.031   1.925   8.066
 6795SOL    HW120927   4.020   2.019   8.099
 6795SOL    HW220928   4.026   1.862   8.143
 6796SOL     OW20929   4.074   2.760   9.252
 6796SOL    HW120930   4.150   2.804   9.300
 6796SOL    HW220931   4.109   2.713   9.170
 6797SOL     OW20932   4.043   2.672   8.397
 6797SOL    HW120933   4.136   2.708   8.402
 6797SOL    HW220934   4.037   2.587   8.449
 6798SOL     OW20935   4.063   2.371   8.454
 6798SOL    HW120936   4.011   2.288   8.437
 6798SOL    HW220937   4.140   2.376   8.390
 6799SOL     OW20938   3.732   3.188   7.648
 6799SOL    HW120939   3.639   3.209   7.617
 6799SOL    HW220940   3.742   3.089   7.661
 6800SOL     OW20941   3.812   3.663   8.375
 6800SOL    HW120942   3.770   3.577   8.348
 6800SOL    HW220943   3.906   3.666   8.341
 6801SOL     OW20944   4.228   3.430   8.358
 6801SOL    HW120945   4.294   3.504   8.367
 6801SOL    HW220946   4.272   3.351   8.316
 6802SOL     OW20947   3.764   2.406   8.562
 6802SOL    HW120948   3.849   2.373   8.521
 6802SOL    HW220949   3.777   2.421   8.660
 6803SOL     OW20950   3.913   2.382   9.170
 6803SOL    HW120951   3.972   2.342   9.100
 6803SOL    HW220952   3.855   2.453   9.129
 6804SOL     OW20953   4.539   2.434   7.773
 6804SOL    HW120954   4.546   2.345   7.727
 6804SOL    HW220955   4.445   2.468   7.765
 6805SOL     OW20956   3.976   3.426   9.192
 6805SOL    HW120957   3.946   3.483   9.268
 6805SOL    HW220958   3.969   3.329   9.218
 6806SOL     OW20959   4.197   2.362   7.639
 6806SOL    HW120960   4.258   2.442   7.643
 6806SOL    HW220961   4.102   2.393   7.646
 6807SOL     OW20962   3.883   2.999   8.914
 6807SOL    HW120963   3.905   2.938   8.990
 6807SOL    HW220964   3.893   2.950   8.828
 6808SOL     OW20965   3.807   3.120   8.470
 6808SOL    HW120966   3.802   3.119   8.570
 6808SOL    HW220967   3.724   3.079   8.432
 6809SOL     OW20968   4.412   3.524   9.164
 6809SOL    HW120969   4.356   3.605   9.173
 6809SOL    HW220970   4.464   3.528   9.078
 6810SOL     OW20971   3.854   3.656   9.299
 6810SOL    HW120972   3.813   3.582   9.352
 6810SOL    HW220973   3.918   3.707   9.357
 6811SOL     OW20974   3.987   2.188   8.168
 6811SOL    HW120975   3.908   2.239   8.134
 6811SOL    HW220976   3.978   2.173   8.266
 6812SOL     OW20977   4.096   3.150   8.938
 6812SOL    HW120978   4.083   3.243   8.904
 6812SOL    HW220979   4.012   3.098   8.925
 6813SOL     OW20980   4.314   3.349   7.939
 6813SOL    HW120981   4.356   3.291   7.869
 6813SOL    HW220982   4.270   3.428   7.895
 6814SOL     OW20983   3.979   3.210   7.738
 6814SOL    HW120984   3.883   3.211   7.711
 6814SOL    HW220985   3.991   3.263   7.822
 6815SOL     OW20986   3.829   2.875   9.174
 6815SOL    HW120987   3.752   2.842   9.228
 6815SOL    HW220988   3.914   2.845   9.216
 6816SOL     OW20989   4.396   2.065   8.937
 6816SOL    HW120990   4.486   2.049   8.897
 6816SOL    HW220991   4.404   2.070   9.036
 6817SOL     OW20992   3.799   2.207   7.481
 6817SOL    HW120993   3.707   2.179   7.452
 6817SOL    HW220994   3.830   2.284   7.425
 6818SOL     OW20995   3.796   2.028   7.766
 6818SOL    HW120996   3.779   2.111   7.712
 6818SOL    HW220997   3.886   1.991   7.744
 6819SOL     OW20998   4.337   2.704   8.879
 6819SOL    HW120999   4.393   2.785   8.862
 6819SOL    HW221000   4.396   2.624   8.882
 6820SOL     OW21001   4.440   2.427   9.156
 6820SOL    HW121002   4.459   2.492   9.230
 6820SOL    HW221003   4.500   2.347   9.165
 6821SOL     OW21004   4.114   3.603   9.008
 6821SOL    HW121005   4.023   3.644   9.006
 6821SOL    HW221006   4.107   3.509   9.040
 6822SOL     OW21007   4.318   2.607   8.100
 6822SOL    HW121008   4.368   2.692   8.081
 6822SOL    HW221009   4.230   2.609   8.052
 6823SOL     OW21010   3.945   3.176   9.292
 6823SOL    HW121011   3.880   3.103   9.271
 6823SOL    HW221012   3.949   3.190   9.390
 6824SOL     OW21013   3.803   3.102   8.101
 6824SOL    HW121014   3.802   3.055   8.189
 6824SOL    HW221015   3.885   3.074   8.050
 6825SOL     OW21016   4.396   3.253   9.072
 6825SOL    HW121017   4.318   3.203   9.110
 6825SOL    HW221018   4.393   3.348   9.103
 6826SOL     OW21019   4.152   2.286   7.968
 6826SOL    HW121020   4.182   2.214   7.906
 6826SOL    HW221021   4.113   2.246   8.051
 6827SOL     OW21022   4.041   2.409   8.728
 6827SOL    HW121023   4.079   2.350   8.800
 6827SOL    HW221024   4.081   2.383   8.640
 6828SOL     OW21025   4.536   3.448   8.135
 6828SOL    HW121026   4.568   3.458   8.041
 6828SOL    HW221027   4.457   3.386   8.137
 6829SOL     OW21028   3.763   2.939   7.748
 6829SOL    HW121029   3.862   2.928   7.739
 6829SOL    HW221030   3.723   2.853   7.780
 6830SOL     OW21031   3.954   2.490   9.423
 6830SOL    HW121032   3.861   2.488   9.460
 6830SOL    HW221033   3.955   2.451   9.331
 6831SOL     OW21034   3.949   2.137  10.306
 6831SOL    HW121035   3.984   2.120  10.398
 6831SOL    HW221036   3.861   2.092  10.294
 6832SOL     OW21037   3.743   2.230   9.957
 6832SOL    HW121038   3.661   2.273   9.996
 6832SOL    HW221039   3.715   2.157   9.894
 6833SOL     OW21040   4.293   3.137  10.475
 6833SOL    HW121041   4.200   3.130  10.438
 6833SOL    HW221042   4.304   3.226  10.519
 6834SOL     OW21043   4.574   2.660  11.133
 6834SOL    HW121044   4.570   2.736  11.198
 6834SOL    HW221045   4.596   2.696  11.042
 6835SOL     OW21046   4.409   2.874   9.975
 6835SOL    HW121047   4.478   2.858  10.045
 6835SOL    HW221048   4.336   2.931  10.013
 6836SOL     OW21049   4.059   3.297  10.371
 6836SOL    HW121050   3.981   3.266  10.318
 6836SOL    HW221051   4.117   3.355  10.314
 6837SOL     OW21052   4.162   2.254  10.809
 6837SOL    HW121053   4.244   2.198  10.818
 6837SOL    HW221054   4.081   2.196  10.813
 6838SOL     OW21055   3.955   3.575   9.793
 6838SOL    HW121056   3.989   3.652   9.847
 6838SOL    HW221057   3.999   3.575   9.703
 6839SOL     OW21058   3.954   3.296   9.848
 6839SOL    HW121059   3.928   3.392   9.848
 6839SOL    HW221060   3.883   3.242   9.893
 6840SOL     OW21061   3.964   2.953  10.196
 6840SOL    HW121062   3.978   2.869  10.248
 6840SOL    HW221063   3.909   3.017  10.251
 6841SOL     OW21064   4.344   3.648  10.749
 6841SOL    HW121065   4.252   3.631  10.784
 6841SOL    HW221066   4.372   3.740  10.775
 6842SOL     OW21067   4.330   2.826   9.433
 6842SOL    HW121068   4.337   2.910   9.379
 6842SOL    HW221069   4.376   2.839   9.521
 6843SOL     OW21070   3.846   2.505   9.873
 6843SOL    HW121071   3.801   2.417   9.890
 6843SOL    HW221072   3.845   2.559   9.957
 6844SOL     OW21073   3.751   3.458   9.427
 6844SOL    HW121074   3.732   3.362   9.448
 6844SOL    HW221075   3.718   3.516   9.502
 6845SOL     OW21076   3.837   2.599  10.907
 6845SOL    HW121077   3.925   2.586  10.952
 6845SOL    HW221078   3.824   2.696  10.885
 6846SOL     OW21079   4.337   3.227  10.036
 6846SOL    HW121080   4.288   3.140  10.045
 6846SOL    HW221081   4.314   3.270   9.949
 6847SOL     OW21082   4.533   1.866   9.812
 6847SOL    HW121083   4.573   1.957   9.803
 6847SOL    HW221084   4.433   1.874   9.818
 6848SOL     OW21085   3.921   2.838  10.574
 6848SOL    HW121086   4.010   2.793  10.560
 6848SOL    HW221087   3.848   2.773  10.555
 6849SOL     OW21088   4.041   2.113  11.111
 6849SOL    HW121089   4.112   2.184  11.117
 6849SOL    HW221090   3.953   2.152  11.139
 6850SOL     OW21091   4.322   2.591   9.580
 6850SOL    HW121092   4.346   2.660   9.512
 6850SOL    HW221093   4.244   2.624   9.634
 6851SOL     OW21094   3.800   2.673  10.099
 6851SOL    HW121095   3.899   2.661  10.108
 6851SOL    HW221096   3.776   2.768  10.120
 6852SOL     OW21097   3.854   3.683  10.881
 6852SOL    HW121098   3.844   3.668  10.980
 6852SOL    HW221099   3.768   3.719  10.845
 6853SOL     OW21100   4.274   2.058  10.195
 6853SOL    HW121101   4.269   2.053  10.295
 6853SOL    HW221102   4.276   2.154  10.166
 6854SOL     OW21103   4.075   3.663  10.163
 6854SOL    HW121104   4.125   3.577  10.169
 6854SOL    HW221105   4.140   3.740  10.160
 6855SOL     OW21106   4.045   2.805   9.552
 6855SOL    HW121107   4.127   2.844   9.510
 6855SOL    HW221108   4.018   2.723   9.503
 6856SOL     OW21109   4.185   3.128  11.037
 6856SOL    HW121110   4.135   3.129  10.951
 6856SOL    HW221111   4.122   3.110  11.113
 6857SOL     OW21112   3.926   2.147  10.808
 6857SOL    HW121113   3.846   2.207  10.795
 6857SOL    HW221114   3.916   2.098  10.894
 6858SOL     OW21115   4.188   3.605   9.633
 6858SOL    HW121116   4.221   3.644   9.719
 6858SOL    HW221117   4.264   3.598   9.568
 6859SOL     OW21118   3.973   3.647  10.551
 6859SOL    HW121119   4.030   3.582  10.601
 6859SOL    HW221120   3.957   3.614  10.458
 6860SOL     OW21121   4.106   2.562   9.790
 6860SOL    HW121122   4.151   2.472   9.787
 6860SOL    HW221123   4.012   2.551   9.823
 6861SOL     OW21124   4.338   1.984   9.427
 6861SOL    HW121125   4.436   1.962   9.434
 6861SOL    HW221126   4.307   1.967   9.334
 6862SOL     OW21127   4.527   3.264  10.234
 6862SOL    HW121128   4.617   3.278  10.192
 6862SOL    HW221129   4.456   3.266  10.163
 6863SOL     OW21130   4.263   1.926   9.822
 6863SOL    HW121131   4.182   1.927   9.880
 6863SOL    HW221132   4.266   2.009   9.767
 6864SOL     OW21133   4.021   1.897   9.481
 6864SOL    HW121134   4.070   1.981   9.460
 6864SOL    HW221135   4.083   1.832   9.526
 6865SOL     OW21136   4.800   2.545  10.774
 6865SOL    HW121137   4.720   2.484  10.777
 6865SOL    HW221138   4.881   2.492  10.750
 6866SOL     OW21139   4.183   3.014  10.051
 6866SOL    HW121140   4.112   2.987  10.116
 6866SOL    HW221141   4.157   2.986   9.958
 6867SOL     OW21142   3.802   2.418  10.696
 6867SOL    HW121143   3.894   2.417  10.655
 6867SOL    HW221144   3.796   2.492  10.763
 6868SOL     OW21145   4.285   2.084  10.457
 6868SOL    HW121146   4.323   2.000  10.494
 6868SOL    HW221147   4.197   2.103  10.501
 6869SOL     OW21148   4.212   3.247   9.484
 6869SOL    HW121149   4.125   3.232   9.531
 6869SOL    HW221150   4.195   3.273   9.389
 6870SOL     OW21151   4.251   2.118   9.638
 6870SOL    HW121152   4.278   2.059   9.563
 6870SOL    HW221153   4.251   2.213   9.607
 6871SOL     OW21154   4.134   2.675  10.561
 6871SOL    HW121155   4.220   2.687  10.611
 6871SOL    HW221156   4.092   2.588  10.588
 6872SOL     OW21157   3.788   3.426  10.641
 6872SOL    HW121158   3.742   3.508  10.607
 6872SOL    HW221159   3.886   3.445  10.650
 6873SOL     OW21160   4.091   2.962   9.811
 6873SOL    HW121161   4.084   3.045   9.755
 6873SOL    HW221162   4.095   2.882   9.751
 6874SOL     OW21163   4.290   2.399  10.175
 6874SOL    HW121164   4.302   2.465  10.101
 6874SOL    HW221165   4.336   2.433  10.258
 6875SOL     OW21166   4.078   3.372  10.639
 6875SOL    HW121167   4.057   3.328  10.552
 6875SOL    HW221168   4.175   3.398  10.642
 6876SOL     OW21169   4.126   2.613  10.908
 6876SOL    HW121170   4.194   2.668  10.861
 6876SOL    HW221171   4.166   2.525  10.935
 6877SOL     OW21172   4.297   2.732  10.339
 6877SOL    HW121173   4.341   2.821  10.330
 6877SOL    HW221174   4.234   2.732  10.416
 6878SOL     OW21175   4.031   2.075  10.541
 6878SOL    HW121176   4.008   2.112  10.631
 6878SOL    HW221177   4.001   1.980  10.535
 6879SOL     OW21178   3.761   3.172  10.592
 6879SOL    HW121179   3.814   3.123  10.660
 6879SOL    HW221180   3.783   3.270  10.597
 6880SOL     OW21181   4.031   1.925   9.928
 6880SOL    HW121182   4.020   2.019   9.961
 6880SOL    HW221183   4.026   1.862  10.005
 6881SOL     OW21184   4.074   2.760  11.114
 6881SOL    HW121185   4.150   2.804  11.162
 6881SOL    HW221186   4.109   2.713  11.032
 6882SOL     OW21187   4.043   2.672  10.259
 6882SOL    HW121188   4.136   2.708  10.264
 6882SOL    HW221189   4.037   2.587  10.311
 6883SOL     OW21190   4.063   2.371  10.316
 6883SOL    HW121191   4.011   2.288  10.299
 6883SOL    HW221192   4.140   2.376  10.252
 6884SOL     OW21193   3.732   3.188   9.510
 6884SOL    HW121194   3.639   3.209   9.479
 6884SOL    HW221195   3.742   3.089   9.523
 6885SOL     OW21196   3.812   3.663  10.237
 6885SOL    HW121197   3.770   3.577  10.210
 6885SOL    HW221198   3.906   3.666  10.203
 6886SOL     OW21199   4.228   3.430  10.220
 6886SOL    HW121200   4.294   3.504  10.229
 6886SOL    HW221201   4.272   3.351  10.178
 6887SOL     OW21202   3.764   2.406  10.424
 6887SOL    HW121203   3.849   2.373  10.383
 6887SOL    HW221204   3.777   2.421  10.522
 6888SOL     OW21205   4.539   2.434   9.635
 6888SOL    HW121206   4.546   2.345   9.589
 6888SOL    HW221207   4.445   2.468   9.627
 6889SOL     OW21208   3.976   3.426  11.054
 6889SOL    HW121209   3.946   3.483  11.130
 6889SOL    HW221210   3.969   3.329  11.080
 6890SOL     OW21211   4.197   2.362   9.501
 6890SOL    HW121212   4.258   2.442   9.505
 6890SOL    HW221213   4.102   2.393   9.508
 6891SOL     OW21214   3.883   2.999  10.776
 6891SOL    HW121215   3.905   2.938  10.852
 6891SOL    HW221216   3.893   2.950  10.690
 6892SOL     OW21217   3.807   3.120  10.332
 6892SOL    HW121218   3.802   3.119  10.432
 6892SOL    HW221219   3.724   3.079  10.294
 6893SOL     OW21220   4.412   3.524  11.026
 6893SOL    HW121221   4.356   3.605  11.035
 6893SOL    HW221222   4.464   3.528  10.940
 6894SOL     OW21223   3.987   2.188  10.030
 6894SOL    HW121224   3.908   2.239   9.996
 6894SOL    HW221225   3.978   2.173  10.128
 6895SOL     OW21226   4.096   3.150  10.800
 6895SOL    HW121227   4.083   3.243  10.766
 6895SOL    HW221228   4.012   3.098  10.787
 6896SOL     OW21229   4.314   3.349   9.801
 6896SOL    HW121230   4.356   3.291   9.731
 6896SOL    HW221231   4.270   3.428   9.757
 6897SOL     OW21232   3.979   3.210   9.600
 6897SOL    HW121233   3.883   3.211   9.573
 6897SOL    HW221234   3.991   3.263   9.684
 6898SOL     OW21235   3.829   2.875  11.036
 6898SOL    HW121236   3.752   2.842  11.090
 6898SOL    HW221237   3.914   2.845  11.078
 6899SOL     OW21238   4.396   2.065  10.799
 6899SOL    HW121239   4.486   2.049  10.759
 6899SOL    HW221240   4.404   2.070  10.898
 6900SOL     OW21241   3.799   2.207   9.343
 6900SOL    HW121242   3.707   2.179   9.314
 6900SOL    HW221243   3.830   2.284   9.287
 6901SOL     OW21244   3.796   2.028   9.628
 6901SOL    HW121245   3.779   2.111   9.574
 6901SOL    HW221246   3.886   1.991   9.606
 6902SOL     OW21247   4.337   2.704  10.741
 6902SOL    HW121248   4.393   2.785  10.724
 6902SOL    HW221249   4.396   2.624  10.744
 6903SOL     OW21250   4.114   3.603  10.870
 6903SOL    HW121251   4.023   3.644  10.868
 6903SOL    HW221252   4.107   3.509  10.902
 6904SOL     OW21253   4.318   2.607   9.962
 6904SOL    HW121254   4.368   2.692   9.943
 6904SOL    HW221255   4.230   2.609   9.914
 6905SOL     OW21256   3.803   3.102   9.963
 6905SOL    HW121257   3.802   3.055  10.051
 6905SOL    HW221258   3.885   3.074   9.912
 6906SOL     OW21259   4.396   3.253  10.934
 6906SOL    HW121260   4.318   3.203  10.972
 6906SOL    HW221261   4.393   3.348  10.965
 6907SOL     OW21262   4.152   2.286   9.830
 6907SOL    HW121263   4.182   2.214   9.768
 6907SOL    HW221264   4.113   2.246   9.913
 6908SOL     OW21265   4.041   2.409  10.590
 6908SOL    HW121266   4.079   2.350  10.662
 6908SOL    HW221267   4.081   2.383  10.502
 6909SOL     OW21268   4.536   3.448   9.997
 6909SOL    HW121269   4.568   3.458   9.903
 6909SOL    HW221270   4.457   3.386   9.999
 6910SOL     OW21271   3.763   2.939   9.610
 6910SOL    HW121272   3.862   2.928   9.601
 6910SOL    HW221273   3.723   2.853   9.642
 6911SOL     OW21274   3.954   4.352   0.113
 6911SOL    HW121275   3.861   4.350   0.150
 6911SOL    HW221276   3.955   4.313   0.021
 6912SOL     OW21277   3.949   3.999   0.996
 6912SOL    HW121278   3.984   3.982   1.088
 6912SOL    HW221279   3.861   3.954   0.984
 6913SOL     OW21280   3.743   4.092   0.647
 6913SOL    HW121281   3.661   4.135   0.686
 6913SOL    HW221282   3.715   4.019   0.584
 6914SOL     OW21283   4.574   4.522   1.823
 6914SOL    HW121284   4.570   4.598   1.888
 6914SOL    HW221285   4.596   4.558   1.732
 6915SOL     OW21286   4.162   4.116   1.499
 6915SOL    HW121287   4.244   4.060   1.508
 6915SOL    HW221288   4.081   4.058   1.503
 6916SOL     OW21289   3.846   4.367   0.563
 6916SOL    HW121290   3.801   4.279   0.580
 6916SOL    HW221291   3.845   4.421   0.647
 6917SOL     OW21292   3.837   4.461   1.597
 6917SOL    HW121293   3.925   4.448   1.642
 6917SOL    HW221294   3.824   4.558   1.575
 6918SOL     OW21295   4.533   3.728   0.502
 6918SOL    HW121296   4.573   3.819   0.493
 6918SOL    HW221297   4.433   3.736   0.508
 6919SOL     OW21298   4.041   3.975   1.801
 6919SOL    HW121299   4.112   4.046   1.807
 6919SOL    HW221300   3.953   4.014   1.829
 6920SOL     OW21301   4.274   3.920   0.885
 6920SOL    HW121302   4.269   3.915   0.985
 6920SOL    HW221303   4.276   4.016   0.856
 6921SOL     OW21304   3.926   4.009   1.498
 6921SOL    HW121305   3.846   4.069   1.485
 6921SOL    HW221306   3.916   3.960   1.584
 6922SOL     OW21307   4.106   4.424   0.480
 6922SOL    HW121308   4.151   4.334   0.477
 6922SOL    HW221309   4.012   4.413   0.513
 6923SOL     OW21310   4.338   3.846   0.117
 6923SOL    HW121311   4.436   3.824   0.124
 6923SOL    HW221312   4.307   3.829   0.024
 6924SOL     OW21313   4.263   3.788   0.512
 6924SOL    HW121314   4.182   3.789   0.570
 6924SOL    HW221315   4.266   3.871   0.457
 6925SOL     OW21316   4.021   3.759   0.171
 6925SOL    HW121317   4.070   3.843   0.150
 6925SOL    HW221318   4.083   3.694   0.216
 6926SOL     OW21319   4.800   4.407   1.464
 6926SOL    HW121320   4.720   4.346   1.467
 6926SOL    HW221321   4.881   4.354   1.440
 6927SOL     OW21322   3.802   4.280   1.386
 6927SOL    HW121323   3.894   4.279   1.345
 6927SOL    HW221324   3.796   4.354   1.453
 6928SOL     OW21325   4.285   3.946   1.147
 6928SOL    HW121326   4.323   3.862   1.184
 6928SOL    HW221327   4.197   3.965   1.191
 6929SOL     OW21328   4.251   3.980   0.328
 6929SOL    HW121329   4.278   3.921   0.253
 6929SOL    HW221330   4.251   4.075   0.297
 6930SOL     OW21331   4.134   4.537   1.251
 6930SOL    HW121332   4.220   4.549   1.301
 6930SOL    HW221333   4.092   4.450   1.278
 6931SOL     OW21334   4.290   4.261   0.865
 6931SOL    HW121335   4.302   4.327   0.791
 6931SOL    HW221336   4.336   4.295   0.948
 6932SOL     OW21337   4.228   3.774   1.740
 6932SOL    HW121338   4.186   3.717   1.670
 6932SOL    HW221339   4.162   3.843   1.772
 6933SOL     OW21340   4.031   3.937   1.231
 6933SOL    HW121341   4.008   3.974   1.321
 6933SOL    HW221342   4.001   3.842   1.225
 6934SOL     OW21343   4.031   3.787   0.618
 6934SOL    HW121344   4.020   3.881   0.651
 6934SOL    HW221345   4.026   3.724   0.695
 6935SOL     OW21346   4.043   4.534   0.949
 6935SOL    HW121347   4.136   4.570   0.954
 6935SOL    HW221348   4.037   4.449   1.001
 6936SOL     OW21349   4.063   4.233   1.006
 6936SOL    HW121350   4.011   4.150   0.989
 6936SOL    HW221351   4.140   4.238   0.942
 6937SOL     OW21352   3.764   4.268   1.114
 6937SOL    HW121353   3.849   4.235   1.073
 6937SOL    HW221354   3.777   4.283   1.212
 6938SOL     OW21355   3.913   4.244   1.722
 6938SOL    HW121356   3.972   4.204   1.652
 6938SOL    HW221357   3.855   4.315   1.681
 6939SOL     OW21358   4.539   4.296   0.325
 6939SOL    HW121359   4.546   4.207   0.279
 6939SOL    HW221360   4.445   4.330   0.317
 6940SOL     OW21361   4.197   4.224   0.191
 6940SOL    HW121362   4.258   4.304   0.195
 6940SOL    HW221363   4.102   4.255   0.198
 6941SOL     OW21364   3.987   4.050   0.720
 6941SOL    HW121365   3.908   4.101   0.686
 6941SOL    HW221366   3.978   4.035   0.818
 6942SOL     OW21367   4.396   3.927   1.489
 6942SOL    HW121368   4.486   3.911   1.449
 6942SOL    HW221369   4.404   3.932   1.588
 6943SOL     OW21370   3.799   4.069   0.033
 6943SOL    HW121371   3.707   4.041   0.004
 6943SOL    HW221372   3.830   4.146  -0.023
 6944SOL     OW21373   3.796   3.890   0.318
 6944SOL    HW121374   3.779   3.973   0.264
 6944SOL    HW221375   3.886   3.853   0.296
 6945SOL     OW21376   4.440   4.289   1.708
 6945SOL    HW121377   4.459   4.354   1.782
 6945SOL    HW221378   4.500   4.209   1.717
 6946SOL     OW21379   4.152   4.148   0.520
 6946SOL    HW121380   4.182   4.076   0.458
 6946SOL    HW221381   4.113   4.108   0.603
 6947SOL     OW21382   4.041   4.271   1.280
 6947SOL    HW121383   4.079   4.212   1.352
 6947SOL    HW221384   4.081   4.245   1.192
 6948SOL     OW21385   3.954   4.352   1.975
 6948SOL    HW121386   3.861   4.350   2.012
 6948SOL    HW221387   3.955   4.313   1.883
 6949SOL     OW21388   3.949   3.999   2.858
 6949SOL    HW121389   3.984   3.982   2.950
 6949SOL    HW221390   3.861   3.954   2.846
 6950SOL     OW21391   3.743   4.092   2.509
 6950SOL    HW121392   3.661   4.135   2.548
 6950SOL    HW221393   3.715   4.019   2.446
 6951SOL     OW21394   4.574   4.522   3.685
 6951SOL    HW121395   4.570   4.598   3.750
 6951SOL    HW221396   4.596   4.558   3.594
 6952SOL     OW21397   4.162   4.116   3.361
 6952SOL    HW121398   4.244   4.060   3.370
 6952SOL    HW221399   4.081   4.058   3.365
 6953SOL     OW21400   3.846   4.367   2.425
 6953SOL    HW121401   3.801   4.279   2.442
 6953SOL    HW221402   3.845   4.421   2.509
 6954SOL     OW21403   3.837   4.461   3.459
 6954SOL    HW121404   3.925   4.448   3.504
 6954SOL    HW221405   3.824   4.558   3.437
 6955SOL     OW21406   4.533   3.728   2.364
 6955SOL    HW121407   4.573   3.819   2.355
 6955SOL    HW221408   4.433   3.736   2.370
 6956SOL     OW21409   4.041   3.975   3.663
 6956SOL    HW121410   4.112   4.046   3.669
 6956SOL    HW221411   3.953   4.014   3.691
 6957SOL     OW21412   4.274   3.920   2.747
 6957SOL    HW121413   4.269   3.915   2.847
 6957SOL    HW221414   4.276   4.016   2.718
 6958SOL     OW21415   3.926   4.009   3.360
 6958SOL    HW121416   3.846   4.069   3.347
 6958SOL    HW221417   3.916   3.960   3.446
 6959SOL     OW21418   4.106   4.424   2.342
 6959SOL    HW121419   4.151   4.334   2.339
 6959SOL    HW221420   4.012   4.413   2.375
 6960SOL     OW21421   4.338   3.846   1.979
 6960SOL    HW121422   4.436   3.824   1.986
 6960SOL    HW221423   4.307   3.829   1.886
 6961SOL     OW21424   4.263   3.788   2.374
 6961SOL    HW121425   4.182   3.789   2.432
 6961SOL    HW221426   4.266   3.871   2.319
 6962SOL     OW21427   4.021   3.759   2.033
 6962SOL    HW121428   4.070   3.843   2.012
 6962SOL    HW221429   4.083   3.694   2.078
 6963SOL     OW21430   4.800   4.407   3.326
 6963SOL    HW121431   4.720   4.346   3.329
 6963SOL    HW221432   4.881   4.354   3.302
 6964SOL     OW21433   3.802   4.280   3.248
 6964SOL    HW121434   3.894   4.279   3.207
 6964SOL    HW221435   3.796   4.354   3.315
 6965SOL     OW21436   4.285   3.946   3.009
 6965SOL    HW121437   4.323   3.862   3.046
 6965SOL    HW221438   4.197   3.965   3.053
 6966SOL     OW21439   4.251   3.980   2.190
 6966SOL    HW121440   4.278   3.921   2.115
 6966SOL    HW221441   4.251   4.075   2.159
 6967SOL     OW21442   4.134   4.537   3.113
 6967SOL    HW121443   4.220   4.549   3.163
 6967SOL    HW221444   4.092   4.450   3.140
 6968SOL     OW21445   4.290   4.261   2.727
 6968SOL    HW121446   4.302   4.327   2.653
 6968SOL    HW221447   4.336   4.295   2.810
 6969SOL     OW21448   4.228   3.774   3.602
 6969SOL    HW121449   4.186   3.717   3.532
 6969SOL    HW221450   4.162   3.843   3.634
 6970SOL     OW21451   4.031   3.937   3.093
 6970SOL    HW121452   4.008   3.974   3.183
 6970SOL    HW221453   4.001   3.842   3.087
 6971SOL     OW21454   4.031   3.787   2.480
 6971SOL    HW121455   4.020   3.881   2.513
 6971SOL    HW221456   4.026   3.724   2.557
 6972SOL     OW21457   4.043   4.534   2.811
 6972SOL    HW121458   4.136   4.570   2.816
 6972SOL    HW221459   4.037   4.449   2.863
 6973SOL     OW21460   4.063   4.233   2.868
 6973SOL    HW121461   4.011   4.150   2.851
 6973SOL    HW221462   4.140   4.238   2.804
 6974SOL     OW21463   3.764   4.268   2.976
 6974SOL    HW121464   3.849   4.235   2.935
 6974SOL    HW221465   3.777   4.283   3.074
 6975SOL     OW21466   3.913   4.244   3.584
 6975SOL    HW121467   3.972   4.204   3.514
 6975SOL    HW221468   3.855   4.315   3.543
 6976SOL     OW21469   4.539   4.296   2.187
 6976SOL    HW121470   4.546   4.207   2.141
 6976SOL    HW221471   4.445   4.330   2.179
 6977SOL     OW21472   4.197   4.224   2.053
 6977SOL    HW121473   4.258   4.304   2.057
 6977SOL    HW221474   4.102   4.255   2.060
 6978SOL     OW21475   3.987   4.050   2.582
 6978SOL    HW121476   3.908   4.101   2.548
 6978SOL    HW221477   3.978   4.035   2.680
 6979SOL     OW21478   4.396   3.927   3.351
 6979SOL    HW121479   4.486   3.911   3.311
 6979SOL    HW221480   4.404   3.932   3.450
 6980SOL     OW21481   3.799   4.069   1.895
 6980SOL    HW121482   3.707   4.041   1.866
 6980SOL    HW221483   3.830   4.146   1.839
 6981SOL     OW21484   3.796   3.890   2.180
 6981SOL    HW121485   3.779   3.973   2.126
 6981SOL    HW221486   3.886   3.853   2.158
 6982SOL     OW21487   4.440   4.289   3.570
 6982SOL    HW121488   4.459   4.354   3.644
 6982SOL    HW221489   4.500   4.209   3.579
 6983SOL     OW21490   4.152   4.148   2.382
 6983SOL    HW121491   4.182   4.076   2.320
 6983SOL    HW221492   4.113   4.108   2.465
 6984SOL     OW21493   4.041   4.271   3.142
 6984SOL    HW121494   4.079   4.212   3.214
 6984SOL    HW221495   4.081   4.245   3.054
 6985SOL     OW21496   3.954   4.352   3.837
 6985SOL    HW121497   3.861   4.350   3.874
 6985SOL    HW221498   3.955   4.313   3.745
 6986SOL     OW21499   3.949   3.999   4.720
 6986SOL    HW121500   3.984   3.982   4.812
 6986SOL    HW221501   3.861   3.954   4.708
 6987SOL     OW21502   3.743   4.092   4.371
 6987SOL    HW121503   3.661   4.135   4.410
 6987SOL    HW221504   3.715   4.019   4.308
 6988SOL     OW21505   4.574   4.522   5.547
 6988SOL    HW121506   4.570   4.598   5.612
 6988SOL    HW221507   4.596   4.558   5.456
 6989SOL     OW21508   4.162   4.116   5.223
 6989SOL    HW121509   4.244   4.060   5.232
 6989SOL    HW221510   4.081   4.058   5.227
 6990SOL     OW21511   3.846   4.367   4.287
 6990SOL    HW121512   3.801   4.279   4.304
 6990SOL    HW221513   3.845   4.421   4.371
 6991SOL     OW21514   3.837   4.461   5.321
 6991SOL    HW121515   3.925   4.448   5.366
 6991SOL    HW221516   3.824   4.558   5.299
 6992SOL     OW21517   4.533   3.728   4.226
 6992SOL    HW121518   4.573   3.819   4.217
 6992SOL    HW221519   4.433   3.736   4.232
 6993SOL     OW21520   4.041   3.975   5.525
 6993SOL    HW121521   4.112   4.046   5.531
 6993SOL    HW221522   3.953   4.014   5.553
 6994SOL     OW21523   4.274   3.920   4.609
 6994SOL    HW121524   4.269   3.915   4.709
 6994SOL    HW221525   4.276   4.016   4.580
 6995SOL     OW21526   3.926   4.009   5.222
 6995SOL    HW121527   3.846   4.069   5.209
 6995SOL    HW221528   3.916   3.960   5.308
 6996SOL     OW21529   4.106   4.424   4.204
 6996SOL    HW121530   4.151   4.334   4.201
 6996SOL    HW221531   4.012   4.413   4.237
 6997SOL     OW21532   4.338   3.846   3.841
 6997SOL    HW121533   4.436   3.824   3.848
 6997SOL    HW221534   4.307   3.829   3.748
 6998SOL     OW21535   4.263   3.788   4.236
 6998SOL    HW121536   4.182   3.789   4.294
 6998SOL    HW221537   4.266   3.871   4.181
 6999SOL     OW21538   4.021   3.759   3.895
 6999SOL    HW121539   4.070   3.843   3.874
 6999SOL    HW221540   4.083   3.694   3.940
 7000SOL     OW21541   4.800   4.407   5.188
 7000SOL    HW121542   4.720   4.346   5.191
 7000SOL    HW221543   4.881   4.354   5.164
 7001SOL     OW21544   3.802   4.280   5.110
 7001SOL    HW121545   3.894   4.279   5.069
 7001SOL    HW221546   3.796   4.354   5.177
 7002SOL     OW21547   4.285   3.946   4.871
 7002SOL    HW121548   4.323   3.862   4.908
 7002SOL    HW221549   4.197   3.965   4.915
 7003SOL     OW21550   4.251   3.980   4.052
 7003SOL    HW121551   4.278   3.921   3.977
 7003SOL    HW221552   4.251   4.075   4.021
 7004SOL     OW21553   4.134   4.537   4.975
 7004SOL    HW121554   4.220   4.549   5.025
 7004SOL    HW221555   4.092   4.450   5.002
 7005SOL     OW21556   4.290   4.261   4.589
 7005SOL    HW121557   4.302   4.327   4.515
 7005SOL    HW221558   4.336   4.295   4.672
 7006SOL     OW21559   4.228   3.774   5.464
 7006SOL    HW121560   4.186   3.717   5.394
 7006SOL    HW221561   4.162   3.843   5.496
 7007SOL     OW21562   4.031   3.937   4.955
 7007SOL    HW121563   4.008   3.974   5.045
 7007SOL    HW221564   4.001   3.842   4.949
 7008SOL     OW21565   4.031   3.787   4.342
 7008SOL    HW121566   4.020   3.881   4.375
 7008SOL    HW221567   4.026   3.724   4.419
 7009SOL     OW21568   4.043   4.534   4.673
 7009SOL    HW121569   4.136   4.570   4.678
 7009SOL    HW221570   4.037   4.449   4.725
 7010SOL     OW21571   4.063   4.233   4.730
 7010SOL    HW121572   4.011   4.150   4.713
 7010SOL    HW221573   4.140   4.238   4.666
 7011SOL     OW21574   3.764   4.268   4.838
 7011SOL    HW121575   3.849   4.235   4.797
 7011SOL    HW221576   3.777   4.283   4.936
 7012SOL     OW21577   3.913   4.244   5.446
 7012SOL    HW121578   3.972   4.204   5.376
 7012SOL    HW221579   3.855   4.315   5.405
 7013SOL     OW21580   4.539   4.296   4.049
 7013SOL    HW121581   4.546   4.207   4.003
 7013SOL    HW221582   4.445   4.330   4.041
 7014SOL     OW21583   4.197   4.224   3.915
 7014SOL    HW121584   4.258   4.304   3.919
 7014SOL    HW221585   4.102   4.255   3.922
 7015SOL     OW21586   3.987   4.050   4.444
 7015SOL    HW121587   3.908   4.101   4.410
 7015SOL    HW221588   3.978   4.035   4.542
 7016SOL     OW21589   4.396   3.927   5.213
 7016SOL    HW121590   4.486   3.911   5.173
 7016SOL    HW221591   4.404   3.932   5.312
 7017SOL     OW21592   3.799   4.069   3.757
 7017SOL    HW121593   3.707   4.041   3.728
 7017SOL    HW221594   3.830   4.146   3.701
 7018SOL     OW21595   3.796   3.890   4.042
 7018SOL    HW121596   3.779   3.973   3.988
 7018SOL    HW221597   3.886   3.853   4.020
 7019SOL     OW21598   4.440   4.289   5.432
 7019SOL    HW121599   4.459   4.354   5.506
 7019SOL    HW221600   4.500   4.209   5.441
 7020SOL     OW21601   4.152   4.148   4.244
 7020SOL    HW121602   4.182   4.076   4.182
 7020SOL    HW221603   4.113   4.108   4.327
 7021SOL     OW21604   4.041   4.271   5.004
 7021SOL    HW121605   4.079   4.212   5.076
 7021SOL    HW221606   4.081   4.245   4.916
 7022SOL     OW21607   3.954   4.352   5.699
 7022SOL    HW121608   3.861   4.350   5.736
 7022SOL    HW221609   3.955   4.313   5.607
 7023SOL     OW21610   3.949   3.999   6.582
 7023SOL    HW121611   3.984   3.982   6.674
 7023SOL    HW221612   3.861   3.954   6.570
 7024SOL     OW21613   3.743   4.092   6.233
 7024SOL    HW121614   3.661   4.135   6.272
 7024SOL    HW221615   3.715   4.019   6.170
 7025SOL     OW21616   4.574   4.522   7.409
 7025SOL    HW121617   4.570   4.598   7.474
 7025SOL    HW221618   4.596   4.558   7.318
 7026SOL     OW21619   4.162   4.116   7.085
 7026SOL    HW121620   4.244   4.060   7.094
 7026SOL    HW221621   4.081   4.058   7.089
 7027SOL     OW21622   3.846   4.367   6.149
 7027SOL    HW121623   3.801   4.279   6.166
 7027SOL    HW221624   3.845   4.421   6.233
 7028SOL     OW21625   3.837   4.461   7.183
 7028SOL    HW121626   3.925   4.448   7.228
 7028SOL    HW221627   3.824   4.558   7.161
 7029SOL     OW21628   4.533   3.728   6.088
 7029SOL    HW121629   4.573   3.819   6.079
 7029SOL    HW221630   4.433   3.736   6.094
 7030SOL     OW21631   4.041   3.975   7.387
 7030SOL    HW121632   4.112   4.046   7.393
 7030SOL    HW221633   3.953   4.014   7.415
 7031SOL     OW21634   4.274   3.920   6.471
 7031SOL    HW121635   4.269   3.915   6.571
 7031SOL    HW221636   4.276   4.016   6.442
 7032SOL     OW21637   3.926   4.009   7.084
 7032SOL    HW121638   3.846   4.069   7.071
 7032SOL    HW221639   3.916   3.960   7.170
 7033SOL     OW21640   4.106   4.424   6.066
 7033SOL    HW121641   4.151   4.334   6.063
 7033SOL    HW221642   4.012   4.413   6.099
 7034SOL     OW21643   4.338   3.846   5.703
 7034SOL    HW121644   4.436   3.824   5.710
 7034SOL    HW221645   4.307   3.829   5.610
 7035SOL     OW21646   4.263   3.788   6.098
 7035SOL    HW121647   4.182   3.789   6.156
 7035SOL    HW221648   4.266   3.871   6.043
 7036SOL     OW21649   4.021   3.759   5.757
 7036SOL    HW121650   4.070   3.843   5.736
 7036SOL    HW221651   4.083   3.694   5.802
 7037SOL     OW21652   4.800   4.407   7.050
 7037SOL    HW121653   4.720   4.346   7.053
 7037SOL    HW221654   4.881   4.354   7.026
 7038SOL     OW21655   3.802   4.280   6.972
 7038SOL    HW121656   3.894   4.279   6.931
 7038SOL    HW221657   3.796   4.354   7.039
 7039SOL     OW21658   4.285   3.946   6.733
 7039SOL    HW121659   4.323   3.862   6.770
 7039SOL    HW221660   4.197   3.965   6.777
 7040SOL     OW21661   4.251   3.980   5.914
 7040SOL    HW121662   4.278   3.921   5.839
 7040SOL    HW221663   4.251   4.075   5.883
 7041SOL     OW21664   4.134   4.537   6.837
 7041SOL    HW121665   4.220   4.549   6.887
 7041SOL    HW221666   4.092   4.450   6.864
 7042SOL     OW21667   4.290   4.261   6.451
 7042SOL    HW121668   4.302   4.327   6.377
 7042SOL    HW221669   4.336   4.295   6.534
 7043SOL     OW21670   4.228   3.774   7.326
 7043SOL    HW121671   4.186   3.717   7.256
 7043SOL    HW221672   4.162   3.843   7.358
 7044SOL     OW21673   4.031   3.937   6.817
 7044SOL    HW121674   4.008   3.974   6.907
 7044SOL    HW221675   4.001   3.842   6.811
 7045SOL     OW21676   4.031   3.787   6.204
 7045SOL    HW121677   4.020   3.881   6.237
 7045SOL    HW221678   4.026   3.724   6.281
 7046SOL     OW21679   4.043   4.534   6.535
 7046SOL    HW121680   4.136   4.570   6.540
 7046SOL    HW221681   4.037   4.449   6.587
 7047SOL     OW21682   4.063   4.233   6.592
 7047SOL    HW121683   4.011   4.150   6.575
 7047SOL    HW221684   4.140   4.238   6.528
 7048SOL     OW21685   3.764   4.268   6.700
 7048SOL    HW121686   3.849   4.235   6.659
 7048SOL    HW221687   3.777   4.283   6.798
 7049SOL     OW21688   3.913   4.244   7.308
 7049SOL    HW121689   3.972   4.204   7.238
 7049SOL    HW221690   3.855   4.315   7.267
 7050SOL     OW21691   4.539   4.296   5.911
 7050SOL    HW121692   4.546   4.207   5.865
 7050SOL    HW221693   4.445   4.330   5.903
 7051SOL     OW21694   4.197   4.224   5.777
 7051SOL    HW121695   4.258   4.304   5.781
 7051SOL    HW221696   4.102   4.255   5.784
 7052SOL     OW21697   3.987   4.050   6.306
 7052SOL    HW121698   3.908   4.101   6.272
 7052SOL    HW221699   3.978   4.035   6.404
 7053SOL     OW21700   4.396   3.927   7.075
 7053SOL    HW121701   4.486   3.911   7.035
 7053SOL    HW221702   4.404   3.932   7.174
 7054SOL     OW21703   3.799   4.069   5.619
 7054SOL    HW121704   3.707   4.041   5.590
 7054SOL    HW221705   3.830   4.146   5.563
 7055SOL     OW21706   3.796   3.890   5.904
 7055SOL    HW121707   3.779   3.973   5.850
 7055SOL    HW221708   3.886   3.853   5.882
 7056SOL     OW21709   4.440   4.289   7.294
 7056SOL    HW121710   4.459   4.354   7.368
 7056SOL    HW221711   4.500   4.209   7.303
 7057SOL     OW21712   4.152   4.148   6.106
 7057SOL    HW121713   4.182   4.076   6.044
 7057SOL    HW221714   4.113   4.108   6.189
 7058SOL     OW21715   4.041   4.271   6.866
 7058SOL    HW121716   4.079   4.212   6.938
 7058SOL    HW221717   4.081   4.245   6.778
 7059SOL     OW21718   3.954   4.352   7.561
 7059SOL    HW121719   3.861   4.350   7.598
 7059SOL    HW221720   3.955   4.313   7.469
 7060SOL     OW21721   3.949   3.999   8.444
 7060SOL    HW121722   3.984   3.982   8.536
 7060SOL    HW221723   3.861   3.954   8.432
 7061SOL     OW21724   3.743   4.092   8.095
 7061SOL    HW121725   3.661   4.135   8.134
 7061SOL    HW221726   3.715   4.019   8.032
 7062SOL     OW21727   4.574   4.522   9.271
 7062SOL    HW121728   4.570   4.598   9.336
 7062SOL    HW221729   4.596   4.558   9.180
 7063SOL     OW21730   4.162   4.116   8.947
 7063SOL    HW121731   4.244   4.060   8.956
 7063SOL    HW221732   4.081   4.058   8.951
 7064SOL     OW21733   3.846   4.367   8.011
 7064SOL    HW121734   3.801   4.279   8.028
 7064SOL    HW221735   3.845   4.421   8.095
 7065SOL     OW21736   3.837   4.461   9.045
 7065SOL    HW121737   3.925   4.448   9.090
 7065SOL    HW221738   3.824   4.558   9.023
 7066SOL     OW21739   4.533   3.728   7.950
 7066SOL    HW121740   4.573   3.819   7.941
 7066SOL    HW221741   4.433   3.736   7.956
 7067SOL     OW21742   4.041   3.975   9.249
 7067SOL    HW121743   4.112   4.046   9.255
 7067SOL    HW221744   3.953   4.014   9.277
 7068SOL     OW21745   4.274   3.920   8.333
 7068SOL    HW121746   4.269   3.915   8.433
 7068SOL    HW221747   4.276   4.016   8.304
 7069SOL     OW21748   3.926   4.009   8.946
 7069SOL    HW121749   3.846   4.069   8.933
 7069SOL    HW221750   3.916   3.960   9.032
 7070SOL     OW21751   4.106   4.424   7.928
 7070SOL    HW121752   4.151   4.334   7.925
 7070SOL    HW221753   4.012   4.413   7.961
 7071SOL     OW21754   4.338   3.846   7.565
 7071SOL    HW121755   4.436   3.824   7.572
 7071SOL    HW221756   4.307   3.829   7.472
 7072SOL     OW21757   4.263   3.788   7.960
 7072SOL    HW121758   4.182   3.789   8.018
 7072SOL    HW221759   4.266   3.871   7.905
 7073SOL     OW21760   4.021   3.759   7.619
 7073SOL    HW121761   4.070   3.843   7.598
 7073SOL    HW221762   4.083   3.694   7.664
 7074SOL     OW21763   4.800   4.407   8.912
 7074SOL    HW121764   4.720   4.346   8.915
 7074SOL    HW221765   4.881   4.354   8.888
 7075SOL     OW21766   3.802   4.280   8.834
 7075SOL    HW121767   3.894   4.279   8.793
 7075SOL    HW221768   3.796   4.354   8.901
 7076SOL     OW21769   4.285   3.946   8.595
 7076SOL    HW121770   4.323   3.862   8.632
 7076SOL    HW221771   4.197   3.965   8.639
 7077SOL     OW21772   4.251   3.980   7.776
 7077SOL    HW121773   4.278   3.921   7.701
 7077SOL    HW221774   4.251   4.075   7.745
 7078SOL     OW21775   4.134   4.537   8.699
 7078SOL    HW121776   4.220   4.549   8.749
 7078SOL    HW221777   4.092   4.450   8.726
 7079SOL     OW21778   4.290   4.261   8.313
 7079SOL    HW121779   4.302   4.327   8.239
 7079SOL    HW221780   4.336   4.295   8.396
 7080SOL     OW21781   4.228   3.774   9.188
 7080SOL    HW121782   4.186   3.717   9.118
 7080SOL    HW221783   4.162   3.843   9.220
 7081SOL     OW21784   4.031   3.937   8.679
 7081SOL    HW121785   4.008   3.974   8.769
 7081SOL    HW221786   4.001   3.842   8.673
 7082SOL     OW21787   4.031   3.787   8.066
 7082SOL    HW121788   4.020   3.881   8.099
 7082SOL    HW221789   4.026   3.724   8.143
 7083SOL     OW21790   4.043   4.534   8.397
 7083SOL    HW121791   4.136   4.570   8.402
 7083SOL    HW221792   4.037   4.449   8.449
 7084SOL     OW21793   4.063   4.233   8.454
 7084SOL    HW121794   4.011   4.150   8.437
 7084SOL    HW221795   4.140   4.238   8.390
 7085SOL     OW21796   3.764   4.268   8.562
 7085SOL    HW121797   3.849   4.235   8.521
 7085SOL    HW221798   3.777   4.283   8.660
 7086SOL     OW21799   3.913   4.244   9.170
 7086SOL    HW121800   3.972   4.204   9.100
 7086SOL    HW221801   3.855   4.315   9.129
 7087SOL     OW21802   4.539   4.296   7.773
 7087SOL    HW121803   4.546   4.207   7.727
 7087SOL    HW221804   4.445   4.330   7.765
 7088SOL     OW21805   4.197   4.224   7.639
 7088SOL    HW121806   4.258   4.304   7.643
 7088SOL    HW221807   4.102   4.255   7.646
 7089SOL     OW21808   3.987   4.050   8.168
 7089SOL    HW121809   3.908   4.101   8.134
 7089SOL    HW221810   3.978   4.035   8.266
 7090SOL     OW21811   4.396   3.927   8.937
 7090SOL    HW121812   4.486   3.911   8.897
 7090SOL    HW221813   4.404   3.932   9.036
 7091SOL     OW21814   3.799   4.069   7.481
 7091SOL    HW121815   3.707   4.041   7.452
 7091SOL    HW221816   3.830   4.146   7.425
 7092SOL     OW21817   3.796   3.890   7.766
 7092SOL    HW121818   3.779   3.973   7.712
 7092SOL    HW221819   3.886   3.853   7.744
 7093SOL     OW21820   4.440   4.289   9.156
 7093SOL    HW121821   4.459   4.354   9.230
 7093SOL    HW221822   4.500   4.209   9.165
 7094SOL     OW21823   4.152   4.148   7.968
 7094SOL    HW121824   4.182   4.076   7.906
 7094SOL    HW221825   4.113   4.108   8.051
 7095SOL     OW21826   4.041   4.271   8.728
 7095SOL    HW121827   4.079   4.212   8.800
 7095SOL    HW221828   4.081   4.245   8.640
 7096SOL     OW21829   3.954   4.352   9.423
 7096SOL    HW121830   3.861   4.350   9.460
 7096SOL    HW221831   3.955   4.313   9.331
 7097SOL     OW21832   3.949   3.999  10.306
 7097SOL    HW121833   3.984   3.982  10.398
 7097SOL    HW221834   3.861   3.954  10.294
 7098SOL     OW21835   3.743   4.092   9.957
 7098SOL    HW121836   3.661   4.135   9.996
 7098SOL    HW221837   3.715   4.019   9.894
 7099SOL     OW21838   4.162   4.116  10.809
 7099SOL    HW121839   4.244   4.060  10.818
 7099SOL    HW221840   4.081   4.058  10.813
 7100SOL     OW21841   3.846   4.367   9.873
 7100SOL    HW121842   3.801   4.279   9.890
 7100SOL    HW221843   3.845   4.421   9.957
 7101SOL     OW21844   3.837   4.461  10.907
 7101SOL    HW121845   3.925   4.448  10.952
 7101SOL    HW221846   3.824   4.558  10.885
 7102SOL     OW21847   4.533   3.728   9.812
 7102SOL    HW121848   4.573   3.819   9.803
 7102SOL    HW221849   4.433   3.736   9.818
 7103SOL     OW21850   4.041   3.975  11.111
 7103SOL    HW121851   4.112   4.046  11.117
 7103SOL    HW221852   3.953   4.014  11.139
 7104SOL     OW21853   4.274   3.920  10.195
 7104SOL    HW121854   4.269   3.915  10.295
 7104SOL    HW221855   4.276   4.016  10.166
 7105SOL     OW21856   3.926   4.009  10.808
 7105SOL    HW121857   3.846   4.069  10.795
 7105SOL    HW221858   3.916   3.960  10.894
 7106SOL     OW21859   4.106   4.424   9.790
 7106SOL    HW121860   4.151   4.334   9.787
 7106SOL    HW221861   4.012   4.413   9.823
 7107SOL     OW21862   4.338   3.846   9.427
 7107SOL    HW121863   4.436   3.824   9.434
 7107SOL    HW221864   4.307   3.829   9.334
 7108SOL     OW21865   4.263   3.788   9.822
 7108SOL    HW121866   4.182   3.789   9.880
 7108SOL    HW221867   4.266   3.871   9.767
 7109SOL     OW21868   4.021   3.759   9.481
 7109SOL    HW121869   4.070   3.843   9.460
 7109SOL    HW221870   4.083   3.694   9.526
 7110SOL     OW21871   4.800   4.407  10.774
 7110SOL    HW121872   4.720   4.346  10.777
 7110SOL    HW221873   4.881   4.354  10.750
 7111SOL     OW21874   3.802   4.280  10.696
 7111SOL    HW121875   3.894   4.279  10.655
 7111SOL    HW221876   3.796   4.354  10.763
 7112SOL     OW21877   4.285   3.946  10.457
 7112SOL    HW121878   4.323   3.862  10.494
 7112SOL    HW221879   4.197   3.965  10.501
 7113SOL     OW21880   4.251   3.980   9.638
 7113SOL    HW121881   4.278   3.921   9.563
 7113SOL    HW221882   4.251   4.075   9.607
 7114SOL     OW21883   4.134   4.537  10.561
 7114SOL    HW121884   4.220   4.549  10.611
 7114SOL    HW221885   4.092   4.450  10.588
 7115SOL     OW21886   4.290   4.261  10.175
 7115SOL    HW121887   4.302   4.327  10.101
 7115SOL    HW221888   4.336   4.295  10.258
 7116SOL     OW21889   4.126   4.475  10.908
 7116SOL    HW121890   4.194   4.530  10.861
 7116SOL    HW221891   4.166   4.387  10.935
 7117SOL     OW21892   4.031   3.937  10.541
 7117SOL    HW121893   4.008   3.974  10.631
 7117SOL    HW221894   4.001   3.842  10.535
 7118SOL     OW21895   4.031   3.787   9.928
 7118SOL    HW121896   4.020   3.881   9.961
 7118SOL    HW221897   4.026   3.724  10.005
 7119SOL     OW21898   4.043   4.534  10.259
 7119SOL    HW121899   4.136   4.570  10.264
 7119SOL    HW221900   4.037   4.449  10.311
 7120SOL     OW21901   4.063   4.233  10.316
 7120SOL    HW121902   4.011   4.150  10.299
 7120SOL    HW221903   4.140   4.238  10.252
 7121SOL     OW21904   3.764   4.268  10.424
 7121SOL    HW121905   3.849   4.235  10.383
 7121SOL    HW221906   3.777   4.283  10.522
 7122SOL     OW21907   4.539   4.296   9.635
 7122SOL    HW121908   4.546   4.207   9.589
 7122SOL    HW221909   4.445   4.330   9.627
 7123SOL     OW21910   4.197   4.224   9.501
 7123SOL    HW121911   4.258   4.304   9.505
 7123SOL    HW221912   4.102   4.255   9.508
 7124SOL     OW21913   3.987   4.050  10.030
 7124SOL    HW121914   3.908   4.101   9.996
 7124SOL    HW221915   3.978   4.035  10.128
 7125SOL     OW21916   4.396   3.927  10.799
 7125SOL    HW121917   4.486   3.911  10.759
 7125SOL    HW221918   4.404   3.932  10.898
 7126SOL     OW21919   3.799   4.069   9.343
 7126SOL    HW121920   3.707   4.041   9.314
 7126SOL    HW221921   3.830   4.146   9.287
 7127SOL     OW21922   3.796   3.890   9.628
 7127SOL    HW121923   3.779   3.973   9.574
 7127SOL    HW221924   3.886   3.853   9.606
 7128SOL     OW21925   4.152   4.148   9.830
 7128SOL    HW121926   4.182   4.076   9.768
 7128SOL    HW221927   4.113   4.108   9.913
 7129SOL     OW21928   4.041   4.271  10.590
 7129SOL    HW121929   4.079   4.212  10.662
 7129SOL    HW221930   4.081   4.245  10.502
   4.50000   4.50000  11.10000
