Built with Packmol
22146
    1LIG      O    1   2.627   2.620   0.038
    1LIG      C    2   2.692   2.670   0.126
    1LIG     C1    3   2.621   2.617   0.219
    1LIG     O1    4   2.685   2.667   0.308
    1LIG     C2    5   2.620   2.618   0.396
    1LIG     C3    6   2.691   2.673   0.487
    1LIG     O2    7   2.627   2.625   0.575
    1LIG     C4    8   2.690   2.675   0.664
    1LIG     C5    9   2.618   2.620   0.756
    1LIG     O3   10   2.681   2.670   0.844
    1LIG     C6   11   2.616   2.621   0.932
    1LIG     C7   12   2.688   2.677   1.023
    1LIG     O4   13   2.624   2.629   1.112
    1LIG     C8   14   2.688   2.679   1.200
    1LIG     C9   15   2.615   2.623   1.291
    1LIG     O5   16   2.679   2.673   1.379
    1LIG    C10   17   2.615   2.624   1.468
    1LIG    C11   18   2.687   2.680   1.559
    1LIG     O6   19   2.623   2.631   1.647
    1LIG    C12   20   2.686   2.680   1.735
    1LIG    C13   21   2.613   2.625   1.827
    1LIG     O7   22   2.677   2.674   1.915
    1LIG    C14   23   2.613   2.625   2.003
    1LIG    C15   24   2.685   2.680   2.095
    1LIG     O8   25   2.621   2.631   2.184
    1LIG    C16   26   2.685   2.681   2.272
    1LIG    C17   27   2.614   2.626   2.363
    1LIG     O9   28   2.677   2.675   2.452
    1LIG    C18   29   2.612   2.626   2.540
    1LIG    C19   30   2.684   2.681   2.631
    1LIG    O10   31   2.621   2.632   2.720
    1LIG    C20   32   2.685   2.682   2.807
    1LIG    C21   33   2.612   2.626   2.899
    1LIG    O11   34   2.676   2.675   2.987
    1LIG    C22   35   2.612   2.626   3.075
    1LIG    C23   36   2.684   2.682   3.166
    1LIG    O12   37   2.620   2.633   3.254
    1LIG    C24   38   2.684   2.682   3.343
    1LIG    C25   39   2.612   2.627   3.435
    1LIG    O13   40   2.675   2.676   3.524
    1LIG    C26   41   2.611   2.627   3.611
    1LIG    C27   42   2.683   2.682   3.703
    1LIG    O14   43   2.619   2.633   3.791
    1LIG    C28   44   2.684   2.682   3.879
    1LIG    C29   45   2.612   2.626   3.971
    1LIG    O15   46   2.676   2.675   4.059
    1LIG    C30   47   2.612   2.626   4.147
    1LIG    C31   48   2.684   2.681   4.238
    1LIG    O16   49   2.620   2.632   4.326
    1LIG    C32   50   2.684   2.681   4.415
    1LIG    C33   51   2.612   2.626   4.506
    1LIG    O17   52   2.676   2.675   4.595
    1LIG    C34   53   2.612   2.625   4.683
    1LIG    C35   54   2.684   2.680   4.774
    1LIG    O18   55   2.620   2.631   4.863
    1LIG    C36   56   2.684   2.680   4.951
    1LIG    C37   57   2.613   2.625   5.042
    1LIG    O19   58   2.677   2.674   5.131
    1LIG    C38   59   2.613   2.624   5.219
    1LIG    C39   60   2.684   2.679   5.311
    1LIG    O20   61   2.621   2.630   5.399
    1LIG    C40   62   2.685   2.679   5.487
    1LIG    C41   63   2.614   2.624   5.579
    1LIG    O21   64   2.677   2.673   5.667
    1LIG    C42   65   2.613   2.623   5.755
    1LIG    C43   66   2.685   2.678   5.846
    1LIG    O22   67   2.622   2.629   5.935
    1LIG    C44   68   2.686   2.678   6.023
    1LIG    C45   69   2.614   2.622   6.114
    1LIG    O23   70   2.678   2.671   6.202
    1LIG    C46   71   2.614   2.622   6.291
    1LIG    C47   72   2.687   2.678   6.382
    1LIG    O24   73   2.623   2.628   6.470
    1LIG    C48   74   2.686   2.677   6.558
    1LIG    C49   75   2.614   2.621   6.650
    1LIG    O25   76   2.678   2.670   6.738
    1LIG    C50   77   2.615   2.621   6.826
    1LIG    C51   78   2.687   2.677   6.917
    1LIG    O26   79   2.624   2.627   7.005
    1LIG    C52   80   2.687   2.676   7.094
    1LIG    C53   81   2.615   2.619   7.185
    1LIG    O27   82   2.679   2.669   7.273
    1LIG    C54   83   2.616   2.619   7.362
    1LIG    C55   84   2.688   2.675   7.454
    1LIG    O28   85   2.624   2.625   7.542
    1LIG    C56   86   2.688   2.674   7.630
    1LIG    C57   87   2.617   2.618   7.723
    1LIG    O29   88   2.681   2.667   7.811
    1LIG    C58   89   2.617   2.617   7.899
    1LIG    C59   90   2.688   2.672   7.991
    1LIG      H   91   2.689   2.780   0.125
    1LIG     H1   92   2.797   2.639   0.125
    1LIG     H2   93   2.624   2.508   0.219
    1LIG     H3   94   2.516   2.648   0.218
    1LIG     H4   95   2.623   2.508   0.397
    1LIG     H5   96   2.515   2.649   0.396
    1LIG     H6   97   2.689   2.783   0.486
    1LIG     H7   98   2.797   2.642   0.487
    1LIG     H8   99   2.688   2.784   0.664
    1LIG     H9  100   2.795   2.644   0.665
    1LIG    H10  101   2.621   2.511   0.755
    1LIG    H11  102   2.513   2.651   0.754
    1LIG    H12  103   2.619   2.512   0.933
    1LIG    H13  104   2.511   2.652   0.933
    1LIG    H14  105   2.685   2.787   1.022
    1LIG    H15  106   2.793   2.646   1.023
    1LIG    H16  107   2.685   2.788   1.201
    1LIG    H17  108   2.793   2.648   1.202
    1LIG    H18  109   2.618   2.514   1.290
    1LIG    H19  110   2.510   2.654   1.290
    1LIG    H20  111   2.617   2.514   1.469
    1LIG    H21  112   2.509   2.655   1.469
    1LIG    H22  113   2.684   2.789   1.558
    1LIG    H23  114   2.792   2.649   1.558
    1LIG    H24  115   2.683   2.789   1.736
    1LIG    H25  116   2.791   2.649   1.737
    1LIG    H26  117   2.616   2.515   1.826
    1LIG    H27  118   2.508   2.656   1.825
    1LIG    H28  119   2.616   2.515   2.004
    1LIG    H29  120   2.508   2.656   2.004
    1LIG    H30  121   2.682   2.790   2.094
    1LIG    H31  122   2.790   2.649   2.094
    1LIG    H32  123   2.682   2.791   2.272
    1LIG    H33  124   2.790   2.650   2.273
    1LIG    H34  125   2.616   2.517   2.362
    1LIG    H35  126   2.508   2.657   2.362
    1LIG    H36  127   2.615   2.516   2.541
    1LIG    H37  128   2.507   2.657   2.541
    1LIG    H38  129   2.681   2.791   2.630
    1LIG    H39  130   2.789   2.650   2.630
    1LIG    H40  131   2.682   2.791   2.809
    1LIG    H41  132   2.790   2.651   2.809
    1LIG    H42  133   2.615   2.517   2.897
    1LIG    H43  134   2.507   2.657   2.897
    1LIG    H44  135   2.615   2.517   3.076
    1LIG    H45  136   2.507   2.657   3.076
    1LIG    H46  137   2.681   2.792   3.165
    1LIG    H47  138   2.790   2.651   3.165
    1LIG    H48  139   2.681   2.791   3.344
    1LIG    H49  140   2.789   2.651   3.344
    1LIG    H50  141   2.615   2.517   3.434
    1LIG    H51  142   2.507   2.658   3.434
    1LIG    H52  143   2.614   2.517   3.612
    1LIG    H53  144   2.506   2.658   3.612
    1LIG    H54  145   2.680   2.792   3.702
    1LIG    H55  146   2.788   2.651   3.701
    1LIG    H56  147   2.681   2.791   3.880
    1LIG    H57  148   2.789   2.651   3.880
    1LIG    H58  149   2.615   2.517   3.970
    1LIG    H59  150   2.507   2.657   3.970
    1LIG    H60  151   2.615   2.516   4.148
    1LIG    H61  152   2.507   2.657   4.148
    1LIG    H62  153   2.681   2.791   4.237
    1LIG    H63  154   2.789   2.650   4.237
    1LIG    H64  155   2.681   2.790   4.416
    1LIG    H65  156   2.789   2.650   4.416
    1LIG    H66  157   2.615   2.516   4.505
    1LIG    H67  158   2.507   2.657   4.505
    1LIG    H68  159   2.615   2.516   4.683
    1LIG    H69  160   2.507   2.656   4.683
    1LIG    H70  161   2.681   2.790   4.773
    1LIG    H71  162   2.789   2.650   4.773
    1LIG    H72  163   2.681   2.790   4.952
    1LIG    H73  164   2.790   2.650   4.951
    1LIG    H74  165   2.616   2.516   5.041
    1LIG    H75  166   2.508   2.656   5.042
    1LIG    H76  167   2.616   2.515   5.219
    1LIG    H77  168   2.508   2.655   5.220
    1LIG    H78  169   2.681   2.788   5.310
    1LIG    H79  170   2.790   2.648   5.309
    1LIG    H80  171   2.682   2.789   5.488
    1LIG    H81  172   2.790   2.649   5.488
    1LIG    H82  173   2.617   2.514   5.577
    1LIG    H83  174   2.508   2.654   5.578
    1LIG    H84  175   2.617   2.513   5.756
    1LIG    H85  176   2.508   2.653   5.756
    1LIG    H86  177   2.682   2.788   5.845
    1LIG    H87  178   2.791   2.648   5.845
    1LIG    H88  179   2.683   2.788   6.024
    1LIG    H89  180   2.791   2.648   6.024
    1LIG    H90  181   2.617   2.513   6.113
    1LIG    H91  182   2.509   2.653   6.113
    1LIG    H92  183   2.618   2.512   6.292
    1LIG    H93  184   2.509   2.652   6.292
    1LIG    H94  185   2.683   2.787   6.381
    1LIG    H95  186   2.792   2.647   6.381
    1LIG    H96  187   2.683   2.786   6.560
    1LIG    H97  188   2.791   2.646   6.560
    1LIG    H98  189   2.618   2.511   6.648
    1LIG    H99  190   2.509   2.651   6.649
    1LIG   H100  191   2.618   2.511   6.827
    1LIG   H101  192   2.510   2.651   6.828
    1LIG   H102  193   2.684   2.786   6.916
    1LIG   H103  194   2.792   2.646   6.916
    1LIG   H104  195   2.684   2.785   7.095
    1LIG   H105  196   2.792   2.645   7.095
    1LIG   H106  197   2.619   2.510   7.184
    1LIG   H107  198   2.510   2.650   7.184
    1LIG   H108  199   2.620   2.510   7.363
    1LIG   H109  200   2.511   2.650   7.363
    1LIG   H110  201   2.684   2.784   7.453
    1LIG   H111  202   2.793   2.644   7.452
    1LIG   H112  203   2.685   2.784   7.631
    1LIG   H113  204   2.794   2.644   7.631
    1LIG   H114  205   2.621   2.509   7.721
    1LIG   H115  206   2.512   2.649   7.722
    1LIG   H116  207   2.621   2.507   7.899
    1LIG   H117  208   2.512   2.649   7.900
    1LIG   H118  209   2.793   2.642   7.991
    1LIG   H119  210   2.641   2.635   8.060
    1MOL     C1  211   2.129   2.197   3.436
    1MOL     H1  212   2.107   2.090   3.426
    1MOL     O1  213   2.083   2.230   3.566
    1MOL     C2  214   2.103   2.368   3.602
    1MOL     H2  215   2.209   2.395   3.588
    1MOL     C3  216   2.072   2.381   3.750
    1MOL     H3  217   2.105   2.480   3.785
    1MOL     H4  218   2.128   2.304   3.805
    1MOL     O2  219   1.932   2.366   3.772
    1MOL     C4  220   1.897   2.383   3.908
    1MOL     C5  221   2.047   2.278   3.333
    1MOL     H5  222   1.944   2.242   3.341
    1MOL     O3  223   2.093   2.263   3.200
    1MOL     C6  224   2.063   2.139   3.140
    1MOL     C7  225   2.046   2.429   3.363
    1MOL     H6  226   2.144   2.471   3.339
    1MOL     O4  227   1.944   2.489   3.285
    1MOL     C8  228   1.991   2.580   3.187
    1MOL     C9  229   2.016   2.457   3.511
    1MOL     H7  230   1.911   2.433   3.530
    1MOL     O5  231   2.041   2.596   3.533
    1MOL    C10  232   1.955   2.665   3.622
    1MOL     H8  233   1.877   2.598   3.657
    1MOL     O6  234   2.024   2.705   3.739
    1MOL    C11  235   2.135   2.793   3.715
    1MOL     H9  236   2.205   2.745   3.645
    1MOL    C12  237   2.208   2.812   3.847
    1MOL    H10  238   2.304   2.860   3.828
    1MOL    H11  239   2.226   2.713   3.892
    1MOL     O7  240   2.130   2.892   3.934
    1MOL    C13  241   2.196   2.920   4.055
    1MOL    C14  242   1.895   2.789   3.553
    1MOL    H12  243   1.820   2.830   3.622
    1MOL     O8  244   1.835   2.761   3.428
    1MOL    C15  245   1.711   2.694   3.435
    1MOL    C16  246   1.999   2.899   3.528
    1MOL    H13  247   2.065   2.866   3.447
    1MOL     O9  248   1.933   3.019   3.494
    1MOL    C17  249   1.947   3.059   3.359
    1MOL    C18  250   2.085   2.925   3.652
    1MOL    H14  251   2.024   2.977   3.726
    1MOL    O10  252   2.194   3.007   3.611
    1MOL    C19  253   2.235   3.112   3.696
    1MOL    H15  254   2.168   3.119   3.782
    1MOL    O11  255   2.363   3.086   3.753
    1MOL    C20  256   2.468   3.072   3.658
    1MOL    H16  257   2.442   2.993   3.585
    1MOL    C21  258   2.591   3.023   3.733
    1MOL    H17  259   2.667   2.991   3.660
    1MOL    H18  260   2.562   2.936   3.793
    1MOL    O12  261   2.641   3.126   3.817
    1MOL    C22  262   2.742   3.080   3.904
    1MOL    C23  263   2.241   3.245   3.618
    1MOL    H19  264   2.263   3.324   3.692
    1MOL    O13  265   2.122   3.275   3.549
    1MOL    C24  266   2.014   3.316   3.632
    1MOL    C25  267   2.355   3.245   3.516
    1MOL    H20  268   2.332   3.173   3.436
    1MOL    O14  269   2.369   3.376   3.461
    1MOL    C26  270   2.313   3.392   3.331
    1MOL    C27  271   2.488   3.204   3.581
    1MOL    H21  272   2.522   3.281   3.651
    1MOL    O15  273   2.588   3.180   3.481
    1MOL    C28  274   2.660   3.294   3.438
    1MOL    H22  275   2.594   3.380   3.434
    1MOL    O16  276   2.763   3.331   3.528
    1MOL    C29  277   2.863   3.231   3.551
    1MOL    H23  278   2.817   3.141   3.594
    1MOL    C30  279   2.957   3.289   3.656
    1MOL    H24  280   3.021   3.209   3.697
    1MOL    H25  281   2.895   3.330   3.737
    1MOL    O17  282   3.038   3.390   3.598
    1MOL    C31  283   3.122   3.452   3.693
    1MOL    C32  284   2.720   3.264   3.300
    1MOL    H26  285   2.769   3.356   3.266
    1MOL    O18  286   2.616   3.227   3.211
    1MOL    C33  287   2.630   3.279   3.080
    1MOL    C34  288   2.828   3.155   3.311
    1MOL    H27  289   2.779   3.061   3.339
    1MOL    O19  290   2.891   3.142   3.184
    1MOL    C35  291   2.906   3.008   3.138
    1MOL    C36  292   2.932   3.192   3.418
    1MOL    H28  293   2.989   3.278   3.381
    1MOL    O20  294   3.019   3.079   3.434
    1MOL    C37  295   3.153   3.105   3.469
    1MOL    H29  296   3.171   3.213   3.471
    1MOL    O21  297   3.182   3.062   3.601
    1MOL    C38  298   3.165   2.921   3.622
    1MOL    H30  299   3.063   2.893   3.593
    1MOL    C39  300   3.178   2.896   3.772
    1MOL    H31  301   3.145   2.794   3.794
    1MOL    H32  302   3.113   2.967   3.826
    1MOL    O22  303   3.313   2.913   3.811
    1MOL    C40  304   3.334   2.880   3.947
    1MOL    C41  305   3.250   3.035   3.371
    1MOL    H33  306   3.351   3.073   3.394
    1MOL    O23  307   3.219   3.060   3.235
    1MOL    C42  308   3.251   3.190   3.188
    1MOL    C43  309   3.254   2.883   3.389
    1MOL    H34  310   3.161   2.840   3.349
    1MOL    O24  311   3.366   2.832   3.319
    1MOL    C44  312   3.335   2.752   3.206
    1MOL    C45  313   3.266   2.844   3.536
    1MOL    H35  314   3.367   2.869   3.571
    1MOL    O25  315   3.245   2.702   3.544
    1MOL    C46  316   3.327   2.629   3.634
    1MOL    H36  317   3.402   2.695   3.678
    1MOL    O26  318   3.253   2.580   3.744
    1MOL    C47  319   3.147   2.490   3.711
    1MOL    H37  320   3.078   2.538   3.640
    1MOL    C48  321   3.069   2.461   3.839
    1MOL    H38  322   2.974   2.413   3.814
    1MOL    H39  323   3.047   2.558   3.888
    1MOL    O27  324   3.146   2.379   3.924
    1MOL    C49  325   3.073   2.339   4.039
    1MOL    C50  326   3.393   2.510   3.561
    1MOL    H40  327   3.466   2.467   3.631
    1MOL    O28  328   3.459   2.547   3.441
    1MOL    C51  329   3.581   2.617   3.459
    1MOL    C52  330   3.293   2.400   3.525
    1MOL    H41  331   3.228   2.436   3.444
    1MOL    O29  332   3.364   2.284   3.484
    1MOL    C53  333   3.359   2.258   3.345
    1MOL    C54  334   3.206   2.364   3.645
    1MOL    H42  335   3.268   2.313   3.720
    1MOL    O30  336   3.103   2.275   3.600
    1MOL    C55  337   3.079   2.158   3.674
    1MOL    H43  338   3.159   2.143   3.747
    1MOL    O31  339   2.961   2.165   3.751
    1MOL    C56  340   2.839   2.184   3.677
    1MOL    H44  341   2.843   2.279   3.622
    1MOL    C57  342   2.728   2.189   3.780
    1MOL    H45  343   2.743   2.107   3.853
    1MOL    H46  344   2.631   2.173   3.732
    1MOL    O32  345   2.731   2.315   3.846
    1MOL    C58  346   2.630   2.326   3.944
    1MOL    C59  347   3.069   2.036   3.579
    1MOL    H47  348   3.058   1.947   3.644
    1MOL    O33  349   3.181   2.019   3.495
    1MOL    C60  350   3.298   1.972   3.560
    1MOL    C61  351   2.944   2.044   3.491
    1MOL    H48  352   2.955   2.128   3.421
    1MOL    O34  353   2.924   1.922   3.421
    1MOL    C62  354   2.976   1.919   3.289
    1MOL    C63  355   2.818   2.069   3.576
    1MOL    H49  356   2.795   1.977   3.631
    1MOL    O35  357   2.708   2.104   3.491
    1MOL    C64  358   2.625   1.997   3.452
    1MOL    H50  359   2.682   1.904   3.453
    1MOL    O36  360   2.519   1.976   3.544
    1MOL    C65  361   2.424   2.082   3.556
    1MOL    H51  362   2.474   2.175   3.585
    1MOL    C66  363   2.329   2.041   3.668
    1MOL    H52  364   2.304   1.934   3.655
    1MOL    H53  365   2.237   2.099   3.665
    1MOL    O37  366   2.396   2.061   3.792
    1MOL    C67  367   2.323   2.009   3.901
    1MOL    C68  368   2.567   2.021   3.312
    1MOL    H54  369   2.517   1.928   3.284
    1MOL    O38  370   2.672   2.050   3.220
    1MOL    C69  371   2.660   1.982   3.096
    1MOL    C70  372   2.462   2.133   3.313
    1MOL    H55  373   2.512   2.228   3.336
    1MOL    O39  374   2.402   2.139   3.184
    1MOL    C71  375   2.409   2.266   3.122
    1MOL    C72  376   2.355   2.106   3.420
    1MOL    H56  377   2.298   2.017   3.391
    1MOL    O40  378   2.267   2.220   3.421
    1MOL    H57  379   1.788   2.369   3.914
    1MOL    H58  380   1.946   2.308   3.972
    1MOL    H59  381   1.923   2.483   3.944
    1MOL    H60  382   2.381   2.030   3.991
    1MOL    H61  383   2.224   2.057   3.911
    1MOL    H62  384   2.308   1.901   3.893
    1MOL    H63  385   2.635   2.428   3.984
    1MOL    H64  386   2.530   2.308   3.901
    1MOL    H65  387   2.646   2.255   4.026
    1MOL    H66  388   3.138   2.272   4.096
    1MOL    H67  389   3.047   2.425   4.102
    1MOL    H68  390   2.982   2.285   4.011
    1MOL    H69  391   3.440   2.896   3.969
    1MOL    H70  392   3.274   2.944   4.014
    1MOL    H71  393   3.308   2.775   3.967
    1MOL    H72  394   3.180   3.528   3.640
    1MOL    H73  395   3.064   3.501   3.773
    1MOL    H74  396   3.191   3.380   3.740
    1MOL    H75  397   2.774   3.166   3.964
    1MOL    H76  398   2.704   3.001   3.971
    1MOL    H77  399   2.829   3.040   3.850
    1MOL    H78  400   2.129   2.982   4.115
    1MOL    H79  401   2.219   2.828   4.111
    1MOL    H80  402   2.290   2.975   4.038
    1MOL    H81  403   1.889   3.151   3.347
    1MOL    H82  404   2.052   3.081   3.335
    1MOL    H83  405   1.908   2.983   3.290
    1MOL    H84  406   1.670   2.693   3.334
    1MOL    H85  407   1.721   2.590   3.469
    1MOL    H86  408   1.640   2.746   3.501
    1MOL    H87  409   1.902   2.618   3.134
    1MOL    H88  410   2.042   2.666   3.233
    1MOL    H89  411   2.057   2.531   3.114
    1MOL    H90  412   2.084   2.149   3.034
    1MOL    H91  413   2.125   2.057   3.180
    1MOL    H92  414   1.957   2.113   3.153
    1MOL    H93  415   2.362   2.256   3.023
    1MOL    H94  416   2.353   2.342   3.179
    1MOL    H95  417   2.513   2.298   3.108
    1MOL    H96  418   2.745   2.015   3.035
    1MOL    H97  419   2.666   1.873   3.109
    1MOL    H98  420   2.567   2.007   3.045
    1MOL    H99  421   2.947   1.823   3.247
    1MOL   H100  422   2.933   1.999   3.228
    1MOL   H101  423   3.085   1.928   3.289
    1MOL   H102  424   3.368   1.944   3.482
    1MOL   H103  425   3.345   2.050   3.622
    1MOL   H104  426   3.276   1.884   3.622
    1MOL   H105  427   3.422   2.169   3.328
    1MOL   H106  428   3.257   2.235   3.312
    1MOL   H107  429   3.400   2.342   3.287
    1MOL   H108  430   3.629   2.623   3.361
    1MOL   H109  431   3.566   2.719   3.497
    1MOL   H110  432   3.648   2.562   3.528
    1MOL   H111  433   3.430   2.722   3.162
    1MOL   H112  434   3.280   2.662   3.235
    1MOL   H113  435   3.277   2.809   3.132
    1MOL   H114  436   3.236   3.189   3.080
    1MOL   H115  437   3.185   3.266   3.231
    1MOL   H116  438   3.356   3.215   3.210
    1MOL   H117  439   2.953   3.014   3.040
    1MOL   H118  440   2.969   2.949   3.205
    1MOL   H119  441   2.808   2.959   3.127
    1MOL   H120  442   2.544   3.243   3.023
    1MOL   H121  443   2.629   3.390   3.080
    1MOL   H122  444   2.723   3.245   3.032
    1MOL   H123  445   2.329   3.497   3.303
    1MOL   H124  446   2.363   3.327   3.258
    1MOL   H125  447   2.205   3.371   3.332
    1MOL   H126  448   1.936   3.352   3.565
    1MOL   H127  449   1.973   3.233   3.691
    1MOL   H128  450   2.044   3.398   3.699
    1MOL     C1  451   3.171   2.197   4.644
    1MOL     H1  452   3.193   2.090   4.654
    1MOL     O1  453   3.217   2.230   4.514
    1MOL     C2  454   3.197   2.368   4.478
    1MOL     H2  455   3.091   2.395   4.492
    1MOL     C3  456   3.229   2.381   4.330
    1MOL     H3  457   3.195   2.480   4.295
    1MOL     H4  458   3.172   2.304   4.275
    1MOL     O2  459   3.368   2.366   4.308
    1MOL     C4  460   3.403   2.383   4.172
    1MOL     C5  461   3.253   2.278   4.747
    1MOL     H5  462   3.357   2.242   4.738
    1MOL     O3  463   3.207   2.263   4.880
    1MOL     C6  464   3.237   2.139   4.940
    1MOL     C7  465   3.254   2.429   4.717
    1MOL     H6  466   3.156   2.471   4.741
    1MOL     O4  467   3.356   2.489   4.795
    1MOL     C8  468   3.309   2.580   4.893
    1MOL     C9  469   3.284   2.457   4.569
    1MOL     H7  470   3.389   2.433   4.550
    1MOL     O5  471   3.259   2.596   4.547
    1MOL    C10  472   3.345   2.665   4.458
    1MOL     H8  473   3.423   2.598   4.423
    1MOL     O6  474   3.276   2.705   4.341
    1MOL    C11  475   3.165   2.793   4.365
    1MOL     H9  476   3.095   2.745   4.435
    1MOL    C12  477   3.093   2.812   4.233
    1MOL    H10  478   2.996   2.860   4.252
    1MOL    H11  479   3.074   2.713   4.188
    1MOL     O7  480   3.171   2.892   4.146
    1MOL    C13  481   3.104   2.920   4.025
    1MOL    C14  482   3.405   2.789   4.527
    1MOL    H12  483   3.480   2.830   4.458
    1MOL     O8  484   3.465   2.761   4.652
    1MOL    C15  485   3.590   2.694   4.645
    1MOL    C16  486   3.301   2.899   4.552
    1MOL    H13  487   3.235   2.866   4.633
    1MOL     O9  488   3.368   3.019   4.586
    1MOL    C17  489   3.353   3.059   4.721
    1MOL    C18  490   3.215   2.925   4.428
    1MOL    H14  491   3.276   2.977   4.354
    1MOL    O10  492   3.106   3.007   4.469
    1MOL    C19  493   3.065   3.112   4.384
    1MOL    H15  494   3.132   3.119   4.298
    1MOL    O11  495   2.938   3.086   4.326
    1MOL    C20  496   2.832   3.072   4.422
    1MOL    H16  497   2.858   2.993   4.495
    1MOL    C21  498   2.709   3.023   4.347
    1MOL    H17  499   2.633   2.991   4.419
    1MOL    H18  500   2.738   2.936   4.287
    1MOL    O12  501   2.659   3.126   4.263
    1MOL    C22  502   2.558   3.080   4.176
    1MOL    C23  503   3.059   3.245   4.462
    1MOL    H19  504   3.037   3.324   4.388
    1MOL    O13  505   3.179   3.275   4.531
    1MOL    C24  506   3.286   3.316   4.448
    1MOL    C25  507   2.945   3.245   4.564
    1MOL    H20  508   2.968   3.173   4.644
    1MOL    O14  509   2.931   3.376   4.619
    1MOL    C26  510   2.987   3.392   4.749
    1MOL    C27  511   2.812   3.204   4.499
    1MOL    H21  512   2.778   3.281   4.429
    1MOL    O15  513   2.712   3.180   4.599
    1MOL    C28  514   2.640   3.294   4.642
    1MOL    H22  515   2.706   3.380   4.646
    1MOL    O16  516   2.537   3.331   4.552
    1MOL    C29  517   2.437   3.231   4.529
    1MOL    H23  518   2.483   3.141   4.486
    1MOL    C30  519   2.343   3.289   4.424
    1MOL    H24  520   2.279   3.209   4.383
    1MOL    H25  521   2.405   3.330   4.343
    1MOL    O17  522   2.262   3.390   4.482
    1MOL    C31  523   2.178   3.452   4.387
    1MOL    C32  524   2.580   3.264   4.779
    1MOL    H26  525   2.531   3.356   4.814
    1MOL    O18  526   2.684   3.227   4.869
    1MOL    C33  527   2.670   3.279   5.000
    1MOL    C34  528   2.472   3.155   4.769
    1MOL    H27  529   2.521   3.061   4.741
    1MOL    O19  530   2.409   3.142   4.896
    1MOL    C35  531   2.395   3.008   4.942
    1MOL    C36  532   2.369   3.192   4.662
    1MOL    H28  533   2.311   3.278   4.699
    1MOL    O20  534   2.281   3.079   4.646
    1MOL    C37  535   2.147   3.105   4.611
    1MOL    H29  536   2.129   3.213   4.609
    1MOL    O21  537   2.118   3.062   4.479
    1MOL    C38  538   2.136   2.921   4.458
    1MOL    H30  539   2.237   2.893   4.487
    1MOL    C39  540   2.122   2.896   4.308
    1MOL    H31  541   2.155   2.794   4.286
    1MOL    H32  542   2.187   2.967   4.254
    1MOL    O22  543   1.987   2.913   4.268
    1MOL    C40  544   1.966   2.880   4.133
    1MOL    C41  545   2.050   3.035   4.709
    1MOL    H33  546   1.949   3.073   4.686
    1MOL    O23  547   2.081   3.060   4.845
    1MOL    C42  548   2.049   3.190   4.892
    1MOL    C43  549   2.046   2.883   4.691
    1MOL    H34  550   2.139   2.840   4.731
    1MOL    O24  551   1.934   2.832   4.761
    1MOL    C44  552   1.965   2.752   4.874
    1MOL    C45  553   2.034   2.844   4.544
    1MOL    H35  554   1.933   2.869   4.509
    1MOL    O25  555   2.055   2.702   4.535
    1MOL    C46  556   1.973   2.629   4.446
    1MOL    H36  557   1.898   2.695   4.402
    1MOL    O26  558   2.047   2.580   4.336
    1MOL    C47  559   2.154   2.490   4.369
    1MOL    H37  560   2.222   2.538   4.440
    1MOL    C48  561   2.231   2.461   4.241
    1MOL    H38  562   2.326   2.413   4.266
    1MOL    H39  563   2.253   2.558   4.192
    1MOL    O27  564   2.154   2.379   4.156
    1MOL    C49  565   2.227   2.339   4.041
    1MOL    C50  566   1.907   2.510   4.519
    1MOL    H40  567   1.834   2.467   4.449
    1MOL    O28  568   1.841   2.547   4.639
    1MOL    C51  569   1.719   2.617   4.621
    1MOL    C52  570   2.007   2.400   4.555
    1MOL    H41  571   2.072   2.436   4.636
    1MOL    O29  572   1.936   2.284   4.596
    1MOL    C53  573   1.941   2.258   4.735
    1MOL    C54  574   2.094   2.364   4.434
    1MOL    H42  575   2.032   2.313   4.360
    1MOL    O30  576   2.197   2.275   4.480
    1MOL    C55  577   2.221   2.158   4.406
    1MOL    H43  578   2.142   2.143   4.332
    1MOL    O31  579   2.339   2.165   4.329
    1MOL    C56  580   2.461   2.184   4.403
    1MOL    H44  581   2.457   2.279   4.458
    1MOL    C57  582   2.572   2.189   4.300
    1MOL    H45  583   2.557   2.107   4.227
    1MOL    H46  584   2.669   2.173   4.348
    1MOL    O32  585   2.569   2.315   4.234
    1MOL    C58  586   2.670   2.326   4.136
    1MOL    C59  587   2.231   2.036   4.500
    1MOL    H47  588   2.242   1.947   4.436
    1MOL    O33  589   2.119   2.019   4.585
    1MOL    C60  590   2.002   1.972   4.520
    1MOL    C61  591   2.356   2.044   4.589
    1MOL    H48  592   2.345   2.128   4.659
    1MOL    O34  593   2.377   1.922   4.659
    1MOL    C62  594   2.324   1.919   4.791
    1MOL    C63  595   2.482   2.069   4.504
    1MOL    H49  596   2.505   1.977   4.449
    1MOL    O35  597   2.592   2.104   4.589
    1MOL    C64  598   2.675   1.997   4.627
    1MOL    H50  599   2.618   1.904   4.627
    1MOL    O36  600   2.781   1.976   4.536
    1MOL    C65  601   2.877   2.082   4.524
    1MOL    H51  602   2.826   2.175   4.495
    1MOL    C66  603   2.971   2.041   4.412
    1MOL    H52  604   2.996   1.934   4.425
    1MOL    H53  605   3.063   2.099   4.415
    1MOL    O37  606   2.904   2.061   4.288
    1MOL    C67  607   2.977   2.009   4.179
    1MOL    C68  608   2.733   2.021   4.768
    1MOL    H54  609   2.783   1.928   4.796
    1MOL    O38  610   2.629   2.050   4.859
    1MOL    C69  611   2.640   1.982   4.984
    1MOL    C70  612   2.838   2.133   4.767
    1MOL    H55  613   2.788   2.228   4.744
    1MOL    O39  614   2.898   2.139   4.896
    1MOL    C71  615   2.891   2.266   4.958
    1MOL    C72  616   2.945   2.106   4.660
    1MOL    H56  617   3.002   2.017   4.689
    1MOL    O40  618   3.033   2.220   4.659
    1MOL    H57  619   3.512   2.369   4.166
    1MOL    H58  620   3.354   2.308   4.108
    1MOL    H59  621   3.377   2.483   4.136
    1MOL    H60  622   2.919   2.030   4.088
    1MOL    H61  623   3.076   2.057   4.169
    1MOL    H62  624   2.992   1.901   4.187
    1MOL    H63  625   2.665   2.428   4.096
    1MOL    H64  626   2.770   2.308   4.179
    1MOL    H65  627   2.655   2.255   4.054
    1MOL    H66  628   2.162   2.272   3.984
    1MOL    H67  629   2.253   2.425   3.978
    1MOL    H68  630   2.319   2.285   4.069
    1MOL    H69  631   1.860   2.896   4.111
    1MOL    H70  632   2.026   2.944   4.066
    1MOL    H71  633   1.992   2.775   4.113
    1MOL    H72  634   2.120   3.528   4.440
    1MOL    H73  635   2.237   3.501   4.307
    1MOL    H74  636   2.109   3.380   4.340
    1MOL    H75  637   2.526   3.166   4.116
    1MOL    H76  638   2.596   3.001   4.108
    1MOL    H77  639   2.471   3.040   4.230
    1MOL    H78  640   3.171   2.982   3.965
    1MOL    H79  641   3.081   2.828   3.969
    1MOL    H80  642   3.010   2.975   4.042
    1MOL    H81  643   3.411   3.151   4.733
    1MOL    H82  644   3.248   3.081   4.745
    1MOL    H83  645   3.392   2.983   4.790
    1MOL    H84  646   3.630   2.693   4.746
    1MOL    H85  647   3.579   2.590   4.611
    1MOL    H86  648   3.660   2.746   4.579
    1MOL    H87  649   3.398   2.618   4.946
    1MOL    H88  650   3.258   2.666   4.847
    1MOL    H89  651   3.243   2.531   4.965
    1MOL    H90  652   3.216   2.149   5.046
    1MOL    H91  653   3.175   2.057   4.900
    1MOL    H92  654   3.344   2.113   4.927
    1MOL    H93  655   2.938   2.256   5.057
    1MOL    H94  656   2.947   2.342   4.901
    1MOL    H95  657   2.787   2.298   4.972
    1MOL    H96  658   2.555   2.015   5.045
    1MOL    H97  659   2.634   1.873   4.971
    1MOL    H98  660   2.733   2.007   5.035
    1MOL    H99  661   2.353   1.823   4.833
    1MOL   H100  662   2.368   1.999   4.852
    1MOL   H101  663   2.215   1.928   4.791
    1MOL   H102  664   1.932   1.944   4.598
    1MOL   H103  665   1.955   2.050   4.458
    1MOL   H104  666   2.024   1.884   4.458
    1MOL   H105  667   1.879   2.169   4.752
    1MOL   H106  668   2.043   2.235   4.768
    1MOL   H107  669   1.901   2.342   4.793
    1MOL   H108  670   1.672   2.623   4.719
    1MOL   H109  671   1.734   2.719   4.583
    1MOL   H110  672   1.652   2.562   4.552
    1MOL   H111  673   1.870   2.722   4.918
    1MOL   H112  674   2.020   2.662   4.845
    1MOL   H113  675   2.023   2.809   4.948
    1MOL   H114  676   2.065   3.189   5.000
    1MOL   H115  677   2.115   3.266   4.848
    1MOL   H116  678   1.945   3.215   4.870
    1MOL   H117  679   2.347   3.014   5.040
    1MOL   H118  680   2.331   2.949   4.875
    1MOL   H119  681   2.492   2.959   4.952
    1MOL   H120  682   2.756   3.243   5.057
    1MOL   H121  683   2.671   3.390   5.000
    1MOL   H122  684   2.577   3.245   5.048
    1MOL   H123  685   2.971   3.497   4.776
    1MOL   H124  686   2.937   3.327   4.822
    1MOL   H125  687   3.095   3.371   4.748
    1MOL   H126  688   3.365   3.352   4.515
    1MOL   H127  689   3.328   3.233   4.389
    1MOL   H128  690   3.256   3.398   4.381
    2SOL     OW  691   0.230   0.628   0.113
    2SOL    HW1  692   0.137   0.626   0.150
    2SOL    HW2  693   0.231   0.589   0.021
    3SOL     OW  694   0.225   0.275   0.996
    3SOL    HW1  695   0.260   0.258   1.088
    3SOL    HW2  696   0.137   0.230   0.984
    4SOL     OW  697   0.019   0.368   0.647
    4SOL    HW1  698  -0.063   0.411   0.686
    4SOL    HW2  699  -0.009   0.295   0.584
    5SOL     OW  700   0.569   1.275   1.165
    5SOL    HW1  701   0.476   1.268   1.128
    5SOL    HW2  702   0.580   1.364   1.209
    6SOL     OW  703   1.555   1.511   0.703
    6SOL    HW1  704   1.498   1.495   0.784
    6SOL    HW2  705   1.496   1.521   0.623
    7SOL     OW  706   1.135   0.703   0.717
    7SOL    HW1  707   1.192   0.781   0.692
    7SOL    HW2  708   1.075   0.729   0.793
    8SOL     OW  709   1.755   0.607   0.231
    8SOL    HW1  710   1.743   0.594   0.132
    8SOL    HW2  711   1.725   0.526   0.280
    9SOL     OW  712   0.768   1.144   1.023
    9SOL    HW1  713   0.690   1.161   1.083
    9SOL    HW2  714   0.802   1.231   0.987
   10SOL     OW  715   0.850   0.798   1.823
   10SOL    HW1  716   0.846   0.874   1.888
   10SOL    HW2  717   0.872   0.834   1.732
   11SOL     OW  718   0.685   1.012   0.665
   11SOL    HW1  719   0.754   0.996   0.735
   11SOL    HW2  720   0.612   1.069   0.703
   12SOL     OW  721   0.686   1.161   1.803
   12SOL    HW1  722   0.746   1.240   1.817
   12SOL    HW2  723   0.600   1.192   1.762
   13SOL     OW  724   0.335   1.435   1.061
   13SOL    HW1  725   0.257   1.404   1.008
   13SOL    HW2  726   0.393   1.493   1.004
   14SOL     OW  727   1.460   1.505   1.339
   14SOL    HW1  728   1.484   1.599   1.365
   14SOL    HW2  729   1.444   1.451   1.421
   15SOL     OW  730   0.438   0.392   1.499
   15SOL    HW1  731   0.520   0.336   1.508
   15SOL    HW2  732   0.357   0.334   1.503
   16SOL     OW  733   1.603   0.447   0.737
   16SOL    HW1  734   1.529   0.493   0.687
   16SOL    HW2  735   1.654   0.515   0.790
   17SOL     OW  736   0.231   1.713   0.483
   17SOL    HW1  737   0.265   1.790   0.537
   17SOL    HW2  738   0.275   1.713   0.393
   18SOL     OW  739   1.127   1.341   1.690
   18SOL    HW1  740   1.174   1.341   1.778
   18SOL    HW2  741   1.079   1.254   1.679
   19SOL     OW  742   0.230   1.434   0.538
   19SOL    HW1  743   0.204   1.530   0.538
   19SOL    HW2  744   0.159   1.380   0.583
   20SOL     OW  745   0.240   1.091   0.886
   20SOL    HW1  746   0.254   1.007   0.938
   20SOL    HW2  747   0.185   1.155   0.941
   21SOL     OW  748   0.620   1.786   1.439
   21SOL    HW1  749   0.528   1.769   1.474
   21SOL    HW2  750   0.648   1.878   1.465
   22SOL     OW  751   0.606   0.964   0.123
   22SOL    HW1  752   0.613   1.048   0.069
   22SOL    HW2  753   0.652   0.977   0.211
   23SOL     OW  754   1.594   0.114   1.480
   23SOL    HW1  755   1.576   0.181   1.408
   23SOL    HW2  756   1.591   0.160   1.569
   24SOL     OW  757   0.122   0.643   0.563
   24SOL    HW1  758   0.077   0.555   0.580
   24SOL    HW2  759   0.121   0.697   0.647
   25SOL     OW  760   1.842   1.767   0.359
   25SOL    HW1  761   1.896   1.738   0.439
   25SOL    HW2  762   1.872   1.857   0.330
   26SOL     OW  763   0.027   1.596   0.117
   26SOL    HW1  764   0.008   1.500   0.138
   26SOL    HW2  765  -0.006   1.654   0.192
   27SOL     OW  766   1.689   0.922   0.612
   27SOL    HW1  767   1.784   0.893   0.620
   27SOL    HW2  768   1.681   0.987   0.537
   28SOL     OW  769   1.641   1.108   0.432
   28SOL    HW1  770   1.727   1.110   0.380
   28SOL    HW2  771   1.655   1.155   0.520
   29SOL     OW  772   0.113   0.737   1.597
   29SOL    HW1  773   0.201   0.724   1.642
   29SOL    HW2  774   0.100   0.834   1.575
   30SOL     OW  775   0.613   1.365   0.726
   30SOL    HW1  776   0.564   1.278   0.735
   30SOL    HW2  777   0.590   1.408   0.639
   31SOL     OW  778   1.293   1.228   1.423
   31SOL    HW1  779   1.330   1.155   1.365
   31SOL    HW2  780   1.345   1.233   1.508
   32SOL     OW  781   0.809   0.004   0.502
   32SOL    HW1  782   0.849   0.095   0.493
   32SOL    HW2  783   0.709   0.012   0.508
   33SOL     OW  784   0.197   0.976   1.264
   33SOL    HW1  785   0.286   0.931   1.250
   33SOL    HW2  786   0.124   0.911   1.245
   34SOL     OW  787   1.525   0.999   0.190
   34SOL    HW1  788   1.462   0.923   0.203
   34SOL    HW2  789   1.573   1.017   0.276
   35SOL     OW  790   1.187   1.792   1.616
   35SOL    HW1  791   1.211   1.852   1.540
   35SOL    HW2  792   1.194   1.697   1.586
   36SOL     OW  793   0.317   0.251   1.801
   36SOL    HW1  794   0.388   0.322   1.807
   36SOL    HW2  795   0.229   0.290   1.829
   37SOL     OW  796   1.466   1.417   0.953
   37SOL    HW1  797   1.407   1.423   1.033
   37SOL    HW2  798   1.451   1.329   0.907
   38SOL     OW  799   1.667   1.714   0.572
   38SOL    HW1  800   1.626   1.691   0.484
   38SOL    HW2  801   1.649   1.640   0.637
   39SOL     OW  802   0.598   0.729   0.270
   39SOL    HW1  803   0.622   0.798   0.202
   39SOL    HW2  804   0.520   0.762   0.324
   40SOL     OW  805   1.281   0.345   0.944
   40SOL    HW1  806   1.195   0.295   0.931
   40SOL    HW2  807   1.343   0.291   1.000
   41SOL     OW  808   1.576   1.662   0.307
   41SOL    HW1  809   1.665   1.708   0.310
   41SOL    HW2  810   1.555   1.638   0.212
   42SOL     OW  811   0.807   0.605   1.465
   42SOL    HW1  812   0.760   0.602   1.554
   42SOL    HW2  813   0.756   0.550   1.399
   43SOL     OW  814   1.394   0.469   1.674
   43SOL    HW1  815   1.374   0.512   1.762
   43SOL    HW2  816   1.472   0.407   1.683
   44SOL     OW  817   0.973   0.890   1.572
   44SOL    HW1  818   1.019   0.806   1.543
   44SOL    HW2  819   0.917   0.924   1.497
   45SOL     OW  820   0.991   0.410   1.242
   45SOL    HW1  821   0.914   0.444   1.296
   45SOL    HW2  822   0.957   0.359   1.163
   46SOL     OW  823   1.041   0.701   0.429
   46SOL    HW1  824   1.067   0.697   0.525
   46SOL    HW2  825   0.956   0.650   0.415
   47SOL     OW  826   0.076   0.811   0.789
   47SOL    HW1  827   0.175   0.799   0.798
   47SOL    HW2  828   0.052   0.906   0.810
   48SOL     OW  829   0.130   1.821   1.571
   48SOL    HW1  830   0.120   1.806   1.670
   48SOL    HW2  831   0.044   1.857   1.535
   49SOL     OW  832   0.865   0.348   0.195
   49SOL    HW1  833   0.924   0.411   0.146
   49SOL    HW2  834   0.884   0.254   0.166
   50SOL     OW  835   1.719   0.585   1.831
   50SOL    HW1  836   1.693   0.674   1.795
   50SOL    HW2  837   1.717   0.517   1.758
   51SOL     OW  838   1.362   1.144   0.545
   51SOL    HW1  839   1.445   1.115   0.497
   51SOL    HW2  840   1.313   1.211   0.489
   52SOL     OW  841   0.550   0.196   0.885
   52SOL    HW1  842   0.545   0.191   0.985
   52SOL    HW2  843   0.552   0.292   0.856
   53SOL     OW  844   1.008   1.456   0.477
   53SOL    HW1  845   0.962   1.528   0.425
   53SOL    HW2  846   1.004   1.476   0.575
   54SOL     OW  847   0.351   1.801   0.853
   54SOL    HW1  848   0.401   1.715   0.859
   54SOL    HW2  849   0.416   1.878   0.850
   55SOL     OW  850   1.795   1.066   0.873
   55SOL    HW1  851   1.733   1.051   0.797
   55SOL    HW2  852   1.743   1.077   0.958
   56SOL     OW  853   1.227   1.550   1.506
   56SOL    HW1  854   1.233   1.473   1.570
   56SOL    HW2  855   1.175   1.524   1.426
   57SOL     OW  856   0.321   0.943   0.242
   57SOL    HW1  857   0.403   0.982   0.200
   57SOL    HW2  858   0.294   0.861   0.193
   58SOL     OW  859   1.458   0.735   0.728
   58SOL    HW1  860   1.453   0.670   0.803
   58SOL    HW2  861   1.538   0.794   0.741
   59SOL     OW  862   0.461   1.266   1.727
   59SOL    HW1  863   0.411   1.267   1.641
   59SOL    HW2  864   0.398   1.248   1.803
   60SOL     OW  865   1.111   1.776   0.237
   60SOL    HW1  866   1.051   1.714   0.287
   60SOL    HW2  867   1.142   1.732   0.152
   61SOL     OW  868   0.202   0.285   1.498
   61SOL    HW1  869   0.122   0.345   1.485
   61SOL    HW2  870   0.192   0.236   1.584
   62SOL     OW  871   1.632   1.377   0.081
   62SOL    HW1  872   1.600   1.471   0.071
   62SOL    HW2  873   1.556   1.314   0.069
   63SOL     OW  874   0.464   1.743   0.323
   63SOL    HW1  875   0.497   1.782   0.409
   63SOL    HW2  876   0.540   1.736   0.258
   64SOL     OW  877   1.400   0.107   0.426
   64SOL    HW1  878   1.376   0.070   0.336
   64SOL    HW2  879   1.499   0.123   0.430
   65SOL     OW  880   0.249   1.785   1.241
   65SOL    HW1  881   0.306   1.720   1.291
   65SOL    HW2  882   0.233   1.752   1.148
   66SOL     OW  883   0.940   1.698   0.904
   66SOL    HW1  884   1.020   1.641   0.925
   66SOL    HW2  885   0.891   1.658   0.827
   67SOL     OW  886   0.382   0.700   0.480
   67SOL    HW1  887   0.427   0.610   0.477
   67SOL    HW2  888   0.288   0.689   0.513
   68SOL     OW  889   1.547   0.222   1.729
   68SOL    HW1  890   1.542   0.259   1.821
   68SOL    HW2  891   1.475   0.153   1.717
   69SOL     OW  892   0.614   0.122   0.117
   69SOL    HW1  893   0.712   0.100   0.124
   69SOL    HW2  894   0.583   0.105   0.024
   70SOL     OW  895   0.781   0.264   1.749
   70SOL    HW1  896   0.848   0.203   1.792
   70SOL    HW2  897   0.708   0.283   1.814
   71SOL     OW  898   0.888   1.514   1.195
   71SOL    HW1  899   0.865   1.489   1.101
   71SOL    HW2  900   0.949   1.445   1.234
   72SOL     OW  901   1.351   0.590   1.433
   72SOL    HW1  902   1.379   0.547   1.518
   72SOL    HW2  903   1.376   0.686   1.434
   73SOL     OW  904   0.803   1.402   0.924
   73SOL    HW1  905   0.893   1.416   0.882
   73SOL    HW2  906   0.732   1.404   0.853
   74SOL     OW  907   0.922   0.503   0.899
   74SOL    HW1  908   0.897   0.494   0.803
   74SOL    HW2  909   0.970   0.421   0.930
   75SOL     OW  910   0.539   0.064   0.512
   75SOL    HW1  911   0.458   0.065   0.570
   75SOL    HW2  912   0.542   0.147   0.457
   76SOL     OW  913   1.434   1.188   0.041
   76SOL    HW1  914   1.466   1.112   0.098
   76SOL    HW2  915   1.342   1.215   0.071
   77SOL     OW  916   0.297   0.035   0.171
   77SOL    HW1  917   0.346   0.119   0.150
   77SOL    HW2  918   0.359  -0.030   0.216
   78SOL     OW  919   0.935   0.236   0.480
   78SOL    HW1  920   0.887   0.277   0.402
   78SOL    HW2  921   1.034   0.234   0.461
   79SOL     OW  922   1.076   0.683   1.464
   79SOL    HW1  923   0.996   0.622   1.467
   79SOL    HW2  924   1.157   0.630   1.440
   80SOL     OW  925   1.227   1.570   0.793
   80SOL    HW1  926   1.248   1.644   0.728
   80SOL    HW2  927   1.295   1.570   0.866
   81SOL     OW  928   0.459   1.152   0.741
   81SOL    HW1  929   0.388   1.125   0.806
   81SOL    HW2  930   0.433   1.124   0.648
   82SOL     OW  931   1.271   1.797   0.591
   82SOL    HW1  932   1.315   1.861   0.527
   82SOL    HW2  933   1.221   1.849   0.661
   83SOL     OW  934   1.032   0.549   0.016
   83SOL    HW1  935   0.991   0.631  -0.023
   83SOL    HW2  936   1.096   0.575   0.089
   84SOL     OW  937   0.078   0.556   1.386
   84SOL    HW1  938   0.170   0.555   1.345
   84SOL    HW2  939   0.072   0.630   1.453
   85SOL     OW  940   0.561   0.222   1.147
   85SOL    HW1  941   0.599   0.138   1.184
   85SOL    HW2  942   0.473   0.241   1.191
   86SOL     OW  943   0.866   0.454   0.642
   86SOL    HW1  944   0.834   0.526   0.580
   86SOL    HW2  945   0.890   0.373   0.589
   87SOL     OW  946   1.017   0.039   0.753
   87SOL    HW1  947   0.945   0.044   0.684
   87SOL    HW2  948   0.993  -0.030   0.822
   88SOL     OW  949   1.429   1.173   0.867
   88SOL    HW1  950   1.374   1.089   0.860
   88SOL    HW2  951   1.455   1.202   0.775
   89SOL     OW  952   1.466   0.590   0.992
   89SOL    HW1  953   1.436   0.495   0.999
   89SOL    HW2  954   1.539   0.606   1.058
   90SOL     OW  955   1.857   0.833   0.377
   90SOL    HW1  956   1.899   0.769   0.441
   90SOL    HW2  957   1.819   0.782   0.299
   91SOL     OW  958   0.488   1.385   0.174
   91SOL    HW1  959   0.401   1.370   0.221
   91SOL    HW2  960   0.471   1.411   0.079
   92SOL     OW  961   1.664   1.280   0.657
   92SOL    HW1  962   1.763   1.288   0.671
   92SOL    HW2  963   1.619   1.364   0.688
   93SOL     OW  964   1.390   0.575   0.078
   93SOL    HW1  965   1.336   0.554   0.159
   93SOL    HW2  966   1.481   0.534   0.087
   94SOL     OW  967   0.527   0.256   0.328
   94SOL    HW1  968   0.554   0.197   0.253
   94SOL    HW2  969   0.527   0.351   0.297
   95SOL     OW  970   1.754   1.223   1.588
   95SOL    HW1  971   1.845   1.184   1.575
   95SOL    HW2  972   1.762   1.319   1.612
   96SOL     OW  973   1.064   1.347   1.340
   96SOL    HW1  974   0.984   1.324   1.395
   96SOL    HW2  975   1.147   1.321   1.389
   97SOL     OW  976   1.592   1.629   1.625
   97SOL    HW1  977   1.619   1.663   1.535
   97SOL    HW2  978   1.671   1.591   1.671
   98SOL     OW  979   1.111   1.195   1.100
   98SOL    HW1  980   1.071   1.239   1.181
   98SOL    HW2  981   1.070   1.232   1.017
   99SOL     OW  982   1.638   1.099   1.079
   99SOL    HW1  983   1.643   1.180   1.138
   99SOL    HW2  984   1.552   1.101   1.028
  100SOL     OW  985   0.915   0.089   1.402
  100SOL    HW1  986   0.940   0.069   1.307
  100SOL    HW2  987   0.987   0.145   1.444
  101SOL     OW  988   0.980   1.116   1.719
  101SOL    HW1  989   0.881   1.122   1.729
  101SOL    HW2  990   1.003   1.036   1.663
  102SOL     OW  991   0.705   1.050   0.368
  102SOL    HW1  992   0.691   1.057   0.467
  102SOL    HW2  993   0.789   0.999   0.350
  103SOL     OW  994   0.410   0.813   1.251
  103SOL    HW1  995   0.496   0.825   1.301
  103SOL    HW2  996   0.368   0.726   1.278
  104SOL     OW  997   1.274   0.386   1.262
  104SOL    HW1  998   1.295   0.460   1.326
  104SOL    HW2  999   1.185   0.403   1.219
  105SOL     OW 1000   0.064   1.564   1.331
  105SOL    HW1 1001   0.018   1.646   1.297
  105SOL    HW2 1002   0.162   1.583   1.340
  106SOL     OW 1003   0.367   1.100   0.501
  106SOL    HW1 1004   0.360   1.183   0.445
  106SOL    HW2 1005   0.371   1.020   0.441
  107SOL     OW 1006   0.566   0.537   0.865
  107SOL    HW1 1007   0.578   0.603   0.791
  107SOL    HW2 1008   0.612   0.571   0.948
  108SOL     OW 1009   1.252   1.348   0.388
  108SOL    HW1 1010   1.302   1.425   0.428
  108SOL    HW2 1011   1.157   1.350   0.420
  109SOL     OW 1012   1.272   1.445   1.142
  109SOL    HW1 1013   1.319   1.458   1.229
  109SOL    HW2 1014   1.206   1.371   1.151
  110SOL     OW 1015   1.582   0.639   0.472
  110SOL    HW1 1016   1.551   0.700   0.545
  110SOL    HW2 1017   1.632   0.691   0.403
  111SOL     OW 1018   0.354   1.510   1.329
  111SOL    HW1 1019   0.333   1.466   1.242
  111SOL    HW2 1020   0.451   1.536   1.332
  112SOL     OW 1021   0.402   0.751   1.598
  112SOL    HW1 1022   0.470   0.806   1.551
  112SOL    HW2 1023   0.442   0.663   1.625
  113SOL     OW 1024   1.587   0.779   1.670
  113SOL    HW1 1025   1.495   0.817   1.665
  113SOL    HW2 1026   1.647   0.826   1.605
  114SOL     OW 1027   1.013   0.105   1.770
  114SOL    HW1 1028   1.019   0.190   1.718
  114SOL    HW2 1029   1.045   0.029   1.713
  115SOL     OW 1030   0.504   0.050   1.740
  115SOL    HW1 1031   0.462  -0.007   1.670
  115SOL    HW2 1032   0.438   0.119   1.772
  116SOL     OW 1033   0.573   0.870   1.029
  116SOL    HW1 1034   0.617   0.959   1.020
  116SOL    HW2 1035   0.510   0.870   1.106
  117SOL     OW 1036   1.360   0.862   1.045
  117SOL    HW1 1037   1.285   0.862   0.979
  117SOL    HW2 1038   1.397   0.770   1.054
  118SOL     OW 1039   1.209   0.525   0.275
  118SOL    HW1 1040   1.222   0.441   0.329
  118SOL    HW2 1041   1.180   0.599   0.335
  119SOL     OW 1042   0.307   0.213   1.231
  119SOL    HW1 1043   0.284   0.250   1.321
  119SOL    HW2 1044   0.277   0.118   1.225
  120SOL     OW 1045   0.037   1.310   1.282
  120SOL    HW1 1046   0.090   1.261   1.350
  120SOL    HW2 1047   0.059   1.408   1.287
  121SOL     OW 1048   0.732   0.634   1.064
  121SOL    HW1 1049   0.791   0.608   0.988
  121SOL    HW2 1050   0.704   0.730   1.053
  122SOL     OW 1051   1.728   0.935   1.854
  122SOL    HW1 1052   1.682   0.928   1.765
  122SOL    HW2 1053   1.666   0.979   1.920
  123SOL     OW 1054   0.307   0.063   0.618
  123SOL    HW1 1055   0.296   0.157   0.651
  123SOL    HW2 1056   0.302   0.000   0.695
  124SOL     OW 1057   1.622   0.367   0.374
  124SOL    HW1 1058   1.624   0.291   0.438
  124SOL    HW2 1059   1.574   0.444   0.414
  125SOL     OW 1060   1.023   0.766   0.966
  125SOL    HW1 1061   1.038   0.787   1.062
  125SOL    HW2 1062   0.993   0.671   0.957
  126SOL     OW 1063   0.980   1.573   1.700
  126SOL    HW1 1064   0.960   1.617   1.612
  126SOL    HW2 1065   1.019   1.482   1.684
  127SOL     OW 1066   1.859   1.518   1.605
  127SOL    HW1 1067   1.873   1.545   1.510
  127SOL    HW2 1068   1.942   1.540   1.658
  128SOL     OW 1069   0.350   0.898   1.804
  128SOL    HW1 1070   0.426   0.942   1.852
  128SOL    HW2 1071   0.385   0.851   1.722
  129SOL     OW 1072   1.540   0.274   0.125
  129SOL    HW1 1073   1.479   0.199   0.148
  129SOL    HW2 1074   1.562   0.326   0.208
  130SOL     OW 1075   1.303   0.838   0.042
  130SOL    HW1 1076   1.337   0.745   0.057
  130SOL    HW2 1077   1.321   0.865  -0.053
  131SOL     OW 1078   1.068   1.333   0.849
  131SOL    HW1 1079   1.075   1.249   0.794
  131SOL    HW2 1080   1.130   1.402   0.813
  132SOL     OW 1081   0.319   0.810   0.949
  132SOL    HW1 1082   0.412   0.846   0.954
  132SOL    HW2 1083   0.313   0.725   1.001
  133SOL     OW 1084   0.339   0.509   1.006
  133SOL    HW1 1085   0.287   0.426   0.989
  133SOL    HW2 1086   0.416   0.514   0.942
  134SOL     OW 1087   1.138   0.380   1.678
  134SOL    HW1 1088   1.093   0.443   1.742
  134SOL    HW2 1089   1.231   0.411   1.661
  135SOL     OW 1090   1.160   0.207   1.477
  135SOL    HW1 1091   1.160   0.271   1.554
  135SOL    HW2 1092   1.188   0.255   1.394
  136SOL     OW 1093   0.008   1.326   0.200
  136SOL    HW1 1094  -0.085   1.347   0.169
  136SOL    HW2 1095   0.018   1.227   0.213
  137SOL     OW 1096   0.088   1.801   0.927
  137SOL    HW1 1097   0.046   1.715   0.900
  137SOL    HW2 1098   0.182   1.804   0.893
  138SOL     OW 1099   0.504   1.568   0.910
  138SOL    HW1 1100   0.570   1.642   0.919
  138SOL    HW2 1101   0.548   1.489   0.868
  139SOL     OW 1102   1.002   0.796   1.238
  139SOL    HW1 1103   1.043   0.764   1.324
  139SOL    HW2 1104   0.906   0.769   1.235
  140SOL     OW 1105   0.040   0.544   1.114
  140SOL    HW1 1106   0.125   0.511   1.073
  140SOL    HW2 1107   0.053   0.559   1.212
  141SOL     OW 1108   0.189   0.520   1.722
  141SOL    HW1 1109   0.248   0.480   1.652
  141SOL    HW2 1110   0.131   0.591   1.681
  142SOL     OW 1111   1.369   0.950   1.660
  142SOL    HW1 1112   1.408   1.039   1.680
  142SOL    HW2 1113   1.379   0.930   1.563
  143SOL     OW 1114   0.815   0.572   0.325
  143SOL    HW1 1115   0.822   0.483   0.279
  143SOL    HW2 1116   0.721   0.606   0.317
  144SOL     OW 1117   1.657   0.604   1.206
  144SOL    HW1 1118   1.619   0.535   1.268
  144SOL    HW2 1119   1.739   0.568   1.162
  145SOL     OW 1120   0.252   1.564   1.744
  145SOL    HW1 1121   0.222   1.621   1.820
  145SOL    HW2 1122   0.245   1.467   1.770
  146SOL     OW 1123   0.671   0.464   1.269
  146SOL    HW1 1124   0.637   0.375   1.239
  146SOL    HW2 1125   0.697   0.518   1.189
  147SOL     OW 1126   0.930   1.678   1.465
  147SOL    HW1 1127   0.906   1.660   1.370
  147SOL    HW2 1128   0.960   1.772   1.475
  148SOL     OW 1129   0.473   0.500   0.191
  148SOL    HW1 1130   0.534   0.580   0.195
  148SOL    HW2 1131   0.378   0.531   0.198
  149SOL     OW 1132   0.159   1.137   1.466
  149SOL    HW1 1133   0.181   1.076   1.542
  149SOL    HW2 1134   0.169   1.088   1.380
  150SOL     OW 1135   1.347   1.059   1.234
  150SOL    HW1 1136   1.371   0.996   1.160
  150SOL    HW2 1137   1.257   1.099   1.216
  151SOL     OW 1138   1.302   0.855   0.309
  151SOL    HW1 1139   1.216   0.824   0.351
  151SOL    HW2 1140   1.298   0.841   0.210
  152SOL     OW 1141   1.759   1.747   1.154
  152SOL    HW1 1142   1.820   1.777   1.081
  152SOL    HW2 1143   1.721   1.658   1.132
  153SOL     OW 1144   1.252   1.731   1.128
  153SOL    HW1 1145   1.336   1.736   1.074
  153SOL    HW2 1146   1.229   1.635   1.146
  154SOL     OW 1147   0.083   1.258   1.022
  154SOL    HW1 1148   0.078   1.257   1.122
  154SOL    HW2 1149   0.000   1.217   0.984
  155SOL     OW 1150   0.688   1.662   1.716
  155SOL    HW1 1151   0.632   1.743   1.725
  155SOL    HW2 1152   0.740   1.666   1.630
  156SOL     OW 1153   0.903   0.086   0.133
  156SOL    HW1 1154   0.954   0.087   0.047
  156SOL    HW2 1155   0.959   0.044   0.204
  157SOL     OW 1156   1.726   0.135   0.523
  157SOL    HW1 1157   1.799   0.118   0.456
  157SOL    HW2 1158   1.695   0.048   0.561
  158SOL     OW 1159   1.388   1.573   0.477
  158SOL    HW1 1160   1.455   1.585   0.403
  158SOL    HW2 1161   1.348   1.662   0.500
  159SOL     OW 1162   0.130   1.794   1.851
  159SOL    HW1 1163   0.089   1.720   1.904
  159SOL    HW2 1164   0.194   1.845   1.909
  160SOL     OW 1165   1.280   0.927   0.672
  160SOL    HW1 1166   1.340   0.846   0.674
  160SOL    HW2 1167   1.320   0.996   0.612
  161SOL     OW 1168   0.830   1.273   1.422
  161SOL    HW1 1169   0.825   1.306   1.517
  161SOL    HW2 1170   0.744   1.292   1.376
  162SOL     OW 1171   0.672   1.616   0.154
  162SOL    HW1 1172   0.681   1.626   0.055
  162SOL    HW2 1173   0.632   1.527   0.175
  163SOL     OW 1174   1.650   1.720   1.394
  163SOL    HW1 1175   1.703   1.730   1.310
  163SOL    HW2 1176   1.623   1.810   1.428
  164SOL     OW 1177   1.841   0.175   0.963
  164SOL    HW1 1178   1.880   0.090   0.927
  164SOL    HW2 1179   1.743   0.177   0.944
  165SOL     OW 1180   0.263   0.326   0.720
  165SOL    HW1 1181   0.184   0.377   0.686
  165SOL    HW2 1182   0.254   0.311   0.818
  166SOL     OW 1183   1.194   1.612   0.031
  166SOL    HW1 1184   1.200   1.519   0.068
  166SOL    HW2 1185   1.135   1.612  -0.049
  167SOL     OW 1186   0.822   1.002   1.372
  167SOL    HW1 1187   0.862   1.001   1.280
  167SOL    HW2 1188   0.832   1.094   1.412
  168SOL     OW 1189   0.916   0.910   0.291
  168SOL    HW1 1190   0.979   0.948   0.223
  168SOL    HW2 1191   0.956   0.827   0.330
  169SOL     OW 1192   1.504   1.607   0.044
  169SOL    HW1 1193   1.412   1.644   0.051
  169SOL    HW2 1194   1.542   1.627  -0.046
  170SOL     OW 1195   0.372   1.288   1.490
  170SOL    HW1 1196   0.359   1.381   1.456
  170SOL    HW2 1197   0.288   1.236   1.477
  171SOL     OW 1198   1.614   1.292   1.289
  171SOL    HW1 1199   1.674   1.295   1.369
  171SOL    HW2 1200   1.539   1.356   1.302
  172SOL     OW 1201   1.039   1.098   0.696
  172SOL    HW1 1202   0.969   1.051   0.750
  172SOL    HW2 1203   1.098   1.030   0.653
  173SOL     OW 1204   1.014   0.236   0.971
  173SOL    HW1 1205   1.006   0.200   0.878
  173SOL    HW2 1206   1.012   0.160   1.036
  174SOL     OW 1207   0.590   1.487   0.491
  174SOL    HW1 1208   0.632   1.429   0.421
  174SOL    HW2 1209   0.546   1.566   0.447
  175SOL     OW 1210   1.709   0.385   1.381
  175SOL    HW1 1211   1.782   0.454   1.385
  175SOL    HW2 1212   1.737   0.310   1.322
  176SOL     OW 1213   0.255   1.348   0.290
  176SOL    HW1 1214   0.159   1.349   0.263
  176SOL    HW2 1215   0.267   1.401   0.374
  177SOL     OW 1216   0.105   1.013   1.726
  177SOL    HW1 1217   0.028   0.980   1.780
  177SOL    HW2 1218   0.190   0.983   1.768
  178SOL     OW 1219   0.672   0.203   1.489
  178SOL    HW1 1220   0.762   0.187   1.449
  178SOL    HW2 1221   0.680   0.208   1.588
  179SOL     OW 1222   0.075   0.345   0.033
  179SOL    HW1 1223  -0.017   0.317   0.004
  179SOL    HW2 1224   0.106   0.422  -0.023
  180SOL     OW 1225   1.440   0.856   1.398
  180SOL    HW1 1226   1.383   0.908   1.335
  180SOL    HW2 1227   1.536   0.868   1.374
  181SOL     OW 1228   0.072   0.166   0.318
  181SOL    HW1 1229   0.055   0.249   0.264
  181SOL    HW2 1230   0.162   0.129   0.296
  182SOL     OW 1231   1.183   1.335   0.119
  182SOL    HW1 1232   1.084   1.324   0.121
  182SOL    HW2 1233   1.217   1.350   0.212
  183SOL     OW 1234   0.613   0.842   1.431
  183SOL    HW1 1235   0.669   0.923   1.414
  183SOL    HW2 1236   0.672   0.762   1.434
  184SOL     OW 1237   1.493   1.767   0.959
  184SOL    HW1 1238   1.526   1.831   0.890
  184SOL    HW2 1239   1.559   1.761   1.034
  185SOL     OW 1240   0.716   0.565   1.708
  185SOL    HW1 1241   0.735   0.630   1.782
  185SOL    HW2 1242   0.776   0.485   1.717
  186SOL     OW 1243   1.450   1.220   1.633
  186SOL    HW1 1244   1.441   1.210   1.732
  186SOL    HW2 1245   1.546   1.213   1.607
  187SOL     OW 1246   0.390   1.741   1.560
  187SOL    HW1 1247   0.299   1.782   1.558
  187SOL    HW2 1248   0.383   1.647   1.592
  188SOL     OW 1249   1.674   0.883   1.254
  188SOL    HW1 1250   1.647   0.794   1.217
  188SOL    HW2 1251   1.675   0.951   1.181
  189SOL     OW 1252   1.225   0.325   0.449
  189SOL    HW1 1253   1.290   0.251   0.438
  189SOL    HW2 1254   1.245   0.375   0.533
  190SOL     OW 1255   0.594   0.745   0.652
  190SOL    HW1 1256   0.644   0.830   0.633
  190SOL    HW2 1257   0.506   0.747   0.604
  191SOL     OW 1258   1.777   0.342   1.642
  191SOL    HW1 1259   1.760   0.373   1.548
  191SOL    HW2 1260   1.693   0.305   1.680
  192SOL     OW 1261   1.730   0.934   1.517
  192SOL    HW1 1262   1.768   1.025   1.532
  192SOL    HW2 1263   1.722   0.917   1.418
  193SOL     OW 1264   0.859   1.374   0.016
  193SOL    HW1 1265   0.813   1.389   0.104
  193SOL    HW2 1266   0.903   1.459  -0.014
  194SOL     OW 1267   0.661   1.790   0.953
  194SOL    HW1 1268   0.615   1.878   0.940
  194SOL    HW2 1269   0.760   1.802   0.946
  195SOL     OW 1270   0.859   0.956   0.861
  195SOL    HW1 1271   0.913   0.887   0.909
  195SOL    HW2 1272   0.827   1.025   0.927
  196SOL     OW 1273   1.083   0.984   0.087
  196SOL    HW1 1274   1.060   1.037   0.005
  196SOL    HW2 1275   1.164   0.928   0.068
  197SOL     OW 1276   1.861   1.569   0.851
  197SOL    HW1 1277   1.790   1.557   0.781
  197SOL    HW2 1278   1.862   1.490   0.911
  198SOL     OW 1279   0.221   1.314   1.844
  198SOL    HW1 1280   0.156   1.241   1.823
  198SOL    HW2 1281   0.225   1.328   1.942
  199SOL     OW 1282   0.079   1.240   0.653
  199SOL    HW1 1283   0.078   1.193   0.741
  199SOL    HW2 1284   0.161   1.212   0.602
  200SOL     OW 1285   0.672   1.391   1.624
  200SOL    HW1 1286   0.594   1.341   1.662
  200SOL    HW2 1287   0.669   1.486   1.655
  201SOL     OW 1288   1.824   0.192   1.227
  201SOL    HW1 1289   1.820   0.102   1.271
  201SOL    HW2 1290   1.827   0.181   1.128
  202SOL     OW 1291   0.428   0.424   0.520
  202SOL    HW1 1292   0.458   0.352   0.458
  202SOL    HW2 1293   0.389   0.384   0.603
  203SOL     OW 1294   1.705   1.487   1.104
  203SOL    HW1 1295   1.612   1.462   1.077
  203SOL    HW2 1296   1.731   1.437   1.186
  204SOL     OW 1297   0.317   0.547   1.280
  204SOL    HW1 1298   0.355   0.488   1.352
  204SOL    HW2 1299   0.357   0.521   1.192
  205SOL     OW 1300   0.812   1.586   0.687
  205SOL    HW1 1301   0.844   1.596   0.593
  205SOL    HW2 1302   0.733   1.524   0.689
  206SOL     OW 1303   1.424   0.214   1.112
  206SOL    HW1 1304   1.476   0.149   1.167
  206SOL    HW2 1305   1.375   0.277   1.173
  207SOL     OW 1306   1.001   0.034   1.154
  207SOL    HW1 1307   0.938  -0.038   1.123
  207SOL    HW2 1308   1.094  -0.002   1.154
  208SOL     OW 1309   0.770   1.330   0.301
  208SOL    HW1 1310   0.724   1.243   0.318
  208SOL    HW2 1311   0.861   1.327   0.342
  209SOL     OW 1312   0.618   1.567   1.284
  209SOL    HW1 1313   0.613   1.649   1.341
  209SOL    HW2 1314   0.707   1.564   1.239
  210SOL     OW 1315   1.352   0.052   0.168
  210SOL    HW1 1316   1.387   0.011   0.084
  210SOL    HW2 1317   1.262   0.014   0.188
  211SOL     OW 1318   1.300   0.453   0.691
  211SOL    HW1 1319   1.241   0.533   0.695
  211SOL    HW2 1320   1.315   0.418   0.784
  212SOL     OW 1321   1.593   0.221   0.882
  212SOL    HW1 1322   1.509   0.220   0.936
  212SOL    HW2 1323   1.595   0.304   0.826
  213SOL     OW 1324   0.039   1.077   0.300
  213SOL    HW1 1325   0.138   1.066   0.291
  213SOL    HW2 1326  -0.001   0.991   0.332
  214SOL     OW 1327   0.875   1.646   0.337
  214SOL    HW1 1328   0.798   1.611   0.283
  214SOL    HW2 1329   0.843   1.717   0.399
  215SOL     OW 1330   0.230   0.628   1.975
  215SOL    HW1 1331   0.137   0.626   2.012
  215SOL    HW2 1332   0.231   0.589   1.883
  216SOL     OW 1333   0.225   0.275   2.858
  216SOL    HW1 1334   0.260   0.258   2.950
  216SOL    HW2 1335   0.137   0.230   2.846
  217SOL     OW 1336   0.019   0.368   2.509
  217SOL    HW1 1337  -0.063   0.411   2.548
  217SOL    HW2 1338  -0.009   0.295   2.446
  218SOL     OW 1339   0.569   1.275   3.027
  218SOL    HW1 1340   0.476   1.268   2.990
  218SOL    HW2 1341   0.580   1.364   3.071
  219SOL     OW 1342   1.555   1.511   2.565
  219SOL    HW1 1343   1.498   1.495   2.646
  219SOL    HW2 1344   1.496   1.521   2.485
  220SOL     OW 1345   1.135   0.703   2.579
  220SOL    HW1 1346   1.192   0.781   2.554
  220SOL    HW2 1347   1.075   0.729   2.655
  221SOL     OW 1348   1.755   0.607   2.093
  221SOL    HW1 1349   1.743   0.594   1.994
  221SOL    HW2 1350   1.725   0.526   2.142
  222SOL     OW 1351   0.768   1.144   2.885
  222SOL    HW1 1352   0.690   1.161   2.945
  222SOL    HW2 1353   0.802   1.231   2.849
  223SOL     OW 1354   0.850   0.798   3.685
  223SOL    HW1 1355   0.846   0.874   3.750
  223SOL    HW2 1356   0.872   0.834   3.594
  224SOL     OW 1357   0.685   1.012   2.527
  224SOL    HW1 1358   0.754   0.996   2.597
  224SOL    HW2 1359   0.612   1.069   2.565
  225SOL     OW 1360   0.686   1.161   3.665
  225SOL    HW1 1361   0.746   1.240   3.679
  225SOL    HW2 1362   0.600   1.192   3.624
  226SOL     OW 1363   0.335   1.435   2.923
  226SOL    HW1 1364   0.257   1.404   2.870
  226SOL    HW2 1365   0.393   1.493   2.866
  227SOL     OW 1366   1.460   1.505   3.201
  227SOL    HW1 1367   1.484   1.599   3.227
  227SOL    HW2 1368   1.444   1.451   3.283
  228SOL     OW 1369   0.438   0.392   3.361
  228SOL    HW1 1370   0.520   0.336   3.370
  228SOL    HW2 1371   0.357   0.334   3.365
  229SOL     OW 1372   1.603   0.447   2.599
  229SOL    HW1 1373   1.529   0.493   2.549
  229SOL    HW2 1374   1.654   0.515   2.652
  230SOL     OW 1375   0.231   1.713   2.345
  230SOL    HW1 1376   0.265   1.790   2.399
  230SOL    HW2 1377   0.275   1.713   2.255
  231SOL     OW 1378   1.127   1.341   3.552
  231SOL    HW1 1379   1.174   1.341   3.640
  231SOL    HW2 1380   1.079   1.254   3.541
  232SOL     OW 1381   0.230   1.434   2.400
  232SOL    HW1 1382   0.204   1.530   2.400
  232SOL    HW2 1383   0.159   1.380   2.445
  233SOL     OW 1384   0.240   1.091   2.748
  233SOL    HW1 1385   0.254   1.007   2.800
  233SOL    HW2 1386   0.185   1.155   2.803
  234SOL     OW 1387   0.620   1.786   3.301
  234SOL    HW1 1388   0.528   1.769   3.336
  234SOL    HW2 1389   0.648   1.878   3.327
  235SOL     OW 1390   0.606   0.964   1.985
  235SOL    HW1 1391   0.613   1.048   1.931
  235SOL    HW2 1392   0.652   0.977   2.073
  236SOL     OW 1393   1.594   0.114   3.342
  236SOL    HW1 1394   1.576   0.181   3.270
  236SOL    HW2 1395   1.591   0.160   3.431
  237SOL     OW 1396   0.122   0.643   2.425
  237SOL    HW1 1397   0.077   0.555   2.442
  237SOL    HW2 1398   0.121   0.697   2.509
  238SOL     OW 1399   1.842   1.767   2.221
  238SOL    HW1 1400   1.896   1.738   2.301
  238SOL    HW2 1401   1.872   1.857   2.192
  239SOL     OW 1402   0.027   1.596   1.979
  239SOL    HW1 1403   0.008   1.500   2.000
  239SOL    HW2 1404  -0.006   1.654   2.054
  240SOL     OW 1405   1.689   0.922   2.474
  240SOL    HW1 1406   1.784   0.893   2.482
  240SOL    HW2 1407   1.681   0.987   2.399
  241SOL     OW 1408   1.641   1.108   2.294
  241SOL    HW1 1409   1.727   1.110   2.242
  241SOL    HW2 1410   1.655   1.155   2.382
  242SOL     OW 1411   0.113   0.737   3.459
  242SOL    HW1 1412   0.201   0.724   3.504
  242SOL    HW2 1413   0.100   0.834   3.437
  243SOL     OW 1414   0.613   1.365   2.588
  243SOL    HW1 1415   0.564   1.278   2.597
  243SOL    HW2 1416   0.590   1.408   2.501
  244SOL     OW 1417   1.293   1.228   3.285
  244SOL    HW1 1418   1.330   1.155   3.227
  244SOL    HW2 1419   1.345   1.233   3.370
  245SOL     OW 1420   0.809   0.004   2.364
  245SOL    HW1 1421   0.849   0.095   2.355
  245SOL    HW2 1422   0.709   0.012   2.370
  246SOL     OW 1423   0.197   0.976   3.126
  246SOL    HW1 1424   0.286   0.931   3.112
  246SOL    HW2 1425   0.124   0.911   3.107
  247SOL     OW 1426   1.525   0.999   2.052
  247SOL    HW1 1427   1.462   0.923   2.065
  247SOL    HW2 1428   1.573   1.017   2.138
  248SOL     OW 1429   1.187   1.792   3.478
  248SOL    HW1 1430   1.211   1.852   3.402
  248SOL    HW2 1431   1.194   1.697   3.448
  249SOL     OW 1432   0.317   0.251   3.663
  249SOL    HW1 1433   0.388   0.322   3.669
  249SOL    HW2 1434   0.229   0.290   3.691
  250SOL     OW 1435   1.466   1.417   2.815
  250SOL    HW1 1436   1.407   1.423   2.895
  250SOL    HW2 1437   1.451   1.329   2.769
  251SOL     OW 1438   1.667   1.714   2.434
  251SOL    HW1 1439   1.626   1.691   2.346
  251SOL    HW2 1440   1.649   1.640   2.499
  252SOL     OW 1441   0.598   0.729   2.132
  252SOL    HW1 1442   0.622   0.798   2.064
  252SOL    HW2 1443   0.520   0.762   2.186
  253SOL     OW 1444   1.281   0.345   2.806
  253SOL    HW1 1445   1.195   0.295   2.793
  253SOL    HW2 1446   1.343   0.291   2.862
  254SOL     OW 1447   1.576   1.662   2.169
  254SOL    HW1 1448   1.665   1.708   2.172
  254SOL    HW2 1449   1.555   1.638   2.074
  255SOL     OW 1450   0.807   0.605   3.327
  255SOL    HW1 1451   0.760   0.602   3.416
  255SOL    HW2 1452   0.756   0.550   3.261
  256SOL     OW 1453   1.394   0.469   3.536
  256SOL    HW1 1454   1.374   0.512   3.624
  256SOL    HW2 1455   1.472   0.407   3.545
  257SOL     OW 1456   0.973   0.890   3.434
  257SOL    HW1 1457   1.019   0.806   3.405
  257SOL    HW2 1458   0.917   0.924   3.359
  258SOL     OW 1459   0.991   0.410   3.104
  258SOL    HW1 1460   0.914   0.444   3.158
  258SOL    HW2 1461   0.957   0.359   3.025
  259SOL     OW 1462   1.041   0.701   2.291
  259SOL    HW1 1463   1.067   0.697   2.387
  259SOL    HW2 1464   0.956   0.650   2.277
  260SOL     OW 1465   0.076   0.811   2.651
  260SOL    HW1 1466   0.175   0.799   2.660
  260SOL    HW2 1467   0.052   0.906   2.672
  261SOL     OW 1468   0.130   1.821   3.433
  261SOL    HW1 1469   0.120   1.806   3.532
  261SOL    HW2 1470   0.044   1.857   3.397
  262SOL     OW 1471   0.865   0.348   2.057
  262SOL    HW1 1472   0.924   0.411   2.008
  262SOL    HW2 1473   0.884   0.254   2.028
  263SOL     OW 1474   1.719   0.585   3.693
  263SOL    HW1 1475   1.693   0.674   3.657
  263SOL    HW2 1476   1.717   0.517   3.620
  264SOL     OW 1477   1.362   1.144   2.407
  264SOL    HW1 1478   1.445   1.115   2.359
  264SOL    HW2 1479   1.313   1.211   2.351
  265SOL     OW 1480   0.550   0.196   2.747
  265SOL    HW1 1481   0.545   0.191   2.847
  265SOL    HW2 1482   0.552   0.292   2.718
  266SOL     OW 1483   1.008   1.456   2.339
  266SOL    HW1 1484   0.962   1.528   2.287
  266SOL    HW2 1485   1.004   1.476   2.437
  267SOL     OW 1486   0.351   1.801   2.715
  267SOL    HW1 1487   0.401   1.715   2.721
  267SOL    HW2 1488   0.416   1.878   2.712
  268SOL     OW 1489   1.795   1.066   2.735
  268SOL    HW1 1490   1.733   1.051   2.659
  268SOL    HW2 1491   1.743   1.077   2.820
  269SOL     OW 1492   1.227   1.550   3.368
  269SOL    HW1 1493   1.233   1.473   3.432
  269SOL    HW2 1494   1.175   1.524   3.288
  270SOL     OW 1495   0.321   0.943   2.104
  270SOL    HW1 1496   0.403   0.982   2.062
  270SOL    HW2 1497   0.294   0.861   2.055
  271SOL     OW 1498   1.458   0.735   2.590
  271SOL    HW1 1499   1.453   0.670   2.665
  271SOL    HW2 1500   1.538   0.794   2.603
  272SOL     OW 1501   0.461   1.266   3.589
  272SOL    HW1 1502   0.411   1.267   3.503
  272SOL    HW2 1503   0.398   1.248   3.665
  273SOL     OW 1504   1.111   1.776   2.099
  273SOL    HW1 1505   1.051   1.714   2.149
  273SOL    HW2 1506   1.142   1.732   2.014
  274SOL     OW 1507   0.202   0.285   3.360
  274SOL    HW1 1508   0.122   0.345   3.347
  274SOL    HW2 1509   0.192   0.236   3.446
  275SOL     OW 1510   1.632   1.377   1.943
  275SOL    HW1 1511   1.600   1.471   1.933
  275SOL    HW2 1512   1.556   1.314   1.931
  276SOL     OW 1513   0.464   1.743   2.185
  276SOL    HW1 1514   0.497   1.782   2.271
  276SOL    HW2 1515   0.540   1.736   2.120
  277SOL     OW 1516   1.400   0.107   2.288
  277SOL    HW1 1517   1.376   0.070   2.198
  277SOL    HW2 1518   1.499   0.123   2.292
  278SOL     OW 1519   0.249   1.785   3.103
  278SOL    HW1 1520   0.306   1.720   3.153
  278SOL    HW2 1521   0.233   1.752   3.010
  279SOL     OW 1522   0.940   1.698   2.766
  279SOL    HW1 1523   1.020   1.641   2.787
  279SOL    HW2 1524   0.891   1.658   2.689
  280SOL     OW 1525   0.382   0.700   2.342
  280SOL    HW1 1526   0.427   0.610   2.339
  280SOL    HW2 1527   0.288   0.689   2.375
  281SOL     OW 1528   1.547   0.222   3.591
  281SOL    HW1 1529   1.542   0.259   3.683
  281SOL    HW2 1530   1.475   0.153   3.579
  282SOL     OW 1531   0.614   0.122   1.979
  282SOL    HW1 1532   0.712   0.100   1.986
  282SOL    HW2 1533   0.583   0.105   1.886
  283SOL     OW 1534   0.781   0.264   3.611
  283SOL    HW1 1535   0.848   0.203   3.654
  283SOL    HW2 1536   0.708   0.283   3.676
  284SOL     OW 1537   0.888   1.514   3.057
  284SOL    HW1 1538   0.865   1.489   2.963
  284SOL    HW2 1539   0.949   1.445   3.096
  285SOL     OW 1540   1.351   0.590   3.295
  285SOL    HW1 1541   1.379   0.547   3.380
  285SOL    HW2 1542   1.376   0.686   3.296
  286SOL     OW 1543   0.803   1.402   2.786
  286SOL    HW1 1544   0.893   1.416   2.744
  286SOL    HW2 1545   0.732   1.404   2.715
  287SOL     OW 1546   0.922   0.503   2.761
  287SOL    HW1 1547   0.897   0.494   2.665
  287SOL    HW2 1548   0.970   0.421   2.792
  288SOL     OW 1549   0.539   0.064   2.374
  288SOL    HW1 1550   0.458   0.065   2.432
  288SOL    HW2 1551   0.542   0.147   2.319
  289SOL     OW 1552   1.434   1.188   1.903
  289SOL    HW1 1553   1.466   1.112   1.960
  289SOL    HW2 1554   1.342   1.215   1.933
  290SOL     OW 1555   0.297   0.035   2.033
  290SOL    HW1 1556   0.346   0.119   2.012
  290SOL    HW2 1557   0.359  -0.030   2.078
  291SOL     OW 1558   0.935   0.236   2.342
  291SOL    HW1 1559   0.887   0.277   2.264
  291SOL    HW2 1560   1.034   0.234   2.323
  292SOL     OW 1561   1.076   0.683   3.326
  292SOL    HW1 1562   0.996   0.622   3.329
  292SOL    HW2 1563   1.157   0.630   3.302
  293SOL     OW 1564   1.227   1.570   2.655
  293SOL    HW1 1565   1.248   1.644   2.590
  293SOL    HW2 1566   1.295   1.570   2.728
  294SOL     OW 1567   0.459   1.152   2.603
  294SOL    HW1 1568   0.388   1.125   2.668
  294SOL    HW2 1569   0.433   1.124   2.510
  295SOL     OW 1570   1.271   1.797   2.453
  295SOL    HW1 1571   1.315   1.861   2.389
  295SOL    HW2 1572   1.221   1.849   2.523
  296SOL     OW 1573   1.032   0.549   1.878
  296SOL    HW1 1574   0.991   0.631   1.839
  296SOL    HW2 1575   1.096   0.575   1.951
  297SOL     OW 1576   0.078   0.556   3.248
  297SOL    HW1 1577   0.170   0.555   3.207
  297SOL    HW2 1578   0.072   0.630   3.315
  298SOL     OW 1579   0.561   0.222   3.009
  298SOL    HW1 1580   0.599   0.138   3.046
  298SOL    HW2 1581   0.473   0.241   3.053
  299SOL     OW 1582   0.866   0.454   2.504
  299SOL    HW1 1583   0.834   0.526   2.442
  299SOL    HW2 1584   0.890   0.373   2.451
  300SOL     OW 1585   1.017   0.039   2.615
  300SOL    HW1 1586   0.945   0.044   2.546
  300SOL    HW2 1587   0.993  -0.030   2.684
  301SOL     OW 1588   1.429   1.173   2.729
  301SOL    HW1 1589   1.374   1.089   2.722
  301SOL    HW2 1590   1.455   1.202   2.637
  302SOL     OW 1591   1.466   0.590   2.854
  302SOL    HW1 1592   1.436   0.495   2.861
  302SOL    HW2 1593   1.539   0.606   2.920
  303SOL     OW 1594   1.857   0.833   2.239
  303SOL    HW1 1595   1.899   0.769   2.303
  303SOL    HW2 1596   1.819   0.782   2.161
  304SOL     OW 1597   0.488   1.385   2.036
  304SOL    HW1 1598   0.401   1.370   2.083
  304SOL    HW2 1599   0.471   1.411   1.941
  305SOL     OW 1600   1.664   1.280   2.519
  305SOL    HW1 1601   1.763   1.288   2.533
  305SOL    HW2 1602   1.619   1.364   2.550
  306SOL     OW 1603   1.390   0.575   1.940
  306SOL    HW1 1604   1.336   0.554   2.021
  306SOL    HW2 1605   1.481   0.534   1.949
  307SOL     OW 1606   0.527   0.256   2.190
  307SOL    HW1 1607   0.554   0.197   2.115
  307SOL    HW2 1608   0.527   0.351   2.159
  308SOL     OW 1609   1.754   1.223   3.450
  308SOL    HW1 1610   1.845   1.184   3.437
  308SOL    HW2 1611   1.762   1.319   3.474
  309SOL     OW 1612   1.064   1.347   3.202
  309SOL    HW1 1613   0.984   1.324   3.257
  309SOL    HW2 1614   1.147   1.321   3.251
  310SOL     OW 1615   1.592   1.629   3.487
  310SOL    HW1 1616   1.619   1.663   3.397
  310SOL    HW2 1617   1.671   1.591   3.533
  311SOL     OW 1618   1.111   1.195   2.962
  311SOL    HW1 1619   1.071   1.239   3.043
  311SOL    HW2 1620   1.070   1.232   2.879
  312SOL     OW 1621   1.638   1.099   2.941
  312SOL    HW1 1622   1.643   1.180   3.000
  312SOL    HW2 1623   1.552   1.101   2.890
  313SOL     OW 1624   0.915   0.089   3.264
  313SOL    HW1 1625   0.940   0.069   3.169
  313SOL    HW2 1626   0.987   0.145   3.306
  314SOL     OW 1627   0.980   1.116   3.581
  314SOL    HW1 1628   0.881   1.122   3.591
  314SOL    HW2 1629   1.003   1.036   3.525
  315SOL     OW 1630   0.705   1.050   2.230
  315SOL    HW1 1631   0.691   1.057   2.329
  315SOL    HW2 1632   0.789   0.999   2.212
  316SOL     OW 1633   0.410   0.813   3.113
  316SOL    HW1 1634   0.496   0.825   3.163
  316SOL    HW2 1635   0.368   0.726   3.140
  317SOL     OW 1636   1.274   0.386   3.124
  317SOL    HW1 1637   1.295   0.460   3.188
  317SOL    HW2 1638   1.185   0.403   3.081
  318SOL     OW 1639   0.064   1.564   3.193
  318SOL    HW1 1640   0.018   1.646   3.159
  318SOL    HW2 1641   0.162   1.583   3.202
  319SOL     OW 1642   0.367   1.100   2.363
  319SOL    HW1 1643   0.360   1.183   2.307
  319SOL    HW2 1644   0.371   1.020   2.303
  320SOL     OW 1645   0.566   0.537   2.727
  320SOL    HW1 1646   0.578   0.603   2.653
  320SOL    HW2 1647   0.612   0.571   2.810
  321SOL     OW 1648   1.252   1.348   2.250
  321SOL    HW1 1649   1.302   1.425   2.290
  321SOL    HW2 1650   1.157   1.350   2.282
  322SOL     OW 1651   1.272   1.445   3.004
  322SOL    HW1 1652   1.319   1.458   3.091
  322SOL    HW2 1653   1.206   1.371   3.013
  323SOL     OW 1654   1.582   0.639   2.334
  323SOL    HW1 1655   1.551   0.700   2.407
  323SOL    HW2 1656   1.632   0.691   2.265
  324SOL     OW 1657   0.354   1.510   3.191
  324SOL    HW1 1658   0.333   1.466   3.104
  324SOL    HW2 1659   0.451   1.536   3.194
  325SOL     OW 1660   0.402   0.751   3.460
  325SOL    HW1 1661   0.470   0.806   3.413
  325SOL    HW2 1662   0.442   0.663   3.487
  326SOL     OW 1663   1.587   0.779   3.532
  326SOL    HW1 1664   1.495   0.817   3.527
  326SOL    HW2 1665   1.647   0.826   3.467
  327SOL     OW 1666   1.013   0.105   3.632
  327SOL    HW1 1667   1.019   0.190   3.580
  327SOL    HW2 1668   1.045   0.029   3.575
  328SOL     OW 1669   0.504   0.050   3.602
  328SOL    HW1 1670   0.462  -0.007   3.532
  328SOL    HW2 1671   0.438   0.119   3.634
  329SOL     OW 1672   0.573   0.870   2.891
  329SOL    HW1 1673   0.617   0.959   2.882
  329SOL    HW2 1674   0.510   0.870   2.968
  330SOL     OW 1675   1.360   0.862   2.907
  330SOL    HW1 1676   1.285   0.862   2.841
  330SOL    HW2 1677   1.397   0.770   2.916
  331SOL     OW 1678   1.209   0.525   2.137
  331SOL    HW1 1679   1.222   0.441   2.191
  331SOL    HW2 1680   1.180   0.599   2.197
  332SOL     OW 1681   0.307   0.213   3.093
  332SOL    HW1 1682   0.284   0.250   3.183
  332SOL    HW2 1683   0.277   0.118   3.087
  333SOL     OW 1684   0.037   1.310   3.144
  333SOL    HW1 1685   0.090   1.261   3.212
  333SOL    HW2 1686   0.059   1.408   3.149
  334SOL     OW 1687   0.732   0.634   2.926
  334SOL    HW1 1688   0.791   0.608   2.850
  334SOL    HW2 1689   0.704   0.730   2.915
  335SOL     OW 1690   1.728   0.935   3.716
  335SOL    HW1 1691   1.682   0.928   3.627
  335SOL    HW2 1692   1.666   0.979   3.782
  336SOL     OW 1693   0.307   0.063   2.480
  336SOL    HW1 1694   0.296   0.157   2.513
  336SOL    HW2 1695   0.302   0.000   2.557
  337SOL     OW 1696   1.622   0.367   2.236
  337SOL    HW1 1697   1.624   0.291   2.300
  337SOL    HW2 1698   1.574   0.444   2.276
  338SOL     OW 1699   1.023   0.766   2.828
  338SOL    HW1 1700   1.038   0.787   2.924
  338SOL    HW2 1701   0.993   0.671   2.819
  339SOL     OW 1702   0.980   1.573   3.562
  339SOL    HW1 1703   0.960   1.617   3.474
  339SOL    HW2 1704   1.019   1.482   3.546
  340SOL     OW 1705   1.859   1.518   3.467
  340SOL    HW1 1706   1.873   1.545   3.372
  340SOL    HW2 1707   1.942   1.540   3.520
  341SOL     OW 1708   0.350   0.898   3.666
  341SOL    HW1 1709   0.426   0.942   3.714
  341SOL    HW2 1710   0.385   0.851   3.584
  342SOL     OW 1711   1.540   0.274   1.987
  342SOL    HW1 1712   1.479   0.199   2.010
  342SOL    HW2 1713   1.562   0.326   2.070
  343SOL     OW 1714   1.303   0.838   1.904
  343SOL    HW1 1715   1.337   0.745   1.919
  343SOL    HW2 1716   1.321   0.865   1.809
  344SOL     OW 1717   1.068   1.333   2.711
  344SOL    HW1 1718   1.075   1.249   2.656
  344SOL    HW2 1719   1.130   1.402   2.675
  345SOL     OW 1720   0.319   0.810   2.811
  345SOL    HW1 1721   0.412   0.846   2.816
  345SOL    HW2 1722   0.313   0.725   2.863
  346SOL     OW 1723   0.339   0.509   2.868
  346SOL    HW1 1724   0.287   0.426   2.851
  346SOL    HW2 1725   0.416   0.514   2.804
  347SOL     OW 1726   1.138   0.380   3.540
  347SOL    HW1 1727   1.093   0.443   3.604
  347SOL    HW2 1728   1.231   0.411   3.523
  348SOL     OW 1729   1.160   0.207   3.339
  348SOL    HW1 1730   1.160   0.271   3.416
  348SOL    HW2 1731   1.188   0.255   3.256
  349SOL     OW 1732   0.008   1.326   2.062
  349SOL    HW1 1733  -0.085   1.347   2.031
  349SOL    HW2 1734   0.018   1.227   2.075
  350SOL     OW 1735   0.088   1.801   2.789
  350SOL    HW1 1736   0.046   1.715   2.762
  350SOL    HW2 1737   0.182   1.804   2.755
  351SOL     OW 1738   0.504   1.568   2.772
  351SOL    HW1 1739   0.570   1.642   2.781
  351SOL    HW2 1740   0.548   1.489   2.730
  352SOL     OW 1741   1.002   0.796   3.100
  352SOL    HW1 1742   1.043   0.764   3.186
  352SOL    HW2 1743   0.906   0.769   3.097
  353SOL     OW 1744   0.040   0.544   2.976
  353SOL    HW1 1745   0.125   0.511   2.935
  353SOL    HW2 1746   0.053   0.559   3.074
  354SOL     OW 1747   0.189   0.520   3.584
  354SOL    HW1 1748   0.248   0.480   3.514
  354SOL    HW2 1749   0.131   0.591   3.543
  355SOL     OW 1750   1.369   0.950   3.522
  355SOL    HW1 1751   1.408   1.039   3.542
  355SOL    HW2 1752   1.379   0.930   3.425
  356SOL     OW 1753   0.815   0.572   2.187
  356SOL    HW1 1754   0.822   0.483   2.141
  356SOL    HW2 1755   0.721   0.606   2.179
  357SOL     OW 1756   1.657   0.604   3.068
  357SOL    HW1 1757   1.619   0.535   3.130
  357SOL    HW2 1758   1.739   0.568   3.024
  358SOL     OW 1759   0.252   1.564   3.606
  358SOL    HW1 1760   0.222   1.621   3.682
  358SOL    HW2 1761   0.245   1.467   3.632
  359SOL     OW 1762   0.671   0.464   3.131
  359SOL    HW1 1763   0.637   0.375   3.101
  359SOL    HW2 1764   0.697   0.518   3.051
  360SOL     OW 1765   0.930   1.678   3.327
  360SOL    HW1 1766   0.906   1.660   3.232
  360SOL    HW2 1767   0.960   1.772   3.337
  361SOL     OW 1768   0.473   0.500   2.053
  361SOL    HW1 1769   0.534   0.580   2.057
  361SOL    HW2 1770   0.378   0.531   2.060
  362SOL     OW 1771   0.159   1.137   3.328
  362SOL    HW1 1772   0.181   1.076   3.404
  362SOL    HW2 1773   0.169   1.088   3.242
  363SOL     OW 1774   1.347   1.059   3.096
  363SOL    HW1 1775   1.371   0.996   3.022
  363SOL    HW2 1776   1.257   1.099   3.078
  364SOL     OW 1777   1.302   0.855   2.171
  364SOL    HW1 1778   1.216   0.824   2.213
  364SOL    HW2 1779   1.298   0.841   2.072
  365SOL     OW 1780   1.759   1.747   3.016
  365SOL    HW1 1781   1.820   1.777   2.943
  365SOL    HW2 1782   1.721   1.658   2.994
  366SOL     OW 1783   1.252   1.731   2.990
  366SOL    HW1 1784   1.336   1.736   2.936
  366SOL    HW2 1785   1.229   1.635   3.008
  367SOL     OW 1786   0.083   1.258   2.884
  367SOL    HW1 1787   0.078   1.257   2.984
  367SOL    HW2 1788   0.000   1.217   2.846
  368SOL     OW 1789   0.688   1.662   3.578
  368SOL    HW1 1790   0.632   1.743   3.587
  368SOL    HW2 1791   0.740   1.666   3.492
  369SOL     OW 1792   1.726   0.135   2.385
  369SOL    HW1 1793   1.799   0.118   2.318
  369SOL    HW2 1794   1.695   0.048   2.423
  370SOL     OW 1795   1.388   1.573   2.339
  370SOL    HW1 1796   1.455   1.585   2.265
  370SOL    HW2 1797   1.348   1.662   2.362
  371SOL     OW 1798   0.130   1.794   3.713
  371SOL    HW1 1799   0.089   1.720   3.766
  371SOL    HW2 1800   0.194   1.845   3.771
  372SOL     OW 1801   1.280   0.927   2.534
  372SOL    HW1 1802   1.340   0.846   2.536
  372SOL    HW2 1803   1.320   0.996   2.474
  373SOL     OW 1804   0.830   1.273   3.284
  373SOL    HW1 1805   0.825   1.306   3.379
  373SOL    HW2 1806   0.744   1.292   3.238
  374SOL     OW 1807   0.672   1.616   2.016
  374SOL    HW1 1808   0.681   1.626   1.917
  374SOL    HW2 1809   0.632   1.527   2.037
  375SOL     OW 1810   1.650   1.720   3.256
  375SOL    HW1 1811   1.703   1.730   3.172
  375SOL    HW2 1812   1.623   1.810   3.290
  376SOL     OW 1813   1.841   0.175   2.825
  376SOL    HW1 1814   1.880   0.090   2.789
  376SOL    HW2 1815   1.743   0.177   2.806
  377SOL     OW 1816   0.263   0.326   2.582
  377SOL    HW1 1817   0.184   0.377   2.548
  377SOL    HW2 1818   0.254   0.311   2.680
  378SOL     OW 1819   1.194   1.612   1.893
  378SOL    HW1 1820   1.200   1.519   1.930
  378SOL    HW2 1821   1.135   1.612   1.813
  379SOL     OW 1822   0.822   1.002   3.234
  379SOL    HW1 1823   0.862   1.001   3.142
  379SOL    HW2 1824   0.832   1.094   3.274
  380SOL     OW 1825   0.916   0.910   2.153
  380SOL    HW1 1826   0.979   0.948   2.085
  380SOL    HW2 1827   0.956   0.827   2.192
  381SOL     OW 1828   1.504   1.607   1.906
  381SOL    HW1 1829   1.412   1.644   1.913
  381SOL    HW2 1830   1.542   1.627   1.816
  382SOL     OW 1831   0.372   1.288   3.352
  382SOL    HW1 1832   0.359   1.381   3.318
  382SOL    HW2 1833   0.288   1.236   3.339
  383SOL     OW 1834   1.614   1.292   3.151
  383SOL    HW1 1835   1.674   1.295   3.231
  383SOL    HW2 1836   1.539   1.356   3.164
  384SOL     OW 1837   1.039   1.098   2.558
  384SOL    HW1 1838   0.969   1.051   2.612
  384SOL    HW2 1839   1.098   1.030   2.515
  385SOL     OW 1840   1.014   0.236   2.833
  385SOL    HW1 1841   1.006   0.200   2.740
  385SOL    HW2 1842   1.012   0.160   2.898
  386SOL     OW 1843   0.590   1.487   2.353
  386SOL    HW1 1844   0.632   1.429   2.283
  386SOL    HW2 1845   0.546   1.566   2.309
  387SOL     OW 1846   1.709   0.385   3.243
  387SOL    HW1 1847   1.782   0.454   3.247
  387SOL    HW2 1848   1.737   0.310   3.184
  388SOL     OW 1849   0.255   1.348   2.152
  388SOL    HW1 1850   0.159   1.349   2.125
  388SOL    HW2 1851   0.267   1.401   2.236
  389SOL     OW 1852   0.105   1.013   3.588
  389SOL    HW1 1853   0.028   0.980   3.642
  389SOL    HW2 1854   0.190   0.983   3.630
  390SOL     OW 1855   0.672   0.203   3.351
  390SOL    HW1 1856   0.762   0.187   3.311
  390SOL    HW2 1857   0.680   0.208   3.450
  391SOL     OW 1858   0.075   0.345   1.895
  391SOL    HW1 1859  -0.017   0.317   1.866
  391SOL    HW2 1860   0.106   0.422   1.839
  392SOL     OW 1861   1.440   0.856   3.260
  392SOL    HW1 1862   1.383   0.908   3.197
  392SOL    HW2 1863   1.536   0.868   3.236
  393SOL     OW 1864   0.072   0.166   2.180
  393SOL    HW1 1865   0.055   0.249   2.126
  393SOL    HW2 1866   0.162   0.129   2.158
  394SOL     OW 1867   1.183   1.335   1.981
  394SOL    HW1 1868   1.084   1.324   1.983
  394SOL    HW2 1869   1.217   1.350   2.074
  395SOL     OW 1870   0.613   0.842   3.293
  395SOL    HW1 1871   0.669   0.923   3.276
  395SOL    HW2 1872   0.672   0.762   3.296
  396SOL     OW 1873   1.493   1.767   2.821
  396SOL    HW1 1874   1.526   1.831   2.752
  396SOL    HW2 1875   1.559   1.761   2.896
  397SOL     OW 1876   0.716   0.565   3.570
  397SOL    HW1 1877   0.735   0.630   3.644
  397SOL    HW2 1878   0.776   0.485   3.579
  398SOL     OW 1879   1.450   1.220   3.495
  398SOL    HW1 1880   1.441   1.210   3.594
  398SOL    HW2 1881   1.546   1.213   3.469
  399SOL     OW 1882   0.390   1.741   3.422
  399SOL    HW1 1883   0.299   1.782   3.420
  399SOL    HW2 1884   0.383   1.647   3.454
  400SOL     OW 1885   1.674   0.883   3.116
  400SOL    HW1 1886   1.647   0.794   3.079
  400SOL    HW2 1887   1.675   0.951   3.043
  401SOL     OW 1888   1.225   0.325   2.311
  401SOL    HW1 1889   1.290   0.251   2.300
  401SOL    HW2 1890   1.245   0.375   2.395
  402SOL     OW 1891   0.594   0.745   2.514
  402SOL    HW1 1892   0.644   0.830   2.495
  402SOL    HW2 1893   0.506   0.747   2.466
  403SOL     OW 1894   1.777   0.342   3.504
  403SOL    HW1 1895   1.760   0.373   3.410
  403SOL    HW2 1896   1.693   0.305   3.542
  404SOL     OW 1897   1.730   0.934   3.379
  404SOL    HW1 1898   1.768   1.025   3.394
  404SOL    HW2 1899   1.722   0.917   3.280
  405SOL     OW 1900   0.859   1.374   1.878
  405SOL    HW1 1901   0.813   1.389   1.966
  405SOL    HW2 1902   0.903   1.459   1.848
  406SOL     OW 1903   0.661   1.790   2.815
  406SOL    HW1 1904   0.615   1.878   2.802
  406SOL    HW2 1905   0.760   1.802   2.808
  407SOL     OW 1906   0.859   0.956   2.723
  407SOL    HW1 1907   0.913   0.887   2.771
  407SOL    HW2 1908   0.827   1.025   2.789
  408SOL     OW 1909   1.083   0.984   1.949
  408SOL    HW1 1910   1.060   1.037   1.867
  408SOL    HW2 1911   1.164   0.928   1.930
  409SOL     OW 1912   1.861   1.569   2.713
  409SOL    HW1 1913   1.790   1.557   2.643
  409SOL    HW2 1914   1.862   1.490   2.773
  410SOL     OW 1915   0.221   1.314   3.706
  410SOL    HW1 1916   0.156   1.241   3.685
  410SOL    HW2 1917   0.225   1.328   3.804
  411SOL     OW 1918   0.079   1.240   2.515
  411SOL    HW1 1919   0.078   1.193   2.603
  411SOL    HW2 1920   0.161   1.212   2.464
  412SOL     OW 1921   0.672   1.391   3.486
  412SOL    HW1 1922   0.594   1.341   3.524
  412SOL    HW2 1923   0.669   1.486   3.517
  413SOL     OW 1924   1.824   0.192   3.089
  413SOL    HW1 1925   1.820   0.102   3.133
  413SOL    HW2 1926   1.827   0.181   2.990
  414SOL     OW 1927   0.428   0.424   2.382
  414SOL    HW1 1928   0.458   0.352   2.320
  414SOL    HW2 1929   0.389   0.384   2.465
  415SOL     OW 1930   1.705   1.487   2.966
  415SOL    HW1 1931   1.612   1.462   2.939
  415SOL    HW2 1932   1.731   1.437   3.048
  416SOL     OW 1933   0.317   0.547   3.142
  416SOL    HW1 1934   0.355   0.488   3.214
  416SOL    HW2 1935   0.357   0.521   3.054
  417SOL     OW 1936   0.812   1.586   2.549
  417SOL    HW1 1937   0.844   1.596   2.455
  417SOL    HW2 1938   0.733   1.524   2.551
  418SOL     OW 1939   1.424   0.214   2.974
  418SOL    HW1 1940   1.476   0.149   3.029
  418SOL    HW2 1941   1.375   0.277   3.035
  419SOL     OW 1942   1.001   0.034   3.016
  419SOL    HW1 1943   0.938  -0.038   2.985
  419SOL    HW2 1944   1.094  -0.002   3.016
  420SOL     OW 1945   0.770   1.330   2.163
  420SOL    HW1 1946   0.724   1.243   2.180
  420SOL    HW2 1947   0.861   1.327   2.204
  421SOL     OW 1948   0.618   1.567   3.146
  421SOL    HW1 1949   0.613   1.649   3.203
  421SOL    HW2 1950   0.707   1.564   3.101
  422SOL     OW 1951   1.352   0.052   2.030
  422SOL    HW1 1952   1.387   0.011   1.946
  422SOL    HW2 1953   1.262   0.014   2.050
  423SOL     OW 1954   1.300   0.453   2.553
  423SOL    HW1 1955   1.241   0.533   2.557
  423SOL    HW2 1956   1.315   0.418   2.646
  424SOL     OW 1957   1.593   0.221   2.744
  424SOL    HW1 1958   1.509   0.220   2.798
  424SOL    HW2 1959   1.595   0.304   2.688
  425SOL     OW 1960   0.039   1.077   2.162
  425SOL    HW1 1961   0.138   1.066   2.153
  425SOL    HW2 1962  -0.001   0.991   2.194
  426SOL     OW 1963   0.875   1.646   2.199
  426SOL    HW1 1964   0.798   1.611   2.145
  426SOL    HW2 1965   0.843   1.717   2.261
  427SOL     OW 1966   0.230   0.628   3.837
  427SOL    HW1 1967   0.137   0.626   3.874
  427SOL    HW2 1968   0.231   0.589   3.745
  428SOL     OW 1969   0.225   0.275   4.720
  428SOL    HW1 1970   0.260   0.258   4.812
  428SOL    HW2 1971   0.137   0.230   4.708
  429SOL     OW 1972   0.019   0.368   4.371
  429SOL    HW1 1973  -0.063   0.411   4.410
  429SOL    HW2 1974  -0.009   0.295   4.308
  430SOL     OW 1975   0.569   1.275   4.889
  430SOL    HW1 1976   0.476   1.268   4.852
  430SOL    HW2 1977   0.580   1.364   4.933
  431SOL     OW 1978   1.555   1.511   4.427
  431SOL    HW1 1979   1.498   1.495   4.508
  431SOL    HW2 1980   1.496   1.521   4.347
  432SOL     OW 1981   1.135   0.703   4.441
  432SOL    HW1 1982   1.192   0.781   4.416
  432SOL    HW2 1983   1.075   0.729   4.517
  433SOL     OW 1984   1.755   0.607   3.955
  433SOL    HW1 1985   1.743   0.594   3.856
  433SOL    HW2 1986   1.725   0.526   4.004
  434SOL     OW 1987   0.768   1.144   4.747
  434SOL    HW1 1988   0.690   1.161   4.807
  434SOL    HW2 1989   0.802   1.231   4.711
  435SOL     OW 1990   0.850   0.798   5.547
  435SOL    HW1 1991   0.846   0.874   5.612
  435SOL    HW2 1992   0.872   0.834   5.456
  436SOL     OW 1993   0.685   1.012   4.389
  436SOL    HW1 1994   0.754   0.996   4.459
  436SOL    HW2 1995   0.612   1.069   4.427
  437SOL     OW 1996   0.686   1.161   5.527
  437SOL    HW1 1997   0.746   1.240   5.541
  437SOL    HW2 1998   0.600   1.192   5.486
  438SOL     OW 1999   0.335   1.435   4.785
  438SOL    HW1 2000   0.257   1.404   4.732
  438SOL    HW2 2001   0.393   1.493   4.728
  439SOL     OW 2002   1.460   1.505   5.063
  439SOL    HW1 2003   1.484   1.599   5.089
  439SOL    HW2 2004   1.444   1.451   5.145
  440SOL     OW 2005   0.438   0.392   5.223
  440SOL    HW1 2006   0.520   0.336   5.232
  440SOL    HW2 2007   0.357   0.334   5.227
  441SOL     OW 2008   1.603   0.447   4.461
  441SOL    HW1 2009   1.529   0.493   4.411
  441SOL    HW2 2010   1.654   0.515   4.514
  442SOL     OW 2011   0.231   1.713   4.207
  442SOL    HW1 2012   0.265   1.790   4.261
  442SOL    HW2 2013   0.275   1.713   4.117
  443SOL     OW 2014   1.127   1.341   5.414
  443SOL    HW1 2015   1.174   1.341   5.502
  443SOL    HW2 2016   1.079   1.254   5.403
  444SOL     OW 2017   0.230   1.434   4.262
  444SOL    HW1 2018   0.204   1.530   4.262
  444SOL    HW2 2019   0.159   1.380   4.307
  445SOL     OW 2020   0.240   1.091   4.610
  445SOL    HW1 2021   0.254   1.007   4.662
  445SOL    HW2 2022   0.185   1.155   4.665
  446SOL     OW 2023   0.620   1.786   5.163
  446SOL    HW1 2024   0.528   1.769   5.198
  446SOL    HW2 2025   0.648   1.878   5.189
  447SOL     OW 2026   0.606   0.964   3.847
  447SOL    HW1 2027   0.613   1.048   3.793
  447SOL    HW2 2028   0.652   0.977   3.935
  448SOL     OW 2029   1.594   0.114   5.204
  448SOL    HW1 2030   1.576   0.181   5.132
  448SOL    HW2 2031   1.591   0.160   5.293
  449SOL     OW 2032   0.122   0.643   4.287
  449SOL    HW1 2033   0.077   0.555   4.304
  449SOL    HW2 2034   0.121   0.697   4.371
  450SOL     OW 2035   1.842   1.767   4.083
  450SOL    HW1 2036   1.896   1.738   4.163
  450SOL    HW2 2037   1.872   1.857   4.054
  451SOL     OW 2038   0.027   1.596   3.841
  451SOL    HW1 2039   0.008   1.500   3.862
  451SOL    HW2 2040  -0.006   1.654   3.916
  452SOL     OW 2041   1.689   0.922   4.336
  452SOL    HW1 2042   1.784   0.893   4.344
  452SOL    HW2 2043   1.681   0.987   4.261
  453SOL     OW 2044   1.641   1.108   4.156
  453SOL    HW1 2045   1.727   1.110   4.104
  453SOL    HW2 2046   1.655   1.155   4.244
  454SOL     OW 2047   0.113   0.737   5.321
  454SOL    HW1 2048   0.201   0.724   5.366
  454SOL    HW2 2049   0.100   0.834   5.299
  455SOL     OW 2050   0.613   1.365   4.450
  455SOL    HW1 2051   0.564   1.278   4.459
  455SOL    HW2 2052   0.590   1.408   4.363
  456SOL     OW 2053   1.293   1.228   5.147
  456SOL    HW1 2054   1.330   1.155   5.089
  456SOL    HW2 2055   1.345   1.233   5.232
  457SOL     OW 2056   0.809   0.004   4.226
  457SOL    HW1 2057   0.849   0.095   4.217
  457SOL    HW2 2058   0.709   0.012   4.232
  458SOL     OW 2059   0.197   0.976   4.988
  458SOL    HW1 2060   0.286   0.931   4.974
  458SOL    HW2 2061   0.124   0.911   4.969
  459SOL     OW 2062   1.525   0.999   3.914
  459SOL    HW1 2063   1.462   0.923   3.927
  459SOL    HW2 2064   1.573   1.017   4.000
  460SOL     OW 2065   1.187   1.792   5.340
  460SOL    HW1 2066   1.211   1.852   5.264
  460SOL    HW2 2067   1.194   1.697   5.310
  461SOL     OW 2068   0.317   0.251   5.525
  461SOL    HW1 2069   0.388   0.322   5.531
  461SOL    HW2 2070   0.229   0.290   5.553
  462SOL     OW 2071   1.466   1.417   4.677
  462SOL    HW1 2072   1.407   1.423   4.757
  462SOL    HW2 2073   1.451   1.329   4.631
  463SOL     OW 2074   1.667   1.714   4.296
  463SOL    HW1 2075   1.626   1.691   4.208
  463SOL    HW2 2076   1.649   1.640   4.361
  464SOL     OW 2077   0.598   0.729   3.994
  464SOL    HW1 2078   0.622   0.798   3.926
  464SOL    HW2 2079   0.520   0.762   4.048
  465SOL     OW 2080   1.281   0.345   4.668
  465SOL    HW1 2081   1.195   0.295   4.655
  465SOL    HW2 2082   1.343   0.291   4.724
  466SOL     OW 2083   1.576   1.662   4.031
  466SOL    HW1 2084   1.665   1.708   4.034
  466SOL    HW2 2085   1.555   1.638   3.936
  467SOL     OW 2086   0.807   0.605   5.189
  467SOL    HW1 2087   0.760   0.602   5.278
  467SOL    HW2 2088   0.756   0.550   5.123
  468SOL     OW 2089   1.394   0.469   5.398
  468SOL    HW1 2090   1.374   0.512   5.486
  468SOL    HW2 2091   1.472   0.407   5.407
  469SOL     OW 2092   0.973   0.890   5.296
  469SOL    HW1 2093   1.019   0.806   5.267
  469SOL    HW2 2094   0.917   0.924   5.221
  470SOL     OW 2095   0.991   0.410   4.966
  470SOL    HW1 2096   0.914   0.444   5.020
  470SOL    HW2 2097   0.957   0.359   4.887
  471SOL     OW 2098   1.041   0.701   4.153
  471SOL    HW1 2099   1.067   0.697   4.249
  471SOL    HW2 2100   0.956   0.650   4.139
  472SOL     OW 2101   0.076   0.811   4.513
  472SOL    HW1 2102   0.175   0.799   4.522
  472SOL    HW2 2103   0.052   0.906   4.534
  473SOL     OW 2104   0.130   1.821   5.295
  473SOL    HW1 2105   0.120   1.806   5.394
  473SOL    HW2 2106   0.044   1.857   5.259
  474SOL     OW 2107   0.865   0.348   3.919
  474SOL    HW1 2108   0.924   0.411   3.870
  474SOL    HW2 2109   0.884   0.254   3.890
  475SOL     OW 2110   1.719   0.585   5.555
  475SOL    HW1 2111   1.693   0.674   5.519
  475SOL    HW2 2112   1.717   0.517   5.482
  476SOL     OW 2113   1.362   1.144   4.269
  476SOL    HW1 2114   1.445   1.115   4.221
  476SOL    HW2 2115   1.313   1.211   4.213
  477SOL     OW 2116   0.550   0.196   4.609
  477SOL    HW1 2117   0.545   0.191   4.709
  477SOL    HW2 2118   0.552   0.292   4.580
  478SOL     OW 2119   1.008   1.456   4.201
  478SOL    HW1 2120   0.962   1.528   4.149
  478SOL    HW2 2121   1.004   1.476   4.299
  479SOL     OW 2122   0.351   1.801   4.577
  479SOL    HW1 2123   0.401   1.715   4.583
  479SOL    HW2 2124   0.416   1.878   4.574
  480SOL     OW 2125   1.795   1.066   4.597
  480SOL    HW1 2126   1.733   1.051   4.521
  480SOL    HW2 2127   1.743   1.077   4.682
  481SOL     OW 2128   1.227   1.550   5.230
  481SOL    HW1 2129   1.233   1.473   5.294
  481SOL    HW2 2130   1.175   1.524   5.150
  482SOL     OW 2131   0.321   0.943   3.966
  482SOL    HW1 2132   0.403   0.982   3.924
  482SOL    HW2 2133   0.294   0.861   3.917
  483SOL     OW 2134   1.458   0.735   4.452
  483SOL    HW1 2135   1.453   0.670   4.527
  483SOL    HW2 2136   1.538   0.794   4.465
  484SOL     OW 2137   0.461   1.266   5.451
  484SOL    HW1 2138   0.411   1.267   5.365
  484SOL    HW2 2139   0.398   1.248   5.527
  485SOL     OW 2140   1.111   1.776   3.961
  485SOL    HW1 2141   1.051   1.714   4.011
  485SOL    HW2 2142   1.142   1.732   3.876
  486SOL     OW 2143   0.202   0.285   5.222
  486SOL    HW1 2144   0.122   0.345   5.209
  486SOL    HW2 2145   0.192   0.236   5.308
  487SOL     OW 2146   1.632   1.377   3.805
  487SOL    HW1 2147   1.600   1.471   3.795
  487SOL    HW2 2148   1.556   1.314   3.793
  488SOL     OW 2149   0.464   1.743   4.047
  488SOL    HW1 2150   0.497   1.782   4.133
  488SOL    HW2 2151   0.540   1.736   3.982
  489SOL     OW 2152   1.400   0.107   4.150
  489SOL    HW1 2153   1.376   0.070   4.060
  489SOL    HW2 2154   1.499   0.123   4.154
  490SOL     OW 2155   0.249   1.785   4.965
  490SOL    HW1 2156   0.306   1.720   5.015
  490SOL    HW2 2157   0.233   1.752   4.872
  491SOL     OW 2158   0.940   1.698   4.628
  491SOL    HW1 2159   1.020   1.641   4.649
  491SOL    HW2 2160   0.891   1.658   4.551
  492SOL     OW 2161   0.382   0.700   4.204
  492SOL    HW1 2162   0.427   0.610   4.201
  492SOL    HW2 2163   0.288   0.689   4.237
  493SOL     OW 2164   1.547   0.222   5.453
  493SOL    HW1 2165   1.542   0.259   5.545
  493SOL    HW2 2166   1.475   0.153   5.441
  494SOL     OW 2167   0.614   0.122   3.841
  494SOL    HW1 2168   0.712   0.100   3.848
  494SOL    HW2 2169   0.583   0.105   3.748
  495SOL     OW 2170   0.781   0.264   5.473
  495SOL    HW1 2171   0.848   0.203   5.516
  495SOL    HW2 2172   0.708   0.283   5.538
  496SOL     OW 2173   0.888   1.514   4.919
  496SOL    HW1 2174   0.865   1.489   4.825
  496SOL    HW2 2175   0.949   1.445   4.958
  497SOL     OW 2176   1.351   0.590   5.157
  497SOL    HW1 2177   1.379   0.547   5.242
  497SOL    HW2 2178   1.376   0.686   5.158
  498SOL     OW 2179   0.803   1.402   4.648
  498SOL    HW1 2180   0.893   1.416   4.606
  498SOL    HW2 2181   0.732   1.404   4.577
  499SOL     OW 2182   0.922   0.503   4.623
  499SOL    HW1 2183   0.897   0.494   4.527
  499SOL    HW2 2184   0.970   0.421   4.654
  500SOL     OW 2185   0.539   0.064   4.236
  500SOL    HW1 2186   0.458   0.065   4.294
  500SOL    HW2 2187   0.542   0.147   4.181
  501SOL     OW 2188   1.434   1.188   3.765
  501SOL    HW1 2189   1.466   1.112   3.822
  501SOL    HW2 2190   1.342   1.215   3.795
  502SOL     OW 2191   0.297   0.035   3.895
  502SOL    HW1 2192   0.346   0.119   3.874
  502SOL    HW2 2193   0.359  -0.030   3.940
  503SOL     OW 2194   0.935   0.236   4.204
  503SOL    HW1 2195   0.887   0.277   4.126
  503SOL    HW2 2196   1.034   0.234   4.185
  504SOL     OW 2197   1.076   0.683   5.188
  504SOL    HW1 2198   0.996   0.622   5.191
  504SOL    HW2 2199   1.157   0.630   5.164
  505SOL     OW 2200   1.227   1.570   4.517
  505SOL    HW1 2201   1.248   1.644   4.452
  505SOL    HW2 2202   1.295   1.570   4.590
  506SOL     OW 2203   0.459   1.152   4.465
  506SOL    HW1 2204   0.388   1.125   4.530
  506SOL    HW2 2205   0.433   1.124   4.372
  507SOL     OW 2206   1.271   1.797   4.315
  507SOL    HW1 2207   1.315   1.861   4.251
  507SOL    HW2 2208   1.221   1.849   4.385
  508SOL     OW 2209   1.032   0.549   3.740
  508SOL    HW1 2210   0.991   0.631   3.701
  508SOL    HW2 2211   1.096   0.575   3.813
  509SOL     OW 2212   0.078   0.556   5.110
  509SOL    HW1 2213   0.170   0.555   5.069
  509SOL    HW2 2214   0.072   0.630   5.177
  510SOL     OW 2215   0.561   0.222   4.871
  510SOL    HW1 2216   0.599   0.138   4.908
  510SOL    HW2 2217   0.473   0.241   4.915
  511SOL     OW 2218   0.866   0.454   4.366
  511SOL    HW1 2219   0.834   0.526   4.304
  511SOL    HW2 2220   0.890   0.373   4.313
  512SOL     OW 2221   1.017   0.039   4.477
  512SOL    HW1 2222   0.945   0.044   4.408
  512SOL    HW2 2223   0.993  -0.030   4.546
  513SOL     OW 2224   1.429   1.173   4.591
  513SOL    HW1 2225   1.374   1.089   4.584
  513SOL    HW2 2226   1.455   1.202   4.499
  514SOL     OW 2227   1.466   0.590   4.716
  514SOL    HW1 2228   1.436   0.495   4.723
  514SOL    HW2 2229   1.539   0.606   4.782
  515SOL     OW 2230   1.857   0.833   4.101
  515SOL    HW1 2231   1.899   0.769   4.165
  515SOL    HW2 2232   1.819   0.782   4.023
  516SOL     OW 2233   0.488   1.385   3.898
  516SOL    HW1 2234   0.401   1.370   3.945
  516SOL    HW2 2235   0.471   1.411   3.803
  517SOL     OW 2236   1.664   1.280   4.381
  517SOL    HW1 2237   1.763   1.288   4.395
  517SOL    HW2 2238   1.619   1.364   4.412
  518SOL     OW 2239   1.390   0.575   3.802
  518SOL    HW1 2240   1.336   0.554   3.883
  518SOL    HW2 2241   1.481   0.534   3.811
  519SOL     OW 2242   0.527   0.256   4.052
  519SOL    HW1 2243   0.554   0.197   3.977
  519SOL    HW2 2244   0.527   0.351   4.021
  520SOL     OW 2245   1.754   1.223   5.312
  520SOL    HW1 2246   1.845   1.184   5.299
  520SOL    HW2 2247   1.762   1.319   5.336
  521SOL     OW 2248   1.064   1.347   5.064
  521SOL    HW1 2249   0.984   1.324   5.119
  521SOL    HW2 2250   1.147   1.321   5.113
  522SOL     OW 2251   1.592   1.629   5.349
  522SOL    HW1 2252   1.619   1.663   5.259
  522SOL    HW2 2253   1.671   1.591   5.395
  523SOL     OW 2254   1.111   1.195   4.824
  523SOL    HW1 2255   1.071   1.239   4.905
  523SOL    HW2 2256   1.070   1.232   4.741
  524SOL     OW 2257   1.638   1.099   4.803
  524SOL    HW1 2258   1.643   1.180   4.862
  524SOL    HW2 2259   1.552   1.101   4.752
  525SOL     OW 2260   0.915   0.089   5.126
  525SOL    HW1 2261   0.940   0.069   5.031
  525SOL    HW2 2262   0.987   0.145   5.168
  526SOL     OW 2263   0.980   1.116   5.443
  526SOL    HW1 2264   0.881   1.122   5.453
  526SOL    HW2 2265   1.003   1.036   5.387
  527SOL     OW 2266   0.705   1.050   4.092
  527SOL    HW1 2267   0.691   1.057   4.191
  527SOL    HW2 2268   0.789   0.999   4.074
  528SOL     OW 2269   0.410   0.813   4.975
  528SOL    HW1 2270   0.496   0.825   5.025
  528SOL    HW2 2271   0.368   0.726   5.002
  529SOL     OW 2272   1.274   0.386   4.986
  529SOL    HW1 2273   1.295   0.460   5.050
  529SOL    HW2 2274   1.185   0.403   4.943
  530SOL     OW 2275   0.064   1.564   5.055
  530SOL    HW1 2276   0.018   1.646   5.021
  530SOL    HW2 2277   0.162   1.583   5.064
  531SOL     OW 2278   0.367   1.100   4.225
  531SOL    HW1 2279   0.360   1.183   4.169
  531SOL    HW2 2280   0.371   1.020   4.165
  532SOL     OW 2281   0.566   0.537   4.589
  532SOL    HW1 2282   0.578   0.603   4.515
  532SOL    HW2 2283   0.612   0.571   4.672
  533SOL     OW 2284   1.252   1.348   4.112
  533SOL    HW1 2285   1.302   1.425   4.152
  533SOL    HW2 2286   1.157   1.350   4.144
  534SOL     OW 2287   1.272   1.445   4.866
  534SOL    HW1 2288   1.319   1.458   4.953
  534SOL    HW2 2289   1.206   1.371   4.875
  535SOL     OW 2290   1.582   0.639   4.196
  535SOL    HW1 2291   1.551   0.700   4.269
  535SOL    HW2 2292   1.632   0.691   4.127
  536SOL     OW 2293   0.354   1.510   5.053
  536SOL    HW1 2294   0.333   1.466   4.966
  536SOL    HW2 2295   0.451   1.536   5.056
  537SOL     OW 2296   0.402   0.751   5.322
  537SOL    HW1 2297   0.470   0.806   5.275
  537SOL    HW2 2298   0.442   0.663   5.349
  538SOL     OW 2299   1.587   0.779   5.394
  538SOL    HW1 2300   1.495   0.817   5.389
  538SOL    HW2 2301   1.647   0.826   5.329
  539SOL     OW 2302   1.013   0.105   5.494
  539SOL    HW1 2303   1.019   0.190   5.442
  539SOL    HW2 2304   1.045   0.029   5.437
  540SOL     OW 2305   0.504   0.050   5.464
  540SOL    HW1 2306   0.462  -0.007   5.394
  540SOL    HW2 2307   0.438   0.119   5.496
  541SOL     OW 2308   0.573   0.870   4.753
  541SOL    HW1 2309   0.617   0.959   4.744
  541SOL    HW2 2310   0.510   0.870   4.830
  542SOL     OW 2311   1.360   0.862   4.769
  542SOL    HW1 2312   1.285   0.862   4.703
  542SOL    HW2 2313   1.397   0.770   4.778
  543SOL     OW 2314   1.209   0.525   3.999
  543SOL    HW1 2315   1.222   0.441   4.053
  543SOL    HW2 2316   1.180   0.599   4.059
  544SOL     OW 2317   0.307   0.213   4.955
  544SOL    HW1 2318   0.284   0.250   5.045
  544SOL    HW2 2319   0.277   0.118   4.949
  545SOL     OW 2320   0.037   1.310   5.006
  545SOL    HW1 2321   0.090   1.261   5.074
  545SOL    HW2 2322   0.059   1.408   5.011
  546SOL     OW 2323   0.732   0.634   4.788
  546SOL    HW1 2324   0.791   0.608   4.712
  546SOL    HW2 2325   0.704   0.730   4.777
  547SOL     OW 2326   1.728   0.935   5.578
  547SOL    HW1 2327   1.682   0.928   5.489
  547SOL    HW2 2328   1.666   0.979   5.644
  548SOL     OW 2329   0.307   0.063   4.342
  548SOL    HW1 2330   0.296   0.157   4.375
  548SOL    HW2 2331   0.302   0.000   4.419
  549SOL     OW 2332   1.622   0.367   4.098
  549SOL    HW1 2333   1.624   0.291   4.162
  549SOL    HW2 2334   1.574   0.444   4.138
  550SOL     OW 2335   1.023   0.766   4.690
  550SOL    HW1 2336   1.038   0.787   4.786
  550SOL    HW2 2337   0.993   0.671   4.681
  551SOL     OW 2338   0.980   1.573   5.424
  551SOL    HW1 2339   0.960   1.617   5.336
  551SOL    HW2 2340   1.019   1.482   5.408
  552SOL     OW 2341   1.859   1.518   5.329
  552SOL    HW1 2342   1.873   1.545   5.234
  552SOL    HW2 2343   1.942   1.540   5.382
  553SOL     OW 2344   0.350   0.898   5.528
  553SOL    HW1 2345   0.426   0.942   5.576
  553SOL    HW2 2346   0.385   0.851   5.446
  554SOL     OW 2347   1.540   0.274   3.849
  554SOL    HW1 2348   1.479   0.199   3.872
  554SOL    HW2 2349   1.562   0.326   3.932
  555SOL     OW 2350   1.303   0.838   3.766
  555SOL    HW1 2351   1.337   0.745   3.781
  555SOL    HW2 2352   1.321   0.865   3.671
  556SOL     OW 2353   1.068   1.333   4.573
  556SOL    HW1 2354   1.075   1.249   4.518
  556SOL    HW2 2355   1.130   1.402   4.537
  557SOL     OW 2356   0.319   0.810   4.673
  557SOL    HW1 2357   0.412   0.846   4.678
  557SOL    HW2 2358   0.313   0.725   4.725
  558SOL     OW 2359   0.339   0.509   4.730
  558SOL    HW1 2360   0.287   0.426   4.713
  558SOL    HW2 2361   0.416   0.514   4.666
  559SOL     OW 2362   1.138   0.380   5.402
  559SOL    HW1 2363   1.093   0.443   5.466
  559SOL    HW2 2364   1.231   0.411   5.385
  560SOL     OW 2365   1.160   0.207   5.201
  560SOL    HW1 2366   1.160   0.271   5.278
  560SOL    HW2 2367   1.188   0.255   5.118
  561SOL     OW 2368   0.008   1.326   3.924
  561SOL    HW1 2369  -0.085   1.347   3.893
  561SOL    HW2 2370   0.018   1.227   3.937
  562SOL     OW 2371   0.088   1.801   4.651
  562SOL    HW1 2372   0.046   1.715   4.624
  562SOL    HW2 2373   0.182   1.804   4.617
  563SOL     OW 2374   0.504   1.568   4.634
  563SOL    HW1 2375   0.570   1.642   4.643
  563SOL    HW2 2376   0.548   1.489   4.592
  564SOL     OW 2377   1.002   0.796   4.962
  564SOL    HW1 2378   1.043   0.764   5.048
  564SOL    HW2 2379   0.906   0.769   4.959
  565SOL     OW 2380   0.040   0.544   4.838
  565SOL    HW1 2381   0.125   0.511   4.797
  565SOL    HW2 2382   0.053   0.559   4.936
  566SOL     OW 2383   0.189   0.520   5.446
  566SOL    HW1 2384   0.248   0.480   5.376
  566SOL    HW2 2385   0.131   0.591   5.405
  567SOL     OW 2386   1.369   0.950   5.384
  567SOL    HW1 2387   1.408   1.039   5.404
  567SOL    HW2 2388   1.379   0.930   5.287
  568SOL     OW 2389   0.815   0.572   4.049
  568SOL    HW1 2390   0.822   0.483   4.003
  568SOL    HW2 2391   0.721   0.606   4.041
  569SOL     OW 2392   1.657   0.604   4.930
  569SOL    HW1 2393   1.619   0.535   4.992
  569SOL    HW2 2394   1.739   0.568   4.886
  570SOL     OW 2395   0.252   1.564   5.468
  570SOL    HW1 2396   0.222   1.621   5.544
  570SOL    HW2 2397   0.245   1.467   5.494
  571SOL     OW 2398   0.671   0.464   4.993
  571SOL    HW1 2399   0.637   0.375   4.963
  571SOL    HW2 2400   0.697   0.518   4.913
  572SOL     OW 2401   0.930   1.678   5.189
  572SOL    HW1 2402   0.906   1.660   5.094
  572SOL    HW2 2403   0.960   1.772   5.199
  573SOL     OW 2404   0.473   0.500   3.915
  573SOL    HW1 2405   0.534   0.580   3.919
  573SOL    HW2 2406   0.378   0.531   3.922
  574SOL     OW 2407   0.159   1.137   5.190
  574SOL    HW1 2408   0.181   1.076   5.266
  574SOL    HW2 2409   0.169   1.088   5.104
  575SOL     OW 2410   1.347   1.059   4.958
  575SOL    HW1 2411   1.371   0.996   4.884
  575SOL    HW2 2412   1.257   1.099   4.940
  576SOL     OW 2413   1.302   0.855   4.033
  576SOL    HW1 2414   1.216   0.824   4.075
  576SOL    HW2 2415   1.298   0.841   3.934
  577SOL     OW 2416   1.759   1.747   4.878
  577SOL    HW1 2417   1.820   1.777   4.805
  577SOL    HW2 2418   1.721   1.658   4.856
  578SOL     OW 2419   1.252   1.731   4.852
  578SOL    HW1 2420   1.336   1.736   4.798
  578SOL    HW2 2421   1.229   1.635   4.870
  579SOL     OW 2422   0.083   1.258   4.746
  579SOL    HW1 2423   0.078   1.257   4.846
  579SOL    HW2 2424   0.000   1.217   4.708
  580SOL     OW 2425   0.688   1.662   5.440
  580SOL    HW1 2426   0.632   1.743   5.449
  580SOL    HW2 2427   0.740   1.666   5.354
  581SOL     OW 2428   1.726   0.135   4.247
  581SOL    HW1 2429   1.799   0.118   4.180
  581SOL    HW2 2430   1.695   0.048   4.285
  582SOL     OW 2431   1.388   1.573   4.201
  582SOL    HW1 2432   1.455   1.585   4.127
  582SOL    HW2 2433   1.348   1.662   4.224
  583SOL     OW 2434   0.130   1.794   5.575
  583SOL    HW1 2435   0.089   1.720   5.628
  583SOL    HW2 2436   0.194   1.845   5.633
  584SOL     OW 2437   1.280   0.927   4.396
  584SOL    HW1 2438   1.340   0.846   4.398
  584SOL    HW2 2439   1.320   0.996   4.336
  585SOL     OW 2440   0.830   1.273   5.146
  585SOL    HW1 2441   0.825   1.306   5.241
  585SOL    HW2 2442   0.744   1.292   5.100
  586SOL     OW 2443   0.672   1.616   3.878
  586SOL    HW1 2444   0.681   1.626   3.779
  586SOL    HW2 2445   0.632   1.527   3.899
  587SOL     OW 2446   1.650   1.720   5.118
  587SOL    HW1 2447   1.703   1.730   5.034
  587SOL    HW2 2448   1.623   1.810   5.152
  588SOL     OW 2449   1.841   0.175   4.687
  588SOL    HW1 2450   1.880   0.090   4.651
  588SOL    HW2 2451   1.743   0.177   4.668
  589SOL     OW 2452   0.263   0.326   4.444
  589SOL    HW1 2453   0.184   0.377   4.410
  589SOL    HW2 2454   0.254   0.311   4.542
  590SOL     OW 2455   1.194   1.612   3.755
  590SOL    HW1 2456   1.200   1.519   3.792
  590SOL    HW2 2457   1.135   1.612   3.675
  591SOL     OW 2458   0.822   1.002   5.096
  591SOL    HW1 2459   0.862   1.001   5.004
  591SOL    HW2 2460   0.832   1.094   5.136
  592SOL     OW 2461   0.916   0.910   4.015
  592SOL    HW1 2462   0.979   0.948   3.947
  592SOL    HW2 2463   0.956   0.827   4.054
  593SOL     OW 2464   1.504   1.607   3.768
  593SOL    HW1 2465   1.412   1.644   3.775
  593SOL    HW2 2466   1.542   1.627   3.678
  594SOL     OW 2467   0.372   1.288   5.214
  594SOL    HW1 2468   0.359   1.381   5.180
  594SOL    HW2 2469   0.288   1.236   5.201
  595SOL     OW 2470   1.614   1.292   5.013
  595SOL    HW1 2471   1.674   1.295   5.093
  595SOL    HW2 2472   1.539   1.356   5.026
  596SOL     OW 2473   1.039   1.098   4.420
  596SOL    HW1 2474   0.969   1.051   4.474
  596SOL    HW2 2475   1.098   1.030   4.377
  597SOL     OW 2476   1.014   0.236   4.695
  597SOL    HW1 2477   1.006   0.200   4.602
  597SOL    HW2 2478   1.012   0.160   4.760
  598SOL     OW 2479   0.590   1.487   4.215
  598SOL    HW1 2480   0.632   1.429   4.145
  598SOL    HW2 2481   0.546   1.566   4.171
  599SOL     OW 2482   1.709   0.385   5.105
  599SOL    HW1 2483   1.782   0.454   5.109
  599SOL    HW2 2484   1.737   0.310   5.046
  600SOL     OW 2485   0.255   1.348   4.014
  600SOL    HW1 2486   0.159   1.349   3.987
  600SOL    HW2 2487   0.267   1.401   4.098
  601SOL     OW 2488   0.105   1.013   5.450
  601SOL    HW1 2489   0.028   0.980   5.504
  601SOL    HW2 2490   0.190   0.983   5.492
  602SOL     OW 2491   0.672   0.203   5.213
  602SOL    HW1 2492   0.762   0.187   5.173
  602SOL    HW2 2493   0.680   0.208   5.312
  603SOL     OW 2494   0.075   0.345   3.757
  603SOL    HW1 2495  -0.017   0.317   3.728
  603SOL    HW2 2496   0.106   0.422   3.701
  604SOL     OW 2497   1.440   0.856   5.122
  604SOL    HW1 2498   1.383   0.908   5.059
  604SOL    HW2 2499   1.536   0.868   5.098
  605SOL     OW 2500   0.072   0.166   4.042
  605SOL    HW1 2501   0.055   0.249   3.988
  605SOL    HW2 2502   0.162   0.129   4.020
  606SOL     OW 2503   1.183   1.335   3.843
  606SOL    HW1 2504   1.084   1.324   3.845
  606SOL    HW2 2505   1.217   1.350   3.936
  607SOL     OW 2506   0.613   0.842   5.155
  607SOL    HW1 2507   0.669   0.923   5.138
  607SOL    HW2 2508   0.672   0.762   5.158
  608SOL     OW 2509   1.493   1.767   4.683
  608SOL    HW1 2510   1.526   1.831   4.614
  608SOL    HW2 2511   1.559   1.761   4.758
  609SOL     OW 2512   0.716   0.565   5.432
  609SOL    HW1 2513   0.735   0.630   5.506
  609SOL    HW2 2514   0.776   0.485   5.441
  610SOL     OW 2515   1.450   1.220   5.357
  610SOL    HW1 2516   1.441   1.210   5.456
  610SOL    HW2 2517   1.546   1.213   5.331
  611SOL     OW 2518   0.390   1.741   5.284
  611SOL    HW1 2519   0.299   1.782   5.282
  611SOL    HW2 2520   0.383   1.647   5.316
  612SOL     OW 2521   1.674   0.883   4.978
  612SOL    HW1 2522   1.647   0.794   4.941
  612SOL    HW2 2523   1.675   0.951   4.905
  613SOL     OW 2524   1.225   0.325   4.173
  613SOL    HW1 2525   1.290   0.251   4.162
  613SOL    HW2 2526   1.245   0.375   4.257
  614SOL     OW 2527   0.594   0.745   4.376
  614SOL    HW1 2528   0.644   0.830   4.357
  614SOL    HW2 2529   0.506   0.747   4.328
  615SOL     OW 2530   1.777   0.342   5.366
  615SOL    HW1 2531   1.760   0.373   5.272
  615SOL    HW2 2532   1.693   0.305   5.404
  616SOL     OW 2533   1.730   0.934   5.241
  616SOL    HW1 2534   1.768   1.025   5.256
  616SOL    HW2 2535   1.722   0.917   5.142
  617SOL     OW 2536   0.859   1.374   3.740
  617SOL    HW1 2537   0.813   1.389   3.828
  617SOL    HW2 2538   0.903   1.459   3.710
  618SOL     OW 2539   0.661   1.790   4.677
  618SOL    HW1 2540   0.615   1.878   4.664
  618SOL    HW2 2541   0.760   1.802   4.670
  619SOL     OW 2542   0.859   0.956   4.585
  619SOL    HW1 2543   0.913   0.887   4.633
  619SOL    HW2 2544   0.827   1.025   4.651
  620SOL     OW 2545   1.083   0.984   3.811
  620SOL    HW1 2546   1.060   1.037   3.729
  620SOL    HW2 2547   1.164   0.928   3.792
  621SOL     OW 2548   1.861   1.569   4.575
  621SOL    HW1 2549   1.790   1.557   4.505
  621SOL    HW2 2550   1.862   1.490   4.635
  622SOL     OW 2551   0.221   1.314   5.568
  622SOL    HW1 2552   0.156   1.241   5.547
  622SOL    HW2 2553   0.225   1.328   5.666
  623SOL     OW 2554   0.079   1.240   4.377
  623SOL    HW1 2555   0.078   1.193   4.465
  623SOL    HW2 2556   0.161   1.212   4.326
  624SOL     OW 2557   0.672   1.391   5.348
  624SOL    HW1 2558   0.594   1.341   5.386
  624SOL    HW2 2559   0.669   1.486   5.379
  625SOL     OW 2560   1.824   0.192   4.951
  625SOL    HW1 2561   1.820   0.102   4.995
  625SOL    HW2 2562   1.827   0.181   4.852
  626SOL     OW 2563   0.428   0.424   4.244
  626SOL    HW1 2564   0.458   0.352   4.182
  626SOL    HW2 2565   0.389   0.384   4.327
  627SOL     OW 2566   1.705   1.487   4.828
  627SOL    HW1 2567   1.612   1.462   4.801
  627SOL    HW2 2568   1.731   1.437   4.910
  628SOL     OW 2569   0.317   0.547   5.004
  628SOL    HW1 2570   0.355   0.488   5.076
  628SOL    HW2 2571   0.357   0.521   4.916
  629SOL     OW 2572   0.812   1.586   4.411
  629SOL    HW1 2573   0.844   1.596   4.317
  629SOL    HW2 2574   0.733   1.524   4.413
  630SOL     OW 2575   1.424   0.214   4.836
  630SOL    HW1 2576   1.476   0.149   4.891
  630SOL    HW2 2577   1.375   0.277   4.897
  631SOL     OW 2578   1.001   0.034   4.878
  631SOL    HW1 2579   0.938  -0.038   4.847
  631SOL    HW2 2580   1.094  -0.002   4.878
  632SOL     OW 2581   0.770   1.330   4.025
  632SOL    HW1 2582   0.724   1.243   4.042
  632SOL    HW2 2583   0.861   1.327   4.066
  633SOL     OW 2584   0.618   1.567   5.008
  633SOL    HW1 2585   0.613   1.649   5.065
  633SOL    HW2 2586   0.707   1.564   4.963
  634SOL     OW 2587   1.352   0.052   3.892
  634SOL    HW1 2588   1.387   0.011   3.808
  634SOL    HW2 2589   1.262   0.014   3.912
  635SOL     OW 2590   1.300   0.453   4.415
  635SOL    HW1 2591   1.241   0.533   4.419
  635SOL    HW2 2592   1.315   0.418   4.508
  636SOL     OW 2593   1.593   0.221   4.606
  636SOL    HW1 2594   1.509   0.220   4.660
  636SOL    HW2 2595   1.595   0.304   4.550
  637SOL     OW 2596   0.039   1.077   4.024
  637SOL    HW1 2597   0.138   1.066   4.015
  637SOL    HW2 2598  -0.001   0.991   4.056
  638SOL     OW 2599   0.875   1.646   4.061
  638SOL    HW1 2600   0.798   1.611   4.007
  638SOL    HW2 2601   0.843   1.717   4.123
  639SOL     OW 2602   0.230   0.628   5.699
  639SOL    HW1 2603   0.137   0.626   5.736
  639SOL    HW2 2604   0.231   0.589   5.607
  640SOL     OW 2605   0.225   0.275   6.582
  640SOL    HW1 2606   0.260   0.258   6.674
  640SOL    HW2 2607   0.137   0.230   6.570
  641SOL     OW 2608   0.019   0.368   6.233
  641SOL    HW1 2609  -0.063   0.411   6.272
  641SOL    HW2 2610  -0.009   0.295   6.170
  642SOL     OW 2611   0.569   1.275   6.751
  642SOL    HW1 2612   0.476   1.268   6.714
  642SOL    HW2 2613   0.580   1.364   6.795
  643SOL     OW 2614   1.555   1.511   6.289
  643SOL    HW1 2615   1.498   1.495   6.370
  643SOL    HW2 2616   1.496   1.521   6.209
  644SOL     OW 2617   1.135   0.703   6.303
  644SOL    HW1 2618   1.192   0.781   6.278
  644SOL    HW2 2619   1.075   0.729   6.379
  645SOL     OW 2620   1.755   0.607   5.817
  645SOL    HW1 2621   1.743   0.594   5.718
  645SOL    HW2 2622   1.725   0.526   5.866
  646SOL     OW 2623   0.768   1.144   6.609
  646SOL    HW1 2624   0.690   1.161   6.669
  646SOL    HW2 2625   0.802   1.231   6.573
  647SOL     OW 2626   0.850   0.798   7.409
  647SOL    HW1 2627   0.846   0.874   7.474
  647SOL    HW2 2628   0.872   0.834   7.318
  648SOL     OW 2629   0.685   1.012   6.251
  648SOL    HW1 2630   0.754   0.996   6.321
  648SOL    HW2 2631   0.612   1.069   6.289
  649SOL     OW 2632   0.686   1.161   7.389
  649SOL    HW1 2633   0.746   1.240   7.403
  649SOL    HW2 2634   0.600   1.192   7.348
  650SOL     OW 2635   0.335   1.435   6.647
  650SOL    HW1 2636   0.257   1.404   6.594
  650SOL    HW2 2637   0.393   1.493   6.590
  651SOL     OW 2638   1.460   1.505   6.925
  651SOL    HW1 2639   1.484   1.599   6.951
  651SOL    HW2 2640   1.444   1.451   7.007
  652SOL     OW 2641   0.438   0.392   7.085
  652SOL    HW1 2642   0.520   0.336   7.094
  652SOL    HW2 2643   0.357   0.334   7.089
  653SOL     OW 2644   1.603   0.447   6.323
  653SOL    HW1 2645   1.529   0.493   6.273
  653SOL    HW2 2646   1.654   0.515   6.376
  654SOL     OW 2647   0.231   1.713   6.069
  654SOL    HW1 2648   0.265   1.790   6.123
  654SOL    HW2 2649   0.275   1.713   5.979
  655SOL     OW 2650   1.127   1.341   7.276
  655SOL    HW1 2651   1.174   1.341   7.364
  655SOL    HW2 2652   1.079   1.254   7.265
  656SOL     OW 2653   0.230   1.434   6.124
  656SOL    HW1 2654   0.204   1.530   6.124
  656SOL    HW2 2655   0.159   1.380   6.169
  657SOL     OW 2656   0.240   1.091   6.472
  657SOL    HW1 2657   0.254   1.007   6.524
  657SOL    HW2 2658   0.185   1.155   6.527
  658SOL     OW 2659   0.620   1.786   7.025
  658SOL    HW1 2660   0.528   1.769   7.060
  658SOL    HW2 2661   0.648   1.878   7.051
  659SOL     OW 2662   0.606   0.964   5.709
  659SOL    HW1 2663   0.613   1.048   5.655
  659SOL    HW2 2664   0.652   0.977   5.797
  660SOL     OW 2665   1.594   0.114   7.066
  660SOL    HW1 2666   1.576   0.181   6.994
  660SOL    HW2 2667   1.591   0.160   7.155
  661SOL     OW 2668   0.122   0.643   6.149
  661SOL    HW1 2669   0.077   0.555   6.166
  661SOL    HW2 2670   0.121   0.697   6.233
  662SOL     OW 2671   1.842   1.767   5.945
  662SOL    HW1 2672   1.896   1.738   6.025
  662SOL    HW2 2673   1.872   1.857   5.916
  663SOL     OW 2674   0.027   1.596   5.703
  663SOL    HW1 2675   0.008   1.500   5.724
  663SOL    HW2 2676  -0.006   1.654   5.778
  664SOL     OW 2677   1.689   0.922   6.198
  664SOL    HW1 2678   1.784   0.893   6.206
  664SOL    HW2 2679   1.681   0.987   6.123
  665SOL     OW 2680   1.641   1.108   6.018
  665SOL    HW1 2681   1.727   1.110   5.966
  665SOL    HW2 2682   1.655   1.155   6.106
  666SOL     OW 2683   0.113   0.737   7.183
  666SOL    HW1 2684   0.201   0.724   7.228
  666SOL    HW2 2685   0.100   0.834   7.161
  667SOL     OW 2686   0.613   1.365   6.312
  667SOL    HW1 2687   0.564   1.278   6.321
  667SOL    HW2 2688   0.590   1.408   6.225
  668SOL     OW 2689   1.293   1.228   7.009
  668SOL    HW1 2690   1.330   1.155   6.951
  668SOL    HW2 2691   1.345   1.233   7.094
  669SOL     OW 2692   0.809   0.004   6.088
  669SOL    HW1 2693   0.849   0.095   6.079
  669SOL    HW2 2694   0.709   0.012   6.094
  670SOL     OW 2695   0.197   0.976   6.850
  670SOL    HW1 2696   0.286   0.931   6.836
  670SOL    HW2 2697   0.124   0.911   6.831
  671SOL     OW 2698   1.525   0.999   5.776
  671SOL    HW1 2699   1.462   0.923   5.789
  671SOL    HW2 2700   1.573   1.017   5.862
  672SOL     OW 2701   1.187   1.792   7.202
  672SOL    HW1 2702   1.211   1.852   7.126
  672SOL    HW2 2703   1.194   1.697   7.172
  673SOL     OW 2704   0.317   0.251   7.387
  673SOL    HW1 2705   0.388   0.322   7.393
  673SOL    HW2 2706   0.229   0.290   7.415
  674SOL     OW 2707   1.466   1.417   6.539
  674SOL    HW1 2708   1.407   1.423   6.619
  674SOL    HW2 2709   1.451   1.329   6.493
  675SOL     OW 2710   1.667   1.714   6.158
  675SOL    HW1 2711   1.626   1.691   6.070
  675SOL    HW2 2712   1.649   1.640   6.223
  676SOL     OW 2713   0.598   0.729   5.856
  676SOL    HW1 2714   0.622   0.798   5.788
  676SOL    HW2 2715   0.520   0.762   5.910
  677SOL     OW 2716   1.281   0.345   6.530
  677SOL    HW1 2717   1.195   0.295   6.517
  677SOL    HW2 2718   1.343   0.291   6.586
  678SOL     OW 2719   1.576   1.662   5.893
  678SOL    HW1 2720   1.665   1.708   5.896
  678SOL    HW2 2721   1.555   1.638   5.798
  679SOL     OW 2722   0.807   0.605   7.051
  679SOL    HW1 2723   0.760   0.602   7.140
  679SOL    HW2 2724   0.756   0.550   6.985
  680SOL     OW 2725   1.394   0.469   7.260
  680SOL    HW1 2726   1.374   0.512   7.348
  680SOL    HW2 2727   1.472   0.407   7.269
  681SOL     OW 2728   0.973   0.890   7.158
  681SOL    HW1 2729   1.019   0.806   7.129
  681SOL    HW2 2730   0.917   0.924   7.083
  682SOL     OW 2731   0.991   0.410   6.828
  682SOL    HW1 2732   0.914   0.444   6.882
  682SOL    HW2 2733   0.957   0.359   6.749
  683SOL     OW 2734   1.041   0.701   6.015
  683SOL    HW1 2735   1.067   0.697   6.111
  683SOL    HW2 2736   0.956   0.650   6.001
  684SOL     OW 2737   0.076   0.811   6.375
  684SOL    HW1 2738   0.175   0.799   6.384
  684SOL    HW2 2739   0.052   0.906   6.396
  685SOL     OW 2740   0.130   1.821   7.157
  685SOL    HW1 2741   0.120   1.806   7.256
  685SOL    HW2 2742   0.044   1.857   7.121
  686SOL     OW 2743   0.865   0.348   5.781
  686SOL    HW1 2744   0.924   0.411   5.732
  686SOL    HW2 2745   0.884   0.254   5.752
  687SOL     OW 2746   1.719   0.585   7.417
  687SOL    HW1 2747   1.693   0.674   7.381
  687SOL    HW2 2748   1.717   0.517   7.344
  688SOL     OW 2749   1.362   1.144   6.131
  688SOL    HW1 2750   1.445   1.115   6.083
  688SOL    HW2 2751   1.313   1.211   6.075
  689SOL     OW 2752   0.550   0.196   6.471
  689SOL    HW1 2753   0.545   0.191   6.571
  689SOL    HW2 2754   0.552   0.292   6.442
  690SOL     OW 2755   1.008   1.456   6.063
  690SOL    HW1 2756   0.962   1.528   6.011
  690SOL    HW2 2757   1.004   1.476   6.161
  691SOL     OW 2758   0.351   1.801   6.439
  691SOL    HW1 2759   0.401   1.715   6.445
  691SOL    HW2 2760   0.416   1.878   6.436
  692SOL     OW 2761   1.795   1.066   6.459
  692SOL    HW1 2762   1.733   1.051   6.383
  692SOL    HW2 2763   1.743   1.077   6.544
  693SOL     OW 2764   1.227   1.550   7.092
  693SOL    HW1 2765   1.233   1.473   7.156
  693SOL    HW2 2766   1.175   1.524   7.012
  694SOL     OW 2767   0.321   0.943   5.828
  694SOL    HW1 2768   0.403   0.982   5.786
  694SOL    HW2 2769   0.294   0.861   5.779
  695SOL     OW 2770   1.458   0.735   6.314
  695SOL    HW1 2771   1.453   0.670   6.389
  695SOL    HW2 2772   1.538   0.794   6.327
  696SOL     OW 2773   0.461   1.266   7.313
  696SOL    HW1 2774   0.411   1.267   7.227
  696SOL    HW2 2775   0.398   1.248   7.389
  697SOL     OW 2776   1.111   1.776   5.823
  697SOL    HW1 2777   1.051   1.714   5.873
  697SOL    HW2 2778   1.142   1.732   5.738
  698SOL     OW 2779   0.202   0.285   7.084
  698SOL    HW1 2780   0.122   0.345   7.071
  698SOL    HW2 2781   0.192   0.236   7.170
  699SOL     OW 2782   1.632   1.377   5.667
  699SOL    HW1 2783   1.600   1.471   5.657
  699SOL    HW2 2784   1.556   1.314   5.655
  700SOL     OW 2785   0.464   1.743   5.909
  700SOL    HW1 2786   0.497   1.782   5.995
  700SOL    HW2 2787   0.540   1.736   5.844
  701SOL     OW 2788   1.400   0.107   6.012
  701SOL    HW1 2789   1.376   0.070   5.922
  701SOL    HW2 2790   1.499   0.123   6.016
  702SOL     OW 2791   0.249   1.785   6.827
  702SOL    HW1 2792   0.306   1.720   6.877
  702SOL    HW2 2793   0.233   1.752   6.734
  703SOL     OW 2794   0.940   1.698   6.490
  703SOL    HW1 2795   1.020   1.641   6.511
  703SOL    HW2 2796   0.891   1.658   6.413
  704SOL     OW 2797   0.382   0.700   6.066
  704SOL    HW1 2798   0.427   0.610   6.063
  704SOL    HW2 2799   0.288   0.689   6.099
  705SOL     OW 2800   1.547   0.222   7.315
  705SOL    HW1 2801   1.542   0.259   7.407
  705SOL    HW2 2802   1.475   0.153   7.303
  706SOL     OW 2803   0.614   0.122   5.703
  706SOL    HW1 2804   0.712   0.100   5.710
  706SOL    HW2 2805   0.583   0.105   5.610
  707SOL     OW 2806   0.781   0.264   7.335
  707SOL    HW1 2807   0.848   0.203   7.378
  707SOL    HW2 2808   0.708   0.283   7.400
  708SOL     OW 2809   0.888   1.514   6.781
  708SOL    HW1 2810   0.865   1.489   6.687
  708SOL    HW2 2811   0.949   1.445   6.820
  709SOL     OW 2812   1.351   0.590   7.019
  709SOL    HW1 2813   1.379   0.547   7.104
  709SOL    HW2 2814   1.376   0.686   7.020
  710SOL     OW 2815   0.803   1.402   6.510
  710SOL    HW1 2816   0.893   1.416   6.468
  710SOL    HW2 2817   0.732   1.404   6.439
  711SOL     OW 2818   0.922   0.503   6.485
  711SOL    HW1 2819   0.897   0.494   6.389
  711SOL    HW2 2820   0.970   0.421   6.516
  712SOL     OW 2821   0.539   0.064   6.098
  712SOL    HW1 2822   0.458   0.065   6.156
  712SOL    HW2 2823   0.542   0.147   6.043
  713SOL     OW 2824   1.434   1.188   5.627
  713SOL    HW1 2825   1.466   1.112   5.684
  713SOL    HW2 2826   1.342   1.215   5.657
  714SOL     OW 2827   0.297   0.035   5.757
  714SOL    HW1 2828   0.346   0.119   5.736
  714SOL    HW2 2829   0.359  -0.030   5.802
  715SOL     OW 2830   0.935   0.236   6.066
  715SOL    HW1 2831   0.887   0.277   5.988
  715SOL    HW2 2832   1.034   0.234   6.047
  716SOL     OW 2833   1.076   0.683   7.050
  716SOL    HW1 2834   0.996   0.622   7.053
  716SOL    HW2 2835   1.157   0.630   7.026
  717SOL     OW 2836   1.227   1.570   6.379
  717SOL    HW1 2837   1.248   1.644   6.314
  717SOL    HW2 2838   1.295   1.570   6.452
  718SOL     OW 2839   0.459   1.152   6.327
  718SOL    HW1 2840   0.388   1.125   6.392
  718SOL    HW2 2841   0.433   1.124   6.234
  719SOL     OW 2842   1.271   1.797   6.177
  719SOL    HW1 2843   1.315   1.861   6.113
  719SOL    HW2 2844   1.221   1.849   6.247
  720SOL     OW 2845   1.032   0.549   5.602
  720SOL    HW1 2846   0.991   0.631   5.563
  720SOL    HW2 2847   1.096   0.575   5.675
  721SOL     OW 2848   0.078   0.556   6.972
  721SOL    HW1 2849   0.170   0.555   6.931
  721SOL    HW2 2850   0.072   0.630   7.039
  722SOL     OW 2851   0.561   0.222   6.733
  722SOL    HW1 2852   0.599   0.138   6.770
  722SOL    HW2 2853   0.473   0.241   6.777
  723SOL     OW 2854   0.866   0.454   6.228
  723SOL    HW1 2855   0.834   0.526   6.166
  723SOL    HW2 2856   0.890   0.373   6.175
  724SOL     OW 2857   1.017   0.039   6.339
  724SOL    HW1 2858   0.945   0.044   6.270
  724SOL    HW2 2859   0.993  -0.030   6.408
  725SOL     OW 2860   1.429   1.173   6.453
  725SOL    HW1 2861   1.374   1.089   6.446
  725SOL    HW2 2862   1.455   1.202   6.361
  726SOL     OW 2863   1.466   0.590   6.578
  726SOL    HW1 2864   1.436   0.495   6.585
  726SOL    HW2 2865   1.539   0.606   6.644
  727SOL     OW 2866   1.857   0.833   5.963
  727SOL    HW1 2867   1.899   0.769   6.027
  727SOL    HW2 2868   1.819   0.782   5.885
  728SOL     OW 2869   0.488   1.385   5.760
  728SOL    HW1 2870   0.401   1.370   5.807
  728SOL    HW2 2871   0.471   1.411   5.665
  729SOL     OW 2872   1.664   1.280   6.243
  729SOL    HW1 2873   1.763   1.288   6.257
  729SOL    HW2 2874   1.619   1.364   6.274
  730SOL     OW 2875   1.390   0.575   5.664
  730SOL    HW1 2876   1.336   0.554   5.745
  730SOL    HW2 2877   1.481   0.534   5.673
  731SOL     OW 2878   0.527   0.256   5.914
  731SOL    HW1 2879   0.554   0.197   5.839
  731SOL    HW2 2880   0.527   0.351   5.883
  732SOL     OW 2881   1.754   1.223   7.174
  732SOL    HW1 2882   1.845   1.184   7.161
  732SOL    HW2 2883   1.762   1.319   7.198
  733SOL     OW 2884   1.064   1.347   6.926
  733SOL    HW1 2885   0.984   1.324   6.981
  733SOL    HW2 2886   1.147   1.321   6.975
  734SOL     OW 2887   1.592   1.629   7.211
  734SOL    HW1 2888   1.619   1.663   7.121
  734SOL    HW2 2889   1.671   1.591   7.257
  735SOL     OW 2890   1.111   1.195   6.686
  735SOL    HW1 2891   1.071   1.239   6.767
  735SOL    HW2 2892   1.070   1.232   6.603
  736SOL     OW 2893   1.638   1.099   6.665
  736SOL    HW1 2894   1.643   1.180   6.724
  736SOL    HW2 2895   1.552   1.101   6.614
  737SOL     OW 2896   0.915   0.089   6.988
  737SOL    HW1 2897   0.940   0.069   6.893
  737SOL    HW2 2898   0.987   0.145   7.030
  738SOL     OW 2899   0.980   1.116   7.305
  738SOL    HW1 2900   0.881   1.122   7.315
  738SOL    HW2 2901   1.003   1.036   7.249
  739SOL     OW 2902   0.705   1.050   5.954
  739SOL    HW1 2903   0.691   1.057   6.053
  739SOL    HW2 2904   0.789   0.999   5.936
  740SOL     OW 2905   0.410   0.813   6.837
  740SOL    HW1 2906   0.496   0.825   6.887
  740SOL    HW2 2907   0.368   0.726   6.864
  741SOL     OW 2908   1.274   0.386   6.848
  741SOL    HW1 2909   1.295   0.460   6.912
  741SOL    HW2 2910   1.185   0.403   6.805
  742SOL     OW 2911   0.064   1.564   6.917
  742SOL    HW1 2912   0.018   1.646   6.883
  742SOL    HW2 2913   0.162   1.583   6.926
  743SOL     OW 2914   0.367   1.100   6.087
  743SOL    HW1 2915   0.360   1.183   6.031
  743SOL    HW2 2916   0.371   1.020   6.027
  744SOL     OW 2917   0.566   0.537   6.451
  744SOL    HW1 2918   0.578   0.603   6.377
  744SOL    HW2 2919   0.612   0.571   6.534
  745SOL     OW 2920   1.252   1.348   5.974
  745SOL    HW1 2921   1.302   1.425   6.014
  745SOL    HW2 2922   1.157   1.350   6.006
  746SOL     OW 2923   1.272   1.445   6.728
  746SOL    HW1 2924   1.319   1.458   6.815
  746SOL    HW2 2925   1.206   1.371   6.737
  747SOL     OW 2926   1.582   0.639   6.058
  747SOL    HW1 2927   1.551   0.700   6.131
  747SOL    HW2 2928   1.632   0.691   5.989
  748SOL     OW 2929   0.354   1.510   6.915
  748SOL    HW1 2930   0.333   1.466   6.828
  748SOL    HW2 2931   0.451   1.536   6.918
  749SOL     OW 2932   0.402   0.751   7.184
  749SOL    HW1 2933   0.470   0.806   7.137
  749SOL    HW2 2934   0.442   0.663   7.211
  750SOL     OW 2935   1.587   0.779   7.256
  750SOL    HW1 2936   1.495   0.817   7.251
  750SOL    HW2 2937   1.647   0.826   7.191
  751SOL     OW 2938   1.013   0.105   7.356
  751SOL    HW1 2939   1.019   0.190   7.304
  751SOL    HW2 2940   1.045   0.029   7.299
  752SOL     OW 2941   0.504   0.050   7.326
  752SOL    HW1 2942   0.462  -0.007   7.256
  752SOL    HW2 2943   0.438   0.119   7.358
  753SOL     OW 2944   0.573   0.870   6.615
  753SOL    HW1 2945   0.617   0.959   6.606
  753SOL    HW2 2946   0.510   0.870   6.692
  754SOL     OW 2947   1.360   0.862   6.631
  754SOL    HW1 2948   1.285   0.862   6.565
  754SOL    HW2 2949   1.397   0.770   6.640
  755SOL     OW 2950   1.209   0.525   5.861
  755SOL    HW1 2951   1.222   0.441   5.915
  755SOL    HW2 2952   1.180   0.599   5.921
  756SOL     OW 2953   0.307   0.213   6.817
  756SOL    HW1 2954   0.284   0.250   6.907
  756SOL    HW2 2955   0.277   0.118   6.811
  757SOL     OW 2956   0.037   1.310   6.868
  757SOL    HW1 2957   0.090   1.261   6.936
  757SOL    HW2 2958   0.059   1.408   6.873
  758SOL     OW 2959   0.732   0.634   6.650
  758SOL    HW1 2960   0.791   0.608   6.574
  758SOL    HW2 2961   0.704   0.730   6.639
  759SOL     OW 2962   1.728   0.935   7.440
  759SOL    HW1 2963   1.682   0.928   7.351
  759SOL    HW2 2964   1.666   0.979   7.506
  760SOL     OW 2965   0.307   0.063   6.204
  760SOL    HW1 2966   0.296   0.157   6.237
  760SOL    HW2 2967   0.302   0.000   6.281
  761SOL     OW 2968   1.622   0.367   5.960
  761SOL    HW1 2969   1.624   0.291   6.024
  761SOL    HW2 2970   1.574   0.444   6.000
  762SOL     OW 2971   1.023   0.766   6.552
  762SOL    HW1 2972   1.038   0.787   6.648
  762SOL    HW2 2973   0.993   0.671   6.543
  763SOL     OW 2974   0.980   1.573   7.286
  763SOL    HW1 2975   0.960   1.617   7.198
  763SOL    HW2 2976   1.019   1.482   7.270
  764SOL     OW 2977   1.859   1.518   7.191
  764SOL    HW1 2978   1.873   1.545   7.096
  764SOL    HW2 2979   1.942   1.540   7.244
  765SOL     OW 2980   0.350   0.898   7.390
  765SOL    HW1 2981   0.426   0.942   7.438
  765SOL    HW2 2982   0.385   0.851   7.308
  766SOL     OW 2983   1.540   0.274   5.711
  766SOL    HW1 2984   1.479   0.199   5.734
  766SOL    HW2 2985   1.562   0.326   5.794
  767SOL     OW 2986   1.303   0.838   5.628
  767SOL    HW1 2987   1.337   0.745   5.643
  767SOL    HW2 2988   1.321   0.865   5.533
  768SOL     OW 2989   1.068   1.333   6.435
  768SOL    HW1 2990   1.075   1.249   6.380
  768SOL    HW2 2991   1.130   1.402   6.399
  769SOL     OW 2992   0.319   0.810   6.535
  769SOL    HW1 2993   0.412   0.846   6.540
  769SOL    HW2 2994   0.313   0.725   6.587
  770SOL     OW 2995   0.339   0.509   6.592
  770SOL    HW1 2996   0.287   0.426   6.575
  770SOL    HW2 2997   0.416   0.514   6.528
  771SOL     OW 2998   1.138   0.380   7.264
  771SOL    HW1 2999   1.093   0.443   7.328
  771SOL    HW2 3000   1.231   0.411   7.247
  772SOL     OW 3001   1.160   0.207   7.063
  772SOL    HW1 3002   1.160   0.271   7.140
  772SOL    HW2 3003   1.188   0.255   6.980
  773SOL     OW 3004   0.008   1.326   5.786
  773SOL    HW1 3005  -0.085   1.347   5.755
  773SOL    HW2 3006   0.018   1.227   5.799
  774SOL     OW 3007   0.088   1.801   6.513
  774SOL    HW1 3008   0.046   1.715   6.486
  774SOL    HW2 3009   0.182   1.804   6.479
  775SOL     OW 3010   0.504   1.568   6.496
  775SOL    HW1 3011   0.570   1.642   6.505
  775SOL    HW2 3012   0.548   1.489   6.454
  776SOL     OW 3013   1.002   0.796   6.824
  776SOL    HW1 3014   1.043   0.764   6.910
  776SOL    HW2 3015   0.906   0.769   6.821
  777SOL     OW 3016   0.040   0.544   6.700
  777SOL    HW1 3017   0.125   0.511   6.659
  777SOL    HW2 3018   0.053   0.559   6.798
  778SOL     OW 3019   0.189   0.520   7.308
  778SOL    HW1 3020   0.248   0.480   7.238
  778SOL    HW2 3021   0.131   0.591   7.267
  779SOL     OW 3022   1.369   0.950   7.246
  779SOL    HW1 3023   1.408   1.039   7.266
  779SOL    HW2 3024   1.379   0.930   7.149
  780SOL     OW 3025   0.815   0.572   5.911
  780SOL    HW1 3026   0.822   0.483   5.865
  780SOL    HW2 3027   0.721   0.606   5.903
  781SOL     OW 3028   1.657   0.604   6.792
  781SOL    HW1 3029   1.619   0.535   6.854
  781SOL    HW2 3030   1.739   0.568   6.748
  782SOL     OW 3031   0.252   1.564   7.330
  782SOL    HW1 3032   0.222   1.621   7.406
  782SOL    HW2 3033   0.245   1.467   7.356
  783SOL     OW 3034   0.671   0.464   6.855
  783SOL    HW1 3035   0.637   0.375   6.825
  783SOL    HW2 3036   0.697   0.518   6.775
  784SOL     OW 3037   0.930   1.678   7.051
  784SOL    HW1 3038   0.906   1.660   6.956
  784SOL    HW2 3039   0.960   1.772   7.061
  785SOL     OW 3040   0.473   0.500   5.777
  785SOL    HW1 3041   0.534   0.580   5.781
  785SOL    HW2 3042   0.378   0.531   5.784
  786SOL     OW 3043   0.159   1.137   7.052
  786SOL    HW1 3044   0.181   1.076   7.128
  786SOL    HW2 3045   0.169   1.088   6.966
  787SOL     OW 3046   1.347   1.059   6.820
  787SOL    HW1 3047   1.371   0.996   6.746
  787SOL    HW2 3048   1.257   1.099   6.802
  788SOL     OW 3049   1.302   0.855   5.895
  788SOL    HW1 3050   1.216   0.824   5.937
  788SOL    HW2 3051   1.298   0.841   5.796
  789SOL     OW 3052   1.759   1.747   6.740
  789SOL    HW1 3053   1.820   1.777   6.667
  789SOL    HW2 3054   1.721   1.658   6.718
  790SOL     OW 3055   1.252   1.731   6.714
  790SOL    HW1 3056   1.336   1.736   6.660
  790SOL    HW2 3057   1.229   1.635   6.732
  791SOL     OW 3058   0.083   1.258   6.608
  791SOL    HW1 3059   0.078   1.257   6.708
  791SOL    HW2 3060   0.000   1.217   6.570
  792SOL     OW 3061   0.688   1.662   7.302
  792SOL    HW1 3062   0.632   1.743   7.311
  792SOL    HW2 3063   0.740   1.666   7.216
  793SOL     OW 3064   1.726   0.135   6.109
  793SOL    HW1 3065   1.799   0.118   6.042
  793SOL    HW2 3066   1.695   0.048   6.147
  794SOL     OW 3067   1.388   1.573   6.063
  794SOL    HW1 3068   1.455   1.585   5.989
  794SOL    HW2 3069   1.348   1.662   6.086
  795SOL     OW 3070   0.130   1.794   7.437
  795SOL    HW1 3071   0.089   1.720   7.490
  795SOL    HW2 3072   0.194   1.845   7.495
  796SOL     OW 3073   1.280   0.927   6.258
  796SOL    HW1 3074   1.340   0.846   6.260
  796SOL    HW2 3075   1.320   0.996   6.198
  797SOL     OW 3076   0.830   1.273   7.008
  797SOL    HW1 3077   0.825   1.306   7.103
  797SOL    HW2 3078   0.744   1.292   6.962
  798SOL     OW 3079   0.672   1.616   5.740
  798SOL    HW1 3080   0.681   1.626   5.641
  798SOL    HW2 3081   0.632   1.527   5.761
  799SOL     OW 3082   1.650   1.720   6.980
  799SOL    HW1 3083   1.703   1.730   6.896
  799SOL    HW2 3084   1.623   1.810   7.014
  800SOL     OW 3085   1.841   0.175   6.549
  800SOL    HW1 3086   1.880   0.090   6.513
  800SOL    HW2 3087   1.743   0.177   6.530
  801SOL     OW 3088   0.263   0.326   6.306
  801SOL    HW1 3089   0.184   0.377   6.272
  801SOL    HW2 3090   0.254   0.311   6.404
  802SOL     OW 3091   1.194   1.612   5.617
  802SOL    HW1 3092   1.200   1.519   5.654
  802SOL    HW2 3093   1.135   1.612   5.537
  803SOL     OW 3094   0.822   1.002   6.958
  803SOL    HW1 3095   0.862   1.001   6.866
  803SOL    HW2 3096   0.832   1.094   6.998
  804SOL     OW 3097   0.916   0.910   5.877
  804SOL    HW1 3098   0.979   0.948   5.809
  804SOL    HW2 3099   0.956   0.827   5.916
  805SOL     OW 3100   1.504   1.607   5.630
  805SOL    HW1 3101   1.412   1.644   5.637
  805SOL    HW2 3102   1.542   1.627   5.540
  806SOL     OW 3103   0.372   1.288   7.076
  806SOL    HW1 3104   0.359   1.381   7.042
  806SOL    HW2 3105   0.288   1.236   7.063
  807SOL     OW 3106   1.614   1.292   6.875
  807SOL    HW1 3107   1.674   1.295   6.955
  807SOL    HW2 3108   1.539   1.356   6.888
  808SOL     OW 3109   1.039   1.098   6.282
  808SOL    HW1 3110   0.969   1.051   6.336
  808SOL    HW2 3111   1.098   1.030   6.239
  809SOL     OW 3112   1.014   0.236   6.557
  809SOL    HW1 3113   1.006   0.200   6.464
  809SOL    HW2 3114   1.012   0.160   6.622
  810SOL     OW 3115   0.590   1.487   6.077
  810SOL    HW1 3116   0.632   1.429   6.007
  810SOL    HW2 3117   0.546   1.566   6.033
  811SOL     OW 3118   1.709   0.385   6.967
  811SOL    HW1 3119   1.782   0.454   6.971
  811SOL    HW2 3120   1.737   0.310   6.908
  812SOL     OW 3121   0.255   1.348   5.876
  812SOL    HW1 3122   0.159   1.349   5.849
  812SOL    HW2 3123   0.267   1.401   5.960
  813SOL     OW 3124   0.105   1.013   7.312
  813SOL    HW1 3125   0.028   0.980   7.366
  813SOL    HW2 3126   0.190   0.983   7.354
  814SOL     OW 3127   0.672   0.203   7.075
  814SOL    HW1 3128   0.762   0.187   7.035
  814SOL    HW2 3129   0.680   0.208   7.174
  815SOL     OW 3130   0.075   0.345   5.619
  815SOL    HW1 3131  -0.017   0.317   5.590
  815SOL    HW2 3132   0.106   0.422   5.563
  816SOL     OW 3133   1.440   0.856   6.984
  816SOL    HW1 3134   1.383   0.908   6.921
  816SOL    HW2 3135   1.536   0.868   6.960
  817SOL     OW 3136   0.072   0.166   5.904
  817SOL    HW1 3137   0.055   0.249   5.850
  817SOL    HW2 3138   0.162   0.129   5.882
  818SOL     OW 3139   1.183   1.335   5.705
  818SOL    HW1 3140   1.084   1.324   5.707
  818SOL    HW2 3141   1.217   1.350   5.798
  819SOL     OW 3142   0.613   0.842   7.017
  819SOL    HW1 3143   0.669   0.923   7.000
  819SOL    HW2 3144   0.672   0.762   7.020
  820SOL     OW 3145   1.493   1.767   6.545
  820SOL    HW1 3146   1.526   1.831   6.476
  820SOL    HW2 3147   1.559   1.761   6.620
  821SOL     OW 3148   0.716   0.565   7.294
  821SOL    HW1 3149   0.735   0.630   7.368
  821SOL    HW2 3150   0.776   0.485   7.303
  822SOL     OW 3151   1.450   1.220   7.219
  822SOL    HW1 3152   1.441   1.210   7.318
  822SOL    HW2 3153   1.546   1.213   7.193
  823SOL     OW 3154   0.390   1.741   7.146
  823SOL    HW1 3155   0.299   1.782   7.144
  823SOL    HW2 3156   0.383   1.647   7.178
  824SOL     OW 3157   1.674   0.883   6.840
  824SOL    HW1 3158   1.647   0.794   6.803
  824SOL    HW2 3159   1.675   0.951   6.767
  825SOL     OW 3160   1.225   0.325   6.035
  825SOL    HW1 3161   1.290   0.251   6.024
  825SOL    HW2 3162   1.245   0.375   6.119
  826SOL     OW 3163   0.594   0.745   6.238
  826SOL    HW1 3164   0.644   0.830   6.219
  826SOL    HW2 3165   0.506   0.747   6.190
  827SOL     OW 3166   1.777   0.342   7.228
  827SOL    HW1 3167   1.760   0.373   7.134
  827SOL    HW2 3168   1.693   0.305   7.266
  828SOL     OW 3169   1.730   0.934   7.103
  828SOL    HW1 3170   1.768   1.025   7.118
  828SOL    HW2 3171   1.722   0.917   7.004
  829SOL     OW 3172   0.859   1.374   5.602
  829SOL    HW1 3173   0.813   1.389   5.690
  829SOL    HW2 3174   0.903   1.459   5.572
  830SOL     OW 3175   0.661   1.790   6.539
  830SOL    HW1 3176   0.615   1.878   6.526
  830SOL    HW2 3177   0.760   1.802   6.532
  831SOL     OW 3178   0.859   0.956   6.447
  831SOL    HW1 3179   0.913   0.887   6.495
  831SOL    HW2 3180   0.827   1.025   6.513
  832SOL     OW 3181   1.083   0.984   5.673
  832SOL    HW1 3182   1.060   1.037   5.591
  832SOL    HW2 3183   1.164   0.928   5.654
  833SOL     OW 3184   1.861   1.569   6.437
  833SOL    HW1 3185   1.790   1.557   6.367
  833SOL    HW2 3186   1.862   1.490   6.497
  834SOL     OW 3187   0.221   1.314   7.430
  834SOL    HW1 3188   0.156   1.241   7.409
  834SOL    HW2 3189   0.225   1.328   7.528
  835SOL     OW 3190   0.079   1.240   6.239
  835SOL    HW1 3191   0.078   1.193   6.327
  835SOL    HW2 3192   0.161   1.212   6.188
  836SOL     OW 3193   0.672   1.391   7.210
  836SOL    HW1 3194   0.594   1.341   7.248
  836SOL    HW2 3195   0.669   1.486   7.241
  837SOL     OW 3196   1.824   0.192   6.813
  837SOL    HW1 3197   1.820   0.102   6.857
  837SOL    HW2 3198   1.827   0.181   6.714
  838SOL     OW 3199   0.428   0.424   6.106
  838SOL    HW1 3200   0.458   0.352   6.044
  838SOL    HW2 3201   0.389   0.384   6.189
  839SOL     OW 3202   1.705   1.487   6.690
  839SOL    HW1 3203   1.612   1.462   6.663
  839SOL    HW2 3204   1.731   1.437   6.772
  840SOL     OW 3205   0.317   0.547   6.866
  840SOL    HW1 3206   0.355   0.488   6.938
  840SOL    HW2 3207   0.357   0.521   6.778
  841SOL     OW 3208   0.812   1.586   6.273
  841SOL    HW1 3209   0.844   1.596   6.179
  841SOL    HW2 3210   0.733   1.524   6.275
  842SOL     OW 3211   1.424   0.214   6.698
  842SOL    HW1 3212   1.476   0.149   6.753
  842SOL    HW2 3213   1.375   0.277   6.759
  843SOL     OW 3214   1.001   0.034   6.740
  843SOL    HW1 3215   0.938  -0.038   6.709
  843SOL    HW2 3216   1.094  -0.002   6.740
  844SOL     OW 3217   0.770   1.330   5.887
  844SOL    HW1 3218   0.724   1.243   5.904
  844SOL    HW2 3219   0.861   1.327   5.928
  845SOL     OW 3220   0.618   1.567   6.870
  845SOL    HW1 3221   0.613   1.649   6.927
  845SOL    HW2 3222   0.707   1.564   6.825
  846SOL     OW 3223   1.352   0.052   5.754
  846SOL    HW1 3224   1.387   0.011   5.670
  846SOL    HW2 3225   1.262   0.014   5.774
  847SOL     OW 3226   1.300   0.453   6.277
  847SOL    HW1 3227   1.241   0.533   6.281
  847SOL    HW2 3228   1.315   0.418   6.370
  848SOL     OW 3229   1.593   0.221   6.468
  848SOL    HW1 3230   1.509   0.220   6.522
  848SOL    HW2 3231   1.595   0.304   6.412
  849SOL     OW 3232   0.039   1.077   5.886
  849SOL    HW1 3233   0.138   1.066   5.877
  849SOL    HW2 3234  -0.001   0.991   5.918
  850SOL     OW 3235   0.875   1.646   5.923
  850SOL    HW1 3236   0.798   1.611   5.869
  850SOL    HW2 3237   0.843   1.717   5.985
  851SOL     OW 3238   0.230   0.628   7.561
  851SOL    HW1 3239   0.137   0.626   7.598
  851SOL    HW2 3240   0.231   0.589   7.469
  852SOL     OW 3241   1.755   0.607   7.679
  852SOL    HW1 3242   1.743   0.594   7.580
  852SOL    HW2 3243   1.725   0.526   7.728
  853SOL     OW 3244   0.231   1.713   7.931
  853SOL    HW1 3245   0.265   1.790   7.985
  853SOL    HW2 3246   0.275   1.713   7.841
  854SOL     OW 3247   0.230   1.434   7.986
  854SOL    HW1 3248   0.204   1.530   7.986
  854SOL    HW2 3249   0.159   1.380   8.031
  855SOL     OW 3250   0.606   0.964   7.571
  855SOL    HW1 3251   0.613   1.048   7.517
  855SOL    HW2 3252   0.652   0.977   7.659
  856SOL     OW 3253   1.842   1.767   7.807
  856SOL    HW1 3254   1.896   1.738   7.887
  856SOL    HW2 3255   1.872   1.857   7.778
  857SOL     OW 3256   0.027   1.596   7.565
  857SOL    HW1 3257   0.008   1.500   7.586
  857SOL    HW2 3258  -0.006   1.654   7.640
  858SOL     OW 3259   1.689   0.922   8.060
  858SOL    HW1 3260   1.784   0.893   8.068
  858SOL    HW2 3261   1.681   0.987   7.985
  859SOL     OW 3262   1.641   1.108   7.880
  859SOL    HW1 3263   1.727   1.110   7.828
  859SOL    HW2 3264   1.655   1.155   7.968
  860SOL     OW 3265   0.809   0.004   7.950
  860SOL    HW1 3266   0.849   0.095   7.941
  860SOL    HW2 3267   0.709   0.012   7.956
  861SOL     OW 3268   1.525   0.999   7.638
  861SOL    HW1 3269   1.462   0.923   7.651
  861SOL    HW2 3270   1.573   1.017   7.724
  862SOL     OW 3271   0.598   0.729   7.718
  862SOL    HW1 3272   0.622   0.798   7.650
  862SOL    HW2 3273   0.520   0.762   7.772
  863SOL     OW 3274   1.576   1.662   7.755
  863SOL    HW1 3275   1.665   1.708   7.758
  863SOL    HW2 3276   1.555   1.638   7.660
  864SOL     OW 3277   0.076   0.811   8.237
  864SOL    HW1 3278   0.175   0.799   8.246
  864SOL    HW2 3279   0.052   0.906   8.258
  865SOL     OW 3280   0.865   0.348   7.643
  865SOL    HW1 3281   0.924   0.411   7.594
  865SOL    HW2 3282   0.884   0.254   7.614
  866SOL     OW 3283   0.321   0.943   7.690
  866SOL    HW1 3284   0.403   0.982   7.648
  866SOL    HW2 3285   0.294   0.861   7.641
  867SOL     OW 3286   1.111   1.776   7.685
  867SOL    HW1 3287   1.051   1.714   7.735
  867SOL    HW2 3288   1.142   1.732   7.600
  868SOL     OW 3289   1.632   1.377   7.529
  868SOL    HW1 3290   1.600   1.471   7.519
  868SOL    HW2 3291   1.556   1.314   7.517
  869SOL     OW 3292   0.464   1.743   7.771
  869SOL    HW1 3293   0.497   1.782   7.857
  869SOL    HW2 3294   0.540   1.736   7.706
  870SOL     OW 3295   1.400   0.107   7.874
  870SOL    HW1 3296   1.376   0.070   7.784
  870SOL    HW2 3297   1.499   0.123   7.878
  871SOL     OW 3298   0.382   0.700   7.928
  871SOL    HW1 3299   0.427   0.610   7.925
  871SOL    HW2 3300   0.288   0.689   7.961
  872SOL     OW 3301   0.614   0.122   7.565
  872SOL    HW1 3302   0.712   0.100   7.572
  872SOL    HW2 3303   0.583   0.105   7.472
  873SOL     OW 3304   0.539   0.064   7.960
  873SOL    HW1 3305   0.458   0.065   8.018
  873SOL    HW2 3306   0.542   0.147   7.905
  874SOL     OW 3307   1.434   1.188   7.489
  874SOL    HW1 3308   1.466   1.112   7.546
  874SOL    HW2 3309   1.342   1.215   7.519
  875SOL     OW 3310   0.297   0.035   7.619
  875SOL    HW1 3311   0.346   0.119   7.598
  875SOL    HW2 3312   0.359  -0.030   7.664
  876SOL     OW 3313   0.935   0.236   7.928
  876SOL    HW1 3314   0.887   0.277   7.850
  876SOL    HW2 3315   1.034   0.234   7.909
  877SOL     OW 3316   0.459   1.152   8.189
  877SOL    HW1 3317   0.388   1.125   8.254
  877SOL    HW2 3318   0.433   1.124   8.096
  878SOL     OW 3319   1.271   1.797   8.039
  878SOL    HW1 3320   1.315   1.861   7.975
  878SOL    HW2 3321   1.221   1.849   8.109
  879SOL     OW 3322   1.032   0.549   7.464
  879SOL    HW1 3323   0.991   0.631   7.425
  879SOL    HW2 3324   1.096   0.575   7.537
  880SOL     OW 3325   1.857   0.833   7.825
  880SOL    HW1 3326   1.899   0.769   7.889
  880SOL    HW2 3327   1.819   0.782   7.747
  881SOL     OW 3328   0.488   1.385   7.622
  881SOL    HW1 3329   0.401   1.370   7.669
  881SOL    HW2 3330   0.471   1.411   7.527
  882SOL     OW 3331   1.390   0.575   7.526
  882SOL    HW1 3332   1.336   0.554   7.607
  882SOL    HW2 3333   1.481   0.534   7.535
  883SOL     OW 3334   0.527   0.256   7.776
  883SOL    HW1 3335   0.554   0.197   7.701
  883SOL    HW2 3336   0.527   0.351   7.745
  884SOL     OW 3337   0.705   1.050   7.816
  884SOL    HW1 3338   0.691   1.057   7.915
  884SOL    HW2 3339   0.789   0.999   7.798
  885SOL     OW 3340   0.367   1.100   7.949
  885SOL    HW1 3341   0.360   1.183   7.893
  885SOL    HW2 3342   0.371   1.020   7.889
  886SOL     OW 3343   1.252   1.348   7.836
  886SOL    HW1 3344   1.302   1.425   7.876
  886SOL    HW2 3345   1.157   1.350   7.868
  887SOL     OW 3346   1.582   0.639   7.920
  887SOL    HW1 3347   1.551   0.700   7.993
  887SOL    HW2 3348   1.632   0.691   7.851
  888SOL     OW 3349   1.209   0.525   7.723
  888SOL    HW1 3350   1.222   0.441   7.777
  888SOL    HW2 3351   1.180   0.599   7.783
  889SOL     OW 3352   1.622   0.367   7.822
  889SOL    HW1 3353   1.624   0.291   7.886
  889SOL    HW2 3354   1.574   0.444   7.862
  890SOL     OW 3355   1.540   0.274   7.573
  890SOL    HW1 3356   1.479   0.199   7.596
  890SOL    HW2 3357   1.562   0.326   7.656
  891SOL     OW 3358   1.303   0.838   7.490
  891SOL    HW1 3359   1.337   0.745   7.505
  891SOL    HW2 3360   1.321   0.865   7.395
  892SOL     OW 3361   0.008   1.326   7.648
  892SOL    HW1 3362  -0.085   1.347   7.617
  892SOL    HW2 3363   0.018   1.227   7.661
  893SOL     OW 3364   0.815   0.572   7.773
  893SOL    HW1 3365   0.822   0.483   7.727
  893SOL    HW2 3366   0.721   0.606   7.765
  894SOL     OW 3367   0.473   0.500   7.639
  894SOL    HW1 3368   0.534   0.580   7.643
  894SOL    HW2 3369   0.378   0.531   7.646
  895SOL     OW 3370   1.302   0.855   7.757
  895SOL    HW1 3371   1.216   0.824   7.799
  895SOL    HW2 3372   1.298   0.841   7.658
  896SOL     OW 3373   1.726   0.135   7.971
  896SOL    HW1 3374   1.799   0.118   7.904
  896SOL    HW2 3375   1.695   0.048   8.009
  897SOL     OW 3376   1.388   1.573   7.925
  897SOL    HW1 3377   1.455   1.585   7.851
  897SOL    HW2 3378   1.348   1.662   7.948
  898SOL     OW 3379   0.672   1.616   7.602
  898SOL    HW1 3380   0.681   1.626   7.503
  898SOL    HW2 3381   0.632   1.527   7.623
  899SOL     OW 3382   1.194   1.612   7.479
  899SOL    HW1 3383   1.200   1.519   7.516
  899SOL    HW2 3384   1.135   1.612   7.399
  900SOL     OW 3385   0.916   0.910   7.739
  900SOL    HW1 3386   0.979   0.948   7.671
  900SOL    HW2 3387   0.956   0.827   7.778
  901SOL     OW 3388   1.504   1.607   7.492
  901SOL    HW1 3389   1.412   1.644   7.499
  901SOL    HW2 3390   1.542   1.627   7.402
  902SOL     OW 3391   0.590   1.487   7.939
  902SOL    HW1 3392   0.632   1.429   7.869
  902SOL    HW2 3393   0.546   1.566   7.895
  903SOL     OW 3394   0.255   1.348   7.738
  903SOL    HW1 3395   0.159   1.349   7.711
  903SOL    HW2 3396   0.267   1.401   7.822
  904SOL     OW 3397   0.075   0.345   7.481
  904SOL    HW1 3398  -0.017   0.317   7.452
  904SOL    HW2 3399   0.106   0.422   7.425
  905SOL     OW 3400   0.072   0.166   7.766
  905SOL    HW1 3401   0.055   0.249   7.712
  905SOL    HW2 3402   0.162   0.129   7.744
  906SOL     OW 3403   1.183   1.335   7.567
  906SOL    HW1 3404   1.084   1.324   7.569
  906SOL    HW2 3405   1.217   1.350   7.660
  907SOL     OW 3406   1.225   0.325   7.897
  907SOL    HW1 3407   1.290   0.251   7.886
  907SOL    HW2 3408   1.245   0.375   7.981
  908SOL     OW 3409   0.594   0.745   8.100
  908SOL    HW1 3410   0.644   0.830   8.081
  908SOL    HW2 3411   0.506   0.747   8.052
  909SOL     OW 3412   0.859   1.374   7.464
  909SOL    HW1 3413   0.813   1.389   7.552
  909SOL    HW2 3414   0.903   1.459   7.434
  910SOL     OW 3415   1.083   0.984   7.535
  910SOL    HW1 3416   1.060   1.037   7.453
  910SOL    HW2 3417   1.164   0.928   7.516
  911SOL     OW 3418   0.428   0.424   7.968
  911SOL    HW1 3419   0.458   0.352   7.906
  911SOL    HW2 3420   0.389   0.384   8.051
  912SOL     OW 3421   0.770   1.330   7.749
  912SOL    HW1 3422   0.724   1.243   7.766
  912SOL    HW2 3423   0.861   1.327   7.790
  913SOL     OW 3424   1.352   0.052   7.616
  913SOL    HW1 3425   1.387   0.011   7.532
  913SOL    HW2 3426   1.262   0.014   7.636
  914SOL     OW 3427   0.039   1.077   7.748
  914SOL    HW1 3428   0.138   1.066   7.739
  914SOL    HW2 3429  -0.001   0.991   7.780
  915SOL     OW 3430   0.875   1.646   7.785
  915SOL    HW1 3431   0.798   1.611   7.731
  915SOL    HW2 3432   0.843   1.717   7.847
  916SOL     OW 3433   0.230   2.490   0.113
  916SOL    HW1 3434   0.137   2.488   0.150
  916SOL    HW2 3435   0.231   2.451   0.021
  917SOL     OW 3436   0.225   2.137   0.996
  917SOL    HW1 3437   0.260   2.120   1.088
  917SOL    HW2 3438   0.137   2.092   0.984
  918SOL     OW 3439   0.019   2.230   0.647
  918SOL    HW1 3440  -0.063   2.273   0.686
  918SOL    HW2 3441  -0.009   2.157   0.584
  919SOL     OW 3442   0.569   3.137   1.165
  919SOL    HW1 3443   0.476   3.130   1.128
  919SOL    HW2 3444   0.580   3.226   1.209
  920SOL     OW 3445   1.555   3.373   0.703
  920SOL    HW1 3446   1.498   3.357   0.784
  920SOL    HW2 3447   1.496   3.383   0.623
  921SOL     OW 3448   1.135   2.565   0.717
  921SOL    HW1 3449   1.192   2.643   0.692
  921SOL    HW2 3450   1.075   2.591   0.793
  922SOL     OW 3451   1.755   2.469   0.231
  922SOL    HW1 3452   1.743   2.456   0.132
  922SOL    HW2 3453   1.725   2.388   0.280
  923SOL     OW 3454   0.768   3.006   1.023
  923SOL    HW1 3455   0.690   3.023   1.083
  923SOL    HW2 3456   0.802   3.093   0.987
  924SOL     OW 3457   0.850   2.660   1.823
  924SOL    HW1 3458   0.846   2.736   1.888
  924SOL    HW2 3459   0.872   2.696   1.732
  925SOL     OW 3460   0.685   2.874   0.665
  925SOL    HW1 3461   0.754   2.858   0.735
  925SOL    HW2 3462   0.612   2.931   0.703
  926SOL     OW 3463   0.686   3.023   1.803
  926SOL    HW1 3464   0.746   3.102   1.817
  926SOL    HW2 3465   0.600   3.054   1.762
  927SOL     OW 3466   0.335   3.297   1.061
  927SOL    HW1 3467   0.257   3.266   1.008
  927SOL    HW2 3468   0.393   3.355   1.004
  928SOL     OW 3469   1.460   3.367   1.339
  928SOL    HW1 3470   1.484   3.461   1.365
  928SOL    HW2 3471   1.444   3.313   1.421
  929SOL     OW 3472   0.438   2.254   1.499
  929SOL    HW1 3473   0.520   2.198   1.508
  929SOL    HW2 3474   0.357   2.196   1.503
  930SOL     OW 3475   1.603   2.309   0.737
  930SOL    HW1 3476   1.529   2.355   0.687
  930SOL    HW2 3477   1.654   2.377   0.790
  931SOL     OW 3478   0.231   3.575   0.483
  931SOL    HW1 3479   0.265   3.652   0.537
  931SOL    HW2 3480   0.275   3.575   0.393
  932SOL     OW 3481   1.127   3.203   1.690
  932SOL    HW1 3482   1.174   3.203   1.778
  932SOL    HW2 3483   1.079   3.116   1.679
  933SOL     OW 3484   0.230   3.296   0.538
  933SOL    HW1 3485   0.204   3.392   0.538
  933SOL    HW2 3486   0.159   3.242   0.583
  934SOL     OW 3487   0.240   2.953   0.886
  934SOL    HW1 3488   0.254   2.869   0.938
  934SOL    HW2 3489   0.185   3.017   0.941
  935SOL     OW 3490   0.620   3.648   1.439
  935SOL    HW1 3491   0.528   3.631   1.474
  935SOL    HW2 3492   0.648   3.740   1.465
  936SOL     OW 3493   0.606   2.826   0.123
  936SOL    HW1 3494   0.613   2.910   0.069
  936SOL    HW2 3495   0.652   2.839   0.211
  937SOL     OW 3496   1.594   1.976   1.480
  937SOL    HW1 3497   1.576   2.043   1.408
  937SOL    HW2 3498   1.591   2.022   1.569
  938SOL     OW 3499   0.122   2.505   0.563
  938SOL    HW1 3500   0.077   2.417   0.580
  938SOL    HW2 3501   0.121   2.559   0.647
  939SOL     OW 3502   1.842   3.629   0.359
  939SOL    HW1 3503   1.896   3.600   0.439
  939SOL    HW2 3504   1.872   3.719   0.330
  940SOL     OW 3505   0.027   3.458   0.117
  940SOL    HW1 3506   0.008   3.362   0.138
  940SOL    HW2 3507  -0.006   3.516   0.192
  941SOL     OW 3508   1.689   2.784   0.612
  941SOL    HW1 3509   1.784   2.755   0.620
  941SOL    HW2 3510   1.681   2.849   0.537
  942SOL     OW 3511   1.641   2.970   0.432
  942SOL    HW1 3512   1.727   2.972   0.380
  942SOL    HW2 3513   1.655   3.017   0.520
  943SOL     OW 3514   0.113   2.599   1.597
  943SOL    HW1 3515   0.201   2.586   1.642
  943SOL    HW2 3516   0.100   2.696   1.575
  944SOL     OW 3517   0.613   3.227   0.726
  944SOL    HW1 3518   0.564   3.140   0.735
  944SOL    HW2 3519   0.590   3.270   0.639
  945SOL     OW 3520   1.293   3.090   1.423
  945SOL    HW1 3521   1.330   3.017   1.365
  945SOL    HW2 3522   1.345   3.095   1.508
  946SOL     OW 3523   0.809   1.866   0.502
  946SOL    HW1 3524   0.849   1.957   0.493
  946SOL    HW2 3525   0.709   1.874   0.508
  947SOL     OW 3526   0.197   2.838   1.264
  947SOL    HW1 3527   0.286   2.793   1.250
  947SOL    HW2 3528   0.124   2.773   1.245
  948SOL     OW 3529   1.525   2.861   0.190
  948SOL    HW1 3530   1.462   2.785   0.203
  948SOL    HW2 3531   1.573   2.879   0.276
  949SOL     OW 3532   1.187   3.654   1.616
  949SOL    HW1 3533   1.211   3.714   1.540
  949SOL    HW2 3534   1.194   3.559   1.586
  950SOL     OW 3535   0.317   2.113   1.801
  950SOL    HW1 3536   0.388   2.184   1.807
  950SOL    HW2 3537   0.229   2.152   1.829
  951SOL     OW 3538   1.466   3.279   0.953
  951SOL    HW1 3539   1.407   3.285   1.033
  951SOL    HW2 3540   1.451   3.191   0.907
  952SOL     OW 3541   1.667   3.576   0.572
  952SOL    HW1 3542   1.626   3.553   0.484
  952SOL    HW2 3543   1.649   3.502   0.637
  953SOL     OW 3544   0.598   2.591   0.270
  953SOL    HW1 3545   0.622   2.660   0.202
  953SOL    HW2 3546   0.520   2.624   0.324
  954SOL     OW 3547   1.281   2.207   0.944
  954SOL    HW1 3548   1.195   2.157   0.931
  954SOL    HW2 3549   1.343   2.153   1.000
  955SOL     OW 3550   1.576   3.524   0.307
  955SOL    HW1 3551   1.665   3.570   0.310
  955SOL    HW2 3552   1.555   3.500   0.212
  956SOL     OW 3553   0.807   2.467   1.465
  956SOL    HW1 3554   0.760   2.464   1.554
  956SOL    HW2 3555   0.756   2.412   1.399
  957SOL     OW 3556   1.394   2.331   1.674
  957SOL    HW1 3557   1.374   2.374   1.762
  957SOL    HW2 3558   1.472   2.269   1.683
  958SOL     OW 3559   0.973   2.752   1.572
  958SOL    HW1 3560   1.019   2.668   1.543
  958SOL    HW2 3561   0.917   2.786   1.497
  959SOL     OW 3562   0.991   2.272   1.242
  959SOL    HW1 3563   0.914   2.306   1.296
  959SOL    HW2 3564   0.957   2.221   1.163
  960SOL     OW 3565   1.041   2.563   0.429
  960SOL    HW1 3566   1.067   2.559   0.525
  960SOL    HW2 3567   0.956   2.512   0.415
  961SOL     OW 3568   0.076   2.673   0.789
  961SOL    HW1 3569   0.175   2.661   0.798
  961SOL    HW2 3570   0.052   2.768   0.810
  962SOL     OW 3571   0.130   3.683   1.571
  962SOL    HW1 3572   0.120   3.668   1.670
  962SOL    HW2 3573   0.044   3.719   1.535
  963SOL     OW 3574   0.865   2.210   0.195
  963SOL    HW1 3575   0.924   2.273   0.146
  963SOL    HW2 3576   0.884   2.116   0.166
  964SOL     OW 3577   1.719   2.447   1.831
  964SOL    HW1 3578   1.693   2.536   1.795
  964SOL    HW2 3579   1.717   2.379   1.758
  965SOL     OW 3580   1.362   3.006   0.545
  965SOL    HW1 3581   1.445   2.977   0.497
  965SOL    HW2 3582   1.313   3.073   0.489
  966SOL     OW 3583   0.550   2.058   0.885
  966SOL    HW1 3584   0.545   2.053   0.985
  966SOL    HW2 3585   0.552   2.154   0.856
  967SOL     OW 3586   1.008   3.318   0.477
  967SOL    HW1 3587   0.962   3.390   0.425
  967SOL    HW2 3588   1.004   3.338   0.575
  968SOL     OW 3589   0.351   3.663   0.853
  968SOL    HW1 3590   0.401   3.577   0.859
  968SOL    HW2 3591   0.416   3.740   0.850
  969SOL     OW 3592   1.795   2.928   0.873
  969SOL    HW1 3593   1.733   2.913   0.797
  969SOL    HW2 3594   1.743   2.939   0.958
  970SOL     OW 3595   1.227   3.412   1.506
  970SOL    HW1 3596   1.233   3.335   1.570
  970SOL    HW2 3597   1.175   3.386   1.426
  971SOL     OW 3598   0.321   2.805   0.242
  971SOL    HW1 3599   0.403   2.844   0.200
  971SOL    HW2 3600   0.294   2.723   0.193
  972SOL     OW 3601   1.458   2.597   0.728
  972SOL    HW1 3602   1.453   2.532   0.803
  972SOL    HW2 3603   1.538   2.656   0.741
  973SOL     OW 3604   0.461   3.128   1.727
  973SOL    HW1 3605   0.411   3.129   1.641
  973SOL    HW2 3606   0.398   3.110   1.803
  974SOL     OW 3607   1.111   3.638   0.237
  974SOL    HW1 3608   1.051   3.576   0.287
  974SOL    HW2 3609   1.142   3.594   0.152
  975SOL     OW 3610   0.202   2.147   1.498
  975SOL    HW1 3611   0.122   2.207   1.485
  975SOL    HW2 3612   0.192   2.098   1.584
  976SOL     OW 3613   1.632   3.239   0.081
  976SOL    HW1 3614   1.600   3.333   0.071
  976SOL    HW2 3615   1.556   3.176   0.069
  977SOL     OW 3616   0.464   3.605   0.323
  977SOL    HW1 3617   0.497   3.644   0.409
  977SOL    HW2 3618   0.540   3.598   0.258
  978SOL     OW 3619   1.400   1.969   0.426
  978SOL    HW1 3620   1.376   1.932   0.336
  978SOL    HW2 3621   1.499   1.985   0.430
  979SOL     OW 3622   0.249   3.647   1.241
  979SOL    HW1 3623   0.306   3.582   1.291
  979SOL    HW2 3624   0.233   3.614   1.148
  980SOL     OW 3625   0.940   3.560   0.904
  980SOL    HW1 3626   1.020   3.503   0.925
  980SOL    HW2 3627   0.891   3.520   0.827
  981SOL     OW 3628   0.382   2.562   0.480
  981SOL    HW1 3629   0.427   2.472   0.477
  981SOL    HW2 3630   0.288   2.551   0.513
  982SOL     OW 3631   1.547   2.084   1.729
  982SOL    HW1 3632   1.542   2.121   1.821
  982SOL    HW2 3633   1.475   2.015   1.717
  983SOL     OW 3634   0.614   1.984   0.117
  983SOL    HW1 3635   0.712   1.962   0.124
  983SOL    HW2 3636   0.583   1.967   0.024
  984SOL     OW 3637   0.781   2.126   1.749
  984SOL    HW1 3638   0.848   2.065   1.792
  984SOL    HW2 3639   0.708   2.145   1.814
  985SOL     OW 3640   0.888   3.376   1.195
  985SOL    HW1 3641   0.865   3.351   1.101
  985SOL    HW2 3642   0.949   3.307   1.234
  986SOL     OW 3643   1.351   2.452   1.433
  986SOL    HW1 3644   1.379   2.409   1.518
  986SOL    HW2 3645   1.376   2.548   1.434
  987SOL     OW 3646   0.803   3.264   0.924
  987SOL    HW1 3647   0.893   3.278   0.882
  987SOL    HW2 3648   0.732   3.266   0.853
  988SOL     OW 3649   0.922   2.365   0.899
  988SOL    HW1 3650   0.897   2.356   0.803
  988SOL    HW2 3651   0.970   2.283   0.930
  989SOL     OW 3652   0.539   1.926   0.512
  989SOL    HW1 3653   0.458   1.927   0.570
  989SOL    HW2 3654   0.542   2.009   0.457
  990SOL     OW 3655   1.434   3.050   0.041
  990SOL    HW1 3656   1.466   2.974   0.098
  990SOL    HW2 3657   1.342   3.077   0.071
  991SOL     OW 3658   0.297   1.897   0.171
  991SOL    HW1 3659   0.346   1.981   0.150
  991SOL    HW2 3660   0.359   1.832   0.216
  992SOL     OW 3661   0.935   2.098   0.480
  992SOL    HW1 3662   0.887   2.139   0.402
  992SOL    HW2 3663   1.034   2.096   0.461
  993SOL     OW 3664   1.076   2.545   1.464
  993SOL    HW1 3665   0.996   2.484   1.467
  993SOL    HW2 3666   1.157   2.492   1.440
  994SOL     OW 3667   1.227   3.432   0.793
  994SOL    HW1 3668   1.248   3.506   0.728
  994SOL    HW2 3669   1.295   3.432   0.866
  995SOL     OW 3670   0.459   3.014   0.741
  995SOL    HW1 3671   0.388   2.987   0.806
  995SOL    HW2 3672   0.433   2.986   0.648
  996SOL     OW 3673   1.271   3.659   0.591
  996SOL    HW1 3674   1.315   3.723   0.527
  996SOL    HW2 3675   1.221   3.711   0.661
  997SOL     OW 3676   1.032   2.411   0.016
  997SOL    HW1 3677   0.991   2.493  -0.023
  997SOL    HW2 3678   1.096   2.437   0.089
  998SOL     OW 3679   0.078   2.418   1.386
  998SOL    HW1 3680   0.170   2.417   1.345
  998SOL    HW2 3681   0.072   2.492   1.453
  999SOL     OW 3682   0.561   2.084   1.147
  999SOL    HW1 3683   0.599   2.000   1.184
  999SOL    HW2 3684   0.473   2.103   1.191
 1000SOL     OW 3685   0.866   2.316   0.642
 1000SOL    HW1 3686   0.834   2.388   0.580
 1000SOL    HW2 3687   0.890   2.235   0.589
 1001SOL     OW 3688   1.017   1.901   0.753
 1001SOL    HW1 3689   0.945   1.906   0.684
 1001SOL    HW2 3690   0.993   1.832   0.822
 1002SOL     OW 3691   1.429   3.035   0.867
 1002SOL    HW1 3692   1.374   2.951   0.860
 1002SOL    HW2 3693   1.455   3.064   0.775
 1003SOL     OW 3694   1.466   2.452   0.992
 1003SOL    HW1 3695   1.436   2.357   0.999
 1003SOL    HW2 3696   1.539   2.468   1.058
 1004SOL     OW 3697   1.857   2.695   0.377
 1004SOL    HW1 3698   1.899   2.631   0.441
 1004SOL    HW2 3699   1.819   2.644   0.299
 1005SOL     OW 3700   0.488   3.247   0.174
 1005SOL    HW1 3701   0.401   3.232   0.221
 1005SOL    HW2 3702   0.471   3.273   0.079
 1006SOL     OW 3703   1.664   3.142   0.657
 1006SOL    HW1 3704   1.763   3.150   0.671
 1006SOL    HW2 3705   1.619   3.226   0.688
 1007SOL     OW 3706   1.390   2.437   0.078
 1007SOL    HW1 3707   1.336   2.416   0.159
 1007SOL    HW2 3708   1.481   2.396   0.087
 1008SOL     OW 3709   0.527   2.118   0.328
 1008SOL    HW1 3710   0.554   2.059   0.253
 1008SOL    HW2 3711   0.527   2.213   0.297
 1009SOL     OW 3712   1.754   3.085   1.588
 1009SOL    HW1 3713   1.845   3.046   1.575
 1009SOL    HW2 3714   1.762   3.181   1.612
 1010SOL     OW 3715   1.064   3.209   1.340
 1010SOL    HW1 3716   0.984   3.186   1.395
 1010SOL    HW2 3717   1.147   3.183   1.389
 1011SOL     OW 3718   1.592   3.491   1.625
 1011SOL    HW1 3719   1.619   3.525   1.535
 1011SOL    HW2 3720   1.671   3.453   1.671
 1012SOL     OW 3721   1.111   3.057   1.100
 1012SOL    HW1 3722   1.071   3.101   1.181
 1012SOL    HW2 3723   1.070   3.094   1.017
 1013SOL     OW 3724   1.638   2.961   1.079
 1013SOL    HW1 3725   1.643   3.042   1.138
 1013SOL    HW2 3726   1.552   2.963   1.028
 1014SOL     OW 3727   0.915   1.951   1.402
 1014SOL    HW1 3728   0.940   1.931   1.307
 1014SOL    HW2 3729   0.987   2.007   1.444
 1015SOL     OW 3730   0.980   2.978   1.719
 1015SOL    HW1 3731   0.881   2.984   1.729
 1015SOL    HW2 3732   1.003   2.898   1.663
 1016SOL     OW 3733   0.705   2.912   0.368
 1016SOL    HW1 3734   0.691   2.919   0.467
 1016SOL    HW2 3735   0.789   2.861   0.350
 1017SOL     OW 3736   0.410   2.675   1.251
 1017SOL    HW1 3737   0.496   2.687   1.301
 1017SOL    HW2 3738   0.368   2.588   1.278
 1018SOL     OW 3739   1.274   2.248   1.262
 1018SOL    HW1 3740   1.295   2.322   1.326
 1018SOL    HW2 3741   1.185   2.265   1.219
 1019SOL     OW 3742   0.064   3.426   1.331
 1019SOL    HW1 3743   0.018   3.508   1.297
 1019SOL    HW2 3744   0.162   3.445   1.340
 1020SOL     OW 3745   0.367   2.962   0.501
 1020SOL    HW1 3746   0.360   3.045   0.445
 1020SOL    HW2 3747   0.371   2.882   0.441
 1021SOL     OW 3748   0.566   2.399   0.865
 1021SOL    HW1 3749   0.578   2.465   0.791
 1021SOL    HW2 3750   0.612   2.433   0.948
 1022SOL     OW 3751   1.252   3.210   0.388
 1022SOL    HW1 3752   1.302   3.287   0.428
 1022SOL    HW2 3753   1.157   3.212   0.420
 1023SOL     OW 3754   1.272   3.307   1.142
 1023SOL    HW1 3755   1.319   3.320   1.229
 1023SOL    HW2 3756   1.206   3.233   1.151
 1024SOL     OW 3757   1.582   2.501   0.472
 1024SOL    HW1 3758   1.551   2.562   0.545
 1024SOL    HW2 3759   1.632   2.553   0.403
 1025SOL     OW 3760   0.354   3.372   1.329
 1025SOL    HW1 3761   0.333   3.328   1.242
 1025SOL    HW2 3762   0.451   3.398   1.332
 1026SOL     OW 3763   0.402   2.613   1.598
 1026SOL    HW1 3764   0.470   2.668   1.551
 1026SOL    HW2 3765   0.442   2.525   1.625
 1027SOL     OW 3766   1.587   2.641   1.670
 1027SOL    HW1 3767   1.495   2.679   1.665
 1027SOL    HW2 3768   1.647   2.688   1.605
 1028SOL     OW 3769   1.013   1.967   1.770
 1028SOL    HW1 3770   1.019   2.052   1.718
 1028SOL    HW2 3771   1.045   1.891   1.713
 1029SOL     OW 3772   0.504   1.912   1.740
 1029SOL    HW1 3773   0.462   1.855   1.670
 1029SOL    HW2 3774   0.438   1.981   1.772
 1030SOL     OW 3775   0.573   2.732   1.029
 1030SOL    HW1 3776   0.617   2.821   1.020
 1030SOL    HW2 3777   0.510   2.732   1.106
 1031SOL     OW 3778   1.360   2.724   1.045
 1031SOL    HW1 3779   1.285   2.724   0.979
 1031SOL    HW2 3780   1.397   2.632   1.054
 1032SOL     OW 3781   1.209   2.387   0.275
 1032SOL    HW1 3782   1.222   2.303   0.329
 1032SOL    HW2 3783   1.180   2.461   0.335
 1033SOL     OW 3784   0.307   2.075   1.231
 1033SOL    HW1 3785   0.284   2.112   1.321
 1033SOL    HW2 3786   0.277   1.980   1.225
 1034SOL     OW 3787   0.037   3.172   1.282
 1034SOL    HW1 3788   0.090   3.123   1.350
 1034SOL    HW2 3789   0.059   3.270   1.287
 1035SOL     OW 3790   0.732   2.496   1.064
 1035SOL    HW1 3791   0.791   2.470   0.988
 1035SOL    HW2 3792   0.704   2.592   1.053
 1036SOL     OW 3793   1.728   2.797   1.854
 1036SOL    HW1 3794   1.682   2.790   1.765
 1036SOL    HW2 3795   1.666   2.841   1.920
 1037SOL     OW 3796   0.307   1.925   0.618
 1037SOL    HW1 3797   0.296   2.019   0.651
 1037SOL    HW2 3798   0.302   1.862   0.695
 1038SOL     OW 3799   1.622   2.229   0.374
 1038SOL    HW1 3800   1.624   2.153   0.438
 1038SOL    HW2 3801   1.574   2.306   0.414
 1039SOL     OW 3802   1.023   2.628   0.966
 1039SOL    HW1 3803   1.038   2.649   1.062
 1039SOL    HW2 3804   0.993   2.533   0.957
 1040SOL     OW 3805   0.980   3.435   1.700
 1040SOL    HW1 3806   0.960   3.479   1.612
 1040SOL    HW2 3807   1.019   3.344   1.684
 1041SOL     OW 3808   1.859   3.380   1.605
 1041SOL    HW1 3809   1.873   3.407   1.510
 1041SOL    HW2 3810   1.942   3.402   1.658
 1042SOL     OW 3811   0.350   2.760   1.804
 1042SOL    HW1 3812   0.426   2.804   1.852
 1042SOL    HW2 3813   0.385   2.713   1.722
 1043SOL     OW 3814   1.540   2.136   0.125
 1043SOL    HW1 3815   1.479   2.061   0.148
 1043SOL    HW2 3816   1.562   2.188   0.208
 1044SOL     OW 3817   1.303   2.700   0.042
 1044SOL    HW1 3818   1.337   2.607   0.057
 1044SOL    HW2 3819   1.321   2.727  -0.053
 1045SOL     OW 3820   1.068   3.195   0.849
 1045SOL    HW1 3821   1.075   3.111   0.794
 1045SOL    HW2 3822   1.130   3.264   0.813
 1046SOL     OW 3823   0.319   2.672   0.949
 1046SOL    HW1 3824   0.412   2.708   0.954
 1046SOL    HW2 3825   0.313   2.587   1.001
 1047SOL     OW 3826   0.339   2.371   1.006
 1047SOL    HW1 3827   0.287   2.288   0.989
 1047SOL    HW2 3828   0.416   2.376   0.942
 1048SOL     OW 3829   1.138   2.242   1.678
 1048SOL    HW1 3830   1.093   2.305   1.742
 1048SOL    HW2 3831   1.231   2.273   1.661
 1049SOL     OW 3832   1.160   2.069   1.477
 1049SOL    HW1 3833   1.160   2.133   1.554
 1049SOL    HW2 3834   1.188   2.117   1.394
 1050SOL     OW 3835   0.008   3.188   0.200
 1050SOL    HW1 3836  -0.085   3.209   0.169
 1050SOL    HW2 3837   0.018   3.089   0.213
 1051SOL     OW 3838   0.088   3.663   0.927
 1051SOL    HW1 3839   0.046   3.577   0.900
 1051SOL    HW2 3840   0.182   3.666   0.893
 1052SOL     OW 3841   0.504   3.430   0.910
 1052SOL    HW1 3842   0.570   3.504   0.919
 1052SOL    HW2 3843   0.548   3.351   0.868
 1053SOL     OW 3844   1.002   2.658   1.238
 1053SOL    HW1 3845   1.043   2.626   1.324
 1053SOL    HW2 3846   0.906   2.631   1.235
 1054SOL     OW 3847   0.040   2.406   1.114
 1054SOL    HW1 3848   0.125   2.373   1.073
 1054SOL    HW2 3849   0.053   2.421   1.212
 1055SOL     OW 3850   0.189   2.382   1.722
 1055SOL    HW1 3851   0.248   2.342   1.652
 1055SOL    HW2 3852   0.131   2.453   1.681
 1056SOL     OW 3853   1.369   2.812   1.660
 1056SOL    HW1 3854   1.408   2.901   1.680
 1056SOL    HW2 3855   1.379   2.792   1.563
 1057SOL     OW 3856   0.815   2.434   0.325
 1057SOL    HW1 3857   0.822   2.345   0.279
 1057SOL    HW2 3858   0.721   2.468   0.317
 1058SOL     OW 3859   1.657   2.466   1.206
 1058SOL    HW1 3860   1.619   2.397   1.268
 1058SOL    HW2 3861   1.739   2.430   1.162
 1059SOL     OW 3862   0.252   3.426   1.744
 1059SOL    HW1 3863   0.222   3.483   1.820
 1059SOL    HW2 3864   0.245   3.329   1.770
 1060SOL     OW 3865   0.671   2.326   1.269
 1060SOL    HW1 3866   0.637   2.237   1.239
 1060SOL    HW2 3867   0.697   2.380   1.189
 1061SOL     OW 3868   0.930   3.540   1.465
 1061SOL    HW1 3869   0.906   3.522   1.370
 1061SOL    HW2 3870   0.960   3.634   1.475
 1062SOL     OW 3871   0.473   2.362   0.191
 1062SOL    HW1 3872   0.534   2.442   0.195
 1062SOL    HW2 3873   0.378   2.393   0.198
 1063SOL     OW 3874   0.159   2.999   1.466
 1063SOL    HW1 3875   0.181   2.938   1.542
 1063SOL    HW2 3876   0.169   2.950   1.380
 1064SOL     OW 3877   1.347   2.921   1.234
 1064SOL    HW1 3878   1.371   2.858   1.160
 1064SOL    HW2 3879   1.257   2.961   1.216
 1065SOL     OW 3880   1.302   2.717   0.309
 1065SOL    HW1 3881   1.216   2.686   0.351
 1065SOL    HW2 3882   1.298   2.703   0.210
 1066SOL     OW 3883   1.759   3.609   1.154
 1066SOL    HW1 3884   1.820   3.639   1.081
 1066SOL    HW2 3885   1.721   3.520   1.132
 1067SOL     OW 3886   1.252   3.593   1.128
 1067SOL    HW1 3887   1.336   3.598   1.074
 1067SOL    HW2 3888   1.229   3.497   1.146
 1068SOL     OW 3889   0.083   3.120   1.022
 1068SOL    HW1 3890   0.078   3.119   1.122
 1068SOL    HW2 3891   0.000   3.079   0.984
 1069SOL     OW 3892   0.688   3.524   1.716
 1069SOL    HW1 3893   0.632   3.605   1.725
 1069SOL    HW2 3894   0.740   3.528   1.630
 1070SOL     OW 3895   0.903   1.948   0.133
 1070SOL    HW1 3896   0.954   1.949   0.047
 1070SOL    HW2 3897   0.959   1.906   0.204
 1071SOL     OW 3898   1.726   1.997   0.523
 1071SOL    HW1 3899   1.799   1.980   0.456
 1071SOL    HW2 3900   1.695   1.910   0.561
 1072SOL     OW 3901   1.388   3.435   0.477
 1072SOL    HW1 3902   1.455   3.447   0.403
 1072SOL    HW2 3903   1.348   3.524   0.500
 1073SOL     OW 3904   0.130   3.656   1.851
 1073SOL    HW1 3905   0.089   3.582   1.904
 1073SOL    HW2 3906   0.194   3.707   1.909
 1074SOL     OW 3907   1.280   2.789   0.672
 1074SOL    HW1 3908   1.340   2.708   0.674
 1074SOL    HW2 3909   1.320   2.858   0.612
 1075SOL     OW 3910   0.830   3.135   1.422
 1075SOL    HW1 3911   0.825   3.168   1.517
 1075SOL    HW2 3912   0.744   3.154   1.376
 1076SOL     OW 3913   0.672   3.478   0.154
 1076SOL    HW1 3914   0.681   3.488   0.055
 1076SOL    HW2 3915   0.632   3.389   0.175
 1077SOL     OW 3916   1.650   3.582   1.394
 1077SOL    HW1 3917   1.703   3.592   1.310
 1077SOL    HW2 3918   1.623   3.672   1.428
 1078SOL     OW 3919   1.841   2.037   0.963
 1078SOL    HW1 3920   1.880   1.952   0.927
 1078SOL    HW2 3921   1.743   2.039   0.944
 1079SOL     OW 3922   0.263   2.188   0.720
 1079SOL    HW1 3923   0.184   2.239   0.686
 1079SOL    HW2 3924   0.254   2.173   0.818
 1080SOL     OW 3925   1.194   3.474   0.031
 1080SOL    HW1 3926   1.200   3.381   0.068
 1080SOL    HW2 3927   1.135   3.474  -0.049
 1081SOL     OW 3928   0.822   2.864   1.372
 1081SOL    HW1 3929   0.862   2.863   1.280
 1081SOL    HW2 3930   0.832   2.956   1.412
 1082SOL     OW 3931   0.916   2.772   0.291
 1082SOL    HW1 3932   0.979   2.810   0.223
 1082SOL    HW2 3933   0.956   2.689   0.330
 1083SOL     OW 3934   1.504   3.469   0.044
 1083SOL    HW1 3935   1.412   3.506   0.051
 1083SOL    HW2 3936   1.542   3.489  -0.046
 1084SOL     OW 3937   0.372   3.150   1.490
 1084SOL    HW1 3938   0.359   3.243   1.456
 1084SOL    HW2 3939   0.288   3.098   1.477
 1085SOL     OW 3940   1.614   3.154   1.289
 1085SOL    HW1 3941   1.674   3.157   1.369
 1085SOL    HW2 3942   1.539   3.218   1.302
 1086SOL     OW 3943   1.039   2.960   0.696
 1086SOL    HW1 3944   0.969   2.913   0.750
 1086SOL    HW2 3945   1.098   2.892   0.653
 1087SOL     OW 3946   1.014   2.098   0.971
 1087SOL    HW1 3947   1.006   2.062   0.878
 1087SOL    HW2 3948   1.012   2.022   1.036
 1088SOL     OW 3949   0.590   3.349   0.491
 1088SOL    HW1 3950   0.632   3.291   0.421
 1088SOL    HW2 3951   0.546   3.428   0.447
 1089SOL     OW 3952   1.709   2.247   1.381
 1089SOL    HW1 3953   1.782   2.316   1.385
 1089SOL    HW2 3954   1.737   2.172   1.322
 1090SOL     OW 3955   0.255   3.210   0.290
 1090SOL    HW1 3956   0.159   3.211   0.263
 1090SOL    HW2 3957   0.267   3.263   0.374
 1091SOL     OW 3958   0.105   2.875   1.726
 1091SOL    HW1 3959   0.028   2.842   1.780
 1091SOL    HW2 3960   0.190   2.845   1.768
 1092SOL     OW 3961   0.672   2.065   1.489
 1092SOL    HW1 3962   0.762   2.049   1.449
 1092SOL    HW2 3963   0.680   2.070   1.588
 1093SOL     OW 3964   0.075   2.207   0.033
 1093SOL    HW1 3965  -0.017   2.179   0.004
 1093SOL    HW2 3966   0.106   2.284  -0.023
 1094SOL     OW 3967   1.440   2.718   1.398
 1094SOL    HW1 3968   1.383   2.770   1.335
 1094SOL    HW2 3969   1.536   2.730   1.374
 1095SOL     OW 3970   0.072   2.028   0.318
 1095SOL    HW1 3971   0.055   2.111   0.264
 1095SOL    HW2 3972   0.162   1.991   0.296
 1096SOL     OW 3973   1.183   3.197   0.119
 1096SOL    HW1 3974   1.084   3.186   0.121
 1096SOL    HW2 3975   1.217   3.212   0.212
 1097SOL     OW 3976   0.613   2.704   1.431
 1097SOL    HW1 3977   0.669   2.785   1.414
 1097SOL    HW2 3978   0.672   2.624   1.434
 1098SOL     OW 3979   1.493   3.629   0.959
 1098SOL    HW1 3980   1.526   3.693   0.890
 1098SOL    HW2 3981   1.559   3.623   1.034
 1099SOL     OW 3982   0.716   2.427   1.708
 1099SOL    HW1 3983   0.735   2.492   1.782
 1099SOL    HW2 3984   0.776   2.347   1.717
 1100SOL     OW 3985   1.450   3.082   1.633
 1100SOL    HW1 3986   1.441   3.072   1.732
 1100SOL    HW2 3987   1.546   3.075   1.607
 1101SOL     OW 3988   0.390   3.603   1.560
 1101SOL    HW1 3989   0.299   3.644   1.558
 1101SOL    HW2 3990   0.383   3.509   1.592
 1102SOL     OW 3991   1.674   2.745   1.254
 1102SOL    HW1 3992   1.647   2.656   1.217
 1102SOL    HW2 3993   1.675   2.813   1.181
 1103SOL     OW 3994   1.225   2.187   0.449
 1103SOL    HW1 3995   1.290   2.113   0.438
 1103SOL    HW2 3996   1.245   2.237   0.533
 1104SOL     OW 3997   0.594   2.607   0.652
 1104SOL    HW1 3998   0.644   2.692   0.633
 1104SOL    HW2 3999   0.506   2.609   0.604
 1105SOL     OW 4000   1.777   2.204   1.642
 1105SOL    HW1 4001   1.760   2.235   1.548
 1105SOL    HW2 4002   1.693   2.167   1.680
 1106SOL     OW 4003   1.730   2.796   1.517
 1106SOL    HW1 4004   1.768   2.887   1.532
 1106SOL    HW2 4005   1.722   2.779   1.418
 1107SOL     OW 4006   0.859   3.236   0.016
 1107SOL    HW1 4007   0.813   3.251   0.104
 1107SOL    HW2 4008   0.903   3.321  -0.014
 1108SOL     OW 4009   0.661   3.652   0.953
 1108SOL    HW1 4010   0.615   3.740   0.940
 1108SOL    HW2 4011   0.760   3.664   0.946
 1109SOL     OW 4012   0.859   2.818   0.861
 1109SOL    HW1 4013   0.913   2.749   0.909
 1109SOL    HW2 4014   0.827   2.887   0.927
 1110SOL     OW 4015   1.083   2.846   0.087
 1110SOL    HW1 4016   1.060   2.899   0.005
 1110SOL    HW2 4017   1.164   2.790   0.068
 1111SOL     OW 4018   1.861   3.431   0.851
 1111SOL    HW1 4019   1.790   3.419   0.781
 1111SOL    HW2 4020   1.862   3.352   0.911
 1112SOL     OW 4021   0.221   3.176   1.844
 1112SOL    HW1 4022   0.156   3.103   1.823
 1112SOL    HW2 4023   0.225   3.190   1.942
 1113SOL     OW 4024   0.079   3.102   0.653
 1113SOL    HW1 4025   0.078   3.055   0.741
 1113SOL    HW2 4026   0.161   3.074   0.602
 1114SOL     OW 4027   0.672   3.253   1.624
 1114SOL    HW1 4028   0.594   3.203   1.662
 1114SOL    HW2 4029   0.669   3.348   1.655
 1115SOL     OW 4030   1.824   2.054   1.227
 1115SOL    HW1 4031   1.820   1.964   1.271
 1115SOL    HW2 4032   1.827   2.043   1.128
 1116SOL     OW 4033   0.428   2.286   0.520
 1116SOL    HW1 4034   0.458   2.214   0.458
 1116SOL    HW2 4035   0.389   2.246   0.603
 1117SOL     OW 4036   1.705   3.349   1.104
 1117SOL    HW1 4037   1.612   3.324   1.077
 1117SOL    HW2 4038   1.731   3.299   1.186
 1118SOL     OW 4039   0.317   2.409   1.280
 1118SOL    HW1 4040   0.355   2.350   1.352
 1118SOL    HW2 4041   0.357   2.383   1.192
 1119SOL     OW 4042   0.812   3.448   0.687
 1119SOL    HW1 4043   0.844   3.458   0.593
 1119SOL    HW2 4044   0.733   3.386   0.689
 1120SOL     OW 4045   1.424   2.076   1.112
 1120SOL    HW1 4046   1.476   2.011   1.167
 1120SOL    HW2 4047   1.375   2.139   1.173
 1121SOL     OW 4048   1.001   1.896   1.154
 1121SOL    HW1 4049   0.938   1.824   1.123
 1121SOL    HW2 4050   1.094   1.860   1.154
 1122SOL     OW 4051   0.770   3.192   0.301
 1122SOL    HW1 4052   0.724   3.105   0.318
 1122SOL    HW2 4053   0.861   3.189   0.342
 1123SOL     OW 4054   0.618   3.429   1.284
 1123SOL    HW1 4055   0.613   3.511   1.341
 1123SOL    HW2 4056   0.707   3.426   1.239
 1124SOL     OW 4057   1.352   1.914   0.168
 1124SOL    HW1 4058   1.387   1.873   0.084
 1124SOL    HW2 4059   1.262   1.876   0.188
 1125SOL     OW 4060   1.300   2.315   0.691
 1125SOL    HW1 4061   1.241   2.395   0.695
 1125SOL    HW2 4062   1.315   2.280   0.784
 1126SOL     OW 4063   1.593   2.083   0.882
 1126SOL    HW1 4064   1.509   2.082   0.936
 1126SOL    HW2 4065   1.595   2.166   0.826
 1127SOL     OW 4066   0.039   2.939   0.300
 1127SOL    HW1 4067   0.138   2.928   0.291
 1127SOL    HW2 4068  -0.001   2.853   0.332
 1128SOL     OW 4069   0.875   3.508   0.337
 1128SOL    HW1 4070   0.798   3.473   0.283
 1128SOL    HW2 4071   0.843   3.579   0.399
 1129SOL     OW 4072   0.230   2.490   1.975
 1129SOL    HW1 4073   0.137   2.488   2.012
 1129SOL    HW2 4074   0.231   2.451   1.883
 1130SOL     OW 4075   0.225   2.137   2.858
 1130SOL    HW1 4076   0.260   2.120   2.950
 1130SOL    HW2 4077   0.137   2.092   2.846
 1131SOL     OW 4078   0.019   2.230   2.509
 1131SOL    HW1 4079  -0.063   2.273   2.548
 1131SOL    HW2 4080  -0.009   2.157   2.446
 1132SOL     OW 4081   0.569   3.137   3.027
 1132SOL    HW1 4082   0.476   3.130   2.990
 1132SOL    HW2 4083   0.580   3.226   3.071
 1133SOL     OW 4084   1.555   3.373   2.565
 1133SOL    HW1 4085   1.498   3.357   2.646
 1133SOL    HW2 4086   1.496   3.383   2.485
 1134SOL     OW 4087   1.135   2.565   2.579
 1134SOL    HW1 4088   1.192   2.643   2.554
 1134SOL    HW2 4089   1.075   2.591   2.655
 1135SOL     OW 4090   1.755   2.469   2.093
 1135SOL    HW1 4091   1.743   2.456   1.994
 1135SOL    HW2 4092   1.725   2.388   2.142
 1136SOL     OW 4093   0.768   3.006   2.885
 1136SOL    HW1 4094   0.690   3.023   2.945
 1136SOL    HW2 4095   0.802   3.093   2.849
 1137SOL     OW 4096   0.850   2.660   3.685
 1137SOL    HW1 4097   0.846   2.736   3.750
 1137SOL    HW2 4098   0.872   2.696   3.594
 1138SOL     OW 4099   0.685   2.874   2.527
 1138SOL    HW1 4100   0.754   2.858   2.597
 1138SOL    HW2 4101   0.612   2.931   2.565
 1139SOL     OW 4102   0.686   3.023   3.665
 1139SOL    HW1 4103   0.746   3.102   3.679
 1139SOL    HW2 4104   0.600   3.054   3.624
 1140SOL     OW 4105   0.335   3.297   2.923
 1140SOL    HW1 4106   0.257   3.266   2.870
 1140SOL    HW2 4107   0.393   3.355   2.866
 1141SOL     OW 4108   1.460   3.367   3.201
 1141SOL    HW1 4109   1.484   3.461   3.227
 1141SOL    HW2 4110   1.444   3.313   3.283
 1142SOL     OW 4111   0.438   2.254   3.361
 1142SOL    HW1 4112   0.520   2.198   3.370
 1142SOL    HW2 4113   0.357   2.196   3.365
 1143SOL     OW 4114   1.603   2.309   2.599
 1143SOL    HW1 4115   1.529   2.355   2.549
 1143SOL    HW2 4116   1.654   2.377   2.652
 1144SOL     OW 4117   0.231   3.575   2.345
 1144SOL    HW1 4118   0.265   3.652   2.399
 1144SOL    HW2 4119   0.275   3.575   2.255
 1145SOL     OW 4120   1.127   3.203   3.552
 1145SOL    HW1 4121   1.174   3.203   3.640
 1145SOL    HW2 4122   1.079   3.116   3.541
 1146SOL     OW 4123   0.230   3.296   2.400
 1146SOL    HW1 4124   0.204   3.392   2.400
 1146SOL    HW2 4125   0.159   3.242   2.445
 1147SOL     OW 4126   0.240   2.953   2.748
 1147SOL    HW1 4127   0.254   2.869   2.800
 1147SOL    HW2 4128   0.185   3.017   2.803
 1148SOL     OW 4129   0.620   3.648   3.301
 1148SOL    HW1 4130   0.528   3.631   3.336
 1148SOL    HW2 4131   0.648   3.740   3.327
 1149SOL     OW 4132   0.606   2.826   1.985
 1149SOL    HW1 4133   0.613   2.910   1.931
 1149SOL    HW2 4134   0.652   2.839   2.073
 1150SOL     OW 4135   1.594   1.976   3.342
 1150SOL    HW1 4136   1.576   2.043   3.270
 1150SOL    HW2 4137   1.591   2.022   3.431
 1151SOL     OW 4138   0.122   2.505   2.425
 1151SOL    HW1 4139   0.077   2.417   2.442
 1151SOL    HW2 4140   0.121   2.559   2.509
 1152SOL     OW 4141   1.842   3.629   2.221
 1152SOL    HW1 4142   1.896   3.600   2.301
 1152SOL    HW2 4143   1.872   3.719   2.192
 1153SOL     OW 4144   0.027   3.458   1.979
 1153SOL    HW1 4145   0.008   3.362   2.000
 1153SOL    HW2 4146  -0.006   3.516   2.054
 1154SOL     OW 4147   1.689   2.784   2.474
 1154SOL    HW1 4148   1.784   2.755   2.482
 1154SOL    HW2 4149   1.681   2.849   2.399
 1155SOL     OW 4150   1.641   2.970   2.294
 1155SOL    HW1 4151   1.727   2.972   2.242
 1155SOL    HW2 4152   1.655   3.017   2.382
 1156SOL     OW 4153   0.113   2.599   3.459
 1156SOL    HW1 4154   0.201   2.586   3.504
 1156SOL    HW2 4155   0.100   2.696   3.437
 1157SOL     OW 4156   0.613   3.227   2.588
 1157SOL    HW1 4157   0.564   3.140   2.597
 1157SOL    HW2 4158   0.590   3.270   2.501
 1158SOL     OW 4159   1.293   3.090   3.285
 1158SOL    HW1 4160   1.330   3.017   3.227
 1158SOL    HW2 4161   1.345   3.095   3.370
 1159SOL     OW 4162   0.809   1.866   2.364
 1159SOL    HW1 4163   0.849   1.957   2.355
 1159SOL    HW2 4164   0.709   1.874   2.370
 1160SOL     OW 4165   0.197   2.838   3.126
 1160SOL    HW1 4166   0.286   2.793   3.112
 1160SOL    HW2 4167   0.124   2.773   3.107
 1161SOL     OW 4168   1.525   2.861   2.052
 1161SOL    HW1 4169   1.462   2.785   2.065
 1161SOL    HW2 4170   1.573   2.879   2.138
 1162SOL     OW 4171   1.187   3.654   3.478
 1162SOL    HW1 4172   1.211   3.714   3.402
 1162SOL    HW2 4173   1.194   3.559   3.448
 1163SOL     OW 4174   0.317   2.113   3.663
 1163SOL    HW1 4175   0.388   2.184   3.669
 1163SOL    HW2 4176   0.229   2.152   3.691
 1164SOL     OW 4177   1.466   3.279   2.815
 1164SOL    HW1 4178   1.407   3.285   2.895
 1164SOL    HW2 4179   1.451   3.191   2.769
 1165SOL     OW 4180   1.667   3.576   2.434
 1165SOL    HW1 4181   1.626   3.553   2.346
 1165SOL    HW2 4182   1.649   3.502   2.499
 1166SOL     OW 4183   0.598   2.591   2.132
 1166SOL    HW1 4184   0.622   2.660   2.064
 1166SOL    HW2 4185   0.520   2.624   2.186
 1167SOL     OW 4186   1.281   2.207   2.806
 1167SOL    HW1 4187   1.195   2.157   2.793
 1167SOL    HW2 4188   1.343   2.153   2.862
 1168SOL     OW 4189   1.576   3.524   2.169
 1168SOL    HW1 4190   1.665   3.570   2.172
 1168SOL    HW2 4191   1.555   3.500   2.074
 1169SOL     OW 4192   0.807   2.467   3.327
 1169SOL    HW1 4193   0.760   2.464   3.416
 1169SOL    HW2 4194   0.756   2.412   3.261
 1170SOL     OW 4195   1.394   2.331   3.536
 1170SOL    HW1 4196   1.374   2.374   3.624
 1170SOL    HW2 4197   1.472   2.269   3.545
 1171SOL     OW 4198   0.973   2.752   3.434
 1171SOL    HW1 4199   1.019   2.668   3.405
 1171SOL    HW2 4200   0.917   2.786   3.359
 1172SOL     OW 4201   0.991   2.272   3.104
 1172SOL    HW1 4202   0.914   2.306   3.158
 1172SOL    HW2 4203   0.957   2.221   3.025
 1173SOL     OW 4204   1.041   2.563   2.291
 1173SOL    HW1 4205   1.067   2.559   2.387
 1173SOL    HW2 4206   0.956   2.512   2.277
 1174SOL     OW 4207   0.076   2.673   2.651
 1174SOL    HW1 4208   0.175   2.661   2.660
 1174SOL    HW2 4209   0.052   2.768   2.672
 1175SOL     OW 4210   0.130   3.683   3.433
 1175SOL    HW1 4211   0.120   3.668   3.532
 1175SOL    HW2 4212   0.044   3.719   3.397
 1176SOL     OW 4213   0.865   2.210   2.057
 1176SOL    HW1 4214   0.924   2.273   2.008
 1176SOL    HW2 4215   0.884   2.116   2.028
 1177SOL     OW 4216   1.719   2.447   3.693
 1177SOL    HW1 4217   1.693   2.536   3.657
 1177SOL    HW2 4218   1.717   2.379   3.620
 1178SOL     OW 4219   1.362   3.006   2.407
 1178SOL    HW1 4220   1.445   2.977   2.359
 1178SOL    HW2 4221   1.313   3.073   2.351
 1179SOL     OW 4222   0.550   2.058   2.747
 1179SOL    HW1 4223   0.545   2.053   2.847
 1179SOL    HW2 4224   0.552   2.154   2.718
 1180SOL     OW 4225   1.008   3.318   2.339
 1180SOL    HW1 4226   0.962   3.390   2.287
 1180SOL    HW2 4227   1.004   3.338   2.437
 1181SOL     OW 4228   0.351   3.663   2.715
 1181SOL    HW1 4229   0.401   3.577   2.721
 1181SOL    HW2 4230   0.416   3.740   2.712
 1182SOL     OW 4231   1.795   2.928   2.735
 1182SOL    HW1 4232   1.733   2.913   2.659
 1182SOL    HW2 4233   1.743   2.939   2.820
 1183SOL     OW 4234   1.227   3.412   3.368
 1183SOL    HW1 4235   1.233   3.335   3.432
 1183SOL    HW2 4236   1.175   3.386   3.288
 1184SOL     OW 4237   0.321   2.805   2.104
 1184SOL    HW1 4238   0.403   2.844   2.062
 1184SOL    HW2 4239   0.294   2.723   2.055
 1185SOL     OW 4240   1.458   2.597   2.590
 1185SOL    HW1 4241   1.453   2.532   2.665
 1185SOL    HW2 4242   1.538   2.656   2.603
 1186SOL     OW 4243   0.461   3.128   3.589
 1186SOL    HW1 4244   0.411   3.129   3.503
 1186SOL    HW2 4245   0.398   3.110   3.665
 1187SOL     OW 4246   1.111   3.638   2.099
 1187SOL    HW1 4247   1.051   3.576   2.149
 1187SOL    HW2 4248   1.142   3.594   2.014
 1188SOL     OW 4249   0.202   2.147   3.360
 1188SOL    HW1 4250   0.122   2.207   3.347
 1188SOL    HW2 4251   0.192   2.098   3.446
 1189SOL     OW 4252   1.632   3.239   1.943
 1189SOL    HW1 4253   1.600   3.333   1.933
 1189SOL    HW2 4254   1.556   3.176   1.931
 1190SOL     OW 4255   0.464   3.605   2.185
 1190SOL    HW1 4256   0.497   3.644   2.271
 1190SOL    HW2 4257   0.540   3.598   2.120
 1191SOL     OW 4258   1.400   1.969   2.288
 1191SOL    HW1 4259   1.376   1.932   2.198
 1191SOL    HW2 4260   1.499   1.985   2.292
 1192SOL     OW 4261   0.249   3.647   3.103
 1192SOL    HW1 4262   0.306   3.582   3.153
 1192SOL    HW2 4263   0.233   3.614   3.010
 1193SOL     OW 4264   0.940   3.560   2.766
 1193SOL    HW1 4265   1.020   3.503   2.787
 1193SOL    HW2 4266   0.891   3.520   2.689
 1194SOL     OW 4267   0.382   2.562   2.342
 1194SOL    HW1 4268   0.427   2.472   2.339
 1194SOL    HW2 4269   0.288   2.551   2.375
 1195SOL     OW 4270   1.547   2.084   3.591
 1195SOL    HW1 4271   1.542   2.121   3.683
 1195SOL    HW2 4272   1.475   2.015   3.579
 1196SOL     OW 4273   0.614   1.984   1.979
 1196SOL    HW1 4274   0.712   1.962   1.986
 1196SOL    HW2 4275   0.583   1.967   1.886
 1197SOL     OW 4276   0.781   2.126   3.611
 1197SOL    HW1 4277   0.848   2.065   3.654
 1197SOL    HW2 4278   0.708   2.145   3.676
 1198SOL     OW 4279   0.888   3.376   3.057
 1198SOL    HW1 4280   0.865   3.351   2.963
 1198SOL    HW2 4281   0.949   3.307   3.096
 1199SOL     OW 4282   1.351   2.452   3.295
 1199SOL    HW1 4283   1.379   2.409   3.380
 1199SOL    HW2 4284   1.376   2.548   3.296
 1200SOL     OW 4285   0.803   3.264   2.786
 1200SOL    HW1 4286   0.893   3.278   2.744
 1200SOL    HW2 4287   0.732   3.266   2.715
 1201SOL     OW 4288   0.922   2.365   2.761
 1201SOL    HW1 4289   0.897   2.356   2.665
 1201SOL    HW2 4290   0.970   2.283   2.792
 1202SOL     OW 4291   0.539   1.926   2.374
 1202SOL    HW1 4292   0.458   1.927   2.432
 1202SOL    HW2 4293   0.542   2.009   2.319
 1203SOL     OW 4294   1.434   3.050   1.903
 1203SOL    HW1 4295   1.466   2.974   1.960
 1203SOL    HW2 4296   1.342   3.077   1.933
 1204SOL     OW 4297   0.297   1.897   2.033
 1204SOL    HW1 4298   0.346   1.981   2.012
 1204SOL    HW2 4299   0.359   1.832   2.078
 1205SOL     OW 4300   0.935   2.098   2.342
 1205SOL    HW1 4301   0.887   2.139   2.264
 1205SOL    HW2 4302   1.034   2.096   2.323
 1206SOL     OW 4303   1.076   2.545   3.326
 1206SOL    HW1 4304   0.996   2.484   3.329
 1206SOL    HW2 4305   1.157   2.492   3.302
 1207SOL     OW 4306   1.227   3.432   2.655
 1207SOL    HW1 4307   1.248   3.506   2.590
 1207SOL    HW2 4308   1.295   3.432   2.728
 1208SOL     OW 4309   0.459   3.014   2.603
 1208SOL    HW1 4310   0.388   2.987   2.668
 1208SOL    HW2 4311   0.433   2.986   2.510
 1209SOL     OW 4312   1.271   3.659   2.453
 1209SOL    HW1 4313   1.315   3.723   2.389
 1209SOL    HW2 4314   1.221   3.711   2.523
 1210SOL     OW 4315   1.032   2.411   1.878
 1210SOL    HW1 4316   0.991   2.493   1.839
 1210SOL    HW2 4317   1.096   2.437   1.951
 1211SOL     OW 4318   0.078   2.418   3.248
 1211SOL    HW1 4319   0.170   2.417   3.207
 1211SOL    HW2 4320   0.072   2.492   3.315
 1212SOL     OW 4321   0.561   2.084   3.009
 1212SOL    HW1 4322   0.599   2.000   3.046
 1212SOL    HW2 4323   0.473   2.103   3.053
 1213SOL     OW 4324   0.866   2.316   2.504
 1213SOL    HW1 4325   0.834   2.388   2.442
 1213SOL    HW2 4326   0.890   2.235   2.451
 1214SOL     OW 4327   1.017   1.901   2.615
 1214SOL    HW1 4328   0.945   1.906   2.546
 1214SOL    HW2 4329   0.993   1.832   2.684
 1215SOL     OW 4330   1.429   3.035   2.729
 1215SOL    HW1 4331   1.374   2.951   2.722
 1215SOL    HW2 4332   1.455   3.064   2.637
 1216SOL     OW 4333   1.466   2.452   2.854
 1216SOL    HW1 4334   1.436   2.357   2.861
 1216SOL    HW2 4335   1.539   2.468   2.920
 1217SOL     OW 4336   1.857   2.695   2.239
 1217SOL    HW1 4337   1.899   2.631   2.303
 1217SOL    HW2 4338   1.819   2.644   2.161
 1218SOL     OW 4339   0.488   3.247   2.036
 1218SOL    HW1 4340   0.401   3.232   2.083
 1218SOL    HW2 4341   0.471   3.273   1.941
 1219SOL     OW 4342   1.664   3.142   2.519
 1219SOL    HW1 4343   1.763   3.150   2.533
 1219SOL    HW2 4344   1.619   3.226   2.550
 1220SOL     OW 4345   1.390   2.437   1.940
 1220SOL    HW1 4346   1.336   2.416   2.021
 1220SOL    HW2 4347   1.481   2.396   1.949
 1221SOL     OW 4348   0.527   2.118   2.190
 1221SOL    HW1 4349   0.554   2.059   2.115
 1221SOL    HW2 4350   0.527   2.213   2.159
 1222SOL     OW 4351   1.064   3.209   3.202
 1222SOL    HW1 4352   0.984   3.186   3.257
 1222SOL    HW2 4353   1.147   3.183   3.251
 1223SOL     OW 4354   1.592   3.491   3.487
 1223SOL    HW1 4355   1.619   3.525   3.397
 1223SOL    HW2 4356   1.671   3.453   3.533
 1224SOL     OW 4357   1.111   3.057   2.962
 1224SOL    HW1 4358   1.071   3.101   3.043
 1224SOL    HW2 4359   1.070   3.094   2.879
 1225SOL     OW 4360   1.638   2.961   2.941
 1225SOL    HW1 4361   1.643   3.042   3.000
 1225SOL    HW2 4362   1.552   2.963   2.890
 1226SOL     OW 4363   0.915   1.951   3.264
 1226SOL    HW1 4364   0.940   1.931   3.169
 1226SOL    HW2 4365   0.987   2.007   3.306
 1227SOL     OW 4366   0.980   2.978   3.581
 1227SOL    HW1 4367   0.881   2.984   3.591
 1227SOL    HW2 4368   1.003   2.898   3.525
 1228SOL     OW 4369   0.705   2.912   2.230
 1228SOL    HW1 4370   0.691   2.919   2.329
 1228SOL    HW2 4371   0.789   2.861   2.212
 1229SOL     OW 4372   0.410   2.675   3.113
 1229SOL    HW1 4373   0.496   2.687   3.163
 1229SOL    HW2 4374   0.368   2.588   3.140
 1230SOL     OW 4375   1.274   2.248   3.124
 1230SOL    HW1 4376   1.295   2.322   3.188
 1230SOL    HW2 4377   1.185   2.265   3.081
 1231SOL     OW 4378   0.064   3.426   3.193
 1231SOL    HW1 4379   0.018   3.508   3.159
 1231SOL    HW2 4380   0.162   3.445   3.202
 1232SOL     OW 4381   0.367   2.962   2.363
 1232SOL    HW1 4382   0.360   3.045   2.307
 1232SOL    HW2 4383   0.371   2.882   2.303
 1233SOL     OW 4384   0.566   2.399   2.727
 1233SOL    HW1 4385   0.578   2.465   2.653
 1233SOL    HW2 4386   0.612   2.433   2.810
 1234SOL     OW 4387   1.252   3.210   2.250
 1234SOL    HW1 4388   1.302   3.287   2.290
 1234SOL    HW2 4389   1.157   3.212   2.282
 1235SOL     OW 4390   1.272   3.307   3.004
 1235SOL    HW1 4391   1.319   3.320   3.091
 1235SOL    HW2 4392   1.206   3.233   3.013
 1236SOL     OW 4393   1.582   2.501   2.334
 1236SOL    HW1 4394   1.551   2.562   2.407
 1236SOL    HW2 4395   1.632   2.553   2.265
 1237SOL     OW 4396   0.354   3.372   3.191
 1237SOL    HW1 4397   0.333   3.328   3.104
 1237SOL    HW2 4398   0.451   3.398   3.194
 1238SOL     OW 4399   0.402   2.613   3.460
 1238SOL    HW1 4400   0.470   2.668   3.413
 1238SOL    HW2 4401   0.442   2.525   3.487
 1239SOL     OW 4402   1.013   1.967   3.632
 1239SOL    HW1 4403   1.019   2.052   3.580
 1239SOL    HW2 4404   1.045   1.891   3.575
 1240SOL     OW 4405   0.504   1.912   3.602
 1240SOL    HW1 4406   0.462   1.855   3.532
 1240SOL    HW2 4407   0.438   1.981   3.634
 1241SOL     OW 4408   0.573   2.732   2.891
 1241SOL    HW1 4409   0.617   2.821   2.882
 1241SOL    HW2 4410   0.510   2.732   2.968
 1242SOL     OW 4411   1.360   2.724   2.907
 1242SOL    HW1 4412   1.285   2.724   2.841
 1242SOL    HW2 4413   1.397   2.632   2.916
 1243SOL     OW 4414   1.209   2.387   2.137
 1243SOL    HW1 4415   1.222   2.303   2.191
 1243SOL    HW2 4416   1.180   2.461   2.197
 1244SOL     OW 4417   0.307   2.075   3.093
 1244SOL    HW1 4418   0.284   2.112   3.183
 1244SOL    HW2 4419   0.277   1.980   3.087
 1245SOL     OW 4420   0.037   3.172   3.144
 1245SOL    HW1 4421   0.090   3.123   3.212
 1245SOL    HW2 4422   0.059   3.270   3.149
 1246SOL     OW 4423   0.732   2.496   2.926
 1246SOL    HW1 4424   0.791   2.470   2.850
 1246SOL    HW2 4425   0.704   2.592   2.915
 1247SOL     OW 4426   0.307   1.925   2.480
 1247SOL    HW1 4427   0.296   2.019   2.513
 1247SOL    HW2 4428   0.302   1.862   2.557
 1248SOL     OW 4429   1.622   2.229   2.236
 1248SOL    HW1 4430   1.624   2.153   2.300
 1248SOL    HW2 4431   1.574   2.306   2.276
 1249SOL     OW 4432   1.023   2.628   2.828
 1249SOL    HW1 4433   1.038   2.649   2.924
 1249SOL    HW2 4434   0.993   2.533   2.819
 1250SOL     OW 4435   0.980   3.435   3.562
 1250SOL    HW1 4436   0.960   3.479   3.474
 1250SOL    HW2 4437   1.019   3.344   3.546
 1251SOL     OW 4438   0.350   2.760   3.666
 1251SOL    HW1 4439   0.426   2.804   3.714
 1251SOL    HW2 4440   0.385   2.713   3.584
 1252SOL     OW 4441   1.540   2.136   1.987
 1252SOL    HW1 4442   1.479   2.061   2.010
 1252SOL    HW2 4443   1.562   2.188   2.070
 1253SOL     OW 4444   1.303   2.700   1.904
 1253SOL    HW1 4445   1.337   2.607   1.919
 1253SOL    HW2 4446   1.321   2.727   1.809
 1254SOL     OW 4447   1.068   3.195   2.711
 1254SOL    HW1 4448   1.075   3.111   2.656
 1254SOL    HW2 4449   1.130   3.264   2.675
 1255SOL     OW 4450   0.319   2.672   2.811
 1255SOL    HW1 4451   0.412   2.708   2.816
 1255SOL    HW2 4452   0.313   2.587   2.863
 1256SOL     OW 4453   0.339   2.371   2.868
 1256SOL    HW1 4454   0.287   2.288   2.851
 1256SOL    HW2 4455   0.416   2.376   2.804
 1257SOL     OW 4456   1.138   2.242   3.540
 1257SOL    HW1 4457   1.093   2.305   3.604
 1257SOL    HW2 4458   1.231   2.273   3.523
 1258SOL     OW 4459   1.160   2.069   3.339
 1258SOL    HW1 4460   1.160   2.133   3.416
 1258SOL    HW2 4461   1.188   2.117   3.256
 1259SOL     OW 4462   0.008   3.188   2.062
 1259SOL    HW1 4463  -0.085   3.209   2.031
 1259SOL    HW2 4464   0.018   3.089   2.075
 1260SOL     OW 4465   0.088   3.663   2.789
 1260SOL    HW1 4466   0.046   3.577   2.762
 1260SOL    HW2 4467   0.182   3.666   2.755
 1261SOL     OW 4468   0.504   3.430   2.772
 1261SOL    HW1 4469   0.570   3.504   2.781
 1261SOL    HW2 4470   0.548   3.351   2.730
 1262SOL     OW 4471   1.002   2.658   3.100
 1262SOL    HW1 4472   1.043   2.626   3.186
 1262SOL    HW2 4473   0.906   2.631   3.097
 1263SOL     OW 4474   0.040   2.406   2.976
 1263SOL    HW1 4475   0.125   2.373   2.935
 1263SOL    HW2 4476   0.053   2.421   3.074
 1264SOL     OW 4477   0.189   2.382   3.584
 1264SOL    HW1 4478   0.248   2.342   3.514
 1264SOL    HW2 4479   0.131   2.453   3.543
 1265SOL     OW 4480   1.369   2.812   3.522
 1265SOL    HW1 4481   1.408   2.901   3.542
 1265SOL    HW2 4482   1.379   2.792   3.425
 1266SOL     OW 4483   0.815   2.434   2.187
 1266SOL    HW1 4484   0.822   2.345   2.141
 1266SOL    HW2 4485   0.721   2.468   2.179
 1267SOL     OW 4486   1.657   2.466   3.068
 1267SOL    HW1 4487   1.619   2.397   3.130
 1267SOL    HW2 4488   1.739   2.430   3.024
 1268SOL     OW 4489   0.252   3.426   3.606
 1268SOL    HW1 4490   0.222   3.483   3.682
 1268SOL    HW2 4491   0.245   3.329   3.632
 1269SOL     OW 4492   0.671   2.326   3.131
 1269SOL    HW1 4493   0.637   2.237   3.101
 1269SOL    HW2 4494   0.697   2.380   3.051
 1270SOL     OW 4495   0.930   3.540   3.327
 1270SOL    HW1 4496   0.906   3.522   3.232
 1270SOL    HW2 4497   0.960   3.634   3.337
 1271SOL     OW 4498   0.473   2.362   2.053
 1271SOL    HW1 4499   0.534   2.442   2.057
 1271SOL    HW2 4500   0.378   2.393   2.060
 1272SOL     OW 4501   0.159   2.999   3.328
 1272SOL    HW1 4502   0.181   2.938   3.404
 1272SOL    HW2 4503   0.169   2.950   3.242
 1273SOL     OW 4504   1.347   2.921   3.096
 1273SOL    HW1 4505   1.371   2.858   3.022
 1273SOL    HW2 4506   1.257   2.961   3.078
 1274SOL     OW 4507   1.302   2.717   2.171
 1274SOL    HW1 4508   1.216   2.686   2.213
 1274SOL    HW2 4509   1.298   2.703   2.072
 1275SOL     OW 4510   1.759   3.609   3.016
 1275SOL    HW1 4511   1.820   3.639   2.943
 1275SOL    HW2 4512   1.721   3.520   2.994
 1276SOL     OW 4513   1.252   3.593   2.990
 1276SOL    HW1 4514   1.336   3.598   2.936
 1276SOL    HW2 4515   1.229   3.497   3.008
 1277SOL     OW 4516   0.083   3.120   2.884
 1277SOL    HW1 4517   0.078   3.119   2.984
 1277SOL    HW2 4518   0.000   3.079   2.846
 1278SOL     OW 4519   0.688   3.524   3.578
 1278SOL    HW1 4520   0.632   3.605   3.587
 1278SOL    HW2 4521   0.740   3.528   3.492
 1279SOL     OW 4522   1.726   1.997   2.385
 1279SOL    HW1 4523   1.799   1.980   2.318
 1279SOL    HW2 4524   1.695   1.910   2.423
 1280SOL     OW 4525   1.388   3.435   2.339
 1280SOL    HW1 4526   1.455   3.447   2.265
 1280SOL    HW2 4527   1.348   3.524   2.362
 1281SOL     OW 4528   0.130   3.656   3.713
 1281SOL    HW1 4529   0.089   3.582   3.766
 1281SOL    HW2 4530   0.194   3.707   3.771
 1282SOL     OW 4531   1.280   2.789   2.534
 1282SOL    HW1 4532   1.340   2.708   2.536
 1282SOL    HW2 4533   1.320   2.858   2.474
 1283SOL     OW 4534   0.830   3.135   3.284
 1283SOL    HW1 4535   0.825   3.168   3.379
 1283SOL    HW2 4536   0.744   3.154   3.238
 1284SOL     OW 4537   0.672   3.478   2.016
 1284SOL    HW1 4538   0.681   3.488   1.917
 1284SOL    HW2 4539   0.632   3.389   2.037
 1285SOL     OW 4540   1.650   3.582   3.256
 1285SOL    HW1 4541   1.703   3.592   3.172
 1285SOL    HW2 4542   1.623   3.672   3.290
 1286SOL     OW 4543   1.841   2.037   2.825
 1286SOL    HW1 4544   1.880   1.952   2.789
 1286SOL    HW2 4545   1.743   2.039   2.806
 1287SOL     OW 4546   0.263   2.188   2.582
 1287SOL    HW1 4547   0.184   2.239   2.548
 1287SOL    HW2 4548   0.254   2.173   2.680
 1288SOL     OW 4549   1.194   3.474   1.893
 1288SOL    HW1 4550   1.200   3.381   1.930
 1288SOL    HW2 4551   1.135   3.474   1.813
 1289SOL     OW 4552   0.822   2.864   3.234
 1289SOL    HW1 4553   0.862   2.863   3.142
 1289SOL    HW2 4554   0.832   2.956   3.274
 1290SOL     OW 4555   0.916   2.772   2.153
 1290SOL    HW1 4556   0.979   2.810   2.085
 1290SOL    HW2 4557   0.956   2.689   2.192
 1291SOL     OW 4558   1.504   3.469   1.906
 1291SOL    HW1 4559   1.412   3.506   1.913
 1291SOL    HW2 4560   1.542   3.489   1.816
 1292SOL     OW 4561   0.372   3.150   3.352
 1292SOL    HW1 4562   0.359   3.243   3.318
 1292SOL    HW2 4563   0.288   3.098   3.339
 1293SOL     OW 4564   1.614   3.154   3.151
 1293SOL    HW1 4565   1.674   3.157   3.231
 1293SOL    HW2 4566   1.539   3.218   3.164
 1294SOL     OW 4567   1.039   2.960   2.558
 1294SOL    HW1 4568   0.969   2.913   2.612
 1294SOL    HW2 4569   1.098   2.892   2.515
 1295SOL     OW 4570   1.014   2.098   2.833
 1295SOL    HW1 4571   1.006   2.062   2.740
 1295SOL    HW2 4572   1.012   2.022   2.898
 1296SOL     OW 4573   0.590   3.349   2.353
 1296SOL    HW1 4574   0.632   3.291   2.283
 1296SOL    HW2 4575   0.546   3.428   2.309
 1297SOL     OW 4576   1.709   2.247   3.243
 1297SOL    HW1 4577   1.782   2.316   3.247
 1297SOL    HW2 4578   1.737   2.172   3.184
 1298SOL     OW 4579   0.255   3.210   2.152
 1298SOL    HW1 4580   0.159   3.211   2.125
 1298SOL    HW2 4581   0.267   3.263   2.236
 1299SOL     OW 4582   0.105   2.875   3.588
 1299SOL    HW1 4583   0.028   2.842   3.642
 1299SOL    HW2 4584   0.190   2.845   3.630
 1300SOL     OW 4585   0.672   2.065   3.351
 1300SOL    HW1 4586   0.762   2.049   3.311
 1300SOL    HW2 4587   0.680   2.070   3.450
 1301SOL     OW 4588   0.075   2.207   1.895
 1301SOL    HW1 4589  -0.017   2.179   1.866
 1301SOL    HW2 4590   0.106   2.284   1.839
 1302SOL     OW 4591   1.440   2.718   3.260
 1302SOL    HW1 4592   1.383   2.770   3.197
 1302SOL    HW2 4593   1.536   2.730   3.236
 1303SOL     OW 4594   0.072   2.028   2.180
 1303SOL    HW1 4595   0.055   2.111   2.126
 1303SOL    HW2 4596   0.162   1.991   2.158
 1304SOL     OW 4597   1.183   3.197   1.981
 1304SOL    HW1 4598   1.084   3.186   1.983
 1304SOL    HW2 4599   1.217   3.212   2.074
 1305SOL     OW 4600   0.613   2.704   3.293
 1305SOL    HW1 4601   0.669   2.785   3.276
 1305SOL    HW2 4602   0.672   2.624   3.296
 1306SOL     OW 4603   1.493   3.629   2.821
 1306SOL    HW1 4604   1.526   3.693   2.752
 1306SOL    HW2 4605   1.559   3.623   2.896
 1307SOL     OW 4606   0.716   2.427   3.570
 1307SOL    HW1 4607   0.735   2.492   3.644
 1307SOL    HW2 4608   0.776   2.347   3.579
 1308SOL     OW 4609   1.450   3.082   3.495
 1308SOL    HW1 4610   1.441   3.072   3.594
 1308SOL    HW2 4611   1.546   3.075   3.469
 1309SOL     OW 4612   0.390   3.603   3.422
 1309SOL    HW1 4613   0.299   3.644   3.420
 1309SOL    HW2 4614   0.383   3.509   3.454
 1310SOL     OW 4615   1.674   2.745   3.116
 1310SOL    HW1 4616   1.647   2.656   3.079
 1310SOL    HW2 4617   1.675   2.813   3.043
 1311SOL     OW 4618   1.225   2.187   2.311
 1311SOL    HW1 4619   1.290   2.113   2.300
 1311SOL    HW2 4620   1.245   2.237   2.395
 1312SOL     OW 4621   0.594   2.607   2.514
 1312SOL    HW1 4622   0.644   2.692   2.495
 1312SOL    HW2 4623   0.506   2.609   2.466
 1313SOL     OW 4624   1.777   2.204   3.504
 1313SOL    HW1 4625   1.760   2.235   3.410
 1313SOL    HW2 4626   1.693   2.167   3.542
 1314SOL     OW 4627   0.859   3.236   1.878
 1314SOL    HW1 4628   0.813   3.251   1.966
 1314SOL    HW2 4629   0.903   3.321   1.848
 1315SOL     OW 4630   0.661   3.652   2.815
 1315SOL    HW1 4631   0.615   3.740   2.802
 1315SOL    HW2 4632   0.760   3.664   2.808
 1316SOL     OW 4633   0.859   2.818   2.723
 1316SOL    HW1 4634   0.913   2.749   2.771
 1316SOL    HW2 4635   0.827   2.887   2.789
 1317SOL     OW 4636   1.083   2.846   1.949
 1317SOL    HW1 4637   1.060   2.899   1.867
 1317SOL    HW2 4638   1.164   2.790   1.930
 1318SOL     OW 4639   1.861   3.431   2.713
 1318SOL    HW1 4640   1.790   3.419   2.643
 1318SOL    HW2 4641   1.862   3.352   2.773
 1319SOL     OW 4642   0.221   3.176   3.706
 1319SOL    HW1 4643   0.156   3.103   3.685
 1319SOL    HW2 4644   0.225   3.190   3.804
 1320SOL     OW 4645   0.079   3.102   2.515
 1320SOL    HW1 4646   0.078   3.055   2.603
 1320SOL    HW2 4647   0.161   3.074   2.464
 1321SOL     OW 4648   0.672   3.253   3.486
 1321SOL    HW1 4649   0.594   3.203   3.524
 1321SOL    HW2 4650   0.669   3.348   3.517
 1322SOL     OW 4651   1.824   2.054   3.089
 1322SOL    HW1 4652   1.820   1.964   3.133
 1322SOL    HW2 4653   1.827   2.043   2.990
 1323SOL     OW 4654   0.428   2.286   2.382
 1323SOL    HW1 4655   0.458   2.214   2.320
 1323SOL    HW2 4656   0.389   2.246   2.465
 1324SOL     OW 4657   1.705   3.349   2.966
 1324SOL    HW1 4658   1.612   3.324   2.939
 1324SOL    HW2 4659   1.731   3.299   3.048
 1325SOL     OW 4660   0.317   2.409   3.142
 1325SOL    HW1 4661   0.355   2.350   3.214
 1325SOL    HW2 4662   0.357   2.383   3.054
 1326SOL     OW 4663   0.812   3.448   2.549
 1326SOL    HW1 4664   0.844   3.458   2.455
 1326SOL    HW2 4665   0.733   3.386   2.551
 1327SOL     OW 4666   1.424   2.076   2.974
 1327SOL    HW1 4667   1.476   2.011   3.029
 1327SOL    HW2 4668   1.375   2.139   3.035
 1328SOL     OW 4669   1.001   1.896   3.016
 1328SOL    HW1 4670   0.938   1.824   2.985
 1328SOL    HW2 4671   1.094   1.860   3.016
 1329SOL     OW 4672   0.770   3.192   2.163
 1329SOL    HW1 4673   0.724   3.105   2.180
 1329SOL    HW2 4674   0.861   3.189   2.204
 1330SOL     OW 4675   0.618   3.429   3.146
 1330SOL    HW1 4676   0.613   3.511   3.203
 1330SOL    HW2 4677   0.707   3.426   3.101
 1331SOL     OW 4678   1.352   1.914   2.030
 1331SOL    HW1 4679   1.387   1.873   1.946
 1331SOL    HW2 4680   1.262   1.876   2.050
 1332SOL     OW 4681   1.300   2.315   2.553
 1332SOL    HW1 4682   1.241   2.395   2.557
 1332SOL    HW2 4683   1.315   2.280   2.646
 1333SOL     OW 4684   1.593   2.083   2.744
 1333SOL    HW1 4685   1.509   2.082   2.798
 1333SOL    HW2 4686   1.595   2.166   2.688
 1334SOL     OW 4687   0.039   2.939   2.162
 1334SOL    HW1 4688   0.138   2.928   2.153
 1334SOL    HW2 4689  -0.001   2.853   2.194
 1335SOL     OW 4690   0.875   3.508   2.199
 1335SOL    HW1 4691   0.798   3.473   2.145
 1335SOL    HW2 4692   0.843   3.579   2.261
 1336SOL     OW 4693   0.230   2.490   3.837
 1336SOL    HW1 4694   0.137   2.488   3.874
 1336SOL    HW2 4695   0.231   2.451   3.745
 1337SOL     OW 4696   0.225   2.137   4.720
 1337SOL    HW1 4697   0.260   2.120   4.812
 1337SOL    HW2 4698   0.137   2.092   4.708
 1338SOL     OW 4699   0.019   2.230   4.371
 1338SOL    HW1 4700  -0.063   2.273   4.410
 1338SOL    HW2 4701  -0.009   2.157   4.308
 1339SOL     OW 4702   0.569   3.137   4.889
 1339SOL    HW1 4703   0.476   3.130   4.852
 1339SOL    HW2 4704   0.580   3.226   4.933
 1340SOL     OW 4705   1.555   3.373   4.427
 1340SOL    HW1 4706   1.498   3.357   4.508
 1340SOL    HW2 4707   1.496   3.383   4.347
 1341SOL     OW 4708   1.135   2.565   4.441
 1341SOL    HW1 4709   1.192   2.643   4.416
 1341SOL    HW2 4710   1.075   2.591   4.517
 1342SOL     OW 4711   0.768   3.006   4.747
 1342SOL    HW1 4712   0.690   3.023   4.807
 1342SOL    HW2 4713   0.802   3.093   4.711
 1343SOL     OW 4714   0.850   2.660   5.547
 1343SOL    HW1 4715   0.846   2.736   5.612
 1343SOL    HW2 4716   0.872   2.696   5.456
 1344SOL     OW 4717   0.685   2.874   4.389
 1344SOL    HW1 4718   0.754   2.858   4.459
 1344SOL    HW2 4719   0.612   2.931   4.427
 1345SOL     OW 4720   0.686   3.023   5.527
 1345SOL    HW1 4721   0.746   3.102   5.541
 1345SOL    HW2 4722   0.600   3.054   5.486
 1346SOL     OW 4723   0.335   3.297   4.785
 1346SOL    HW1 4724   0.257   3.266   4.732
 1346SOL    HW2 4725   0.393   3.355   4.728
 1347SOL     OW 4726   1.460   3.367   5.063
 1347SOL    HW1 4727   1.484   3.461   5.089
 1347SOL    HW2 4728   1.444   3.313   5.145
 1348SOL     OW 4729   0.438   2.254   5.223
 1348SOL    HW1 4730   0.520   2.198   5.232
 1348SOL    HW2 4731   0.357   2.196   5.227
 1349SOL     OW 4732   1.603   2.309   4.461
 1349SOL    HW1 4733   1.529   2.355   4.411
 1349SOL    HW2 4734   1.654   2.377   4.514
 1350SOL     OW 4735   0.231   3.575   4.207
 1350SOL    HW1 4736   0.265   3.652   4.261
 1350SOL    HW2 4737   0.275   3.575   4.117
 1351SOL     OW 4738   1.127   3.203   5.414
 1351SOL    HW1 4739   1.174   3.203   5.502
 1351SOL    HW2 4740   1.079   3.116   5.403
 1352SOL     OW 4741   0.230   3.296   4.262
 1352SOL    HW1 4742   0.204   3.392   4.262
 1352SOL    HW2 4743   0.159   3.242   4.307
 1353SOL     OW 4744   0.240   2.953   4.610
 1353SOL    HW1 4745   0.254   2.869   4.662
 1353SOL    HW2 4746   0.185   3.017   4.665
 1354SOL     OW 4747   0.620   3.648   5.163
 1354SOL    HW1 4748   0.528   3.631   5.198
 1354SOL    HW2 4749   0.648   3.740   5.189
 1355SOL     OW 4750   0.606   2.826   3.847
 1355SOL    HW1 4751   0.613   2.910   3.793
 1355SOL    HW2 4752   0.652   2.839   3.935
 1356SOL     OW 4753   1.594   1.976   5.204
 1356SOL    HW1 4754   1.576   2.043   5.132
 1356SOL    HW2 4755   1.591   2.022   5.293
 1357SOL     OW 4756   0.122   2.505   4.287
 1357SOL    HW1 4757   0.077   2.417   4.304
 1357SOL    HW2 4758   0.121   2.559   4.371
 1358SOL     OW 4759   1.842   3.629   4.083
 1358SOL    HW1 4760   1.896   3.600   4.163
 1358SOL    HW2 4761   1.872   3.719   4.054
 1359SOL     OW 4762   0.027   3.458   3.841
 1359SOL    HW1 4763   0.008   3.362   3.862
 1359SOL    HW2 4764  -0.006   3.516   3.916
 1360SOL     OW 4765   1.689   2.784   4.336
 1360SOL    HW1 4766   1.784   2.755   4.344
 1360SOL    HW2 4767   1.681   2.849   4.261
 1361SOL     OW 4768   1.641   2.970   4.156
 1361SOL    HW1 4769   1.727   2.972   4.104
 1361SOL    HW2 4770   1.655   3.017   4.244
 1362SOL     OW 4771   0.113   2.599   5.321
 1362SOL    HW1 4772   0.201   2.586   5.366
 1362SOL    HW2 4773   0.100   2.696   5.299
 1363SOL     OW 4774   0.613   3.227   4.450
 1363SOL    HW1 4775   0.564   3.140   4.459
 1363SOL    HW2 4776   0.590   3.270   4.363
 1364SOL     OW 4777   1.293   3.090   5.147
 1364SOL    HW1 4778   1.330   3.017   5.089
 1364SOL    HW2 4779   1.345   3.095   5.232
 1365SOL     OW 4780   0.809   1.866   4.226
 1365SOL    HW1 4781   0.849   1.957   4.217
 1365SOL    HW2 4782   0.709   1.874   4.232
 1366SOL     OW 4783   0.197   2.838   4.988
 1366SOL    HW1 4784   0.286   2.793   4.974
 1366SOL    HW2 4785   0.124   2.773   4.969
 1367SOL     OW 4786   1.525   2.861   3.914
 1367SOL    HW1 4787   1.462   2.785   3.927
 1367SOL    HW2 4788   1.573   2.879   4.000
 1368SOL     OW 4789   1.187   3.654   5.340
 1368SOL    HW1 4790   1.211   3.714   5.264
 1368SOL    HW2 4791   1.194   3.559   5.310
 1369SOL     OW 4792   0.317   2.113   5.525
 1369SOL    HW1 4793   0.388   2.184   5.531
 1369SOL    HW2 4794   0.229   2.152   5.553
 1370SOL     OW 4795   1.466   3.279   4.677
 1370SOL    HW1 4796   1.407   3.285   4.757
 1370SOL    HW2 4797   1.451   3.191   4.631
 1371SOL     OW 4798   1.667   3.576   4.296
 1371SOL    HW1 4799   1.626   3.553   4.208
 1371SOL    HW2 4800   1.649   3.502   4.361
 1372SOL     OW 4801   0.598   2.591   3.994
 1372SOL    HW1 4802   0.622   2.660   3.926
 1372SOL    HW2 4803   0.520   2.624   4.048
 1373SOL     OW 4804   1.281   2.207   4.668
 1373SOL    HW1 4805   1.195   2.157   4.655
 1373SOL    HW2 4806   1.343   2.153   4.724
 1374SOL     OW 4807   1.576   3.524   4.031
 1374SOL    HW1 4808   1.665   3.570   4.034
 1374SOL    HW2 4809   1.555   3.500   3.936
 1375SOL     OW 4810   0.807   2.467   5.189
 1375SOL    HW1 4811   0.760   2.464   5.278
 1375SOL    HW2 4812   0.756   2.412   5.123
 1376SOL     OW 4813   1.394   2.331   5.398
 1376SOL    HW1 4814   1.374   2.374   5.486
 1376SOL    HW2 4815   1.472   2.269   5.407
 1377SOL     OW 4816   0.973   2.752   5.296
 1377SOL    HW1 4817   1.019   2.668   5.267
 1377SOL    HW2 4818   0.917   2.786   5.221
 1378SOL     OW 4819   0.991   2.272   4.966
 1378SOL    HW1 4820   0.914   2.306   5.020
 1378SOL    HW2 4821   0.957   2.221   4.887
 1379SOL     OW 4822   1.041   2.563   4.153
 1379SOL    HW1 4823   1.067   2.559   4.249
 1379SOL    HW2 4824   0.956   2.512   4.139
 1380SOL     OW 4825   0.076   2.673   4.513
 1380SOL    HW1 4826   0.175   2.661   4.522
 1380SOL    HW2 4827   0.052   2.768   4.534
 1381SOL     OW 4828   0.130   3.683   5.295
 1381SOL    HW1 4829   0.120   3.668   5.394
 1381SOL    HW2 4830   0.044   3.719   5.259
 1382SOL     OW 4831   0.865   2.210   3.919
 1382SOL    HW1 4832   0.924   2.273   3.870
 1382SOL    HW2 4833   0.884   2.116   3.890
 1383SOL     OW 4834   1.719   2.447   5.555
 1383SOL    HW1 4835   1.693   2.536   5.519
 1383SOL    HW2 4836   1.717   2.379   5.482
 1384SOL     OW 4837   1.362   3.006   4.269
 1384SOL    HW1 4838   1.445   2.977   4.221
 1384SOL    HW2 4839   1.313   3.073   4.213
 1385SOL     OW 4840   0.550   2.058   4.609
 1385SOL    HW1 4841   0.545   2.053   4.709
 1385SOL    HW2 4842   0.552   2.154   4.580
 1386SOL     OW 4843   1.008   3.318   4.201
 1386SOL    HW1 4844   0.962   3.390   4.149
 1386SOL    HW2 4845   1.004   3.338   4.299
 1387SOL     OW 4846   0.351   3.663   4.577
 1387SOL    HW1 4847   0.401   3.577   4.583
 1387SOL    HW2 4848   0.416   3.740   4.574
 1388SOL     OW 4849   1.795   2.928   4.597
 1388SOL    HW1 4850   1.733   2.913   4.521
 1388SOL    HW2 4851   1.743   2.939   4.682
 1389SOL     OW 4852   1.227   3.412   5.230
 1389SOL    HW1 4853   1.233   3.335   5.294
 1389SOL    HW2 4854   1.175   3.386   5.150
 1390SOL     OW 4855   0.321   2.805   3.966
 1390SOL    HW1 4856   0.403   2.844   3.924
 1390SOL    HW2 4857   0.294   2.723   3.917
 1391SOL     OW 4858   1.458   2.597   4.452
 1391SOL    HW1 4859   1.453   2.532   4.527
 1391SOL    HW2 4860   1.538   2.656   4.465
 1392SOL     OW 4861   0.461   3.128   5.451
 1392SOL    HW1 4862   0.411   3.129   5.365
 1392SOL    HW2 4863   0.398   3.110   5.527
 1393SOL     OW 4864   1.111   3.638   3.961
 1393SOL    HW1 4865   1.051   3.576   4.011
 1393SOL    HW2 4866   1.142   3.594   3.876
 1394SOL     OW 4867   0.202   2.147   5.222
 1394SOL    HW1 4868   0.122   2.207   5.209
 1394SOL    HW2 4869   0.192   2.098   5.308
 1395SOL     OW 4870   1.632   3.239   3.805
 1395SOL    HW1 4871   1.600   3.333   3.795
 1395SOL    HW2 4872   1.556   3.176   3.793
 1396SOL     OW 4873   0.464   3.605   4.047
 1396SOL    HW1 4874   0.497   3.644   4.133
 1396SOL    HW2 4875   0.540   3.598   3.982
 1397SOL     OW 4876   1.400   1.969   4.150
 1397SOL    HW1 4877   1.376   1.932   4.060
 1397SOL    HW2 4878   1.499   1.985   4.154
 1398SOL     OW 4879   0.249   3.647   4.965
 1398SOL    HW1 4880   0.306   3.582   5.015
 1398SOL    HW2 4881   0.233   3.614   4.872
 1399SOL     OW 4882   0.940   3.560   4.628
 1399SOL    HW1 4883   1.020   3.503   4.649
 1399SOL    HW2 4884   0.891   3.520   4.551
 1400SOL     OW 4885   0.382   2.562   4.204
 1400SOL    HW1 4886   0.427   2.472   4.201
 1400SOL    HW2 4887   0.288   2.551   4.237
 1401SOL     OW 4888   1.547   2.084   5.453
 1401SOL    HW1 4889   1.542   2.121   5.545
 1401SOL    HW2 4890   1.475   2.015   5.441
 1402SOL     OW 4891   0.614   1.984   3.841
 1402SOL    HW1 4892   0.712   1.962   3.848
 1402SOL    HW2 4893   0.583   1.967   3.748
 1403SOL     OW 4894   0.781   2.126   5.473
 1403SOL    HW1 4895   0.848   2.065   5.516
 1403SOL    HW2 4896   0.708   2.145   5.538
 1404SOL     OW 4897   0.888   3.376   4.919
 1404SOL    HW1 4898   0.865   3.351   4.825
 1404SOL    HW2 4899   0.949   3.307   4.958
 1405SOL     OW 4900   1.351   2.452   5.157
 1405SOL    HW1 4901   1.379   2.409   5.242
 1405SOL    HW2 4902   1.376   2.548   5.158
 1406SOL     OW 4903   0.803   3.264   4.648
 1406SOL    HW1 4904   0.893   3.278   4.606
 1406SOL    HW2 4905   0.732   3.266   4.577
 1407SOL     OW 4906   0.922   2.365   4.623
 1407SOL    HW1 4907   0.897   2.356   4.527
 1407SOL    HW2 4908   0.970   2.283   4.654
 1408SOL     OW 4909   0.539   1.926   4.236
 1408SOL    HW1 4910   0.458   1.927   4.294
 1408SOL    HW2 4911   0.542   2.009   4.181
 1409SOL     OW 4912   1.434   3.050   3.765
 1409SOL    HW1 4913   1.466   2.974   3.822
 1409SOL    HW2 4914   1.342   3.077   3.795
 1410SOL     OW 4915   0.297   1.897   3.895
 1410SOL    HW1 4916   0.346   1.981   3.874
 1410SOL    HW2 4917   0.359   1.832   3.940
 1411SOL     OW 4918   0.935   2.098   4.204
 1411SOL    HW1 4919   0.887   2.139   4.126
 1411SOL    HW2 4920   1.034   2.096   4.185
 1412SOL     OW 4921   1.076   2.545   5.188
 1412SOL    HW1 4922   0.996   2.484   5.191
 1412SOL    HW2 4923   1.157   2.492   5.164
 1413SOL     OW 4924   1.227   3.432   4.517
 1413SOL    HW1 4925   1.248   3.506   4.452
 1413SOL    HW2 4926   1.295   3.432   4.590
 1414SOL     OW 4927   0.459   3.014   4.465
 1414SOL    HW1 4928   0.388   2.987   4.530
 1414SOL    HW2 4929   0.433   2.986   4.372
 1415SOL     OW 4930   1.271   3.659   4.315
 1415SOL    HW1 4931   1.315   3.723   4.251
 1415SOL    HW2 4932   1.221   3.711   4.385
 1416SOL     OW 4933   1.032   2.411   3.740
 1416SOL    HW1 4934   0.991   2.493   3.701
 1416SOL    HW2 4935   1.096   2.437   3.813
 1417SOL     OW 4936   0.078   2.418   5.110
 1417SOL    HW1 4937   0.170   2.417   5.069
 1417SOL    HW2 4938   0.072   2.492   5.177
 1418SOL     OW 4939   0.561   2.084   4.871
 1418SOL    HW1 4940   0.599   2.000   4.908
 1418SOL    HW2 4941   0.473   2.103   4.915
 1419SOL     OW 4942   0.866   2.316   4.366
 1419SOL    HW1 4943   0.834   2.388   4.304
 1419SOL    HW2 4944   0.890   2.235   4.313
 1420SOL     OW 4945   1.017   1.901   4.477
 1420SOL    HW1 4946   0.945   1.906   4.408
 1420SOL    HW2 4947   0.993   1.832   4.546
 1421SOL     OW 4948   1.429   3.035   4.591
 1421SOL    HW1 4949   1.374   2.951   4.584
 1421SOL    HW2 4950   1.455   3.064   4.499
 1422SOL     OW 4951   1.466   2.452   4.716
 1422SOL    HW1 4952   1.436   2.357   4.723
 1422SOL    HW2 4953   1.539   2.468   4.782
 1423SOL     OW 4954   1.857   2.695   4.101
 1423SOL    HW1 4955   1.899   2.631   4.165
 1423SOL    HW2 4956   1.819   2.644   4.023
 1424SOL     OW 4957   0.488   3.247   3.898
 1424SOL    HW1 4958   0.401   3.232   3.945
 1424SOL    HW2 4959   0.471   3.273   3.803
 1425SOL     OW 4960   1.664   3.142   4.381
 1425SOL    HW1 4961   1.763   3.150   4.395
 1425SOL    HW2 4962   1.619   3.226   4.412
 1426SOL     OW 4963   1.390   2.437   3.802
 1426SOL    HW1 4964   1.336   2.416   3.883
 1426SOL    HW2 4965   1.481   2.396   3.811
 1427SOL     OW 4966   0.527   2.118   4.052
 1427SOL    HW1 4967   0.554   2.059   3.977
 1427SOL    HW2 4968   0.527   2.213   4.021
 1428SOL     OW 4969   1.754   3.085   5.312
 1428SOL    HW1 4970   1.845   3.046   5.299
 1428SOL    HW2 4971   1.762   3.181   5.336
 1429SOL     OW 4972   1.064   3.209   5.064
 1429SOL    HW1 4973   0.984   3.186   5.119
 1429SOL    HW2 4974   1.147   3.183   5.113
 1430SOL     OW 4975   1.592   3.491   5.349
 1430SOL    HW1 4976   1.619   3.525   5.259
 1430SOL    HW2 4977   1.671   3.453   5.395
 1431SOL     OW 4978   1.111   3.057   4.824
 1431SOL    HW1 4979   1.071   3.101   4.905
 1431SOL    HW2 4980   1.070   3.094   4.741
 1432SOL     OW 4981   1.638   2.961   4.803
 1432SOL    HW1 4982   1.643   3.042   4.862
 1432SOL    HW2 4983   1.552   2.963   4.752
 1433SOL     OW 4984   0.915   1.951   5.126
 1433SOL    HW1 4985   0.940   1.931   5.031
 1433SOL    HW2 4986   0.987   2.007   5.168
 1434SOL     OW 4987   0.980   2.978   5.443
 1434SOL    HW1 4988   0.881   2.984   5.453
 1434SOL    HW2 4989   1.003   2.898   5.387
 1435SOL     OW 4990   0.705   2.912   4.092
 1435SOL    HW1 4991   0.691   2.919   4.191
 1435SOL    HW2 4992   0.789   2.861   4.074
 1436SOL     OW 4993   0.410   2.675   4.975
 1436SOL    HW1 4994   0.496   2.687   5.025
 1436SOL    HW2 4995   0.368   2.588   5.002
 1437SOL     OW 4996   1.274   2.248   4.986
 1437SOL    HW1 4997   1.295   2.322   5.050
 1437SOL    HW2 4998   1.185   2.265   4.943
 1438SOL     OW 4999   0.064   3.426   5.055
 1438SOL    HW1 5000   0.018   3.508   5.021
 1438SOL    HW2 5001   0.162   3.445   5.064
 1439SOL     OW 5002   0.367   2.962   4.225
 1439SOL    HW1 5003   0.360   3.045   4.169
 1439SOL    HW2 5004   0.371   2.882   4.165
 1440SOL     OW 5005   0.566   2.399   4.589
 1440SOL    HW1 5006   0.578   2.465   4.515
 1440SOL    HW2 5007   0.612   2.433   4.672
 1441SOL     OW 5008   1.252   3.210   4.112
 1441SOL    HW1 5009   1.302   3.287   4.152
 1441SOL    HW2 5010   1.157   3.212   4.144
 1442SOL     OW 5011   1.272   3.307   4.866
 1442SOL    HW1 5012   1.319   3.320   4.953
 1442SOL    HW2 5013   1.206   3.233   4.875
 1443SOL     OW 5014   1.582   2.501   4.196
 1443SOL    HW1 5015   1.551   2.562   4.269
 1443SOL    HW2 5016   1.632   2.553   4.127
 1444SOL     OW 5017   0.354   3.372   5.053
 1444SOL    HW1 5018   0.333   3.328   4.966
 1444SOL    HW2 5019   0.451   3.398   5.056
 1445SOL     OW 5020   0.402   2.613   5.322
 1445SOL    HW1 5021   0.470   2.668   5.275
 1445SOL    HW2 5022   0.442   2.525   5.349
 1446SOL     OW 5023   1.587   2.641   5.394
 1446SOL    HW1 5024   1.495   2.679   5.389
 1446SOL    HW2 5025   1.647   2.688   5.329
 1447SOL     OW 5026   1.013   1.967   5.494
 1447SOL    HW1 5027   1.019   2.052   5.442
 1447SOL    HW2 5028   1.045   1.891   5.437
 1448SOL     OW 5029   0.504   1.912   5.464
 1448SOL    HW1 5030   0.462   1.855   5.394
 1448SOL    HW2 5031   0.438   1.981   5.496
 1449SOL     OW 5032   0.573   2.732   4.753
 1449SOL    HW1 5033   0.617   2.821   4.744
 1449SOL    HW2 5034   0.510   2.732   4.830
 1450SOL     OW 5035   1.360   2.724   4.769
 1450SOL    HW1 5036   1.285   2.724   4.703
 1450SOL    HW2 5037   1.397   2.632   4.778
 1451SOL     OW 5038   1.209   2.387   3.999
 1451SOL    HW1 5039   1.222   2.303   4.053
 1451SOL    HW2 5040   1.180   2.461   4.059
 1452SOL     OW 5041   0.307   2.075   4.955
 1452SOL    HW1 5042   0.284   2.112   5.045
 1452SOL    HW2 5043   0.277   1.980   4.949
 1453SOL     OW 5044   0.037   3.172   5.006
 1453SOL    HW1 5045   0.090   3.123   5.074
 1453SOL    HW2 5046   0.059   3.270   5.011
 1454SOL     OW 5047   0.732   2.496   4.788
 1454SOL    HW1 5048   0.791   2.470   4.712
 1454SOL    HW2 5049   0.704   2.592   4.777
 1455SOL     OW 5050   1.728   2.797   5.578
 1455SOL    HW1 5051   1.682   2.790   5.489
 1455SOL    HW2 5052   1.666   2.841   5.644
 1456SOL     OW 5053   0.307   1.925   4.342
 1456SOL    HW1 5054   0.296   2.019   4.375
 1456SOL    HW2 5055   0.302   1.862   4.419
 1457SOL     OW 5056   1.622   2.229   4.098
 1457SOL    HW1 5057   1.624   2.153   4.162
 1457SOL    HW2 5058   1.574   2.306   4.138
 1458SOL     OW 5059   1.023   2.628   4.690
 1458SOL    HW1 5060   1.038   2.649   4.786
 1458SOL    HW2 5061   0.993   2.533   4.681
 1459SOL     OW 5062   0.980   3.435   5.424
 1459SOL    HW1 5063   0.960   3.479   5.336
 1459SOL    HW2 5064   1.019   3.344   5.408
 1460SOL     OW 5065   1.859   3.380   5.329
 1460SOL    HW1 5066   1.873   3.407   5.234
 1460SOL    HW2 5067   1.942   3.402   5.382
 1461SOL     OW 5068   0.350   2.760   5.528
 1461SOL    HW1 5069   0.426   2.804   5.576
 1461SOL    HW2 5070   0.385   2.713   5.446
 1462SOL     OW 5071   1.540   2.136   3.849
 1462SOL    HW1 5072   1.479   2.061   3.872
 1462SOL    HW2 5073   1.562   2.188   3.932
 1463SOL     OW 5074   1.303   2.700   3.766
 1463SOL    HW1 5075   1.337   2.607   3.781
 1463SOL    HW2 5076   1.321   2.727   3.671
 1464SOL     OW 5077   1.068   3.195   4.573
 1464SOL    HW1 5078   1.075   3.111   4.518
 1464SOL    HW2 5079   1.130   3.264   4.537
 1465SOL     OW 5080   0.319   2.672   4.673
 1465SOL    HW1 5081   0.412   2.708   4.678
 1465SOL    HW2 5082   0.313   2.587   4.725
 1466SOL     OW 5083   0.339   2.371   4.730
 1466SOL    HW1 5084   0.287   2.288   4.713
 1466SOL    HW2 5085   0.416   2.376   4.666
 1467SOL     OW 5086   1.138   2.242   5.402
 1467SOL    HW1 5087   1.093   2.305   5.466
 1467SOL    HW2 5088   1.231   2.273   5.385
 1468SOL     OW 5089   1.160   2.069   5.201
 1468SOL    HW1 5090   1.160   2.133   5.278
 1468SOL    HW2 5091   1.188   2.117   5.118
 1469SOL     OW 5092   0.008   3.188   3.924
 1469SOL    HW1 5093  -0.085   3.209   3.893
 1469SOL    HW2 5094   0.018   3.089   3.937
 1470SOL     OW 5095   0.088   3.663   4.651
 1470SOL    HW1 5096   0.046   3.577   4.624
 1470SOL    HW2 5097   0.182   3.666   4.617
 1471SOL     OW 5098   0.504   3.430   4.634
 1471SOL    HW1 5099   0.570   3.504   4.643
 1471SOL    HW2 5100   0.548   3.351   4.592
 1472SOL     OW 5101   1.002   2.658   4.962
 1472SOL    HW1 5102   1.043   2.626   5.048
 1472SOL    HW2 5103   0.906   2.631   4.959
 1473SOL     OW 5104   0.040   2.406   4.838
 1473SOL    HW1 5105   0.125   2.373   4.797
 1473SOL    HW2 5106   0.053   2.421   4.936
 1474SOL     OW 5107   0.189   2.382   5.446
 1474SOL    HW1 5108   0.248   2.342   5.376
 1474SOL    HW2 5109   0.131   2.453   5.405
 1475SOL     OW 5110   1.369   2.812   5.384
 1475SOL    HW1 5111   1.408   2.901   5.404
 1475SOL    HW2 5112   1.379   2.792   5.287
 1476SOL     OW 5113   0.815   2.434   4.049
 1476SOL    HW1 5114   0.822   2.345   4.003
 1476SOL    HW2 5115   0.721   2.468   4.041
 1477SOL     OW 5116   1.657   2.466   4.930
 1477SOL    HW1 5117   1.619   2.397   4.992
 1477SOL    HW2 5118   1.739   2.430   4.886
 1478SOL     OW 5119   0.252   3.426   5.468
 1478SOL    HW1 5120   0.222   3.483   5.544
 1478SOL    HW2 5121   0.245   3.329   5.494
 1479SOL     OW 5122   0.671   2.326   4.993
 1479SOL    HW1 5123   0.637   2.237   4.963
 1479SOL    HW2 5124   0.697   2.380   4.913
 1480SOL     OW 5125   0.930   3.540   5.189
 1480SOL    HW1 5126   0.906   3.522   5.094
 1480SOL    HW2 5127   0.960   3.634   5.199
 1481SOL     OW 5128   0.473   2.362   3.915
 1481SOL    HW1 5129   0.534   2.442   3.919
 1481SOL    HW2 5130   0.378   2.393   3.922
 1482SOL     OW 5131   0.159   2.999   5.190
 1482SOL    HW1 5132   0.181   2.938   5.266
 1482SOL    HW2 5133   0.169   2.950   5.104
 1483SOL     OW 5134   1.347   2.921   4.958
 1483SOL    HW1 5135   1.371   2.858   4.884
 1483SOL    HW2 5136   1.257   2.961   4.940
 1484SOL     OW 5137   1.302   2.717   4.033
 1484SOL    HW1 5138   1.216   2.686   4.075
 1484SOL    HW2 5139   1.298   2.703   3.934
 1485SOL     OW 5140   1.759   3.609   4.878
 1485SOL    HW1 5141   1.820   3.639   4.805
 1485SOL    HW2 5142   1.721   3.520   4.856
 1486SOL     OW 5143   1.252   3.593   4.852
 1486SOL    HW1 5144   1.336   3.598   4.798
 1486SOL    HW2 5145   1.229   3.497   4.870
 1487SOL     OW 5146   0.083   3.120   4.746
 1487SOL    HW1 5147   0.078   3.119   4.846
 1487SOL    HW2 5148   0.000   3.079   4.708
 1488SOL     OW 5149   0.688   3.524   5.440
 1488SOL    HW1 5150   0.632   3.605   5.449
 1488SOL    HW2 5151   0.740   3.528   5.354
 1489SOL     OW 5152   1.726   1.997   4.247
 1489SOL    HW1 5153   1.799   1.980   4.180
 1489SOL    HW2 5154   1.695   1.910   4.285
 1490SOL     OW 5155   1.388   3.435   4.201
 1490SOL    HW1 5156   1.455   3.447   4.127
 1490SOL    HW2 5157   1.348   3.524   4.224
 1491SOL     OW 5158   0.130   3.656   5.575
 1491SOL    HW1 5159   0.089   3.582   5.628
 1491SOL    HW2 5160   0.194   3.707   5.633
 1492SOL     OW 5161   1.280   2.789   4.396
 1492SOL    HW1 5162   1.340   2.708   4.398
 1492SOL    HW2 5163   1.320   2.858   4.336
 1493SOL     OW 5164   0.830   3.135   5.146
 1493SOL    HW1 5165   0.825   3.168   5.241
 1493SOL    HW2 5166   0.744   3.154   5.100
 1494SOL     OW 5167   0.672   3.478   3.878
 1494SOL    HW1 5168   0.681   3.488   3.779
 1494SOL    HW2 5169   0.632   3.389   3.899
 1495SOL     OW 5170   1.650   3.582   5.118
 1495SOL    HW1 5171   1.703   3.592   5.034
 1495SOL    HW2 5172   1.623   3.672   5.152
 1496SOL     OW 5173   0.263   2.188   4.444
 1496SOL    HW1 5174   0.184   2.239   4.410
 1496SOL    HW2 5175   0.254   2.173   4.542
 1497SOL     OW 5176   1.194   3.474   3.755
 1497SOL    HW1 5177   1.200   3.381   3.792
 1497SOL    HW2 5178   1.135   3.474   3.675
 1498SOL     OW 5179   0.822   2.864   5.096
 1498SOL    HW1 5180   0.862   2.863   5.004
 1498SOL    HW2 5181   0.832   2.956   5.136
 1499SOL     OW 5182   0.916   2.772   4.015
 1499SOL    HW1 5183   0.979   2.810   3.947
 1499SOL    HW2 5184   0.956   2.689   4.054
 1500SOL     OW 5185   1.504   3.469   3.768
 1500SOL    HW1 5186   1.412   3.506   3.775
 1500SOL    HW2 5187   1.542   3.489   3.678
 1501SOL     OW 5188   0.372   3.150   5.214
 1501SOL    HW1 5189   0.359   3.243   5.180
 1501SOL    HW2 5190   0.288   3.098   5.201
 1502SOL     OW 5191   1.614   3.154   5.013
 1502SOL    HW1 5192   1.674   3.157   5.093
 1502SOL    HW2 5193   1.539   3.218   5.026
 1503SOL     OW 5194   1.039   2.960   4.420
 1503SOL    HW1 5195   0.969   2.913   4.474
 1503SOL    HW2 5196   1.098   2.892   4.377
 1504SOL     OW 5197   1.014   2.098   4.695
 1504SOL    HW1 5198   1.006   2.062   4.602
 1504SOL    HW2 5199   1.012   2.022   4.760
 1505SOL     OW 5200   0.590   3.349   4.215
 1505SOL    HW1 5201   0.632   3.291   4.145
 1505SOL    HW2 5202   0.546   3.428   4.171
 1506SOL     OW 5203   1.709   2.247   5.105
 1506SOL    HW1 5204   1.782   2.316   5.109
 1506SOL    HW2 5205   1.737   2.172   5.046
 1507SOL     OW 5206   0.255   3.210   4.014
 1507SOL    HW1 5207   0.159   3.211   3.987
 1507SOL    HW2 5208   0.267   3.263   4.098
 1508SOL     OW 5209   0.105   2.875   5.450
 1508SOL    HW1 5210   0.028   2.842   5.504
 1508SOL    HW2 5211   0.190   2.845   5.492
 1509SOL     OW 5212   0.672   2.065   5.213
 1509SOL    HW1 5213   0.762   2.049   5.173
 1509SOL    HW2 5214   0.680   2.070   5.312
 1510SOL     OW 5215   0.075   2.207   3.757
 1510SOL    HW1 5216  -0.017   2.179   3.728
 1510SOL    HW2 5217   0.106   2.284   3.701
 1511SOL     OW 5218   1.440   2.718   5.122
 1511SOL    HW1 5219   1.383   2.770   5.059
 1511SOL    HW2 5220   1.536   2.730   5.098
 1512SOL     OW 5221   0.072   2.028   4.042
 1512SOL    HW1 5222   0.055   2.111   3.988
 1512SOL    HW2 5223   0.162   1.991   4.020
 1513SOL     OW 5224   1.183   3.197   3.843
 1513SOL    HW1 5225   1.084   3.186   3.845
 1513SOL    HW2 5226   1.217   3.212   3.936
 1514SOL     OW 5227   0.613   2.704   5.155
 1514SOL    HW1 5228   0.669   2.785   5.138
 1514SOL    HW2 5229   0.672   2.624   5.158
 1515SOL     OW 5230   1.493   3.629   4.683
 1515SOL    HW1 5231   1.526   3.693   4.614
 1515SOL    HW2 5232   1.559   3.623   4.758
 1516SOL     OW 5233   0.716   2.427   5.432
 1516SOL    HW1 5234   0.735   2.492   5.506
 1516SOL    HW2 5235   0.776   2.347   5.441
 1517SOL     OW 5236   1.450   3.082   5.357
 1517SOL    HW1 5237   1.441   3.072   5.456
 1517SOL    HW2 5238   1.546   3.075   5.331
 1518SOL     OW 5239   0.390   3.603   5.284
 1518SOL    HW1 5240   0.299   3.644   5.282
 1518SOL    HW2 5241   0.383   3.509   5.316
 1519SOL     OW 5242   1.674   2.745   4.978
 1519SOL    HW1 5243   1.647   2.656   4.941
 1519SOL    HW2 5244   1.675   2.813   4.905
 1520SOL     OW 5245   1.225   2.187   4.173
 1520SOL    HW1 5246   1.290   2.113   4.162
 1520SOL    HW2 5247   1.245   2.237   4.257
 1521SOL     OW 5248   0.594   2.607   4.376
 1521SOL    HW1 5249   0.644   2.692   4.357
 1521SOL    HW2 5250   0.506   2.609   4.328
 1522SOL     OW 5251   1.777   2.204   5.366
 1522SOL    HW1 5252   1.760   2.235   5.272
 1522SOL    HW2 5253   1.693   2.167   5.404
 1523SOL     OW 5254   1.730   2.796   5.241
 1523SOL    HW1 5255   1.768   2.887   5.256
 1523SOL    HW2 5256   1.722   2.779   5.142
 1524SOL     OW 5257   0.859   3.236   3.740
 1524SOL    HW1 5258   0.813   3.251   3.828
 1524SOL    HW2 5259   0.903   3.321   3.710
 1525SOL     OW 5260   0.661   3.652   4.677
 1525SOL    HW1 5261   0.615   3.740   4.664
 1525SOL    HW2 5262   0.760   3.664   4.670
 1526SOL     OW 5263   0.859   2.818   4.585
 1526SOL    HW1 5264   0.913   2.749   4.633
 1526SOL    HW2 5265   0.827   2.887   4.651
 1527SOL     OW 5266   1.083   2.846   3.811
 1527SOL    HW1 5267   1.060   2.899   3.729
 1527SOL    HW2 5268   1.164   2.790   3.792
 1528SOL     OW 5269   1.861   3.431   4.575
 1528SOL    HW1 5270   1.790   3.419   4.505
 1528SOL    HW2 5271   1.862   3.352   4.635
 1529SOL     OW 5272   0.221   3.176   5.568
 1529SOL    HW1 5273   0.156   3.103   5.547
 1529SOL    HW2 5274   0.225   3.190   5.666
 1530SOL     OW 5275   0.079   3.102   4.377
 1530SOL    HW1 5276   0.078   3.055   4.465
 1530SOL    HW2 5277   0.161   3.074   4.326
 1531SOL     OW 5278   0.672   3.253   5.348
 1531SOL    HW1 5279   0.594   3.203   5.386
 1531SOL    HW2 5280   0.669   3.348   5.379
 1532SOL     OW 5281   1.824   2.054   4.951
 1532SOL    HW1 5282   1.820   1.964   4.995
 1532SOL    HW2 5283   1.827   2.043   4.852
 1533SOL     OW 5284   0.428   2.286   4.244
 1533SOL    HW1 5285   0.458   2.214   4.182
 1533SOL    HW2 5286   0.389   2.246   4.327
 1534SOL     OW 5287   1.705   3.349   4.828
 1534SOL    HW1 5288   1.612   3.324   4.801
 1534SOL    HW2 5289   1.731   3.299   4.910
 1535SOL     OW 5290   0.317   2.409   5.004
 1535SOL    HW1 5291   0.355   2.350   5.076
 1535SOL    HW2 5292   0.357   2.383   4.916
 1536SOL     OW 5293   0.812   3.448   4.411
 1536SOL    HW1 5294   0.844   3.458   4.317
 1536SOL    HW2 5295   0.733   3.386   4.413
 1537SOL     OW 5296   1.424   2.076   4.836
 1537SOL    HW1 5297   1.476   2.011   4.891
 1537SOL    HW2 5298   1.375   2.139   4.897
 1538SOL     OW 5299   1.001   1.896   4.878
 1538SOL    HW1 5300   0.938   1.824   4.847
 1538SOL    HW2 5301   1.094   1.860   4.878
 1539SOL     OW 5302   0.770   3.192   4.025
 1539SOL    HW1 5303   0.724   3.105   4.042
 1539SOL    HW2 5304   0.861   3.189   4.066
 1540SOL     OW 5305   0.618   3.429   5.008
 1540SOL    HW1 5306   0.613   3.511   5.065
 1540SOL    HW2 5307   0.707   3.426   4.963
 1541SOL     OW 5308   1.352   1.914   3.892
 1541SOL    HW1 5309   1.387   1.873   3.808
 1541SOL    HW2 5310   1.262   1.876   3.912
 1542SOL     OW 5311   1.300   2.315   4.415
 1542SOL    HW1 5312   1.241   2.395   4.419
 1542SOL    HW2 5313   1.315   2.280   4.508
 1543SOL     OW 5314   1.593   2.083   4.606
 1543SOL    HW1 5315   1.509   2.082   4.660
 1543SOL    HW2 5316   1.595   2.166   4.550
 1544SOL     OW 5317   0.039   2.939   4.024
 1544SOL    HW1 5318   0.138   2.928   4.015
 1544SOL    HW2 5319  -0.001   2.853   4.056
 1545SOL     OW 5320   0.875   3.508   4.061
 1545SOL    HW1 5321   0.798   3.473   4.007
 1545SOL    HW2 5322   0.843   3.579   4.123
 1546SOL     OW 5323   0.230   2.490   5.699
 1546SOL    HW1 5324   0.137   2.488   5.736
 1546SOL    HW2 5325   0.231   2.451   5.607
 1547SOL     OW 5326   0.225   2.137   6.582
 1547SOL    HW1 5327   0.260   2.120   6.674
 1547SOL    HW2 5328   0.137   2.092   6.570
 1548SOL     OW 5329   0.019   2.230   6.233
 1548SOL    HW1 5330  -0.063   2.273   6.272
 1548SOL    HW2 5331  -0.009   2.157   6.170
 1549SOL     OW 5332   0.569   3.137   6.751
 1549SOL    HW1 5333   0.476   3.130   6.714
 1549SOL    HW2 5334   0.580   3.226   6.795
 1550SOL     OW 5335   1.555   3.373   6.289
 1550SOL    HW1 5336   1.498   3.357   6.370
 1550SOL    HW2 5337   1.496   3.383   6.209
 1551SOL     OW 5338   1.135   2.565   6.303
 1551SOL    HW1 5339   1.192   2.643   6.278
 1551SOL    HW2 5340   1.075   2.591   6.379
 1552SOL     OW 5341   1.755   2.469   5.817
 1552SOL    HW1 5342   1.743   2.456   5.718
 1552SOL    HW2 5343   1.725   2.388   5.866
 1553SOL     OW 5344   0.768   3.006   6.609
 1553SOL    HW1 5345   0.690   3.023   6.669
 1553SOL    HW2 5346   0.802   3.093   6.573
 1554SOL     OW 5347   0.850   2.660   7.409
 1554SOL    HW1 5348   0.846   2.736   7.474
 1554SOL    HW2 5349   0.872   2.696   7.318
 1555SOL     OW 5350   0.685   2.874   6.251
 1555SOL    HW1 5351   0.754   2.858   6.321
 1555SOL    HW2 5352   0.612   2.931   6.289
 1556SOL     OW 5353   0.686   3.023   7.389
 1556SOL    HW1 5354   0.746   3.102   7.403
 1556SOL    HW2 5355   0.600   3.054   7.348
 1557SOL     OW 5356   0.335   3.297   6.647
 1557SOL    HW1 5357   0.257   3.266   6.594
 1557SOL    HW2 5358   0.393   3.355   6.590
 1558SOL     OW 5359   1.460   3.367   6.925
 1558SOL    HW1 5360   1.484   3.461   6.951
 1558SOL    HW2 5361   1.444   3.313   7.007
 1559SOL     OW 5362   0.438   2.254   7.085
 1559SOL    HW1 5363   0.520   2.198   7.094
 1559SOL    HW2 5364   0.357   2.196   7.089
 1560SOL     OW 5365   1.603   2.309   6.323
 1560SOL    HW1 5366   1.529   2.355   6.273
 1560SOL    HW2 5367   1.654   2.377   6.376
 1561SOL     OW 5368   0.231   3.575   6.069
 1561SOL    HW1 5369   0.265   3.652   6.123
 1561SOL    HW2 5370   0.275   3.575   5.979
 1562SOL     OW 5371   1.127   3.203   7.276
 1562SOL    HW1 5372   1.174   3.203   7.364
 1562SOL    HW2 5373   1.079   3.116   7.265
 1563SOL     OW 5374   0.230   3.296   6.124
 1563SOL    HW1 5375   0.204   3.392   6.124
 1563SOL    HW2 5376   0.159   3.242   6.169
 1564SOL     OW 5377   0.240   2.953   6.472
 1564SOL    HW1 5378   0.254   2.869   6.524
 1564SOL    HW2 5379   0.185   3.017   6.527
 1565SOL     OW 5380   0.620   3.648   7.025
 1565SOL    HW1 5381   0.528   3.631   7.060
 1565SOL    HW2 5382   0.648   3.740   7.051
 1566SOL     OW 5383   0.606   2.826   5.709
 1566SOL    HW1 5384   0.613   2.910   5.655
 1566SOL    HW2 5385   0.652   2.839   5.797
 1567SOL     OW 5386   1.594   1.976   7.066
 1567SOL    HW1 5387   1.576   2.043   6.994
 1567SOL    HW2 5388   1.591   2.022   7.155
 1568SOL     OW 5389   0.122   2.505   6.149
 1568SOL    HW1 5390   0.077   2.417   6.166
 1568SOL    HW2 5391   0.121   2.559   6.233
 1569SOL     OW 5392   1.842   3.629   5.945
 1569SOL    HW1 5393   1.896   3.600   6.025
 1569SOL    HW2 5394   1.872   3.719   5.916
 1570SOL     OW 5395   0.027   3.458   5.703
 1570SOL    HW1 5396   0.008   3.362   5.724
 1570SOL    HW2 5397  -0.006   3.516   5.778
 1571SOL     OW 5398   1.689   2.784   6.198
 1571SOL    HW1 5399   1.784   2.755   6.206
 1571SOL    HW2 5400   1.681   2.849   6.123
 1572SOL     OW 5401   1.641   2.970   6.018
 1572SOL    HW1 5402   1.727   2.972   5.966
 1572SOL    HW2 5403   1.655   3.017   6.106
 1573SOL     OW 5404   0.113   2.599   7.183
 1573SOL    HW1 5405   0.201   2.586   7.228
 1573SOL    HW2 5406   0.100   2.696   7.161
 1574SOL     OW 5407   0.613   3.227   6.312
 1574SOL    HW1 5408   0.564   3.140   6.321
 1574SOL    HW2 5409   0.590   3.270   6.225
 1575SOL     OW 5410   1.293   3.090   7.009
 1575SOL    HW1 5411   1.330   3.017   6.951
 1575SOL    HW2 5412   1.345   3.095   7.094
 1576SOL     OW 5413   0.809   1.866   6.088
 1576SOL    HW1 5414   0.849   1.957   6.079
 1576SOL    HW2 5415   0.709   1.874   6.094
 1577SOL     OW 5416   0.197   2.838   6.850
 1577SOL    HW1 5417   0.286   2.793   6.836
 1577SOL    HW2 5418   0.124   2.773   6.831
 1578SOL     OW 5419   1.525   2.861   5.776
 1578SOL    HW1 5420   1.462   2.785   5.789
 1578SOL    HW2 5421   1.573   2.879   5.862
 1579SOL     OW 5422   1.187   3.654   7.202
 1579SOL    HW1 5423   1.211   3.714   7.126
 1579SOL    HW2 5424   1.194   3.559   7.172
 1580SOL     OW 5425   0.317   2.113   7.387
 1580SOL    HW1 5426   0.388   2.184   7.393
 1580SOL    HW2 5427   0.229   2.152   7.415
 1581SOL     OW 5428   1.466   3.279   6.539
 1581SOL    HW1 5429   1.407   3.285   6.619
 1581SOL    HW2 5430   1.451   3.191   6.493
 1582SOL     OW 5431   1.667   3.576   6.158
 1582SOL    HW1 5432   1.626   3.553   6.070
 1582SOL    HW2 5433   1.649   3.502   6.223
 1583SOL     OW 5434   0.598   2.591   5.856
 1583SOL    HW1 5435   0.622   2.660   5.788
 1583SOL    HW2 5436   0.520   2.624   5.910
 1584SOL     OW 5437   1.281   2.207   6.530
 1584SOL    HW1 5438   1.195   2.157   6.517
 1584SOL    HW2 5439   1.343   2.153   6.586
 1585SOL     OW 5440   1.576   3.524   5.893
 1585SOL    HW1 5441   1.665   3.570   5.896
 1585SOL    HW2 5442   1.555   3.500   5.798
 1586SOL     OW 5443   0.807   2.467   7.051
 1586SOL    HW1 5444   0.760   2.464   7.140
 1586SOL    HW2 5445   0.756   2.412   6.985
 1587SOL     OW 5446   1.394   2.331   7.260
 1587SOL    HW1 5447   1.374   2.374   7.348
 1587SOL    HW2 5448   1.472   2.269   7.269
 1588SOL     OW 5449   0.973   2.752   7.158
 1588SOL    HW1 5450   1.019   2.668   7.129
 1588SOL    HW2 5451   0.917   2.786   7.083
 1589SOL     OW 5452   0.991   2.272   6.828
 1589SOL    HW1 5453   0.914   2.306   6.882
 1589SOL    HW2 5454   0.957   2.221   6.749
 1590SOL     OW 5455   1.041   2.563   6.015
 1590SOL    HW1 5456   1.067   2.559   6.111
 1590SOL    HW2 5457   0.956   2.512   6.001
 1591SOL     OW 5458   0.076   2.673   6.375
 1591SOL    HW1 5459   0.175   2.661   6.384
 1591SOL    HW2 5460   0.052   2.768   6.396
 1592SOL     OW 5461   0.130   3.683   7.157
 1592SOL    HW1 5462   0.120   3.668   7.256
 1592SOL    HW2 5463   0.044   3.719   7.121
 1593SOL     OW 5464   0.865   2.210   5.781
 1593SOL    HW1 5465   0.924   2.273   5.732
 1593SOL    HW2 5466   0.884   2.116   5.752
 1594SOL     OW 5467   1.719   2.447   7.417
 1594SOL    HW1 5468   1.693   2.536   7.381
 1594SOL    HW2 5469   1.717   2.379   7.344
 1595SOL     OW 5470   1.362   3.006   6.131
 1595SOL    HW1 5471   1.445   2.977   6.083
 1595SOL    HW2 5472   1.313   3.073   6.075
 1596SOL     OW 5473   0.550   2.058   6.471
 1596SOL    HW1 5474   0.545   2.053   6.571
 1596SOL    HW2 5475   0.552   2.154   6.442
 1597SOL     OW 5476   1.008   3.318   6.063
 1597SOL    HW1 5477   0.962   3.390   6.011
 1597SOL    HW2 5478   1.004   3.338   6.161
 1598SOL     OW 5479   0.351   3.663   6.439
 1598SOL    HW1 5480   0.401   3.577   6.445
 1598SOL    HW2 5481   0.416   3.740   6.436
 1599SOL     OW 5482   1.795   2.928   6.459
 1599SOL    HW1 5483   1.733   2.913   6.383
 1599SOL    HW2 5484   1.743   2.939   6.544
 1600SOL     OW 5485   1.227   3.412   7.092
 1600SOL    HW1 5486   1.233   3.335   7.156
 1600SOL    HW2 5487   1.175   3.386   7.012
 1601SOL     OW 5488   0.321   2.805   5.828
 1601SOL    HW1 5489   0.403   2.844   5.786
 1601SOL    HW2 5490   0.294   2.723   5.779
 1602SOL     OW 5491   1.458   2.597   6.314
 1602SOL    HW1 5492   1.453   2.532   6.389
 1602SOL    HW2 5493   1.538   2.656   6.327
 1603SOL     OW 5494   0.461   3.128   7.313
 1603SOL    HW1 5495   0.411   3.129   7.227
 1603SOL    HW2 5496   0.398   3.110   7.389
 1604SOL     OW 5497   1.111   3.638   5.823
 1604SOL    HW1 5498   1.051   3.576   5.873
 1604SOL    HW2 5499   1.142   3.594   5.738
 1605SOL     OW 5500   0.202   2.147   7.084
 1605SOL    HW1 5501   0.122   2.207   7.071
 1605SOL    HW2 5502   0.192   2.098   7.170
 1606SOL     OW 5503   1.632   3.239   5.667
 1606SOL    HW1 5504   1.600   3.333   5.657
 1606SOL    HW2 5505   1.556   3.176   5.655
 1607SOL     OW 5506   0.464   3.605   5.909
 1607SOL    HW1 5507   0.497   3.644   5.995
 1607SOL    HW2 5508   0.540   3.598   5.844
 1608SOL     OW 5509   1.400   1.969   6.012
 1608SOL    HW1 5510   1.376   1.932   5.922
 1608SOL    HW2 5511   1.499   1.985   6.016
 1609SOL     OW 5512   0.249   3.647   6.827
 1609SOL    HW1 5513   0.306   3.582   6.877
 1609SOL    HW2 5514   0.233   3.614   6.734
 1610SOL     OW 5515   0.940   3.560   6.490
 1610SOL    HW1 5516   1.020   3.503   6.511
 1610SOL    HW2 5517   0.891   3.520   6.413
 1611SOL     OW 5518   0.382   2.562   6.066
 1611SOL    HW1 5519   0.427   2.472   6.063
 1611SOL    HW2 5520   0.288   2.551   6.099
 1612SOL     OW 5521   1.547   2.084   7.315
 1612SOL    HW1 5522   1.542   2.121   7.407
 1612SOL    HW2 5523   1.475   2.015   7.303
 1613SOL     OW 5524   0.614   1.984   5.703
 1613SOL    HW1 5525   0.712   1.962   5.710
 1613SOL    HW2 5526   0.583   1.967   5.610
 1614SOL     OW 5527   0.781   2.126   7.335
 1614SOL    HW1 5528   0.848   2.065   7.378
 1614SOL    HW2 5529   0.708   2.145   7.400
 1615SOL     OW 5530   0.888   3.376   6.781
 1615SOL    HW1 5531   0.865   3.351   6.687
 1615SOL    HW2 5532   0.949   3.307   6.820
 1616SOL     OW 5533   1.351   2.452   7.019
 1616SOL    HW1 5534   1.379   2.409   7.104
 1616SOL    HW2 5535   1.376   2.548   7.020
 1617SOL     OW 5536   0.803   3.264   6.510
 1617SOL    HW1 5537   0.893   3.278   6.468
 1617SOL    HW2 5538   0.732   3.266   6.439
 1618SOL     OW 5539   0.922   2.365   6.485
 1618SOL    HW1 5540   0.897   2.356   6.389
 1618SOL    HW2 5541   0.970   2.283   6.516
 1619SOL     OW 5542   0.539   1.926   6.098
 1619SOL    HW1 5543   0.458   1.927   6.156
 1619SOL    HW2 5544   0.542   2.009   6.043
 1620SOL     OW 5545   1.434   3.050   5.627
 1620SOL    HW1 5546   1.466   2.974   5.684
 1620SOL    HW2 5547   1.342   3.077   5.657
 1621SOL     OW 5548   0.297   1.897   5.757
 1621SOL    HW1 5549   0.346   1.981   5.736
 1621SOL    HW2 5550   0.359   1.832   5.802
 1622SOL     OW 5551   0.935   2.098   6.066
 1622SOL    HW1 5552   0.887   2.139   5.988
 1622SOL    HW2 5553   1.034   2.096   6.047
 1623SOL     OW 5554   1.076   2.545   7.050
 1623SOL    HW1 5555   0.996   2.484   7.053
 1623SOL    HW2 5556   1.157   2.492   7.026
 1624SOL     OW 5557   1.227   3.432   6.379
 1624SOL    HW1 5558   1.248   3.506   6.314
 1624SOL    HW2 5559   1.295   3.432   6.452
 1625SOL     OW 5560   0.459   3.014   6.327
 1625SOL    HW1 5561   0.388   2.987   6.392
 1625SOL    HW2 5562   0.433   2.986   6.234
 1626SOL     OW 5563   1.271   3.659   6.177
 1626SOL    HW1 5564   1.315   3.723   6.113
 1626SOL    HW2 5565   1.221   3.711   6.247
 1627SOL     OW 5566   1.032   2.411   5.602
 1627SOL    HW1 5567   0.991   2.493   5.563
 1627SOL    HW2 5568   1.096   2.437   5.675
 1628SOL     OW 5569   0.078   2.418   6.972
 1628SOL    HW1 5570   0.170   2.417   6.931
 1628SOL    HW2 5571   0.072   2.492   7.039
 1629SOL     OW 5572   0.561   2.084   6.733
 1629SOL    HW1 5573   0.599   2.000   6.770
 1629SOL    HW2 5574   0.473   2.103   6.777
 1630SOL     OW 5575   0.866   2.316   6.228
 1630SOL    HW1 5576   0.834   2.388   6.166
 1630SOL    HW2 5577   0.890   2.235   6.175
 1631SOL     OW 5578   1.017   1.901   6.339
 1631SOL    HW1 5579   0.945   1.906   6.270
 1631SOL    HW2 5580   0.993   1.832   6.408
 1632SOL     OW 5581   1.429   3.035   6.453
 1632SOL    HW1 5582   1.374   2.951   6.446
 1632SOL    HW2 5583   1.455   3.064   6.361
 1633SOL     OW 5584   1.466   2.452   6.578
 1633SOL    HW1 5585   1.436   2.357   6.585
 1633SOL    HW2 5586   1.539   2.468   6.644
 1634SOL     OW 5587   1.857   2.695   5.963
 1634SOL    HW1 5588   1.899   2.631   6.027
 1634SOL    HW2 5589   1.819   2.644   5.885
 1635SOL     OW 5590   0.488   3.247   5.760
 1635SOL    HW1 5591   0.401   3.232   5.807
 1635SOL    HW2 5592   0.471   3.273   5.665
 1636SOL     OW 5593   1.664   3.142   6.243
 1636SOL    HW1 5594   1.763   3.150   6.257
 1636SOL    HW2 5595   1.619   3.226   6.274
 1637SOL     OW 5596   1.390   2.437   5.664
 1637SOL    HW1 5597   1.336   2.416   5.745
 1637SOL    HW2 5598   1.481   2.396   5.673
 1638SOL     OW 5599   0.527   2.118   5.914
 1638SOL    HW1 5600   0.554   2.059   5.839
 1638SOL    HW2 5601   0.527   2.213   5.883
 1639SOL     OW 5602   1.754   3.085   7.174
 1639SOL    HW1 5603   1.845   3.046   7.161
 1639SOL    HW2 5604   1.762   3.181   7.198
 1640SOL     OW 5605   1.064   3.209   6.926
 1640SOL    HW1 5606   0.984   3.186   6.981
 1640SOL    HW2 5607   1.147   3.183   6.975
 1641SOL     OW 5608   1.592   3.491   7.211
 1641SOL    HW1 5609   1.619   3.525   7.121
 1641SOL    HW2 5610   1.671   3.453   7.257
 1642SOL     OW 5611   1.111   3.057   6.686
 1642SOL    HW1 5612   1.071   3.101   6.767
 1642SOL    HW2 5613   1.070   3.094   6.603
 1643SOL     OW 5614   1.638   2.961   6.665
 1643SOL    HW1 5615   1.643   3.042   6.724
 1643SOL    HW2 5616   1.552   2.963   6.614
 1644SOL     OW 5617   0.915   1.951   6.988
 1644SOL    HW1 5618   0.940   1.931   6.893
 1644SOL    HW2 5619   0.987   2.007   7.030
 1645SOL     OW 5620   0.980   2.978   7.305
 1645SOL    HW1 5621   0.881   2.984   7.315
 1645SOL    HW2 5622   1.003   2.898   7.249
 1646SOL     OW 5623   0.705   2.912   5.954
 1646SOL    HW1 5624   0.691   2.919   6.053
 1646SOL    HW2 5625   0.789   2.861   5.936
 1647SOL     OW 5626   0.410   2.675   6.837
 1647SOL    HW1 5627   0.496   2.687   6.887
 1647SOL    HW2 5628   0.368   2.588   6.864
 1648SOL     OW 5629   1.274   2.248   6.848
 1648SOL    HW1 5630   1.295   2.322   6.912
 1648SOL    HW2 5631   1.185   2.265   6.805
 1649SOL     OW 5632   0.064   3.426   6.917
 1649SOL    HW1 5633   0.018   3.508   6.883
 1649SOL    HW2 5634   0.162   3.445   6.926
 1650SOL     OW 5635   0.367   2.962   6.087
 1650SOL    HW1 5636   0.360   3.045   6.031
 1650SOL    HW2 5637   0.371   2.882   6.027
 1651SOL     OW 5638   0.566   2.399   6.451
 1651SOL    HW1 5639   0.578   2.465   6.377
 1651SOL    HW2 5640   0.612   2.433   6.534
 1652SOL     OW 5641   1.252   3.210   5.974
 1652SOL    HW1 5642   1.302   3.287   6.014
 1652SOL    HW2 5643   1.157   3.212   6.006
 1653SOL     OW 5644   1.272   3.307   6.728
 1653SOL    HW1 5645   1.319   3.320   6.815
 1653SOL    HW2 5646   1.206   3.233   6.737
 1654SOL     OW 5647   1.582   2.501   6.058
 1654SOL    HW1 5648   1.551   2.562   6.131
 1654SOL    HW2 5649   1.632   2.553   5.989
 1655SOL     OW 5650   0.354   3.372   6.915
 1655SOL    HW1 5651   0.333   3.328   6.828
 1655SOL    HW2 5652   0.451   3.398   6.918
 1656SOL     OW 5653   0.402   2.613   7.184
 1656SOL    HW1 5654   0.470   2.668   7.137
 1656SOL    HW2 5655   0.442   2.525   7.211
 1657SOL     OW 5656   1.587   2.641   7.256
 1657SOL    HW1 5657   1.495   2.679   7.251
 1657SOL    HW2 5658   1.647   2.688   7.191
 1658SOL     OW 5659   1.013   1.967   7.356
 1658SOL    HW1 5660   1.019   2.052   7.304
 1658SOL    HW2 5661   1.045   1.891   7.299
 1659SOL     OW 5662   0.504   1.912   7.326
 1659SOL    HW1 5663   0.462   1.855   7.256
 1659SOL    HW2 5664   0.438   1.981   7.358
 1660SOL     OW 5665   0.573   2.732   6.615
 1660SOL    HW1 5666   0.617   2.821   6.606
 1660SOL    HW2 5667   0.510   2.732   6.692
 1661SOL     OW 5668   1.360   2.724   6.631
 1661SOL    HW1 5669   1.285   2.724   6.565
 1661SOL    HW2 5670   1.397   2.632   6.640
 1662SOL     OW 5671   1.209   2.387   5.861
 1662SOL    HW1 5672   1.222   2.303   5.915
 1662SOL    HW2 5673   1.180   2.461   5.921
 1663SOL     OW 5674   0.307   2.075   6.817
 1663SOL    HW1 5675   0.284   2.112   6.907
 1663SOL    HW2 5676   0.277   1.980   6.811
 1664SOL     OW 5677   0.037   3.172   6.868
 1664SOL    HW1 5678   0.090   3.123   6.936
 1664SOL    HW2 5679   0.059   3.270   6.873
 1665SOL     OW 5680   0.732   2.496   6.650
 1665SOL    HW1 5681   0.791   2.470   6.574
 1665SOL    HW2 5682   0.704   2.592   6.639
 1666SOL     OW 5683   1.728   2.797   7.440
 1666SOL    HW1 5684   1.682   2.790   7.351
 1666SOL    HW2 5685   1.666   2.841   7.506
 1667SOL     OW 5686   0.307   1.925   6.204
 1667SOL    HW1 5687   0.296   2.019   6.237
 1667SOL    HW2 5688   0.302   1.862   6.281
 1668SOL     OW 5689   1.622   2.229   5.960
 1668SOL    HW1 5690   1.624   2.153   6.024
 1668SOL    HW2 5691   1.574   2.306   6.000
 1669SOL     OW 5692   1.023   2.628   6.552
 1669SOL    HW1 5693   1.038   2.649   6.648
 1669SOL    HW2 5694   0.993   2.533   6.543
 1670SOL     OW 5695   0.980   3.435   7.286
 1670SOL    HW1 5696   0.960   3.479   7.198
 1670SOL    HW2 5697   1.019   3.344   7.270
 1671SOL     OW 5698   1.859   3.380   7.191
 1671SOL    HW1 5699   1.873   3.407   7.096
 1671SOL    HW2 5700   1.942   3.402   7.244
 1672SOL     OW 5701   0.350   2.760   7.390
 1672SOL    HW1 5702   0.426   2.804   7.438
 1672SOL    HW2 5703   0.385   2.713   7.308
 1673SOL     OW 5704   1.540   2.136   5.711
 1673SOL    HW1 5705   1.479   2.061   5.734
 1673SOL    HW2 5706   1.562   2.188   5.794
 1674SOL     OW 5707   1.303   2.700   5.628
 1674SOL    HW1 5708   1.337   2.607   5.643
 1674SOL    HW2 5709   1.321   2.727   5.533
 1675SOL     OW 5710   1.068   3.195   6.435
 1675SOL    HW1 5711   1.075   3.111   6.380
 1675SOL    HW2 5712   1.130   3.264   6.399
 1676SOL     OW 5713   0.319   2.672   6.535
 1676SOL    HW1 5714   0.412   2.708   6.540
 1676SOL    HW2 5715   0.313   2.587   6.587
 1677SOL     OW 5716   0.339   2.371   6.592
 1677SOL    HW1 5717   0.287   2.288   6.575
 1677SOL    HW2 5718   0.416   2.376   6.528
 1678SOL     OW 5719   1.138   2.242   7.264
 1678SOL    HW1 5720   1.093   2.305   7.328
 1678SOL    HW2 5721   1.231   2.273   7.247
 1679SOL     OW 5722   1.160   2.069   7.063
 1679SOL    HW1 5723   1.160   2.133   7.140
 1679SOL    HW2 5724   1.188   2.117   6.980
 1680SOL     OW 5725   0.008   3.188   5.786
 1680SOL    HW1 5726  -0.085   3.209   5.755
 1680SOL    HW2 5727   0.018   3.089   5.799
 1681SOL     OW 5728   0.088   3.663   6.513
 1681SOL    HW1 5729   0.046   3.577   6.486
 1681SOL    HW2 5730   0.182   3.666   6.479
 1682SOL     OW 5731   0.504   3.430   6.496
 1682SOL    HW1 5732   0.570   3.504   6.505
 1682SOL    HW2 5733   0.548   3.351   6.454
 1683SOL     OW 5734   1.002   2.658   6.824
 1683SOL    HW1 5735   1.043   2.626   6.910
 1683SOL    HW2 5736   0.906   2.631   6.821
 1684SOL     OW 5737   0.040   2.406   6.700
 1684SOL    HW1 5738   0.125   2.373   6.659
 1684SOL    HW2 5739   0.053   2.421   6.798
 1685SOL     OW 5740   0.189   2.382   7.308
 1685SOL    HW1 5741   0.248   2.342   7.238
 1685SOL    HW2 5742   0.131   2.453   7.267
 1686SOL     OW 5743   1.369   2.812   7.246
 1686SOL    HW1 5744   1.408   2.901   7.266
 1686SOL    HW2 5745   1.379   2.792   7.149
 1687SOL     OW 5746   0.815   2.434   5.911
 1687SOL    HW1 5747   0.822   2.345   5.865
 1687SOL    HW2 5748   0.721   2.468   5.903
 1688SOL     OW 5749   1.657   2.466   6.792
 1688SOL    HW1 5750   1.619   2.397   6.854
 1688SOL    HW2 5751   1.739   2.430   6.748
 1689SOL     OW 5752   0.252   3.426   7.330
 1689SOL    HW1 5753   0.222   3.483   7.406
 1689SOL    HW2 5754   0.245   3.329   7.356
 1690SOL     OW 5755   0.671   2.326   6.855
 1690SOL    HW1 5756   0.637   2.237   6.825
 1690SOL    HW2 5757   0.697   2.380   6.775
 1691SOL     OW 5758   0.930   3.540   7.051
 1691SOL    HW1 5759   0.906   3.522   6.956
 1691SOL    HW2 5760   0.960   3.634   7.061
 1692SOL     OW 5761   0.473   2.362   5.777
 1692SOL    HW1 5762   0.534   2.442   5.781
 1692SOL    HW2 5763   0.378   2.393   5.784
 1693SOL     OW 5764   0.159   2.999   7.052
 1693SOL    HW1 5765   0.181   2.938   7.128
 1693SOL    HW2 5766   0.169   2.950   6.966
 1694SOL     OW 5767   1.347   2.921   6.820
 1694SOL    HW1 5768   1.371   2.858   6.746
 1694SOL    HW2 5769   1.257   2.961   6.802
 1695SOL     OW 5770   1.302   2.717   5.895
 1695SOL    HW1 5771   1.216   2.686   5.937
 1695SOL    HW2 5772   1.298   2.703   5.796
 1696SOL     OW 5773   1.759   3.609   6.740
 1696SOL    HW1 5774   1.820   3.639   6.667
 1696SOL    HW2 5775   1.721   3.520   6.718
 1697SOL     OW 5776   1.252   3.593   6.714
 1697SOL    HW1 5777   1.336   3.598   6.660
 1697SOL    HW2 5778   1.229   3.497   6.732
 1698SOL     OW 5779   0.083   3.120   6.608
 1698SOL    HW1 5780   0.078   3.119   6.708
 1698SOL    HW2 5781   0.000   3.079   6.570
 1699SOL     OW 5782   0.688   3.524   7.302
 1699SOL    HW1 5783   0.632   3.605   7.311
 1699SOL    HW2 5784   0.740   3.528   7.216
 1700SOL     OW 5785   1.726   1.997   6.109
 1700SOL    HW1 5786   1.799   1.980   6.042
 1700SOL    HW2 5787   1.695   1.910   6.147
 1701SOL     OW 5788   1.388   3.435   6.063
 1701SOL    HW1 5789   1.455   3.447   5.989
 1701SOL    HW2 5790   1.348   3.524   6.086
 1702SOL     OW 5791   0.130   3.656   7.437
 1702SOL    HW1 5792   0.089   3.582   7.490
 1702SOL    HW2 5793   0.194   3.707   7.495
 1703SOL     OW 5794   1.280   2.789   6.258
 1703SOL    HW1 5795   1.340   2.708   6.260
 1703SOL    HW2 5796   1.320   2.858   6.198
 1704SOL     OW 5797   0.830   3.135   7.008
 1704SOL    HW1 5798   0.825   3.168   7.103
 1704SOL    HW2 5799   0.744   3.154   6.962
 1705SOL     OW 5800   0.672   3.478   5.740
 1705SOL    HW1 5801   0.681   3.488   5.641
 1705SOL    HW2 5802   0.632   3.389   5.761
 1706SOL     OW 5803   1.650   3.582   6.980
 1706SOL    HW1 5804   1.703   3.592   6.896
 1706SOL    HW2 5805   1.623   3.672   7.014
 1707SOL     OW 5806   1.841   2.037   6.549
 1707SOL    HW1 5807   1.880   1.952   6.513
 1707SOL    HW2 5808   1.743   2.039   6.530
 1708SOL     OW 5809   0.263   2.188   6.306
 1708SOL    HW1 5810   0.184   2.239   6.272
 1708SOL    HW2 5811   0.254   2.173   6.404
 1709SOL     OW 5812   1.194   3.474   5.617
 1709SOL    HW1 5813   1.200   3.381   5.654
 1709SOL    HW2 5814   1.135   3.474   5.537
 1710SOL     OW 5815   0.822   2.864   6.958
 1710SOL    HW1 5816   0.862   2.863   6.866
 1710SOL    HW2 5817   0.832   2.956   6.998
 1711SOL     OW 5818   0.916   2.772   5.877
 1711SOL    HW1 5819   0.979   2.810   5.809
 1711SOL    HW2 5820   0.956   2.689   5.916
 1712SOL     OW 5821   1.504   3.469   5.630
 1712SOL    HW1 5822   1.412   3.506   5.637
 1712SOL    HW2 5823   1.542   3.489   5.540
 1713SOL     OW 5824   0.372   3.150   7.076
 1713SOL    HW1 5825   0.359   3.243   7.042
 1713SOL    HW2 5826   0.288   3.098   7.063
 1714SOL     OW 5827   1.614   3.154   6.875
 1714SOL    HW1 5828   1.674   3.157   6.955
 1714SOL    HW2 5829   1.539   3.218   6.888
 1715SOL     OW 5830   1.039   2.960   6.282
 1715SOL    HW1 5831   0.969   2.913   6.336
 1715SOL    HW2 5832   1.098   2.892   6.239
 1716SOL     OW 5833   1.014   2.098   6.557
 1716SOL    HW1 5834   1.006   2.062   6.464
 1716SOL    HW2 5835   1.012   2.022   6.622
 1717SOL     OW 5836   0.590   3.349   6.077
 1717SOL    HW1 5837   0.632   3.291   6.007
 1717SOL    HW2 5838   0.546   3.428   6.033
 1718SOL     OW 5839   1.709   2.247   6.967
 1718SOL    HW1 5840   1.782   2.316   6.971
 1718SOL    HW2 5841   1.737   2.172   6.908
 1719SOL     OW 5842   0.255   3.210   5.876
 1719SOL    HW1 5843   0.159   3.211   5.849
 1719SOL    HW2 5844   0.267   3.263   5.960
 1720SOL     OW 5845   0.105   2.875   7.312
 1720SOL    HW1 5846   0.028   2.842   7.366
 1720SOL    HW2 5847   0.190   2.845   7.354
 1721SOL     OW 5848   0.672   2.065   7.075
 1721SOL    HW1 5849   0.762   2.049   7.035
 1721SOL    HW2 5850   0.680   2.070   7.174
 1722SOL     OW 5851   0.075   2.207   5.619
 1722SOL    HW1 5852  -0.017   2.179   5.590
 1722SOL    HW2 5853   0.106   2.284   5.563
 1723SOL     OW 5854   1.440   2.718   6.984
 1723SOL    HW1 5855   1.383   2.770   6.921
 1723SOL    HW2 5856   1.536   2.730   6.960
 1724SOL     OW 5857   0.072   2.028   5.904
 1724SOL    HW1 5858   0.055   2.111   5.850
 1724SOL    HW2 5859   0.162   1.991   5.882
 1725SOL     OW 5860   1.183   3.197   5.705
 1725SOL    HW1 5861   1.084   3.186   5.707
 1725SOL    HW2 5862   1.217   3.212   5.798
 1726SOL     OW 5863   0.613   2.704   7.017
 1726SOL    HW1 5864   0.669   2.785   7.000
 1726SOL    HW2 5865   0.672   2.624   7.020
 1727SOL     OW 5866   1.493   3.629   6.545
 1727SOL    HW1 5867   1.526   3.693   6.476
 1727SOL    HW2 5868   1.559   3.623   6.620
 1728SOL     OW 5869   0.716   2.427   7.294
 1728SOL    HW1 5870   0.735   2.492   7.368
 1728SOL    HW2 5871   0.776   2.347   7.303
 1729SOL     OW 5872   1.450   3.082   7.219
 1729SOL    HW1 5873   1.441   3.072   7.318
 1729SOL    HW2 5874   1.546   3.075   7.193
 1730SOL     OW 5875   0.390   3.603   7.146
 1730SOL    HW1 5876   0.299   3.644   7.144
 1730SOL    HW2 5877   0.383   3.509   7.178
 1731SOL     OW 5878   1.674   2.745   6.840
 1731SOL    HW1 5879   1.647   2.656   6.803
 1731SOL    HW2 5880   1.675   2.813   6.767
 1732SOL     OW 5881   1.225   2.187   6.035
 1732SOL    HW1 5882   1.290   2.113   6.024
 1732SOL    HW2 5883   1.245   2.237   6.119
 1733SOL     OW 5884   0.594   2.607   6.238
 1733SOL    HW1 5885   0.644   2.692   6.219
 1733SOL    HW2 5886   0.506   2.609   6.190
 1734SOL     OW 5887   1.777   2.204   7.228
 1734SOL    HW1 5888   1.760   2.235   7.134
 1734SOL    HW2 5889   1.693   2.167   7.266
 1735SOL     OW 5890   1.730   2.796   7.103
 1735SOL    HW1 5891   1.768   2.887   7.118
 1735SOL    HW2 5892   1.722   2.779   7.004
 1736SOL     OW 5893   0.859   3.236   5.602
 1736SOL    HW1 5894   0.813   3.251   5.690
 1736SOL    HW2 5895   0.903   3.321   5.572
 1737SOL     OW 5896   0.661   3.652   6.539
 1737SOL    HW1 5897   0.615   3.740   6.526
 1737SOL    HW2 5898   0.760   3.664   6.532
 1738SOL     OW 5899   0.859   2.818   6.447
 1738SOL    HW1 5900   0.913   2.749   6.495
 1738SOL    HW2 5901   0.827   2.887   6.513
 1739SOL     OW 5902   1.083   2.846   5.673
 1739SOL    HW1 5903   1.060   2.899   5.591
 1739SOL    HW2 5904   1.164   2.790   5.654
 1740SOL     OW 5905   1.861   3.431   6.437
 1740SOL    HW1 5906   1.790   3.419   6.367
 1740SOL    HW2 5907   1.862   3.352   6.497
 1741SOL     OW 5908   0.221   3.176   7.430
 1741SOL    HW1 5909   0.156   3.103   7.409
 1741SOL    HW2 5910   0.225   3.190   7.528
 1742SOL     OW 5911   0.079   3.102   6.239
 1742SOL    HW1 5912   0.078   3.055   6.327
 1742SOL    HW2 5913   0.161   3.074   6.188
 1743SOL     OW 5914   0.672   3.253   7.210
 1743SOL    HW1 5915   0.594   3.203   7.248
 1743SOL    HW2 5916   0.669   3.348   7.241
 1744SOL     OW 5917   1.824   2.054   6.813
 1744SOL    HW1 5918   1.820   1.964   6.857
 1744SOL    HW2 5919   1.827   2.043   6.714
 1745SOL     OW 5920   0.428   2.286   6.106
 1745SOL    HW1 5921   0.458   2.214   6.044
 1745SOL    HW2 5922   0.389   2.246   6.189
 1746SOL     OW 5923   1.705   3.349   6.690
 1746SOL    HW1 5924   1.612   3.324   6.663
 1746SOL    HW2 5925   1.731   3.299   6.772
 1747SOL     OW 5926   0.317   2.409   6.866
 1747SOL    HW1 5927   0.355   2.350   6.938
 1747SOL    HW2 5928   0.357   2.383   6.778
 1748SOL     OW 5929   0.812   3.448   6.273
 1748SOL    HW1 5930   0.844   3.458   6.179
 1748SOL    HW2 5931   0.733   3.386   6.275
 1749SOL     OW 5932   1.424   2.076   6.698
 1749SOL    HW1 5933   1.476   2.011   6.753
 1749SOL    HW2 5934   1.375   2.139   6.759
 1750SOL     OW 5935   1.001   1.896   6.740
 1750SOL    HW1 5936   0.938   1.824   6.709
 1750SOL    HW2 5937   1.094   1.860   6.740
 1751SOL     OW 5938   0.770   3.192   5.887
 1751SOL    HW1 5939   0.724   3.105   5.904
 1751SOL    HW2 5940   0.861   3.189   5.928
 1752SOL     OW 5941   0.618   3.429   6.870
 1752SOL    HW1 5942   0.613   3.511   6.927
 1752SOL    HW2 5943   0.707   3.426   6.825
 1753SOL     OW 5944   1.352   1.914   5.754
 1753SOL    HW1 5945   1.387   1.873   5.670
 1753SOL    HW2 5946   1.262   1.876   5.774
 1754SOL     OW 5947   1.300   2.315   6.277
 1754SOL    HW1 5948   1.241   2.395   6.281
 1754SOL    HW2 5949   1.315   2.280   6.370
 1755SOL     OW 5950   1.593   2.083   6.468
 1755SOL    HW1 5951   1.509   2.082   6.522
 1755SOL    HW2 5952   1.595   2.166   6.412
 1756SOL     OW 5953   0.039   2.939   5.886
 1756SOL    HW1 5954   0.138   2.928   5.877
 1756SOL    HW2 5955  -0.001   2.853   5.918
 1757SOL     OW 5956   0.875   3.508   5.923
 1757SOL    HW1 5957   0.798   3.473   5.869
 1757SOL    HW2 5958   0.843   3.579   5.985
 1758SOL     OW 5959   0.230   2.490   7.561
 1758SOL    HW1 5960   0.137   2.488   7.598
 1758SOL    HW2 5961   0.231   2.451   7.469
 1759SOL     OW 5962   1.755   2.469   7.679
 1759SOL    HW1 5963   1.743   2.456   7.580
 1759SOL    HW2 5964   1.725   2.388   7.728
 1760SOL     OW 5965   0.231   3.575   7.931
 1760SOL    HW1 5966   0.265   3.652   7.985
 1760SOL    HW2 5967   0.275   3.575   7.841
 1761SOL     OW 5968   0.230   3.296   7.986
 1761SOL    HW1 5969   0.204   3.392   7.986
 1761SOL    HW2 5970   0.159   3.242   8.031
 1762SOL     OW 5971   0.606   2.826   7.571
 1762SOL    HW1 5972   0.613   2.910   7.517
 1762SOL    HW2 5973   0.652   2.839   7.659
 1763SOL     OW 5974   1.842   3.629   7.807
 1763SOL    HW1 5975   1.896   3.600   7.887
 1763SOL    HW2 5976   1.872   3.719   7.778
 1764SOL     OW 5977   0.027   3.458   7.565
 1764SOL    HW1 5978   0.008   3.362   7.586
 1764SOL    HW2 5979  -0.006   3.516   7.640
 1765SOL     OW 5980   1.689   2.784   8.060
 1765SOL    HW1 5981   1.784   2.755   8.068
 1765SOL    HW2 5982   1.681   2.849   7.985
 1766SOL     OW 5983   1.641   2.970   7.880
 1766SOL    HW1 5984   1.727   2.972   7.828
 1766SOL    HW2 5985   1.655   3.017   7.968
 1767SOL     OW 5986   0.809   1.866   7.950
 1767SOL    HW1 5987   0.849   1.957   7.941
 1767SOL    HW2 5988   0.709   1.874   7.956
 1768SOL     OW 5989   1.525   2.861   7.638
 1768SOL    HW1 5990   1.462   2.785   7.651
 1768SOL    HW2 5991   1.573   2.879   7.724
 1769SOL     OW 5992   0.598   2.591   7.718
 1769SOL    HW1 5993   0.622   2.660   7.650
 1769SOL    HW2 5994   0.520   2.624   7.772
 1770SOL     OW 5995   1.576   3.524   7.755
 1770SOL    HW1 5996   1.665   3.570   7.758
 1770SOL    HW2 5997   1.555   3.500   7.660
 1771SOL     OW 5998   0.076   2.673   8.237
 1771SOL    HW1 5999   0.175   2.661   8.246
 1771SOL    HW2 6000   0.052   2.768   8.258
 1772SOL     OW 6001   0.865   2.210   7.643
 1772SOL    HW1 6002   0.924   2.273   7.594
 1772SOL    HW2 6003   0.884   2.116   7.614
 1773SOL     OW 6004   0.321   2.805   7.690
 1773SOL    HW1 6005   0.403   2.844   7.648
 1773SOL    HW2 6006   0.294   2.723   7.641
 1774SOL     OW 6007   1.111   3.638   7.685
 1774SOL    HW1 6008   1.051   3.576   7.735
 1774SOL    HW2 6009   1.142   3.594   7.600
 1775SOL     OW 6010   1.632   3.239   7.529
 1775SOL    HW1 6011   1.600   3.333   7.519
 1775SOL    HW2 6012   1.556   3.176   7.517
 1776SOL     OW 6013   0.464   3.605   7.771
 1776SOL    HW1 6014   0.497   3.644   7.857
 1776SOL    HW2 6015   0.540   3.598   7.706
 1777SOL     OW 6016   1.400   1.969   7.874
 1777SOL    HW1 6017   1.376   1.932   7.784
 1777SOL    HW2 6018   1.499   1.985   7.878
 1778SOL     OW 6019   0.382   2.562   7.928
 1778SOL    HW1 6020   0.427   2.472   7.925
 1778SOL    HW2 6021   0.288   2.551   7.961
 1779SOL     OW 6022   0.614   1.984   7.565
 1779SOL    HW1 6023   0.712   1.962   7.572
 1779SOL    HW2 6024   0.583   1.967   7.472
 1780SOL     OW 6025   0.539   1.926   7.960
 1780SOL    HW1 6026   0.458   1.927   8.018
 1780SOL    HW2 6027   0.542   2.009   7.905
 1781SOL     OW 6028   1.434   3.050   7.489
 1781SOL    HW1 6029   1.466   2.974   7.546
 1781SOL    HW2 6030   1.342   3.077   7.519
 1782SOL     OW 6031   0.297   1.897   7.619
 1782SOL    HW1 6032   0.346   1.981   7.598
 1782SOL    HW2 6033   0.359   1.832   7.664
 1783SOL     OW 6034   0.935   2.098   7.928
 1783SOL    HW1 6035   0.887   2.139   7.850
 1783SOL    HW2 6036   1.034   2.096   7.909
 1784SOL     OW 6037   0.459   3.014   8.189
 1784SOL    HW1 6038   0.388   2.987   8.254
 1784SOL    HW2 6039   0.433   2.986   8.096
 1785SOL     OW 6040   1.271   3.659   8.039
 1785SOL    HW1 6041   1.315   3.723   7.975
 1785SOL    HW2 6042   1.221   3.711   8.109
 1786SOL     OW 6043   1.032   2.411   7.464
 1786SOL    HW1 6044   0.991   2.493   7.425
 1786SOL    HW2 6045   1.096   2.437   7.537
 1787SOL     OW 6046   1.857   2.695   7.825
 1787SOL    HW1 6047   1.899   2.631   7.889
 1787SOL    HW2 6048   1.819   2.644   7.747
 1788SOL     OW 6049   0.488   3.247   7.622
 1788SOL    HW1 6050   0.401   3.232   7.669
 1788SOL    HW2 6051   0.471   3.273   7.527
 1789SOL     OW 6052   1.390   2.437   7.526
 1789SOL    HW1 6053   1.336   2.416   7.607
 1789SOL    HW2 6054   1.481   2.396   7.535
 1790SOL     OW 6055   0.527   2.118   7.776
 1790SOL    HW1 6056   0.554   2.059   7.701
 1790SOL    HW2 6057   0.527   2.213   7.745
 1791SOL     OW 6058   0.705   2.912   7.816
 1791SOL    HW1 6059   0.691   2.919   7.915
 1791SOL    HW2 6060   0.789   2.861   7.798
 1792SOL     OW 6061   0.367   2.962   7.949
 1792SOL    HW1 6062   0.360   3.045   7.893
 1792SOL    HW2 6063   0.371   2.882   7.889
 1793SOL     OW 6064   1.252   3.210   7.836
 1793SOL    HW1 6065   1.302   3.287   7.876
 1793SOL    HW2 6066   1.157   3.212   7.868
 1794SOL     OW 6067   1.582   2.501   7.920
 1794SOL    HW1 6068   1.551   2.562   7.993
 1794SOL    HW2 6069   1.632   2.553   7.851
 1795SOL     OW 6070   1.209   2.387   7.723
 1795SOL    HW1 6071   1.222   2.303   7.777
 1795SOL    HW2 6072   1.180   2.461   7.783
 1796SOL     OW 6073   1.622   2.229   7.822
 1796SOL    HW1 6074   1.624   2.153   7.886
 1796SOL    HW2 6075   1.574   2.306   7.862
 1797SOL     OW 6076   1.540   2.136   7.573
 1797SOL    HW1 6077   1.479   2.061   7.596
 1797SOL    HW2 6078   1.562   2.188   7.656
 1798SOL     OW 6079   1.303   2.700   7.490
 1798SOL    HW1 6080   1.337   2.607   7.505
 1798SOL    HW2 6081   1.321   2.727   7.395
 1799SOL     OW 6082   0.008   3.188   7.648
 1799SOL    HW1 6083  -0.085   3.209   7.617
 1799SOL    HW2 6084   0.018   3.089   7.661
 1800SOL     OW 6085   0.815   2.434   7.773
 1800SOL    HW1 6086   0.822   2.345   7.727
 1800SOL    HW2 6087   0.721   2.468   7.765
 1801SOL     OW 6088   0.473   2.362   7.639
 1801SOL    HW1 6089   0.534   2.442   7.643
 1801SOL    HW2 6090   0.378   2.393   7.646
 1802SOL     OW 6091   1.302   2.717   7.757
 1802SOL    HW1 6092   1.216   2.686   7.799
 1802SOL    HW2 6093   1.298   2.703   7.658
 1803SOL     OW 6094   1.726   1.997   7.971
 1803SOL    HW1 6095   1.799   1.980   7.904
 1803SOL    HW2 6096   1.695   1.910   8.009
 1804SOL     OW 6097   1.388   3.435   7.925
 1804SOL    HW1 6098   1.455   3.447   7.851
 1804SOL    HW2 6099   1.348   3.524   7.948
 1805SOL     OW 6100   0.672   3.478   7.602
 1805SOL    HW1 6101   0.681   3.488   7.503
 1805SOL    HW2 6102   0.632   3.389   7.623
 1806SOL     OW 6103   1.194   3.474   7.479
 1806SOL    HW1 6104   1.200   3.381   7.516
 1806SOL    HW2 6105   1.135   3.474   7.399
 1807SOL     OW 6106   0.916   2.772   7.739
 1807SOL    HW1 6107   0.979   2.810   7.671
 1807SOL    HW2 6108   0.956   2.689   7.778
 1808SOL     OW 6109   1.504   3.469   7.492
 1808SOL    HW1 6110   1.412   3.506   7.499
 1808SOL    HW2 6111   1.542   3.489   7.402
 1809SOL     OW 6112   0.590   3.349   7.939
 1809SOL    HW1 6113   0.632   3.291   7.869
 1809SOL    HW2 6114   0.546   3.428   7.895
 1810SOL     OW 6115   0.255   3.210   7.738
 1810SOL    HW1 6116   0.159   3.211   7.711
 1810SOL    HW2 6117   0.267   3.263   7.822
 1811SOL     OW 6118   0.075   2.207   7.481
 1811SOL    HW1 6119  -0.017   2.179   7.452
 1811SOL    HW2 6120   0.106   2.284   7.425
 1812SOL     OW 6121   0.072   2.028   7.766
 1812SOL    HW1 6122   0.055   2.111   7.712
 1812SOL    HW2 6123   0.162   1.991   7.744
 1813SOL     OW 6124   1.183   3.197   7.567
 1813SOL    HW1 6125   1.084   3.186   7.569
 1813SOL    HW2 6126   1.217   3.212   7.660
 1814SOL     OW 6127   1.225   2.187   7.897
 1814SOL    HW1 6128   1.290   2.113   7.886
 1814SOL    HW2 6129   1.245   2.237   7.981
 1815SOL     OW 6130   0.594   2.607   8.100
 1815SOL    HW1 6131   0.644   2.692   8.081
 1815SOL    HW2 6132   0.506   2.609   8.052
 1816SOL     OW 6133   0.859   3.236   7.464
 1816SOL    HW1 6134   0.813   3.251   7.552
 1816SOL    HW2 6135   0.903   3.321   7.434
 1817SOL     OW 6136   1.083   2.846   7.535
 1817SOL    HW1 6137   1.060   2.899   7.453
 1817SOL    HW2 6138   1.164   2.790   7.516
 1818SOL     OW 6139   0.428   2.286   7.968
 1818SOL    HW1 6140   0.458   2.214   7.906
 1818SOL    HW2 6141   0.389   2.246   8.051
 1819SOL     OW 6142   0.770   3.192   7.749
 1819SOL    HW1 6143   0.724   3.105   7.766
 1819SOL    HW2 6144   0.861   3.189   7.790
 1820SOL     OW 6145   1.352   1.914   7.616
 1820SOL    HW1 6146   1.387   1.873   7.532
 1820SOL    HW2 6147   1.262   1.876   7.636
 1821SOL     OW 6148   0.039   2.939   7.748
 1821SOL    HW1 6149   0.138   2.928   7.739
 1821SOL    HW2 6150  -0.001   2.853   7.780
 1822SOL     OW 6151   0.875   3.508   7.785
 1822SOL    HW1 6152   0.798   3.473   7.731
 1822SOL    HW2 6153   0.843   3.579   7.847
 1823SOL     OW 6154   0.230   4.352   0.113
 1823SOL    HW1 6155   0.137   4.350   0.150
 1823SOL    HW2 6156   0.231   4.313   0.021
 1824SOL     OW 6157   0.225   3.999   0.996
 1824SOL    HW1 6158   0.260   3.982   1.088
 1824SOL    HW2 6159   0.137   3.954   0.984
 1825SOL     OW 6160   0.019   4.092   0.647
 1825SOL    HW1 6161  -0.063   4.135   0.686
 1825SOL    HW2 6162  -0.009   4.019   0.584
 1826SOL     OW 6163   0.569   4.999   1.165
 1826SOL    HW1 6164   0.476   4.992   1.128
 1826SOL    HW2 6165   0.580   5.088   1.209
 1827SOL     OW 6166   1.555   5.235   0.703
 1827SOL    HW1 6167   1.498   5.219   0.784
 1827SOL    HW2 6168   1.496   5.245   0.623
 1828SOL     OW 6169   1.135   4.427   0.717
 1828SOL    HW1 6170   1.192   4.505   0.692
 1828SOL    HW2 6171   1.075   4.453   0.793
 1829SOL     OW 6172   1.755   4.331   0.231
 1829SOL    HW1 6173   1.743   4.318   0.132
 1829SOL    HW2 6174   1.725   4.250   0.280
 1830SOL     OW 6175   0.768   4.868   1.023
 1830SOL    HW1 6176   0.690   4.885   1.083
 1830SOL    HW2 6177   0.802   4.955   0.987
 1831SOL     OW 6178   0.850   4.522   1.823
 1831SOL    HW1 6179   0.846   4.598   1.888
 1831SOL    HW2 6180   0.872   4.558   1.732
 1832SOL     OW 6181   0.685   4.736   0.665
 1832SOL    HW1 6182   0.754   4.720   0.735
 1832SOL    HW2 6183   0.612   4.793   0.703
 1833SOL     OW 6184   0.686   4.885   1.803
 1833SOL    HW1 6185   0.746   4.964   1.817
 1833SOL    HW2 6186   0.600   4.916   1.762
 1834SOL     OW 6187   0.335   5.159   1.061
 1834SOL    HW1 6188   0.257   5.128   1.008
 1834SOL    HW2 6189   0.393   5.217   1.004
 1835SOL     OW 6190   1.460   5.229   1.339
 1835SOL    HW1 6191   1.484   5.323   1.365
 1835SOL    HW2 6192   1.444   5.175   1.421
 1836SOL     OW 6193   0.438   4.116   1.499
 1836SOL    HW1 6194   0.520   4.060   1.508
 1836SOL    HW2 6195   0.357   4.058   1.503
 1837SOL     OW 6196   1.603   4.171   0.737
 1837SOL    HW1 6197   1.529   4.217   0.687
 1837SOL    HW2 6198   1.654   4.239   0.790
 1838SOL     OW 6199   1.127   5.065   1.690
 1838SOL    HW1 6200   1.174   5.065   1.778
 1838SOL    HW2 6201   1.079   4.978   1.679
 1839SOL     OW 6202   0.230   5.158   0.538
 1839SOL    HW1 6203   0.204   5.254   0.538
 1839SOL    HW2 6204   0.159   5.104   0.583
 1840SOL     OW 6205   0.240   4.815   0.886
 1840SOL    HW1 6206   0.254   4.731   0.938
 1840SOL    HW2 6207   0.185   4.879   0.941
 1841SOL     OW 6208   0.606   4.688   0.123
 1841SOL    HW1 6209   0.613   4.772   0.069
 1841SOL    HW2 6210   0.652   4.701   0.211
 1842SOL     OW 6211   1.594   3.838   1.480
 1842SOL    HW1 6212   1.576   3.905   1.408
 1842SOL    HW2 6213   1.591   3.884   1.569
 1843SOL     OW 6214   0.122   4.367   0.563
 1843SOL    HW1 6215   0.077   4.279   0.580
 1843SOL    HW2 6216   0.121   4.421   0.647
 1844SOL     OW 6217   0.027   5.320   0.117
 1844SOL    HW1 6218   0.008   5.224   0.138
 1844SOL    HW2 6219  -0.006   5.378   0.192
 1845SOL     OW 6220   1.689   4.646   0.612
 1845SOL    HW1 6221   1.784   4.617   0.620
 1845SOL    HW2 6222   1.681   4.711   0.537
 1846SOL     OW 6223   1.641   4.832   0.432
 1846SOL    HW1 6224   1.727   4.834   0.380
 1846SOL    HW2 6225   1.655   4.879   0.520
 1847SOL     OW 6226   0.113   4.461   1.597
 1847SOL    HW1 6227   0.201   4.448   1.642
 1847SOL    HW2 6228   0.100   4.558   1.575
 1848SOL     OW 6229   0.613   5.089   0.726
 1848SOL    HW1 6230   0.564   5.002   0.735
 1848SOL    HW2 6231   0.590   5.132   0.639
 1849SOL     OW 6232   1.293   4.952   1.423
 1849SOL    HW1 6233   1.330   4.879   1.365
 1849SOL    HW2 6234   1.345   4.957   1.508
 1850SOL     OW 6235   0.809   3.728   0.502
 1850SOL    HW1 6236   0.849   3.819   0.493
 1850SOL    HW2 6237   0.709   3.736   0.508
 1851SOL     OW 6238   0.197   4.700   1.264
 1851SOL    HW1 6239   0.286   4.655   1.250
 1851SOL    HW2 6240   0.124   4.635   1.245
 1852SOL     OW 6241   1.525   4.723   0.190
 1852SOL    HW1 6242   1.462   4.647   0.203
 1852SOL    HW2 6243   1.573   4.741   0.276
 1853SOL     OW 6244   0.317   3.975   1.801
 1853SOL    HW1 6245   0.388   4.046   1.807
 1853SOL    HW2 6246   0.229   4.014   1.829
 1854SOL     OW 6247   1.466   5.141   0.953
 1854SOL    HW1 6248   1.407   5.147   1.033
 1854SOL    HW2 6249   1.451   5.053   0.907
 1855SOL     OW 6250   0.598   4.453   0.270
 1855SOL    HW1 6251   0.622   4.522   0.202
 1855SOL    HW2 6252   0.520   4.486   0.324
 1856SOL     OW 6253   1.281   4.069   0.944
 1856SOL    HW1 6254   1.195   4.019   0.931
 1856SOL    HW2 6255   1.343   4.015   1.000
 1857SOL     OW 6256   0.807   4.329   1.465
 1857SOL    HW1 6257   0.760   4.326   1.554
 1857SOL    HW2 6258   0.756   4.274   1.399
 1858SOL     OW 6259   1.394   4.193   1.674
 1858SOL    HW1 6260   1.374   4.236   1.762
 1858SOL    HW2 6261   1.472   4.131   1.683
 1859SOL     OW 6262   0.973   4.614   1.572
 1859SOL    HW1 6263   1.019   4.530   1.543
 1859SOL    HW2 6264   0.917   4.648   1.497
 1860SOL     OW 6265   0.991   4.134   1.242
 1860SOL    HW1 6266   0.914   4.168   1.296
 1860SOL    HW2 6267   0.957   4.083   1.163
 1861SOL     OW 6268   1.041   4.425   0.429
 1861SOL    HW1 6269   1.067   4.421   0.525
 1861SOL    HW2 6270   0.956   4.374   0.415
 1862SOL     OW 6271   0.076   4.535   0.789
 1862SOL    HW1 6272   0.175   4.523   0.798
 1862SOL    HW2 6273   0.052   4.630   0.810
 1863SOL     OW 6274   0.865   4.072   0.195
 1863SOL    HW1 6275   0.924   4.135   0.146
 1863SOL    HW2 6276   0.884   3.978   0.166
 1864SOL     OW 6277   1.719   4.309   1.831
 1864SOL    HW1 6278   1.693   4.398   1.795
 1864SOL    HW2 6279   1.717   4.241   1.758
 1865SOL     OW 6280   1.362   4.868   0.545
 1865SOL    HW1 6281   1.445   4.839   0.497
 1865SOL    HW2 6282   1.313   4.935   0.489
 1866SOL     OW 6283   0.550   3.920   0.885
 1866SOL    HW1 6284   0.545   3.915   0.985
 1866SOL    HW2 6285   0.552   4.016   0.856
 1867SOL     OW 6286   1.008   5.180   0.477
 1867SOL    HW1 6287   0.962   5.252   0.425
 1867SOL    HW2 6288   1.004   5.200   0.575
 1868SOL     OW 6289   1.795   4.790   0.873
 1868SOL    HW1 6290   1.733   4.775   0.797
 1868SOL    HW2 6291   1.743   4.801   0.958
 1869SOL     OW 6292   1.227   5.274   1.506
 1869SOL    HW1 6293   1.233   5.197   1.570
 1869SOL    HW2 6294   1.175   5.248   1.426
 1870SOL     OW 6295   0.321   4.667   0.242
 1870SOL    HW1 6296   0.403   4.706   0.200
 1870SOL    HW2 6297   0.294   4.585   0.193
 1871SOL     OW 6298   1.458   4.459   0.728
 1871SOL    HW1 6299   1.453   4.394   0.803
 1871SOL    HW2 6300   1.538   4.518   0.741
 1872SOL     OW 6301   0.461   4.990   1.727
 1872SOL    HW1 6302   0.411   4.991   1.641
 1872SOL    HW2 6303   0.398   4.972   1.803
 1873SOL     OW 6304   1.111   5.500   0.237
 1873SOL    HW1 6305   1.051   5.438   0.287
 1873SOL    HW2 6306   1.142   5.456   0.152
 1874SOL     OW 6307   0.202   4.009   1.498
 1874SOL    HW1 6308   0.122   4.069   1.485
 1874SOL    HW2 6309   0.192   3.960   1.584
 1875SOL     OW 6310   1.632   5.101   0.081
 1875SOL    HW1 6311   1.600   5.195   0.071
 1875SOL    HW2 6312   1.556   5.038   0.069
 1876SOL     OW 6313   1.400   3.831   0.426
 1876SOL    HW1 6314   1.376   3.794   0.336
 1876SOL    HW2 6315   1.499   3.847   0.430
 1877SOL     OW 6316   0.382   4.424   0.480
 1877SOL    HW1 6317   0.427   4.334   0.477
 1877SOL    HW2 6318   0.288   4.413   0.513
 1878SOL     OW 6319   1.547   3.946   1.729
 1878SOL    HW1 6320   1.542   3.983   1.821
 1878SOL    HW2 6321   1.475   3.877   1.717
 1879SOL     OW 6322   0.614   3.846   0.117
 1879SOL    HW1 6323   0.712   3.824   0.124
 1879SOL    HW2 6324   0.583   3.829   0.024
 1880SOL     OW 6325   0.781   3.988   1.749
 1880SOL    HW1 6326   0.848   3.927   1.792
 1880SOL    HW2 6327   0.708   4.007   1.814
 1881SOL     OW 6328   1.351   4.314   1.433
 1881SOL    HW1 6329   1.379   4.271   1.518
 1881SOL    HW2 6330   1.376   4.410   1.434
 1882SOL     OW 6331   0.803   5.126   0.924
 1882SOL    HW1 6332   0.893   5.140   0.882
 1882SOL    HW2 6333   0.732   5.128   0.853
 1883SOL     OW 6334   0.922   4.227   0.899
 1883SOL    HW1 6335   0.897   4.218   0.803
 1883SOL    HW2 6336   0.970   4.145   0.930
 1884SOL     OW 6337   0.539   3.788   0.512
 1884SOL    HW1 6338   0.458   3.789   0.570
 1884SOL    HW2 6339   0.542   3.871   0.457
 1885SOL     OW 6340   1.434   4.912   0.041
 1885SOL    HW1 6341   1.466   4.836   0.098
 1885SOL    HW2 6342   1.342   4.939   0.071
 1886SOL     OW 6343   0.297   3.759   0.171
 1886SOL    HW1 6344   0.346   3.843   0.150
 1886SOL    HW2 6345   0.359   3.694   0.216
 1887SOL     OW 6346   0.935   3.960   0.480
 1887SOL    HW1 6347   0.887   4.001   0.402
 1887SOL    HW2 6348   1.034   3.958   0.461
 1888SOL     OW 6349   1.076   4.407   1.464
 1888SOL    HW1 6350   0.996   4.346   1.467
 1888SOL    HW2 6351   1.157   4.354   1.440
 1889SOL     OW 6352   1.227   5.294   0.793
 1889SOL    HW1 6353   1.248   5.368   0.728
 1889SOL    HW2 6354   1.295   5.294   0.866
 1890SOL     OW 6355   0.459   4.876   0.741
 1890SOL    HW1 6356   0.388   4.849   0.806
 1890SOL    HW2 6357   0.433   4.848   0.648
 1891SOL     OW 6358   1.032   4.273   0.016
 1891SOL    HW1 6359   0.991   4.355  -0.023
 1891SOL    HW2 6360   1.096   4.299   0.089
 1892SOL     OW 6361   0.078   4.280   1.386
 1892SOL    HW1 6362   0.170   4.279   1.345
 1892SOL    HW2 6363   0.072   4.354   1.453
 1893SOL     OW 6364   0.561   3.946   1.147
 1893SOL    HW1 6365   0.599   3.862   1.184
 1893SOL    HW2 6366   0.473   3.965   1.191
 1894SOL     OW 6367   0.866   4.178   0.642
 1894SOL    HW1 6368   0.834   4.250   0.580
 1894SOL    HW2 6369   0.890   4.097   0.589
 1895SOL     OW 6370   1.017   3.763   0.753
 1895SOL    HW1 6371   0.945   3.768   0.684
 1895SOL    HW2 6372   0.993   3.694   0.822
 1896SOL     OW 6373   1.429   4.897   0.867
 1896SOL    HW1 6374   1.374   4.813   0.860
 1896SOL    HW2 6375   1.455   4.926   0.775
 1897SOL     OW 6376   1.466   4.314   0.992
 1897SOL    HW1 6377   1.436   4.219   0.999
 1897SOL    HW2 6378   1.539   4.330   1.058
 1898SOL     OW 6379   1.857   4.557   0.377
 1898SOL    HW1 6380   1.899   4.493   0.441
 1898SOL    HW2 6381   1.819   4.506   0.299
 1899SOL     OW 6382   0.488   5.109   0.174
 1899SOL    HW1 6383   0.401   5.094   0.221
 1899SOL    HW2 6384   0.471   5.135   0.079
 1900SOL     OW 6385   1.664   5.004   0.657
 1900SOL    HW1 6386   1.763   5.012   0.671
 1900SOL    HW2 6387   1.619   5.088   0.688
 1901SOL     OW 6388   1.390   4.299   0.078
 1901SOL    HW1 6389   1.336   4.278   0.159
 1901SOL    HW2 6390   1.481   4.258   0.087
 1902SOL     OW 6391   0.527   3.980   0.328
 1902SOL    HW1 6392   0.554   3.921   0.253
 1902SOL    HW2 6393   0.527   4.075   0.297
 1903SOL     OW 6394   1.754   4.947   1.588
 1903SOL    HW1 6395   1.845   4.908   1.575
 1903SOL    HW2 6396   1.762   5.043   1.612
 1904SOL     OW 6397   1.064   5.071   1.340
 1904SOL    HW1 6398   0.984   5.048   1.395
 1904SOL    HW2 6399   1.147   5.045   1.389
 1905SOL     OW 6400   1.111   4.919   1.100
 1905SOL    HW1 6401   1.071   4.963   1.181
 1905SOL    HW2 6402   1.070   4.956   1.017
 1906SOL     OW 6403   1.638   4.823   1.079
 1906SOL    HW1 6404   1.643   4.904   1.138
 1906SOL    HW2 6405   1.552   4.825   1.028
 1907SOL     OW 6406   0.915   3.813   1.402
 1907SOL    HW1 6407   0.940   3.793   1.307
 1907SOL    HW2 6408   0.987   3.869   1.444
 1908SOL     OW 6409   0.980   4.840   1.719
 1908SOL    HW1 6410   0.881   4.846   1.729
 1908SOL    HW2 6411   1.003   4.760   1.663
 1909SOL     OW 6412   0.705   4.774   0.368
 1909SOL    HW1 6413   0.691   4.781   0.467
 1909SOL    HW2 6414   0.789   4.723   0.350
 1910SOL     OW 6415   0.410   4.537   1.251
 1910SOL    HW1 6416   0.496   4.549   1.301
 1910SOL    HW2 6417   0.368   4.450   1.278
 1911SOL     OW 6418   1.274   4.110   1.262
 1911SOL    HW1 6419   1.295   4.184   1.326
 1911SOL    HW2 6420   1.185   4.127   1.219
 1912SOL     OW 6421   0.064   5.288   1.331
 1912SOL    HW1 6422   0.018   5.370   1.297
 1912SOL    HW2 6423   0.162   5.307   1.340
 1913SOL     OW 6424   0.367   4.824   0.501
 1913SOL    HW1 6425   0.360   4.907   0.445
 1913SOL    HW2 6426   0.371   4.744   0.441
 1914SOL     OW 6427   0.566   4.261   0.865
 1914SOL    HW1 6428   0.578   4.327   0.791
 1914SOL    HW2 6429   0.612   4.295   0.948
 1915SOL     OW 6430   1.252   5.072   0.388
 1915SOL    HW1 6431   1.302   5.149   0.428
 1915SOL    HW2 6432   1.157   5.074   0.420
 1916SOL     OW 6433   1.272   5.169   1.142
 1916SOL    HW1 6434   1.319   5.182   1.229
 1916SOL    HW2 6435   1.206   5.095   1.151
 1917SOL     OW 6436   1.582   4.363   0.472
 1917SOL    HW1 6437   1.551   4.424   0.545
 1917SOL    HW2 6438   1.632   4.415   0.403
 1918SOL     OW 6439   0.354   5.234   1.329
 1918SOL    HW1 6440   0.333   5.190   1.242
 1918SOL    HW2 6441   0.451   5.260   1.332
 1919SOL     OW 6442   0.402   4.475   1.598
 1919SOL    HW1 6443   0.470   4.530   1.551
 1919SOL    HW2 6444   0.442   4.387   1.625
 1920SOL     OW 6445   1.587   4.503   1.670
 1920SOL    HW1 6446   1.495   4.541   1.665
 1920SOL    HW2 6447   1.647   4.550   1.605
 1921SOL     OW 6448   1.013   3.829   1.770
 1921SOL    HW1 6449   1.019   3.914   1.718
 1921SOL    HW2 6450   1.045   3.753   1.713
 1922SOL     OW 6451   0.504   3.774   1.740
 1922SOL    HW1 6452   0.462   3.717   1.670
 1922SOL    HW2 6453   0.438   3.843   1.772
 1923SOL     OW 6454   0.573   4.594   1.029
 1923SOL    HW1 6455   0.617   4.683   1.020
 1923SOL    HW2 6456   0.510   4.594   1.106
 1924SOL     OW 6457   1.360   4.586   1.045
 1924SOL    HW1 6458   1.285   4.586   0.979
 1924SOL    HW2 6459   1.397   4.494   1.054
 1925SOL     OW 6460   1.209   4.249   0.275
 1925SOL    HW1 6461   1.222   4.165   0.329
 1925SOL    HW2 6462   1.180   4.323   0.335
 1926SOL     OW 6463   0.307   3.937   1.231
 1926SOL    HW1 6464   0.284   3.974   1.321
 1926SOL    HW2 6465   0.277   3.842   1.225
 1927SOL     OW 6466   0.037   5.034   1.282
 1927SOL    HW1 6467   0.090   4.985   1.350
 1927SOL    HW2 6468   0.059   5.132   1.287
 1928SOL     OW 6469   0.732   4.358   1.064
 1928SOL    HW1 6470   0.791   4.332   0.988
 1928SOL    HW2 6471   0.704   4.454   1.053
 1929SOL     OW 6472   1.728   4.659   1.854
 1929SOL    HW1 6473   1.682   4.652   1.765
 1929SOL    HW2 6474   1.666   4.703   1.920
 1930SOL     OW 6475   0.307   3.787   0.618
 1930SOL    HW1 6476   0.296   3.881   0.651
 1930SOL    HW2 6477   0.302   3.724   0.695
 1931SOL     OW 6478   1.622   4.091   0.374
 1931SOL    HW1 6479   1.624   4.015   0.438
 1931SOL    HW2 6480   1.574   4.168   0.414
 1932SOL     OW 6481   1.023   4.490   0.966
 1932SOL    HW1 6482   1.038   4.511   1.062
 1932SOL    HW2 6483   0.993   4.395   0.957
 1933SOL     OW 6484   1.859   5.242   1.605
 1933SOL    HW1 6485   1.873   5.269   1.510
 1933SOL    HW2 6486   1.942   5.264   1.658
 1934SOL     OW 6487   0.350   4.622   1.804
 1934SOL    HW1 6488   0.426   4.666   1.852
 1934SOL    HW2 6489   0.385   4.575   1.722
 1935SOL     OW 6490   1.540   3.998   0.125
 1935SOL    HW1 6491   1.479   3.923   0.148
 1935SOL    HW2 6492   1.562   4.050   0.208
 1936SOL     OW 6493   1.303   4.562   0.042
 1936SOL    HW1 6494   1.337   4.469   0.057
 1936SOL    HW2 6495   1.321   4.589  -0.053
 1937SOL     OW 6496   1.068   5.057   0.849
 1937SOL    HW1 6497   1.075   4.973   0.794
 1937SOL    HW2 6498   1.130   5.126   0.813
 1938SOL     OW 6499   0.319   4.534   0.949
 1938SOL    HW1 6500   0.412   4.570   0.954
 1938SOL    HW2 6501   0.313   4.449   1.001
 1939SOL     OW 6502   0.339   4.233   1.006
 1939SOL    HW1 6503   0.287   4.150   0.989
 1939SOL    HW2 6504   0.416   4.238   0.942
 1940SOL     OW 6505   1.138   4.104   1.678
 1940SOL    HW1 6506   1.093   4.167   1.742
 1940SOL    HW2 6507   1.231   4.135   1.661
 1941SOL     OW 6508   1.160   3.931   1.477
 1941SOL    HW1 6509   1.160   3.995   1.554
 1941SOL    HW2 6510   1.188   3.979   1.394
 1942SOL     OW 6511   0.008   5.050   0.200
 1942SOL    HW1 6512  -0.085   5.071   0.169
 1942SOL    HW2 6513   0.018   4.951   0.213
 1943SOL     OW 6514   1.002   4.520   1.238
 1943SOL    HW1 6515   1.043   4.488   1.324
 1943SOL    HW2 6516   0.906   4.493   1.235
 1944SOL     OW 6517   0.040   4.268   1.114
 1944SOL    HW1 6518   0.125   4.235   1.073
 1944SOL    HW2 6519   0.053   4.283   1.212
 1945SOL     OW 6520   0.189   4.244   1.722
 1945SOL    HW1 6521   0.248   4.204   1.652
 1945SOL    HW2 6522   0.131   4.315   1.681
 1946SOL     OW 6523   1.369   4.674   1.660
 1946SOL    HW1 6524   1.408   4.763   1.680
 1946SOL    HW2 6525   1.379   4.654   1.563
 1947SOL     OW 6526   0.815   4.296   0.325
 1947SOL    HW1 6527   0.822   4.207   0.279
 1947SOL    HW2 6528   0.721   4.330   0.317
 1948SOL     OW 6529   1.657   4.328   1.206
 1948SOL    HW1 6530   1.619   4.259   1.268
 1948SOL    HW2 6531   1.739   4.292   1.162
 1949SOL     OW 6532   0.252   5.288   1.744
 1949SOL    HW1 6533   0.222   5.345   1.820
 1949SOL    HW2 6534   0.245   5.191   1.770
 1950SOL     OW 6535   0.671   4.188   1.269
 1950SOL    HW1 6536   0.637   4.099   1.239
 1950SOL    HW2 6537   0.697   4.242   1.189
 1951SOL     OW 6538   0.473   4.224   0.191
 1951SOL    HW1 6539   0.534   4.304   0.195
 1951SOL    HW2 6540   0.378   4.255   0.198
 1952SOL     OW 6541   0.159   4.861   1.466
 1952SOL    HW1 6542   0.181   4.800   1.542
 1952SOL    HW2 6543   0.169   4.812   1.380
 1953SOL     OW 6544   1.347   4.783   1.234
 1953SOL    HW1 6545   1.371   4.720   1.160
 1953SOL    HW2 6546   1.257   4.823   1.216
 1954SOL     OW 6547   1.302   4.579   0.309
 1954SOL    HW1 6548   1.216   4.548   0.351
 1954SOL    HW2 6549   1.298   4.565   0.210
 1955SOL     OW 6550   0.083   4.982   1.022
 1955SOL    HW1 6551   0.078   4.981   1.122
 1955SOL    HW2 6552   0.000   4.941   0.984
 1956SOL     OW 6553   0.688   5.386   1.716
 1956SOL    HW1 6554   0.632   5.467   1.725
 1956SOL    HW2 6555   0.740   5.390   1.630
 1957SOL     OW 6556   0.903   3.810   0.133
 1957SOL    HW1 6557   0.954   3.811   0.047
 1957SOL    HW2 6558   0.959   3.768   0.204
 1958SOL     OW 6559   1.726   3.859   0.523
 1958SOL    HW1 6560   1.799   3.842   0.456
 1958SOL    HW2 6561   1.695   3.772   0.561
 1959SOL     OW 6562   1.280   4.651   0.672
 1959SOL    HW1 6563   1.340   4.570   0.674
 1959SOL    HW2 6564   1.320   4.720   0.612
 1960SOL     OW 6565   0.830   4.997   1.422
 1960SOL    HW1 6566   0.825   5.030   1.517
 1960SOL    HW2 6567   0.744   5.016   1.376
 1961SOL     OW 6568   1.841   3.899   0.963
 1961SOL    HW1 6569   1.880   3.814   0.927
 1961SOL    HW2 6570   1.743   3.901   0.944
 1962SOL     OW 6571   0.263   4.050   0.720
 1962SOL    HW1 6572   0.184   4.101   0.686
 1962SOL    HW2 6573   0.254   4.035   0.818
 1963SOL     OW 6574   1.194   5.336   0.031
 1963SOL    HW1 6575   1.200   5.243   0.068
 1963SOL    HW2 6576   1.135   5.336  -0.049
 1964SOL     OW 6577   0.822   4.726   1.372
 1964SOL    HW1 6578   0.862   4.725   1.280
 1964SOL    HW2 6579   0.832   4.818   1.412
 1965SOL     OW 6580   0.916   4.634   0.291
 1965SOL    HW1 6581   0.979   4.672   0.223
 1965SOL    HW2 6582   0.956   4.551   0.330
 1966SOL     OW 6583   0.372   5.012   1.490
 1966SOL    HW1 6584   0.359   5.105   1.456
 1966SOL    HW2 6585   0.288   4.960   1.477
 1967SOL     OW 6586   1.614   5.016   1.289
 1967SOL    HW1 6587   1.674   5.019   1.369
 1967SOL    HW2 6588   1.539   5.080   1.302
 1968SOL     OW 6589   1.039   4.822   0.696
 1968SOL    HW1 6590   0.969   4.775   0.750
 1968SOL    HW2 6591   1.098   4.754   0.653
 1969SOL     OW 6592   1.014   3.960   0.971
 1969SOL    HW1 6593   1.006   3.924   0.878
 1969SOL    HW2 6594   1.012   3.884   1.036
 1970SOL     OW 6595   1.709   4.109   1.381
 1970SOL    HW1 6596   1.782   4.178   1.385
 1970SOL    HW2 6597   1.737   4.034   1.322
 1971SOL     OW 6598   0.255   5.072   0.290
 1971SOL    HW1 6599   0.159   5.073   0.263
 1971SOL    HW2 6600   0.267   5.125   0.374
 1972SOL     OW 6601   0.105   4.737   1.726
 1972SOL    HW1 6602   0.028   4.704   1.780
 1972SOL    HW2 6603   0.190   4.707   1.768
 1973SOL     OW 6604   0.672   3.927   1.489
 1973SOL    HW1 6605   0.762   3.911   1.449
 1973SOL    HW2 6606   0.680   3.932   1.588
 1974SOL     OW 6607   0.075   4.069   0.033
 1974SOL    HW1 6608  -0.017   4.041   0.004
 1974SOL    HW2 6609   0.106   4.146  -0.023
 1975SOL     OW 6610   1.440   4.580   1.398
 1975SOL    HW1 6611   1.383   4.632   1.335
 1975SOL    HW2 6612   1.536   4.592   1.374
 1976SOL     OW 6613   0.072   3.890   0.318
 1976SOL    HW1 6614   0.055   3.973   0.264
 1976SOL    HW2 6615   0.162   3.853   0.296
 1977SOL     OW 6616   1.183   5.059   0.119
 1977SOL    HW1 6617   1.084   5.048   0.121
 1977SOL    HW2 6618   1.217   5.074   0.212
 1978SOL     OW 6619   0.613   4.566   1.431
 1978SOL    HW1 6620   0.669   4.647   1.414
 1978SOL    HW2 6621   0.672   4.486   1.434
 1979SOL     OW 6622   0.716   4.289   1.708
 1979SOL    HW1 6623   0.735   4.354   1.782
 1979SOL    HW2 6624   0.776   4.209   1.717
 1980SOL     OW 6625   1.450   4.944   1.633
 1980SOL    HW1 6626   1.441   4.934   1.732
 1980SOL    HW2 6627   1.546   4.937   1.607
 1981SOL     OW 6628   1.674   4.607   1.254
 1981SOL    HW1 6629   1.647   4.518   1.217
 1981SOL    HW2 6630   1.675   4.675   1.181
 1982SOL     OW 6631   1.225   4.049   0.449
 1982SOL    HW1 6632   1.290   3.975   0.438
 1982SOL    HW2 6633   1.245   4.099   0.533
 1983SOL     OW 6634   0.594   4.469   0.652
 1983SOL    HW1 6635   0.644   4.554   0.633
 1983SOL    HW2 6636   0.506   4.471   0.604
 1984SOL     OW 6637   1.777   4.066   1.642
 1984SOL    HW1 6638   1.760   4.097   1.548
 1984SOL    HW2 6639   1.693   4.029   1.680
 1985SOL     OW 6640   1.730   4.658   1.517
 1985SOL    HW1 6641   1.768   4.749   1.532
 1985SOL    HW2 6642   1.722   4.641   1.418
 1986SOL     OW 6643   0.859   5.098   0.016
 1986SOL    HW1 6644   0.813   5.113   0.104
 1986SOL    HW2 6645   0.903   5.183  -0.014
 1987SOL     OW 6646   0.859   4.680   0.861
 1987SOL    HW1 6647   0.913   4.611   0.909
 1987SOL    HW2 6648   0.827   4.749   0.927
 1988SOL     OW 6649   1.083   4.708   0.087
 1988SOL    HW1 6650   1.060   4.761   0.005
 1988SOL    HW2 6651   1.164   4.652   0.068
 1989SOL     OW 6652   0.221   5.038   1.844
 1989SOL    HW1 6653   0.156   4.965   1.823
 1989SOL    HW2 6654   0.225   5.052   1.942
 1990SOL     OW 6655   0.079   4.964   0.653
 1990SOL    HW1 6656   0.078   4.917   0.741
 1990SOL    HW2 6657   0.161   4.936   0.602
 1991SOL     OW 6658   0.672   5.115   1.624
 1991SOL    HW1 6659   0.594   5.065   1.662
 1991SOL    HW2 6660   0.669   5.210   1.655
 1992SOL     OW 6661   1.824   3.916   1.227
 1992SOL    HW1 6662   1.820   3.826   1.271
 1992SOL    HW2 6663   1.827   3.905   1.128
 1993SOL     OW 6664   0.428   4.148   0.520
 1993SOL    HW1 6665   0.458   4.076   0.458
 1993SOL    HW2 6666   0.389   4.108   0.603
 1994SOL     OW 6667   1.705   5.211   1.104
 1994SOL    HW1 6668   1.612   5.186   1.077
 1994SOL    HW2 6669   1.731   5.161   1.186
 1995SOL     OW 6670   0.317   4.271   1.280
 1995SOL    HW1 6671   0.355   4.212   1.352
 1995SOL    HW2 6672   0.357   4.245   1.192
 1996SOL     OW 6673   1.424   3.938   1.112
 1996SOL    HW1 6674   1.476   3.873   1.167
 1996SOL    HW2 6675   1.375   4.001   1.173
 1997SOL     OW 6676   1.001   3.758   1.154
 1997SOL    HW1 6677   0.938   3.686   1.123
 1997SOL    HW2 6678   1.094   3.722   1.154
 1998SOL     OW 6679   0.770   5.054   0.301
 1998SOL    HW1 6680   0.724   4.967   0.318
 1998SOL    HW2 6681   0.861   5.051   0.342
 1999SOL     OW 6682   0.618   5.291   1.284
 1999SOL    HW1 6683   0.613   5.373   1.341
 1999SOL    HW2 6684   0.707   5.288   1.239
 2000SOL     OW 6685   1.352   3.776   0.168
 2000SOL    HW1 6686   1.387   3.735   0.084
 2000SOL    HW2 6687   1.262   3.738   0.188
 2001SOL     OW 6688   1.300   4.177   0.691
 2001SOL    HW1 6689   1.241   4.257   0.695
 2001SOL    HW2 6690   1.315   4.142   0.784
 2002SOL     OW 6691   1.593   3.945   0.882
 2002SOL    HW1 6692   1.509   3.944   0.936
 2002SOL    HW2 6693   1.595   4.028   0.826
 2003SOL     OW 6694   0.039   4.801   0.300
 2003SOL    HW1 6695   0.138   4.790   0.291
 2003SOL    HW2 6696  -0.001   4.715   0.332
 2004SOL     OW 6697   0.230   4.352   1.975
 2004SOL    HW1 6698   0.137   4.350   2.012
 2004SOL    HW2 6699   0.231   4.313   1.883
 2005SOL     OW 6700   0.225   3.999   2.858
 2005SOL    HW1 6701   0.260   3.982   2.950
 2005SOL    HW2 6702   0.137   3.954   2.846
 2006SOL     OW 6703   0.019   4.092   2.509
 2006SOL    HW1 6704  -0.063   4.135   2.548
 2006SOL    HW2 6705  -0.009   4.019   2.446
 2007SOL     OW 6706   0.569   4.999   3.027
 2007SOL    HW1 6707   0.476   4.992   2.990
 2007SOL    HW2 6708   0.580   5.088   3.071
 2008SOL     OW 6709   1.555   5.235   2.565
 2008SOL    HW1 6710   1.498   5.219   2.646
 2008SOL    HW2 6711   1.496   5.245   2.485
 2009SOL     OW 6712   1.135   4.427   2.579
 2009SOL    HW1 6713   1.192   4.505   2.554
 2009SOL    HW2 6714   1.075   4.453   2.655
 2010SOL     OW 6715   1.755   4.331   2.093
 2010SOL    HW1 6716   1.743   4.318   1.994
 2010SOL    HW2 6717   1.725   4.250   2.142
 2011SOL     OW 6718   0.768   4.868   2.885
 2011SOL    HW1 6719   0.690   4.885   2.945
 2011SOL    HW2 6720   0.802   4.955   2.849
 2012SOL     OW 6721   0.850   4.522   3.685
 2012SOL    HW1 6722   0.846   4.598   3.750
 2012SOL    HW2 6723   0.872   4.558   3.594
 2013SOL     OW 6724   0.685   4.736   2.527
 2013SOL    HW1 6725   0.754   4.720   2.597
 2013SOL    HW2 6726   0.612   4.793   2.565
 2014SOL     OW 6727   0.686   4.885   3.665
 2014SOL    HW1 6728   0.746   4.964   3.679
 2014SOL    HW2 6729   0.600   4.916   3.624
 2015SOL     OW 6730   0.335   5.159   2.923
 2015SOL    HW1 6731   0.257   5.128   2.870
 2015SOL    HW2 6732   0.393   5.217   2.866
 2016SOL     OW 6733   1.460   5.229   3.201
 2016SOL    HW1 6734   1.484   5.323   3.227
 2016SOL    HW2 6735   1.444   5.175   3.283
 2017SOL     OW 6736   0.438   4.116   3.361
 2017SOL    HW1 6737   0.520   4.060   3.370
 2017SOL    HW2 6738   0.357   4.058   3.365
 2018SOL     OW 6739   1.603   4.171   2.599
 2018SOL    HW1 6740   1.529   4.217   2.549
 2018SOL    HW2 6741   1.654   4.239   2.652
 2019SOL     OW 6742   1.127   5.065   3.552
 2019SOL    HW1 6743   1.174   5.065   3.640
 2019SOL    HW2 6744   1.079   4.978   3.541
 2020SOL     OW 6745   0.230   5.158   2.400
 2020SOL    HW1 6746   0.204   5.254   2.400
 2020SOL    HW2 6747   0.159   5.104   2.445
 2021SOL     OW 6748   0.240   4.815   2.748
 2021SOL    HW1 6749   0.254   4.731   2.800
 2021SOL    HW2 6750   0.185   4.879   2.803
 2022SOL     OW 6751   0.606   4.688   1.985
 2022SOL    HW1 6752   0.613   4.772   1.931
 2022SOL    HW2 6753   0.652   4.701   2.073
 2023SOL     OW 6754   1.594   3.838   3.342
 2023SOL    HW1 6755   1.576   3.905   3.270
 2023SOL    HW2 6756   1.591   3.884   3.431
 2024SOL     OW 6757   0.122   4.367   2.425
 2024SOL    HW1 6758   0.077   4.279   2.442
 2024SOL    HW2 6759   0.121   4.421   2.509
 2025SOL     OW 6760   0.027   5.320   1.979
 2025SOL    HW1 6761   0.008   5.224   2.000
 2025SOL    HW2 6762  -0.006   5.378   2.054
 2026SOL     OW 6763   1.689   4.646   2.474
 2026SOL    HW1 6764   1.784   4.617   2.482
 2026SOL    HW2 6765   1.681   4.711   2.399
 2027SOL     OW 6766   1.641   4.832   2.294
 2027SOL    HW1 6767   1.727   4.834   2.242
 2027SOL    HW2 6768   1.655   4.879   2.382
 2028SOL     OW 6769   0.113   4.461   3.459
 2028SOL    HW1 6770   0.201   4.448   3.504
 2028SOL    HW2 6771   0.100   4.558   3.437
 2029SOL     OW 6772   0.613   5.089   2.588
 2029SOL    HW1 6773   0.564   5.002   2.597
 2029SOL    HW2 6774   0.590   5.132   2.501
 2030SOL     OW 6775   1.293   4.952   3.285
 2030SOL    HW1 6776   1.330   4.879   3.227
 2030SOL    HW2 6777   1.345   4.957   3.370
 2031SOL     OW 6778   0.809   3.728   2.364
 2031SOL    HW1 6779   0.849   3.819   2.355
 2031SOL    HW2 6780   0.709   3.736   2.370
 2032SOL     OW 6781   0.197   4.700   3.126
 2032SOL    HW1 6782   0.286   4.655   3.112
 2032SOL    HW2 6783   0.124   4.635   3.107
 2033SOL     OW 6784   1.525   4.723   2.052
 2033SOL    HW1 6785   1.462   4.647   2.065
 2033SOL    HW2 6786   1.573   4.741   2.138
 2034SOL     OW 6787   0.317   3.975   3.663
 2034SOL    HW1 6788   0.388   4.046   3.669
 2034SOL    HW2 6789   0.229   4.014   3.691
 2035SOL     OW 6790   1.466   5.141   2.815
 2035SOL    HW1 6791   1.407   5.147   2.895
 2035SOL    HW2 6792   1.451   5.053   2.769
 2036SOL     OW 6793   0.598   4.453   2.132
 2036SOL    HW1 6794   0.622   4.522   2.064
 2036SOL    HW2 6795   0.520   4.486   2.186
 2037SOL     OW 6796   1.281   4.069   2.806
 2037SOL    HW1 6797   1.195   4.019   2.793
 2037SOL    HW2 6798   1.343   4.015   2.862
 2038SOL     OW 6799   0.807   4.329   3.327
 2038SOL    HW1 6800   0.760   4.326   3.416
 2038SOL    HW2 6801   0.756   4.274   3.261
 2039SOL     OW 6802   1.394   4.193   3.536
 2039SOL    HW1 6803   1.374   4.236   3.624
 2039SOL    HW2 6804   1.472   4.131   3.545
 2040SOL     OW 6805   0.973   4.614   3.434
 2040SOL    HW1 6806   1.019   4.530   3.405
 2040SOL    HW2 6807   0.917   4.648   3.359
 2041SOL     OW 6808   0.991   4.134   3.104
 2041SOL    HW1 6809   0.914   4.168   3.158
 2041SOL    HW2 6810   0.957   4.083   3.025
 2042SOL     OW 6811   1.041   4.425   2.291
 2042SOL    HW1 6812   1.067   4.421   2.387
 2042SOL    HW2 6813   0.956   4.374   2.277
 2043SOL     OW 6814   0.076   4.535   2.651
 2043SOL    HW1 6815   0.175   4.523   2.660
 2043SOL    HW2 6816   0.052   4.630   2.672
 2044SOL     OW 6817   0.865   4.072   2.057
 2044SOL    HW1 6818   0.924   4.135   2.008
 2044SOL    HW2 6819   0.884   3.978   2.028
 2045SOL     OW 6820   1.719   4.309   3.693
 2045SOL    HW1 6821   1.693   4.398   3.657
 2045SOL    HW2 6822   1.717   4.241   3.620
 2046SOL     OW 6823   1.362   4.868   2.407
 2046SOL    HW1 6824   1.445   4.839   2.359
 2046SOL    HW2 6825   1.313   4.935   2.351
 2047SOL     OW 6826   0.550   3.920   2.747
 2047SOL    HW1 6827   0.545   3.915   2.847
 2047SOL    HW2 6828   0.552   4.016   2.718
 2048SOL     OW 6829   1.008   5.180   2.339
 2048SOL    HW1 6830   0.962   5.252   2.287
 2048SOL    HW2 6831   1.004   5.200   2.437
 2049SOL     OW 6832   1.795   4.790   2.735
 2049SOL    HW1 6833   1.733   4.775   2.659
 2049SOL    HW2 6834   1.743   4.801   2.820
 2050SOL     OW 6835   1.227   5.274   3.368
 2050SOL    HW1 6836   1.233   5.197   3.432
 2050SOL    HW2 6837   1.175   5.248   3.288
 2051SOL     OW 6838   0.321   4.667   2.104
 2051SOL    HW1 6839   0.403   4.706   2.062
 2051SOL    HW2 6840   0.294   4.585   2.055
 2052SOL     OW 6841   1.458   4.459   2.590
 2052SOL    HW1 6842   1.453   4.394   2.665
 2052SOL    HW2 6843   1.538   4.518   2.603
 2053SOL     OW 6844   0.461   4.990   3.589
 2053SOL    HW1 6845   0.411   4.991   3.503
 2053SOL    HW2 6846   0.398   4.972   3.665
 2054SOL     OW 6847   1.111   5.500   2.099
 2054SOL    HW1 6848   1.051   5.438   2.149
 2054SOL    HW2 6849   1.142   5.456   2.014
 2055SOL     OW 6850   0.202   4.009   3.360
 2055SOL    HW1 6851   0.122   4.069   3.347
 2055SOL    HW2 6852   0.192   3.960   3.446
 2056SOL     OW 6853   1.632   5.101   1.943
 2056SOL    HW1 6854   1.600   5.195   1.933
 2056SOL    HW2 6855   1.556   5.038   1.931
 2057SOL     OW 6856   1.400   3.831   2.288
 2057SOL    HW1 6857   1.376   3.794   2.198
 2057SOL    HW2 6858   1.499   3.847   2.292
 2058SOL     OW 6859   0.382   4.424   2.342
 2058SOL    HW1 6860   0.427   4.334   2.339
 2058SOL    HW2 6861   0.288   4.413   2.375
 2059SOL     OW 6862   1.547   3.946   3.591
 2059SOL    HW1 6863   1.542   3.983   3.683
 2059SOL    HW2 6864   1.475   3.877   3.579
 2060SOL     OW 6865   0.614   3.846   1.979
 2060SOL    HW1 6866   0.712   3.824   1.986
 2060SOL    HW2 6867   0.583   3.829   1.886
 2061SOL     OW 6868   0.781   3.988   3.611
 2061SOL    HW1 6869   0.848   3.927   3.654
 2061SOL    HW2 6870   0.708   4.007   3.676
 2062SOL     OW 6871   1.351   4.314   3.295
 2062SOL    HW1 6872   1.379   4.271   3.380
 2062SOL    HW2 6873   1.376   4.410   3.296
 2063SOL     OW 6874   0.803   5.126   2.786
 2063SOL    HW1 6875   0.893   5.140   2.744
 2063SOL    HW2 6876   0.732   5.128   2.715
 2064SOL     OW 6877   0.922   4.227   2.761
 2064SOL    HW1 6878   0.897   4.218   2.665
 2064SOL    HW2 6879   0.970   4.145   2.792
 2065SOL     OW 6880   0.539   3.788   2.374
 2065SOL    HW1 6881   0.458   3.789   2.432
 2065SOL    HW2 6882   0.542   3.871   2.319
 2066SOL     OW 6883   1.434   4.912   1.903
 2066SOL    HW1 6884   1.466   4.836   1.960
 2066SOL    HW2 6885   1.342   4.939   1.933
 2067SOL     OW 6886   0.297   3.759   2.033
 2067SOL    HW1 6887   0.346   3.843   2.012
 2067SOL    HW2 6888   0.359   3.694   2.078
 2068SOL     OW 6889   0.935   3.960   2.342
 2068SOL    HW1 6890   0.887   4.001   2.264
 2068SOL    HW2 6891   1.034   3.958   2.323
 2069SOL     OW 6892   1.076   4.407   3.326
 2069SOL    HW1 6893   0.996   4.346   3.329
 2069SOL    HW2 6894   1.157   4.354   3.302
 2070SOL     OW 6895   1.227   5.294   2.655
 2070SOL    HW1 6896   1.248   5.368   2.590
 2070SOL    HW2 6897   1.295   5.294   2.728
 2071SOL     OW 6898   0.459   4.876   2.603
 2071SOL    HW1 6899   0.388   4.849   2.668
 2071SOL    HW2 6900   0.433   4.848   2.510
 2072SOL     OW 6901   1.032   4.273   1.878
 2072SOL    HW1 6902   0.991   4.355   1.839
 2072SOL    HW2 6903   1.096   4.299   1.951
 2073SOL     OW 6904   0.078   4.280   3.248
 2073SOL    HW1 6905   0.170   4.279   3.207
 2073SOL    HW2 6906   0.072   4.354   3.315
 2074SOL     OW 6907   0.561   3.946   3.009
 2074SOL    HW1 6908   0.599   3.862   3.046
 2074SOL    HW2 6909   0.473   3.965   3.053
 2075SOL     OW 6910   0.866   4.178   2.504
 2075SOL    HW1 6911   0.834   4.250   2.442
 2075SOL    HW2 6912   0.890   4.097   2.451
 2076SOL     OW 6913   1.017   3.763   2.615
 2076SOL    HW1 6914   0.945   3.768   2.546
 2076SOL    HW2 6915   0.993   3.694   2.684
 2077SOL     OW 6916   1.429   4.897   2.729
 2077SOL    HW1 6917   1.374   4.813   2.722
 2077SOL    HW2 6918   1.455   4.926   2.637
 2078SOL     OW 6919   1.466   4.314   2.854
 2078SOL    HW1 6920   1.436   4.219   2.861
 2078SOL    HW2 6921   1.539   4.330   2.920
 2079SOL     OW 6922   1.857   4.557   2.239
 2079SOL    HW1 6923   1.899   4.493   2.303
 2079SOL    HW2 6924   1.819   4.506   2.161
 2080SOL     OW 6925   0.488   5.109   2.036
 2080SOL    HW1 6926   0.401   5.094   2.083
 2080SOL    HW2 6927   0.471   5.135   1.941
 2081SOL     OW 6928   1.664   5.004   2.519
 2081SOL    HW1 6929   1.763   5.012   2.533
 2081SOL    HW2 6930   1.619   5.088   2.550
 2082SOL     OW 6931   1.390   4.299   1.940
 2082SOL    HW1 6932   1.336   4.278   2.021
 2082SOL    HW2 6933   1.481   4.258   1.949
 2083SOL     OW 6934   0.527   3.980   2.190
 2083SOL    HW1 6935   0.554   3.921   2.115
 2083SOL    HW2 6936   0.527   4.075   2.159
 2084SOL     OW 6937   1.754   4.947   3.450
 2084SOL    HW1 6938   1.845   4.908   3.437
 2084SOL    HW2 6939   1.762   5.043   3.474
 2085SOL     OW 6940   1.064   5.071   3.202
 2085SOL    HW1 6941   0.984   5.048   3.257
 2085SOL    HW2 6942   1.147   5.045   3.251
 2086SOL     OW 6943   1.111   4.919   2.962
 2086SOL    HW1 6944   1.071   4.963   3.043
 2086SOL    HW2 6945   1.070   4.956   2.879
 2087SOL     OW 6946   1.638   4.823   2.941
 2087SOL    HW1 6947   1.643   4.904   3.000
 2087SOL    HW2 6948   1.552   4.825   2.890
 2088SOL     OW 6949   0.915   3.813   3.264
 2088SOL    HW1 6950   0.940   3.793   3.169
 2088SOL    HW2 6951   0.987   3.869   3.306
 2089SOL     OW 6952   0.980   4.840   3.581
 2089SOL    HW1 6953   0.881   4.846   3.591
 2089SOL    HW2 6954   1.003   4.760   3.525
 2090SOL     OW 6955   0.705   4.774   2.230
 2090SOL    HW1 6956   0.691   4.781   2.329
 2090SOL    HW2 6957   0.789   4.723   2.212
 2091SOL     OW 6958   0.410   4.537   3.113
 2091SOL    HW1 6959   0.496   4.549   3.163
 2091SOL    HW2 6960   0.368   4.450   3.140
 2092SOL     OW 6961   1.274   4.110   3.124
 2092SOL    HW1 6962   1.295   4.184   3.188
 2092SOL    HW2 6963   1.185   4.127   3.081
 2093SOL     OW 6964   0.064   5.288   3.193
 2093SOL    HW1 6965   0.018   5.370   3.159
 2093SOL    HW2 6966   0.162   5.307   3.202
 2094SOL     OW 6967   0.367   4.824   2.363
 2094SOL    HW1 6968   0.360   4.907   2.307
 2094SOL    HW2 6969   0.371   4.744   2.303
 2095SOL     OW 6970   0.566   4.261   2.727
 2095SOL    HW1 6971   0.578   4.327   2.653
 2095SOL    HW2 6972   0.612   4.295   2.810
 2096SOL     OW 6973   1.252   5.072   2.250
 2096SOL    HW1 6974   1.302   5.149   2.290
 2096SOL    HW2 6975   1.157   5.074   2.282
 2097SOL     OW 6976   1.272   5.169   3.004
 2097SOL    HW1 6977   1.319   5.182   3.091
 2097SOL    HW2 6978   1.206   5.095   3.013
 2098SOL     OW 6979   1.582   4.363   2.334
 2098SOL    HW1 6980   1.551   4.424   2.407
 2098SOL    HW2 6981   1.632   4.415   2.265
 2099SOL     OW 6982   0.354   5.234   3.191
 2099SOL    HW1 6983   0.333   5.190   3.104
 2099SOL    HW2 6984   0.451   5.260   3.194
 2100SOL     OW 6985   0.402   4.475   3.460
 2100SOL    HW1 6986   0.470   4.530   3.413
 2100SOL    HW2 6987   0.442   4.387   3.487
 2101SOL     OW 6988   1.587   4.503   3.532
 2101SOL    HW1 6989   1.495   4.541   3.527
 2101SOL    HW2 6990   1.647   4.550   3.467
 2102SOL     OW 6991   1.013   3.829   3.632
 2102SOL    HW1 6992   1.019   3.914   3.580
 2102SOL    HW2 6993   1.045   3.753   3.575
 2103SOL     OW 6994   0.504   3.774   3.602
 2103SOL    HW1 6995   0.462   3.717   3.532
 2103SOL    HW2 6996   0.438   3.843   3.634
 2104SOL     OW 6997   0.573   4.594   2.891
 2104SOL    HW1 6998   0.617   4.683   2.882
 2104SOL    HW2 6999   0.510   4.594   2.968
 2105SOL     OW 7000   1.360   4.586   2.907
 2105SOL    HW1 7001   1.285   4.586   2.841
 2105SOL    HW2 7002   1.397   4.494   2.916
 2106SOL     OW 7003   1.209   4.249   2.137
 2106SOL    HW1 7004   1.222   4.165   2.191
 2106SOL    HW2 7005   1.180   4.323   2.197
 2107SOL     OW 7006   0.307   3.937   3.093
 2107SOL    HW1 7007   0.284   3.974   3.183
 2107SOL    HW2 7008   0.277   3.842   3.087
 2108SOL     OW 7009   0.037   5.034   3.144
 2108SOL    HW1 7010   0.090   4.985   3.212
 2108SOL    HW2 7011   0.059   5.132   3.149
 2109SOL     OW 7012   0.732   4.358   2.926
 2109SOL    HW1 7013   0.791   4.332   2.850
 2109SOL    HW2 7014   0.704   4.454   2.915
 2110SOL     OW 7015   1.728   4.659   3.716
 2110SOL    HW1 7016   1.682   4.652   3.627
 2110SOL    HW2 7017   1.666   4.703   3.782
 2111SOL     OW 7018   0.307   3.787   2.480
 2111SOL    HW1 7019   0.296   3.881   2.513
 2111SOL    HW2 7020   0.302   3.724   2.557
 2112SOL     OW 7021   1.622   4.091   2.236
 2112SOL    HW1 7022   1.624   4.015   2.300
 2112SOL    HW2 7023   1.574   4.168   2.276
 2113SOL     OW 7024   1.023   4.490   2.828
 2113SOL    HW1 7025   1.038   4.511   2.924
 2113SOL    HW2 7026   0.993   4.395   2.819
 2114SOL     OW 7027   1.859   5.242   3.467
 2114SOL    HW1 7028   1.873   5.269   3.372
 2114SOL    HW2 7029   1.942   5.264   3.520
 2115SOL     OW 7030   0.350   4.622   3.666
 2115SOL    HW1 7031   0.426   4.666   3.714
 2115SOL    HW2 7032   0.385   4.575   3.584
 2116SOL     OW 7033   1.540   3.998   1.987
 2116SOL    HW1 7034   1.479   3.923   2.010
 2116SOL    HW2 7035   1.562   4.050   2.070
 2117SOL     OW 7036   1.303   4.562   1.904
 2117SOL    HW1 7037   1.337   4.469   1.919
 2117SOL    HW2 7038   1.321   4.589   1.809
 2118SOL     OW 7039   1.068   5.057   2.711
 2118SOL    HW1 7040   1.075   4.973   2.656
 2118SOL    HW2 7041   1.130   5.126   2.675
 2119SOL     OW 7042   0.319   4.534   2.811
 2119SOL    HW1 7043   0.412   4.570   2.816
 2119SOL    HW2 7044   0.313   4.449   2.863
 2120SOL     OW 7045   0.339   4.233   2.868
 2120SOL    HW1 7046   0.287   4.150   2.851
 2120SOL    HW2 7047   0.416   4.238   2.804
 2121SOL     OW 7048   1.138   4.104   3.540
 2121SOL    HW1 7049   1.093   4.167   3.604
 2121SOL    HW2 7050   1.231   4.135   3.523
 2122SOL     OW 7051   1.160   3.931   3.339
 2122SOL    HW1 7052   1.160   3.995   3.416
 2122SOL    HW2 7053   1.188   3.979   3.256
 2123SOL     OW 7054   0.008   5.050   2.062
 2123SOL    HW1 7055  -0.085   5.071   2.031
 2123SOL    HW2 7056   0.018   4.951   2.075
 2124SOL     OW 7057   1.002   4.520   3.100
 2124SOL    HW1 7058   1.043   4.488   3.186
 2124SOL    HW2 7059   0.906   4.493   3.097
 2125SOL     OW 7060   0.040   4.268   2.976
 2125SOL    HW1 7061   0.125   4.235   2.935
 2125SOL    HW2 7062   0.053   4.283   3.074
 2126SOL     OW 7063   0.189   4.244   3.584
 2126SOL    HW1 7064   0.248   4.204   3.514
 2126SOL    HW2 7065   0.131   4.315   3.543
 2127SOL     OW 7066   1.369   4.674   3.522
 2127SOL    HW1 7067   1.408   4.763   3.542
 2127SOL    HW2 7068   1.379   4.654   3.425
 2128SOL     OW 7069   0.815   4.296   2.187
 2128SOL    HW1 7070   0.822   4.207   2.141
 2128SOL    HW2 7071   0.721   4.330   2.179
 2129SOL     OW 7072   1.657   4.328   3.068
 2129SOL    HW1 7073   1.619   4.259   3.130
 2129SOL    HW2 7074   1.739   4.292   3.024
 2130SOL     OW 7075   0.252   5.288   3.606
 2130SOL    HW1 7076   0.222   5.345   3.682
 2130SOL    HW2 7077   0.245   5.191   3.632
 2131SOL     OW 7078   0.671   4.188   3.131
 2131SOL    HW1 7079   0.637   4.099   3.101
 2131SOL    HW2 7080   0.697   4.242   3.051
 2132SOL     OW 7081   0.473   4.224   2.053
 2132SOL    HW1 7082   0.534   4.304   2.057
 2132SOL    HW2 7083   0.378   4.255   2.060
 2133SOL     OW 7084   0.159   4.861   3.328
 2133SOL    HW1 7085   0.181   4.800   3.404
 2133SOL    HW2 7086   0.169   4.812   3.242
 2134SOL     OW 7087   1.347   4.783   3.096
 2134SOL    HW1 7088   1.371   4.720   3.022
 2134SOL    HW2 7089   1.257   4.823   3.078
 2135SOL     OW 7090   1.302   4.579   2.171
 2135SOL    HW1 7091   1.216   4.548   2.213
 2135SOL    HW2 7092   1.298   4.565   2.072
 2136SOL     OW 7093   0.083   4.982   2.884
 2136SOL    HW1 7094   0.078   4.981   2.984
 2136SOL    HW2 7095   0.000   4.941   2.846
 2137SOL     OW 7096   0.688   5.386   3.578
 2137SOL    HW1 7097   0.632   5.467   3.587
 2137SOL    HW2 7098   0.740   5.390   3.492
 2138SOL     OW 7099   1.726   3.859   2.385
 2138SOL    HW1 7100   1.799   3.842   2.318
 2138SOL    HW2 7101   1.695   3.772   2.423
 2139SOL     OW 7102   1.280   4.651   2.534
 2139SOL    HW1 7103   1.340   4.570   2.536
 2139SOL    HW2 7104   1.320   4.720   2.474
 2140SOL     OW 7105   0.830   4.997   3.284
 2140SOL    HW1 7106   0.825   5.030   3.379
 2140SOL    HW2 7107   0.744   5.016   3.238
 2141SOL     OW 7108   1.841   3.899   2.825
 2141SOL    HW1 7109   1.880   3.814   2.789
 2141SOL    HW2 7110   1.743   3.901   2.806
 2142SOL     OW 7111   0.263   4.050   2.582
 2142SOL    HW1 7112   0.184   4.101   2.548
 2142SOL    HW2 7113   0.254   4.035   2.680
 2143SOL     OW 7114   0.822   4.726   3.234
 2143SOL    HW1 7115   0.862   4.725   3.142
 2143SOL    HW2 7116   0.832   4.818   3.274
 2144SOL     OW 7117   0.916   4.634   2.153
 2144SOL    HW1 7118   0.979   4.672   2.085
 2144SOL    HW2 7119   0.956   4.551   2.192
 2145SOL     OW 7120   0.372   5.012   3.352
 2145SOL    HW1 7121   0.359   5.105   3.318
 2145SOL    HW2 7122   0.288   4.960   3.339
 2146SOL     OW 7123   1.614   5.016   3.151
 2146SOL    HW1 7124   1.674   5.019   3.231
 2146SOL    HW2 7125   1.539   5.080   3.164
 2147SOL     OW 7126   1.039   4.822   2.558
 2147SOL    HW1 7127   0.969   4.775   2.612
 2147SOL    HW2 7128   1.098   4.754   2.515
 2148SOL     OW 7129   1.014   3.960   2.833
 2148SOL    HW1 7130   1.006   3.924   2.740
 2148SOL    HW2 7131   1.012   3.884   2.898
 2149SOL     OW 7132   1.709   4.109   3.243
 2149SOL    HW1 7133   1.782   4.178   3.247
 2149SOL    HW2 7134   1.737   4.034   3.184
 2150SOL     OW 7135   0.255   5.072   2.152
 2150SOL    HW1 7136   0.159   5.073   2.125
 2150SOL    HW2 7137   0.267   5.125   2.236
 2151SOL     OW 7138   0.105   4.737   3.588
 2151SOL    HW1 7139   0.028   4.704   3.642
 2151SOL    HW2 7140   0.190   4.707   3.630
 2152SOL     OW 7141   0.672   3.927   3.351
 2152SOL    HW1 7142   0.762   3.911   3.311
 2152SOL    HW2 7143   0.680   3.932   3.450
 2153SOL     OW 7144   0.075   4.069   1.895
 2153SOL    HW1 7145  -0.017   4.041   1.866
 2153SOL    HW2 7146   0.106   4.146   1.839
 2154SOL     OW 7147   1.440   4.580   3.260
 2154SOL    HW1 7148   1.383   4.632   3.197
 2154SOL    HW2 7149   1.536   4.592   3.236
 2155SOL     OW 7150   0.072   3.890   2.180
 2155SOL    HW1 7151   0.055   3.973   2.126
 2155SOL    HW2 7152   0.162   3.853   2.158
 2156SOL     OW 7153   1.183   5.059   1.981
 2156SOL    HW1 7154   1.084   5.048   1.983
 2156SOL    HW2 7155   1.217   5.074   2.074
 2157SOL     OW 7156   0.613   4.566   3.293
 2157SOL    HW1 7157   0.669   4.647   3.276
 2157SOL    HW2 7158   0.672   4.486   3.296
 2158SOL     OW 7159   0.716   4.289   3.570
 2158SOL    HW1 7160   0.735   4.354   3.644
 2158SOL    HW2 7161   0.776   4.209   3.579
 2159SOL     OW 7162   1.450   4.944   3.495
 2159SOL    HW1 7163   1.441   4.934   3.594
 2159SOL    HW2 7164   1.546   4.937   3.469
 2160SOL     OW 7165   1.674   4.607   3.116
 2160SOL    HW1 7166   1.647   4.518   3.079
 2160SOL    HW2 7167   1.675   4.675   3.043
 2161SOL     OW 7168   1.225   4.049   2.311
 2161SOL    HW1 7169   1.290   3.975   2.300
 2161SOL    HW2 7170   1.245   4.099   2.395
 2162SOL     OW 7171   0.594   4.469   2.514
 2162SOL    HW1 7172   0.644   4.554   2.495
 2162SOL    HW2 7173   0.506   4.471   2.466
 2163SOL     OW 7174   1.777   4.066   3.504
 2163SOL    HW1 7175   1.760   4.097   3.410
 2163SOL    HW2 7176   1.693   4.029   3.542
 2164SOL     OW 7177   1.730   4.658   3.379
 2164SOL    HW1 7178   1.768   4.749   3.394
 2164SOL    HW2 7179   1.722   4.641   3.280
 2165SOL     OW 7180   0.859   5.098   1.878
 2165SOL    HW1 7181   0.813   5.113   1.966
 2165SOL    HW2 7182   0.903   5.183   1.848
 2166SOL     OW 7183   0.859   4.680   2.723
 2166SOL    HW1 7184   0.913   4.611   2.771
 2166SOL    HW2 7185   0.827   4.749   2.789
 2167SOL     OW 7186   1.083   4.708   1.949
 2167SOL    HW1 7187   1.060   4.761   1.867
 2167SOL    HW2 7188   1.164   4.652   1.930
 2168SOL     OW 7189   0.221   5.038   3.706
 2168SOL    HW1 7190   0.156   4.965   3.685
 2168SOL    HW2 7191   0.225   5.052   3.804
 2169SOL     OW 7192   0.079   4.964   2.515
 2169SOL    HW1 7193   0.078   4.917   2.603
 2169SOL    HW2 7194   0.161   4.936   2.464
 2170SOL     OW 7195   0.672   5.115   3.486
 2170SOL    HW1 7196   0.594   5.065   3.524
 2170SOL    HW2 7197   0.669   5.210   3.517
 2171SOL     OW 7198   1.824   3.916   3.089
 2171SOL    HW1 7199   1.820   3.826   3.133
 2171SOL    HW2 7200   1.827   3.905   2.990
 2172SOL     OW 7201   0.428   4.148   2.382
 2172SOL    HW1 7202   0.458   4.076   2.320
 2172SOL    HW2 7203   0.389   4.108   2.465
 2173SOL     OW 7204   1.705   5.211   2.966
 2173SOL    HW1 7205   1.612   5.186   2.939
 2173SOL    HW2 7206   1.731   5.161   3.048
 2174SOL     OW 7207   0.317   4.271   3.142
 2174SOL    HW1 7208   0.355   4.212   3.214
 2174SOL    HW2 7209   0.357   4.245   3.054
 2175SOL     OW 7210   1.424   3.938   2.974
 2175SOL    HW1 7211   1.476   3.873   3.029
 2175SOL    HW2 7212   1.375   4.001   3.035
 2176SOL     OW 7213   1.001   3.758   3.016
 2176SOL    HW1 7214   0.938   3.686   2.985
 2176SOL    HW2 7215   1.094   3.722   3.016
 2177SOL     OW 7216   0.770   5.054   2.163
 2177SOL    HW1 7217   0.724   4.967   2.180
 2177SOL    HW2 7218   0.861   5.051   2.204
 2178SOL     OW 7219   0.618   5.291   3.146
 2178SOL    HW1 7220   0.613   5.373   3.203
 2178SOL    HW2 7221   0.707   5.288   3.101
 2179SOL     OW 7222   1.352   3.776   2.030
 2179SOL    HW1 7223   1.387   3.735   1.946
 2179SOL    HW2 7224   1.262   3.738   2.050
 2180SOL     OW 7225   1.300   4.177   2.553
 2180SOL    HW1 7226   1.241   4.257   2.557
 2180SOL    HW2 7227   1.315   4.142   2.646
 2181SOL     OW 7228   1.593   3.945   2.744
 2181SOL    HW1 7229   1.509   3.944   2.798
 2181SOL    HW2 7230   1.595   4.028   2.688
 2182SOL     OW 7231   0.039   4.801   2.162
 2182SOL    HW1 7232   0.138   4.790   2.153
 2182SOL    HW2 7233  -0.001   4.715   2.194
 2183SOL     OW 7234   0.230   4.352   3.837
 2183SOL    HW1 7235   0.137   4.350   3.874
 2183SOL    HW2 7236   0.231   4.313   3.745
 2184SOL     OW 7237   0.225   3.999   4.720
 2184SOL    HW1 7238   0.260   3.982   4.812
 2184SOL    HW2 7239   0.137   3.954   4.708
 2185SOL     OW 7240   0.019   4.092   4.371
 2185SOL    HW1 7241  -0.063   4.135   4.410
 2185SOL    HW2 7242  -0.009   4.019   4.308
 2186SOL     OW 7243   0.569   4.999   4.889
 2186SOL    HW1 7244   0.476   4.992   4.852
 2186SOL    HW2 7245   0.580   5.088   4.933
 2187SOL     OW 7246   1.555   5.235   4.427
 2187SOL    HW1 7247   1.498   5.219   4.508
 2187SOL    HW2 7248   1.496   5.245   4.347
 2188SOL     OW 7249   1.135   4.427   4.441
 2188SOL    HW1 7250   1.192   4.505   4.416
 2188SOL    HW2 7251   1.075   4.453   4.517
 2189SOL     OW 7252   1.755   4.331   3.955
 2189SOL    HW1 7253   1.743   4.318   3.856
 2189SOL    HW2 7254   1.725   4.250   4.004
 2190SOL     OW 7255   0.768   4.868   4.747
 2190SOL    HW1 7256   0.690   4.885   4.807
 2190SOL    HW2 7257   0.802   4.955   4.711
 2191SOL     OW 7258   0.850   4.522   5.547
 2191SOL    HW1 7259   0.846   4.598   5.612
 2191SOL    HW2 7260   0.872   4.558   5.456
 2192SOL     OW 7261   0.685   4.736   4.389
 2192SOL    HW1 7262   0.754   4.720   4.459
 2192SOL    HW2 7263   0.612   4.793   4.427
 2193SOL     OW 7264   0.686   4.885   5.527
 2193SOL    HW1 7265   0.746   4.964   5.541
 2193SOL    HW2 7266   0.600   4.916   5.486
 2194SOL     OW 7267   0.335   5.159   4.785
 2194SOL    HW1 7268   0.257   5.128   4.732
 2194SOL    HW2 7269   0.393   5.217   4.728
 2195SOL     OW 7270   1.460   5.229   5.063
 2195SOL    HW1 7271   1.484   5.323   5.089
 2195SOL    HW2 7272   1.444   5.175   5.145
 2196SOL     OW 7273   0.438   4.116   5.223
 2196SOL    HW1 7274   0.520   4.060   5.232
 2196SOL    HW2 7275   0.357   4.058   5.227
 2197SOL     OW 7276   1.603   4.171   4.461
 2197SOL    HW1 7277   1.529   4.217   4.411
 2197SOL    HW2 7278   1.654   4.239   4.514
 2198SOL     OW 7279   1.127   5.065   5.414
 2198SOL    HW1 7280   1.174   5.065   5.502
 2198SOL    HW2 7281   1.079   4.978   5.403
 2199SOL     OW 7282   0.230   5.158   4.262
 2199SOL    HW1 7283   0.204   5.254   4.262
 2199SOL    HW2 7284   0.159   5.104   4.307
 2200SOL     OW 7285   0.240   4.815   4.610
 2200SOL    HW1 7286   0.254   4.731   4.662
 2200SOL    HW2 7287   0.185   4.879   4.665
 2201SOL     OW 7288   0.606   4.688   3.847
 2201SOL    HW1 7289   0.613   4.772   3.793
 2201SOL    HW2 7290   0.652   4.701   3.935
 2202SOL     OW 7291   1.594   3.838   5.204
 2202SOL    HW1 7292   1.576   3.905   5.132
 2202SOL    HW2 7293   1.591   3.884   5.293
 2203SOL     OW 7294   0.122   4.367   4.287
 2203SOL    HW1 7295   0.077   4.279   4.304
 2203SOL    HW2 7296   0.121   4.421   4.371
 2204SOL     OW 7297   0.027   5.320   3.841
 2204SOL    HW1 7298   0.008   5.224   3.862
 2204SOL    HW2 7299  -0.006   5.378   3.916
 2205SOL     OW 7300   1.689   4.646   4.336
 2205SOL    HW1 7301   1.784   4.617   4.344
 2205SOL    HW2 7302   1.681   4.711   4.261
 2206SOL     OW 7303   1.641   4.832   4.156
 2206SOL    HW1 7304   1.727   4.834   4.104
 2206SOL    HW2 7305   1.655   4.879   4.244
 2207SOL     OW 7306   0.113   4.461   5.321
 2207SOL    HW1 7307   0.201   4.448   5.366
 2207SOL    HW2 7308   0.100   4.558   5.299
 2208SOL     OW 7309   0.613   5.089   4.450
 2208SOL    HW1 7310   0.564   5.002   4.459
 2208SOL    HW2 7311   0.590   5.132   4.363
 2209SOL     OW 7312   1.293   4.952   5.147
 2209SOL    HW1 7313   1.330   4.879   5.089
 2209SOL    HW2 7314   1.345   4.957   5.232
 2210SOL     OW 7315   0.809   3.728   4.226
 2210SOL    HW1 7316   0.849   3.819   4.217
 2210SOL    HW2 7317   0.709   3.736   4.232
 2211SOL     OW 7318   0.197   4.700   4.988
 2211SOL    HW1 7319   0.286   4.655   4.974
 2211SOL    HW2 7320   0.124   4.635   4.969
 2212SOL     OW 7321   1.525   4.723   3.914
 2212SOL    HW1 7322   1.462   4.647   3.927
 2212SOL    HW2 7323   1.573   4.741   4.000
 2213SOL     OW 7324   0.317   3.975   5.525
 2213SOL    HW1 7325   0.388   4.046   5.531
 2213SOL    HW2 7326   0.229   4.014   5.553
 2214SOL     OW 7327   1.466   5.141   4.677
 2214SOL    HW1 7328   1.407   5.147   4.757
 2214SOL    HW2 7329   1.451   5.053   4.631
 2215SOL     OW 7330   0.598   4.453   3.994
 2215SOL    HW1 7331   0.622   4.522   3.926
 2215SOL    HW2 7332   0.520   4.486   4.048
 2216SOL     OW 7333   1.281   4.069   4.668
 2216SOL    HW1 7334   1.195   4.019   4.655
 2216SOL    HW2 7335   1.343   4.015   4.724
 2217SOL     OW 7336   0.807   4.329   5.189
 2217SOL    HW1 7337   0.760   4.326   5.278
 2217SOL    HW2 7338   0.756   4.274   5.123
 2218SOL     OW 7339   1.394   4.193   5.398
 2218SOL    HW1 7340   1.374   4.236   5.486
 2218SOL    HW2 7341   1.472   4.131   5.407
 2219SOL     OW 7342   0.973   4.614   5.296
 2219SOL    HW1 7343   1.019   4.530   5.267
 2219SOL    HW2 7344   0.917   4.648   5.221
 2220SOL     OW 7345   0.991   4.134   4.966
 2220SOL    HW1 7346   0.914   4.168   5.020
 2220SOL    HW2 7347   0.957   4.083   4.887
 2221SOL     OW 7348   1.041   4.425   4.153
 2221SOL    HW1 7349   1.067   4.421   4.249
 2221SOL    HW2 7350   0.956   4.374   4.139
 2222SOL     OW 7351   0.076   4.535   4.513
 2222SOL    HW1 7352   0.175   4.523   4.522
 2222SOL    HW2 7353   0.052   4.630   4.534
 2223SOL     OW 7354   0.865   4.072   3.919
 2223SOL    HW1 7355   0.924   4.135   3.870
 2223SOL    HW2 7356   0.884   3.978   3.890
 2224SOL     OW 7357   1.719   4.309   5.555
 2224SOL    HW1 7358   1.693   4.398   5.519
 2224SOL    HW2 7359   1.717   4.241   5.482
 2225SOL     OW 7360   1.362   4.868   4.269
 2225SOL    HW1 7361   1.445   4.839   4.221
 2225SOL    HW2 7362   1.313   4.935   4.213
 2226SOL     OW 7363   0.550   3.920   4.609
 2226SOL    HW1 7364   0.545   3.915   4.709
 2226SOL    HW2 7365   0.552   4.016   4.580
 2227SOL     OW 7366   1.008   5.180   4.201
 2227SOL    HW1 7367   0.962   5.252   4.149
 2227SOL    HW2 7368   1.004   5.200   4.299
 2228SOL     OW 7369   1.795   4.790   4.597
 2228SOL    HW1 7370   1.733   4.775   4.521
 2228SOL    HW2 7371   1.743   4.801   4.682
 2229SOL     OW 7372   1.227   5.274   5.230
 2229SOL    HW1 7373   1.233   5.197   5.294
 2229SOL    HW2 7374   1.175   5.248   5.150
 2230SOL     OW 7375   0.321   4.667   3.966
 2230SOL    HW1 7376   0.403   4.706   3.924
 2230SOL    HW2 7377   0.294   4.585   3.917
 2231SOL     OW 7378   1.458   4.459   4.452
 2231SOL    HW1 7379   1.453   4.394   4.527
 2231SOL    HW2 7380   1.538   4.518   4.465
 2232SOL     OW 7381   0.461   4.990   5.451
 2232SOL    HW1 7382   0.411   4.991   5.365
 2232SOL    HW2 7383   0.398   4.972   5.527
 2233SOL     OW 7384   1.111   5.500   3.961
 2233SOL    HW1 7385   1.051   5.438   4.011
 2233SOL    HW2 7386   1.142   5.456   3.876
 2234SOL     OW 7387   0.202   4.009   5.222
 2234SOL    HW1 7388   0.122   4.069   5.209
 2234SOL    HW2 7389   0.192   3.960   5.308
 2235SOL     OW 7390   1.632   5.101   3.805
 2235SOL    HW1 7391   1.600   5.195   3.795
 2235SOL    HW2 7392   1.556   5.038   3.793
 2236SOL     OW 7393   1.400   3.831   4.150
 2236SOL    HW1 7394   1.376   3.794   4.060
 2236SOL    HW2 7395   1.499   3.847   4.154
 2237SOL     OW 7396   0.382   4.424   4.204
 2237SOL    HW1 7397   0.427   4.334   4.201
 2237SOL    HW2 7398   0.288   4.413   4.237
 2238SOL     OW 7399   1.547   3.946   5.453
 2238SOL    HW1 7400   1.542   3.983   5.545
 2238SOL    HW2 7401   1.475   3.877   5.441
 2239SOL     OW 7402   0.614   3.846   3.841
 2239SOL    HW1 7403   0.712   3.824   3.848
 2239SOL    HW2 7404   0.583   3.829   3.748
 2240SOL     OW 7405   0.781   3.988   5.473
 2240SOL    HW1 7406   0.848   3.927   5.516
 2240SOL    HW2 7407   0.708   4.007   5.538
 2241SOL     OW 7408   1.351   4.314   5.157
 2241SOL    HW1 7409   1.379   4.271   5.242
 2241SOL    HW2 7410   1.376   4.410   5.158
 2242SOL     OW 7411   0.803   5.126   4.648
 2242SOL    HW1 7412   0.893   5.140   4.606
 2242SOL    HW2 7413   0.732   5.128   4.577
 2243SOL     OW 7414   0.922   4.227   4.623
 2243SOL    HW1 7415   0.897   4.218   4.527
 2243SOL    HW2 7416   0.970   4.145   4.654
 2244SOL     OW 7417   0.539   3.788   4.236
 2244SOL    HW1 7418   0.458   3.789   4.294
 2244SOL    HW2 7419   0.542   3.871   4.181
 2245SOL     OW 7420   1.434   4.912   3.765
 2245SOL    HW1 7421   1.466   4.836   3.822
 2245SOL    HW2 7422   1.342   4.939   3.795
 2246SOL     OW 7423   0.297   3.759   3.895
 2246SOL    HW1 7424   0.346   3.843   3.874
 2246SOL    HW2 7425   0.359   3.694   3.940
 2247SOL     OW 7426   0.935   3.960   4.204
 2247SOL    HW1 7427   0.887   4.001   4.126
 2247SOL    HW2 7428   1.034   3.958   4.185
 2248SOL     OW 7429   1.076   4.407   5.188
 2248SOL    HW1 7430   0.996   4.346   5.191
 2248SOL    HW2 7431   1.157   4.354   5.164
 2249SOL     OW 7432   1.227   5.294   4.517
 2249SOL    HW1 7433   1.248   5.368   4.452
 2249SOL    HW2 7434   1.295   5.294   4.590
 2250SOL     OW 7435   0.459   4.876   4.465
 2250SOL    HW1 7436   0.388   4.849   4.530
 2250SOL    HW2 7437   0.433   4.848   4.372
 2251SOL     OW 7438   1.032   4.273   3.740
 2251SOL    HW1 7439   0.991   4.355   3.701
 2251SOL    HW2 7440   1.096   4.299   3.813
 2252SOL     OW 7441   0.078   4.280   5.110
 2252SOL    HW1 7442   0.170   4.279   5.069
 2252SOL    HW2 7443   0.072   4.354   5.177
 2253SOL     OW 7444   0.561   3.946   4.871
 2253SOL    HW1 7445   0.599   3.862   4.908
 2253SOL    HW2 7446   0.473   3.965   4.915
 2254SOL     OW 7447   0.866   4.178   4.366
 2254SOL    HW1 7448   0.834   4.250   4.304
 2254SOL    HW2 7449   0.890   4.097   4.313
 2255SOL     OW 7450   1.017   3.763   4.477
 2255SOL    HW1 7451   0.945   3.768   4.408
 2255SOL    HW2 7452   0.993   3.694   4.546
 2256SOL     OW 7453   1.429   4.897   4.591
 2256SOL    HW1 7454   1.374   4.813   4.584
 2256SOL    HW2 7455   1.455   4.926   4.499
 2257SOL     OW 7456   1.466   4.314   4.716
 2257SOL    HW1 7457   1.436   4.219   4.723
 2257SOL    HW2 7458   1.539   4.330   4.782
 2258SOL     OW 7459   1.857   4.557   4.101
 2258SOL    HW1 7460   1.899   4.493   4.165
 2258SOL    HW2 7461   1.819   4.506   4.023
 2259SOL     OW 7462   0.488   5.109   3.898
 2259SOL    HW1 7463   0.401   5.094   3.945
 2259SOL    HW2 7464   0.471   5.135   3.803
 2260SOL     OW 7465   1.664   5.004   4.381
 2260SOL    HW1 7466   1.763   5.012   4.395
 2260SOL    HW2 7467   1.619   5.088   4.412
 2261SOL     OW 7468   1.390   4.299   3.802
 2261SOL    HW1 7469   1.336   4.278   3.883
 2261SOL    HW2 7470   1.481   4.258   3.811
 2262SOL     OW 7471   0.527   3.980   4.052
 2262SOL    HW1 7472   0.554   3.921   3.977
 2262SOL    HW2 7473   0.527   4.075   4.021
 2263SOL     OW 7474   1.754   4.947   5.312
 2263SOL    HW1 7475   1.845   4.908   5.299
 2263SOL    HW2 7476   1.762   5.043   5.336
 2264SOL     OW 7477   1.064   5.071   5.064
 2264SOL    HW1 7478   0.984   5.048   5.119
 2264SOL    HW2 7479   1.147   5.045   5.113
 2265SOL     OW 7480   1.111   4.919   4.824
 2265SOL    HW1 7481   1.071   4.963   4.905
 2265SOL    HW2 7482   1.070   4.956   4.741
 2266SOL     OW 7483   1.638   4.823   4.803
 2266SOL    HW1 7484   1.643   4.904   4.862
 2266SOL    HW2 7485   1.552   4.825   4.752
 2267SOL     OW 7486   0.915   3.813   5.126
 2267SOL    HW1 7487   0.940   3.793   5.031
 2267SOL    HW2 7488   0.987   3.869   5.168
 2268SOL     OW 7489   0.980   4.840   5.443
 2268SOL    HW1 7490   0.881   4.846   5.453
 2268SOL    HW2 7491   1.003   4.760   5.387
 2269SOL     OW 7492   0.705   4.774   4.092
 2269SOL    HW1 7493   0.691   4.781   4.191
 2269SOL    HW2 7494   0.789   4.723   4.074
 2270SOL     OW 7495   0.410   4.537   4.975
 2270SOL    HW1 7496   0.496   4.549   5.025
 2270SOL    HW2 7497   0.368   4.450   5.002
 2271SOL     OW 7498   1.274   4.110   4.986
 2271SOL    HW1 7499   1.295   4.184   5.050
 2271SOL    HW2 7500   1.185   4.127   4.943
 2272SOL     OW 7501   0.064   5.288   5.055
 2272SOL    HW1 7502   0.018   5.370   5.021
 2272SOL    HW2 7503   0.162   5.307   5.064
 2273SOL     OW 7504   0.367   4.824   4.225
 2273SOL    HW1 7505   0.360   4.907   4.169
 2273SOL    HW2 7506   0.371   4.744   4.165
 2274SOL     OW 7507   0.566   4.261   4.589
 2274SOL    HW1 7508   0.578   4.327   4.515
 2274SOL    HW2 7509   0.612   4.295   4.672
 2275SOL     OW 7510   1.252   5.072   4.112
 2275SOL    HW1 7511   1.302   5.149   4.152
 2275SOL    HW2 7512   1.157   5.074   4.144
 2276SOL     OW 7513   1.272   5.169   4.866
 2276SOL    HW1 7514   1.319   5.182   4.953
 2276SOL    HW2 7515   1.206   5.095   4.875
 2277SOL     OW 7516   1.582   4.363   4.196
 2277SOL    HW1 7517   1.551   4.424   4.269
 2277SOL    HW2 7518   1.632   4.415   4.127
 2278SOL     OW 7519   0.354   5.234   5.053
 2278SOL    HW1 7520   0.333   5.190   4.966
 2278SOL    HW2 7521   0.451   5.260   5.056
 2279SOL     OW 7522   0.402   4.475   5.322
 2279SOL    HW1 7523   0.470   4.530   5.275
 2279SOL    HW2 7524   0.442   4.387   5.349
 2280SOL     OW 7525   1.587   4.503   5.394
 2280SOL    HW1 7526   1.495   4.541   5.389
 2280SOL    HW2 7527   1.647   4.550   5.329
 2281SOL     OW 7528   1.013   3.829   5.494
 2281SOL    HW1 7529   1.019   3.914   5.442
 2281SOL    HW2 7530   1.045   3.753   5.437
 2282SOL     OW 7531   0.504   3.774   5.464
 2282SOL    HW1 7532   0.462   3.717   5.394
 2282SOL    HW2 7533   0.438   3.843   5.496
 2283SOL     OW 7534   0.573   4.594   4.753
 2283SOL    HW1 7535   0.617   4.683   4.744
 2283SOL    HW2 7536   0.510   4.594   4.830
 2284SOL     OW 7537   1.360   4.586   4.769
 2284SOL    HW1 7538   1.285   4.586   4.703
 2284SOL    HW2 7539   1.397   4.494   4.778
 2285SOL     OW 7540   1.209   4.249   3.999
 2285SOL    HW1 7541   1.222   4.165   4.053
 2285SOL    HW2 7542   1.180   4.323   4.059
 2286SOL     OW 7543   0.307   3.937   4.955
 2286SOL    HW1 7544   0.284   3.974   5.045
 2286SOL    HW2 7545   0.277   3.842   4.949
 2287SOL     OW 7546   0.037   5.034   5.006
 2287SOL    HW1 7547   0.090   4.985   5.074
 2287SOL    HW2 7548   0.059   5.132   5.011
 2288SOL     OW 7549   0.732   4.358   4.788
 2288SOL    HW1 7550   0.791   4.332   4.712
 2288SOL    HW2 7551   0.704   4.454   4.777
 2289SOL     OW 7552   1.728   4.659   5.578
 2289SOL    HW1 7553   1.682   4.652   5.489
 2289SOL    HW2 7554   1.666   4.703   5.644
 2290SOL     OW 7555   0.307   3.787   4.342
 2290SOL    HW1 7556   0.296   3.881   4.375
 2290SOL    HW2 7557   0.302   3.724   4.419
 2291SOL     OW 7558   1.622   4.091   4.098
 2291SOL    HW1 7559   1.624   4.015   4.162
 2291SOL    HW2 7560   1.574   4.168   4.138
 2292SOL     OW 7561   1.023   4.490   4.690
 2292SOL    HW1 7562   1.038   4.511   4.786
 2292SOL    HW2 7563   0.993   4.395   4.681
 2293SOL     OW 7564   1.859   5.242   5.329
 2293SOL    HW1 7565   1.873   5.269   5.234
 2293SOL    HW2 7566   1.942   5.264   5.382
 2294SOL     OW 7567   0.350   4.622   5.528
 2294SOL    HW1 7568   0.426   4.666   5.576
 2294SOL    HW2 7569   0.385   4.575   5.446
 2295SOL     OW 7570   1.540   3.998   3.849
 2295SOL    HW1 7571   1.479   3.923   3.872
 2295SOL    HW2 7572   1.562   4.050   3.932
 2296SOL     OW 7573   1.303   4.562   3.766
 2296SOL    HW1 7574   1.337   4.469   3.781
 2296SOL    HW2 7575   1.321   4.589   3.671
 2297SOL     OW 7576   1.068   5.057   4.573
 2297SOL    HW1 7577   1.075   4.973   4.518
 2297SOL    HW2 7578   1.130   5.126   4.537
 2298SOL     OW 7579   0.319   4.534   4.673
 2298SOL    HW1 7580   0.412   4.570   4.678
 2298SOL    HW2 7581   0.313   4.449   4.725
 2299SOL     OW 7582   0.339   4.233   4.730
 2299SOL    HW1 7583   0.287   4.150   4.713
 2299SOL    HW2 7584   0.416   4.238   4.666
 2300SOL     OW 7585   1.138   4.104   5.402
 2300SOL    HW1 7586   1.093   4.167   5.466
 2300SOL    HW2 7587   1.231   4.135   5.385
 2301SOL     OW 7588   1.160   3.931   5.201
 2301SOL    HW1 7589   1.160   3.995   5.278
 2301SOL    HW2 7590   1.188   3.979   5.118
 2302SOL     OW 7591   0.008   5.050   3.924
 2302SOL    HW1 7592  -0.085   5.071   3.893
 2302SOL    HW2 7593   0.018   4.951   3.937
 2303SOL     OW 7594   1.002   4.520   4.962
 2303SOL    HW1 7595   1.043   4.488   5.048
 2303SOL    HW2 7596   0.906   4.493   4.959
 2304SOL     OW 7597   0.040   4.268   4.838
 2304SOL    HW1 7598   0.125   4.235   4.797
 2304SOL    HW2 7599   0.053   4.283   4.936
 2305SOL     OW 7600   0.189   4.244   5.446
 2305SOL    HW1 7601   0.248   4.204   5.376
 2305SOL    HW2 7602   0.131   4.315   5.405
 2306SOL     OW 7603   1.369   4.674   5.384
 2306SOL    HW1 7604   1.408   4.763   5.404
 2306SOL    HW2 7605   1.379   4.654   5.287
 2307SOL     OW 7606   0.815   4.296   4.049
 2307SOL    HW1 7607   0.822   4.207   4.003
 2307SOL    HW2 7608   0.721   4.330   4.041
 2308SOL     OW 7609   1.657   4.328   4.930
 2308SOL    HW1 7610   1.619   4.259   4.992
 2308SOL    HW2 7611   1.739   4.292   4.886
 2309SOL     OW 7612   0.252   5.288   5.468
 2309SOL    HW1 7613   0.222   5.345   5.544
 2309SOL    HW2 7614   0.245   5.191   5.494
 2310SOL     OW 7615   0.671   4.188   4.993
 2310SOL    HW1 7616   0.637   4.099   4.963
 2310SOL    HW2 7617   0.697   4.242   4.913
 2311SOL     OW 7618   0.473   4.224   3.915
 2311SOL    HW1 7619   0.534   4.304   3.919
 2311SOL    HW2 7620   0.378   4.255   3.922
 2312SOL     OW 7621   0.159   4.861   5.190
 2312SOL    HW1 7622   0.181   4.800   5.266
 2312SOL    HW2 7623   0.169   4.812   5.104
 2313SOL     OW 7624   1.347   4.783   4.958
 2313SOL    HW1 7625   1.371   4.720   4.884
 2313SOL    HW2 7626   1.257   4.823   4.940
 2314SOL     OW 7627   1.302   4.579   4.033
 2314SOL    HW1 7628   1.216   4.548   4.075
 2314SOL    HW2 7629   1.298   4.565   3.934
 2315SOL     OW 7630   0.083   4.982   4.746
 2315SOL    HW1 7631   0.078   4.981   4.846
 2315SOL    HW2 7632   0.000   4.941   4.708
 2316SOL     OW 7633   0.688   5.386   5.440
 2316SOL    HW1 7634   0.632   5.467   5.449
 2316SOL    HW2 7635   0.740   5.390   5.354
 2317SOL     OW 7636   1.726   3.859   4.247
 2317SOL    HW1 7637   1.799   3.842   4.180
 2317SOL    HW2 7638   1.695   3.772   4.285
 2318SOL     OW 7639   1.280   4.651   4.396
 2318SOL    HW1 7640   1.340   4.570   4.398
 2318SOL    HW2 7641   1.320   4.720   4.336
 2319SOL     OW 7642   0.830   4.997   5.146
 2319SOL    HW1 7643   0.825   5.030   5.241
 2319SOL    HW2 7644   0.744   5.016   5.100
 2320SOL     OW 7645   1.841   3.899   4.687
 2320SOL    HW1 7646   1.880   3.814   4.651
 2320SOL    HW2 7647   1.743   3.901   4.668
 2321SOL     OW 7648   0.263   4.050   4.444
 2321SOL    HW1 7649   0.184   4.101   4.410
 2321SOL    HW2 7650   0.254   4.035   4.542
 2322SOL     OW 7651   0.822   4.726   5.096
 2322SOL    HW1 7652   0.862   4.725   5.004
 2322SOL    HW2 7653   0.832   4.818   5.136
 2323SOL     OW 7654   0.916   4.634   4.015
 2323SOL    HW1 7655   0.979   4.672   3.947
 2323SOL    HW2 7656   0.956   4.551   4.054
 2324SOL     OW 7657   0.372   5.012   5.214
 2324SOL    HW1 7658   0.359   5.105   5.180
 2324SOL    HW2 7659   0.288   4.960   5.201
 2325SOL     OW 7660   1.614   5.016   5.013
 2325SOL    HW1 7661   1.674   5.019   5.093
 2325SOL    HW2 7662   1.539   5.080   5.026
 2326SOL     OW 7663   1.039   4.822   4.420
 2326SOL    HW1 7664   0.969   4.775   4.474
 2326SOL    HW2 7665   1.098   4.754   4.377
 2327SOL     OW 7666   1.014   3.960   4.695
 2327SOL    HW1 7667   1.006   3.924   4.602
 2327SOL    HW2 7668   1.012   3.884   4.760
 2328SOL     OW 7669   1.709   4.109   5.105
 2328SOL    HW1 7670   1.782   4.178   5.109
 2328SOL    HW2 7671   1.737   4.034   5.046
 2329SOL     OW 7672   0.255   5.072   4.014
 2329SOL    HW1 7673   0.159   5.073   3.987
 2329SOL    HW2 7674   0.267   5.125   4.098
 2330SOL     OW 7675   0.105   4.737   5.450
 2330SOL    HW1 7676   0.028   4.704   5.504
 2330SOL    HW2 7677   0.190   4.707   5.492
 2331SOL     OW 7678   0.672   3.927   5.213
 2331SOL    HW1 7679   0.762   3.911   5.173
 2331SOL    HW2 7680   0.680   3.932   5.312
 2332SOL     OW 7681   0.075   4.069   3.757
 2332SOL    HW1 7682  -0.017   4.041   3.728
 2332SOL    HW2 7683   0.106   4.146   3.701
 2333SOL     OW 7684   1.440   4.580   5.122
 2333SOL    HW1 7685   1.383   4.632   5.059
 2333SOL    HW2 7686   1.536   4.592   5.098
 2334SOL     OW 7687   0.072   3.890   4.042
 2334SOL    HW1 7688   0.055   3.973   3.988
 2334SOL    HW2 7689   0.162   3.853   4.020
 2335SOL     OW 7690   1.183   5.059   3.843
 2335SOL    HW1 7691   1.084   5.048   3.845
 2335SOL    HW2 7692   1.217   5.074   3.936
 2336SOL     OW 7693   0.613   4.566   5.155
 2336SOL    HW1 7694   0.669   4.647   5.138
 2336SOL    HW2 7695   0.672   4.486   5.158
 2337SOL     OW 7696   0.716   4.289   5.432
 2337SOL    HW1 7697   0.735   4.354   5.506
 2337SOL    HW2 7698   0.776   4.209   5.441
 2338SOL     OW 7699   1.450   4.944   5.357
 2338SOL    HW1 7700   1.441   4.934   5.456
 2338SOL    HW2 7701   1.546   4.937   5.331
 2339SOL     OW 7702   1.674   4.607   4.978
 2339SOL    HW1 7703   1.647   4.518   4.941
 2339SOL    HW2 7704   1.675   4.675   4.905
 2340SOL     OW 7705   1.225   4.049   4.173
 2340SOL    HW1 7706   1.290   3.975   4.162
 2340SOL    HW2 7707   1.245   4.099   4.257
 2341SOL     OW 7708   0.594   4.469   4.376
 2341SOL    HW1 7709   0.644   4.554   4.357
 2341SOL    HW2 7710   0.506   4.471   4.328
 2342SOL     OW 7711   1.777   4.066   5.366
 2342SOL    HW1 7712   1.760   4.097   5.272
 2342SOL    HW2 7713   1.693   4.029   5.404
 2343SOL     OW 7714   1.730   4.658   5.241
 2343SOL    HW1 7715   1.768   4.749   5.256
 2343SOL    HW2 7716   1.722   4.641   5.142
 2344SOL     OW 7717   0.859   5.098   3.740
 2344SOL    HW1 7718   0.813   5.113   3.828
 2344SOL    HW2 7719   0.903   5.183   3.710
 2345SOL     OW 7720   0.859   4.680   4.585
 2345SOL    HW1 7721   0.913   4.611   4.633
 2345SOL    HW2 7722   0.827   4.749   4.651
 2346SOL     OW 7723   1.083   4.708   3.811
 2346SOL    HW1 7724   1.060   4.761   3.729
 2346SOL    HW2 7725   1.164   4.652   3.792
 2347SOL     OW 7726   0.221   5.038   5.568
 2347SOL    HW1 7727   0.156   4.965   5.547
 2347SOL    HW2 7728   0.225   5.052   5.666
 2348SOL     OW 7729   0.079   4.964   4.377
 2348SOL    HW1 7730   0.078   4.917   4.465
 2348SOL    HW2 7731   0.161   4.936   4.326
 2349SOL     OW 7732   0.672   5.115   5.348
 2349SOL    HW1 7733   0.594   5.065   5.386
 2349SOL    HW2 7734   0.669   5.210   5.379
 2350SOL     OW 7735   1.824   3.916   4.951
 2350SOL    HW1 7736   1.820   3.826   4.995
 2350SOL    HW2 7737   1.827   3.905   4.852
 2351SOL     OW 7738   0.428   4.148   4.244
 2351SOL    HW1 7739   0.458   4.076   4.182
 2351SOL    HW2 7740   0.389   4.108   4.327
 2352SOL     OW 7741   1.705   5.211   4.828
 2352SOL    HW1 7742   1.612   5.186   4.801
 2352SOL    HW2 7743   1.731   5.161   4.910
 2353SOL     OW 7744   0.317   4.271   5.004
 2353SOL    HW1 7745   0.355   4.212   5.076
 2353SOL    HW2 7746   0.357   4.245   4.916
 2354SOL     OW 7747   1.424   3.938   4.836
 2354SOL    HW1 7748   1.476   3.873   4.891
 2354SOL    HW2 7749   1.375   4.001   4.897
 2355SOL     OW 7750   1.001   3.758   4.878
 2355SOL    HW1 7751   0.938   3.686   4.847
 2355SOL    HW2 7752   1.094   3.722   4.878
 2356SOL     OW 7753   0.770   5.054   4.025
 2356SOL    HW1 7754   0.724   4.967   4.042
 2356SOL    HW2 7755   0.861   5.051   4.066
 2357SOL     OW 7756   0.618   5.291   5.008
 2357SOL    HW1 7757   0.613   5.373   5.065
 2357SOL    HW2 7758   0.707   5.288   4.963
 2358SOL     OW 7759   1.352   3.776   3.892
 2358SOL    HW1 7760   1.387   3.735   3.808
 2358SOL    HW2 7761   1.262   3.738   3.912
 2359SOL     OW 7762   1.300   4.177   4.415
 2359SOL    HW1 7763   1.241   4.257   4.419
 2359SOL    HW2 7764   1.315   4.142   4.508
 2360SOL     OW 7765   1.593   3.945   4.606
 2360SOL    HW1 7766   1.509   3.944   4.660
 2360SOL    HW2 7767   1.595   4.028   4.550
 2361SOL     OW 7768   0.039   4.801   4.024
 2361SOL    HW1 7769   0.138   4.790   4.015
 2361SOL    HW2 7770  -0.001   4.715   4.056
 2362SOL     OW 7771   0.230   4.352   5.699
 2362SOL    HW1 7772   0.137   4.350   5.736
 2362SOL    HW2 7773   0.231   4.313   5.607
 2363SOL     OW 7774   0.225   3.999   6.582
 2363SOL    HW1 7775   0.260   3.982   6.674
 2363SOL    HW2 7776   0.137   3.954   6.570
 2364SOL     OW 7777   0.019   4.092   6.233
 2364SOL    HW1 7778  -0.063   4.135   6.272
 2364SOL    HW2 7779  -0.009   4.019   6.170
 2365SOL     OW 7780   0.569   4.999   6.751
 2365SOL    HW1 7781   0.476   4.992   6.714
 2365SOL    HW2 7782   0.580   5.088   6.795
 2366SOL     OW 7783   1.555   5.235   6.289
 2366SOL    HW1 7784   1.498   5.219   6.370
 2366SOL    HW2 7785   1.496   5.245   6.209
 2367SOL     OW 7786   1.135   4.427   6.303
 2367SOL    HW1 7787   1.192   4.505   6.278
 2367SOL    HW2 7788   1.075   4.453   6.379
 2368SOL     OW 7789   1.755   4.331   5.817
 2368SOL    HW1 7790   1.743   4.318   5.718
 2368SOL    HW2 7791   1.725   4.250   5.866
 2369SOL     OW 7792   0.768   4.868   6.609
 2369SOL    HW1 7793   0.690   4.885   6.669
 2369SOL    HW2 7794   0.802   4.955   6.573
 2370SOL     OW 7795   0.850   4.522   7.409
 2370SOL    HW1 7796   0.846   4.598   7.474
 2370SOL    HW2 7797   0.872   4.558   7.318
 2371SOL     OW 7798   0.685   4.736   6.251
 2371SOL    HW1 7799   0.754   4.720   6.321
 2371SOL    HW2 7800   0.612   4.793   6.289
 2372SOL     OW 7801   0.686   4.885   7.389
 2372SOL    HW1 7802   0.746   4.964   7.403
 2372SOL    HW2 7803   0.600   4.916   7.348
 2373SOL     OW 7804   0.335   5.159   6.647
 2373SOL    HW1 7805   0.257   5.128   6.594
 2373SOL    HW2 7806   0.393   5.217   6.590
 2374SOL     OW 7807   1.460   5.229   6.925
 2374SOL    HW1 7808   1.484   5.323   6.951
 2374SOL    HW2 7809   1.444   5.175   7.007
 2375SOL     OW 7810   0.438   4.116   7.085
 2375SOL    HW1 7811   0.520   4.060   7.094
 2375SOL    HW2 7812   0.357   4.058   7.089
 2376SOL     OW 7813   1.603   4.171   6.323
 2376SOL    HW1 7814   1.529   4.217   6.273
 2376SOL    HW2 7815   1.654   4.239   6.376
 2377SOL     OW 7816   1.127   5.065   7.276
 2377SOL    HW1 7817   1.174   5.065   7.364
 2377SOL    HW2 7818   1.079   4.978   7.265
 2378SOL     OW 7819   0.230   5.158   6.124
 2378SOL    HW1 7820   0.204   5.254   6.124
 2378SOL    HW2 7821   0.159   5.104   6.169
 2379SOL     OW 7822   0.240   4.815   6.472
 2379SOL    HW1 7823   0.254   4.731   6.524
 2379SOL    HW2 7824   0.185   4.879   6.527
 2380SOL     OW 7825   0.606   4.688   5.709
 2380SOL    HW1 7826   0.613   4.772   5.655
 2380SOL    HW2 7827   0.652   4.701   5.797
 2381SOL     OW 7828   1.594   3.838   7.066
 2381SOL    HW1 7829   1.576   3.905   6.994
 2381SOL    HW2 7830   1.591   3.884   7.155
 2382SOL     OW 7831   0.122   4.367   6.149
 2382SOL    HW1 7832   0.077   4.279   6.166
 2382SOL    HW2 7833   0.121   4.421   6.233
 2383SOL     OW 7834   0.027   5.320   5.703
 2383SOL    HW1 7835   0.008   5.224   5.724
 2383SOL    HW2 7836  -0.006   5.378   5.778
 2384SOL     OW 7837   1.689   4.646   6.198
 2384SOL    HW1 7838   1.784   4.617   6.206
 2384SOL    HW2 7839   1.681   4.711   6.123
 2385SOL     OW 7840   1.641   4.832   6.018
 2385SOL    HW1 7841   1.727   4.834   5.966
 2385SOL    HW2 7842   1.655   4.879   6.106
 2386SOL     OW 7843   0.113   4.461   7.183
 2386SOL    HW1 7844   0.201   4.448   7.228
 2386SOL    HW2 7845   0.100   4.558   7.161
 2387SOL     OW 7846   0.613   5.089   6.312
 2387SOL    HW1 7847   0.564   5.002   6.321
 2387SOL    HW2 7848   0.590   5.132   6.225
 2388SOL     OW 7849   1.293   4.952   7.009
 2388SOL    HW1 7850   1.330   4.879   6.951
 2388SOL    HW2 7851   1.345   4.957   7.094
 2389SOL     OW 7852   0.809   3.728   6.088
 2389SOL    HW1 7853   0.849   3.819   6.079
 2389SOL    HW2 7854   0.709   3.736   6.094
 2390SOL     OW 7855   0.197   4.700   6.850
 2390SOL    HW1 7856   0.286   4.655   6.836
 2390SOL    HW2 7857   0.124   4.635   6.831
 2391SOL     OW 7858   1.525   4.723   5.776
 2391SOL    HW1 7859   1.462   4.647   5.789
 2391SOL    HW2 7860   1.573   4.741   5.862
 2392SOL     OW 7861   0.317   3.975   7.387
 2392SOL    HW1 7862   0.388   4.046   7.393
 2392SOL    HW2 7863   0.229   4.014   7.415
 2393SOL     OW 7864   1.466   5.141   6.539
 2393SOL    HW1 7865   1.407   5.147   6.619
 2393SOL    HW2 7866   1.451   5.053   6.493
 2394SOL     OW 7867   0.598   4.453   5.856
 2394SOL    HW1 7868   0.622   4.522   5.788
 2394SOL    HW2 7869   0.520   4.486   5.910
 2395SOL     OW 7870   1.281   4.069   6.530
 2395SOL    HW1 7871   1.195   4.019   6.517
 2395SOL    HW2 7872   1.343   4.015   6.586
 2396SOL     OW 7873   0.807   4.329   7.051
 2396SOL    HW1 7874   0.760   4.326   7.140
 2396SOL    HW2 7875   0.756   4.274   6.985
 2397SOL     OW 7876   1.394   4.193   7.260
 2397SOL    HW1 7877   1.374   4.236   7.348
 2397SOL    HW2 7878   1.472   4.131   7.269
 2398SOL     OW 7879   0.973   4.614   7.158
 2398SOL    HW1 7880   1.019   4.530   7.129
 2398SOL    HW2 7881   0.917   4.648   7.083
 2399SOL     OW 7882   0.991   4.134   6.828
 2399SOL    HW1 7883   0.914   4.168   6.882
 2399SOL    HW2 7884   0.957   4.083   6.749
 2400SOL     OW 7885   1.041   4.425   6.015
 2400SOL    HW1 7886   1.067   4.421   6.111
 2400SOL    HW2 7887   0.956   4.374   6.001
 2401SOL     OW 7888   0.076   4.535   6.375
 2401SOL    HW1 7889   0.175   4.523   6.384
 2401SOL    HW2 7890   0.052   4.630   6.396
 2402SOL     OW 7891   0.865   4.072   5.781
 2402SOL    HW1 7892   0.924   4.135   5.732
 2402SOL    HW2 7893   0.884   3.978   5.752
 2403SOL     OW 7894   1.719   4.309   7.417
 2403SOL    HW1 7895   1.693   4.398   7.381
 2403SOL    HW2 7896   1.717   4.241   7.344
 2404SOL     OW 7897   1.362   4.868   6.131
 2404SOL    HW1 7898   1.445   4.839   6.083
 2404SOL    HW2 7899   1.313   4.935   6.075
 2405SOL     OW 7900   0.550   3.920   6.471
 2405SOL    HW1 7901   0.545   3.915   6.571
 2405SOL    HW2 7902   0.552   4.016   6.442
 2406SOL     OW 7903   1.008   5.180   6.063
 2406SOL    HW1 7904   0.962   5.252   6.011
 2406SOL    HW2 7905   1.004   5.200   6.161
 2407SOL     OW 7906   1.795   4.790   6.459
 2407SOL    HW1 7907   1.733   4.775   6.383
 2407SOL    HW2 7908   1.743   4.801   6.544
 2408SOL     OW 7909   1.227   5.274   7.092
 2408SOL    HW1 7910   1.233   5.197   7.156
 2408SOL    HW2 7911   1.175   5.248   7.012
 2409SOL     OW 7912   0.321   4.667   5.828
 2409SOL    HW1 7913   0.403   4.706   5.786
 2409SOL    HW2 7914   0.294   4.585   5.779
 2410SOL     OW 7915   1.458   4.459   6.314
 2410SOL    HW1 7916   1.453   4.394   6.389
 2410SOL    HW2 7917   1.538   4.518   6.327
 2411SOL     OW 7918   0.461   4.990   7.313
 2411SOL    HW1 7919   0.411   4.991   7.227
 2411SOL    HW2 7920   0.398   4.972   7.389
 2412SOL     OW 7921   1.111   5.500   5.823
 2412SOL    HW1 7922   1.051   5.438   5.873
 2412SOL    HW2 7923   1.142   5.456   5.738
 2413SOL     OW 7924   0.202   4.009   7.084
 2413SOL    HW1 7925   0.122   4.069   7.071
 2413SOL    HW2 7926   0.192   3.960   7.170
 2414SOL     OW 7927   1.632   5.101   5.667
 2414SOL    HW1 7928   1.600   5.195   5.657
 2414SOL    HW2 7929   1.556   5.038   5.655
 2415SOL     OW 7930   1.400   3.831   6.012
 2415SOL    HW1 7931   1.376   3.794   5.922
 2415SOL    HW2 7932   1.499   3.847   6.016
 2416SOL     OW 7933   0.382   4.424   6.066
 2416SOL    HW1 7934   0.427   4.334   6.063
 2416SOL    HW2 7935   0.288   4.413   6.099
 2417SOL     OW 7936   1.547   3.946   7.315
 2417SOL    HW1 7937   1.542   3.983   7.407
 2417SOL    HW2 7938   1.475   3.877   7.303
 2418SOL     OW 7939   0.614   3.846   5.703
 2418SOL    HW1 7940   0.712   3.824   5.710
 2418SOL    HW2 7941   0.583   3.829   5.610
 2419SOL     OW 7942   0.781   3.988   7.335
 2419SOL    HW1 7943   0.848   3.927   7.378
 2419SOL    HW2 7944   0.708   4.007   7.400
 2420SOL     OW 7945   1.351   4.314   7.019
 2420SOL    HW1 7946   1.379   4.271   7.104
 2420SOL    HW2 7947   1.376   4.410   7.020
 2421SOL     OW 7948   0.803   5.126   6.510
 2421SOL    HW1 7949   0.893   5.140   6.468
 2421SOL    HW2 7950   0.732   5.128   6.439
 2422SOL     OW 7951   0.922   4.227   6.485
 2422SOL    HW1 7952   0.897   4.218   6.389
 2422SOL    HW2 7953   0.970   4.145   6.516
 2423SOL     OW 7954   0.539   3.788   6.098
 2423SOL    HW1 7955   0.458   3.789   6.156
 2423SOL    HW2 7956   0.542   3.871   6.043
 2424SOL     OW 7957   1.434   4.912   5.627
 2424SOL    HW1 7958   1.466   4.836   5.684
 2424SOL    HW2 7959   1.342   4.939   5.657
 2425SOL     OW 7960   0.297   3.759   5.757
 2425SOL    HW1 7961   0.346   3.843   5.736
 2425SOL    HW2 7962   0.359   3.694   5.802
 2426SOL     OW 7963   0.935   3.960   6.066
 2426SOL    HW1 7964   0.887   4.001   5.988
 2426SOL    HW2 7965   1.034   3.958   6.047
 2427SOL     OW 7966   1.076   4.407   7.050
 2427SOL    HW1 7967   0.996   4.346   7.053
 2427SOL    HW2 7968   1.157   4.354   7.026
 2428SOL     OW 7969   1.227   5.294   6.379
 2428SOL    HW1 7970   1.248   5.368   6.314
 2428SOL    HW2 7971   1.295   5.294   6.452
 2429SOL     OW 7972   0.459   4.876   6.327
 2429SOL    HW1 7973   0.388   4.849   6.392
 2429SOL    HW2 7974   0.433   4.848   6.234
 2430SOL     OW 7975   1.032   4.273   5.602
 2430SOL    HW1 7976   0.991   4.355   5.563
 2430SOL    HW2 7977   1.096   4.299   5.675
 2431SOL     OW 7978   0.078   4.280   6.972
 2431SOL    HW1 7979   0.170   4.279   6.931
 2431SOL    HW2 7980   0.072   4.354   7.039
 2432SOL     OW 7981   0.561   3.946   6.733
 2432SOL    HW1 7982   0.599   3.862   6.770
 2432SOL    HW2 7983   0.473   3.965   6.777
 2433SOL     OW 7984   0.866   4.178   6.228
 2433SOL    HW1 7985   0.834   4.250   6.166
 2433SOL    HW2 7986   0.890   4.097   6.175
 2434SOL     OW 7987   1.017   3.763   6.339
 2434SOL    HW1 7988   0.945   3.768   6.270
 2434SOL    HW2 7989   0.993   3.694   6.408
 2435SOL     OW 7990   1.429   4.897   6.453
 2435SOL    HW1 7991   1.374   4.813   6.446
 2435SOL    HW2 7992   1.455   4.926   6.361
 2436SOL     OW 7993   1.466   4.314   6.578
 2436SOL    HW1 7994   1.436   4.219   6.585
 2436SOL    HW2 7995   1.539   4.330   6.644
 2437SOL     OW 7996   1.857   4.557   5.963
 2437SOL    HW1 7997   1.899   4.493   6.027
 2437SOL    HW2 7998   1.819   4.506   5.885
 2438SOL     OW 7999   0.488   5.109   5.760
 2438SOL    HW1 8000   0.401   5.094   5.807
 2438SOL    HW2 8001   0.471   5.135   5.665
 2439SOL     OW 8002   1.664   5.004   6.243
 2439SOL    HW1 8003   1.763   5.012   6.257
 2439SOL    HW2 8004   1.619   5.088   6.274
 2440SOL     OW 8005   1.390   4.299   5.664
 2440SOL    HW1 8006   1.336   4.278   5.745
 2440SOL    HW2 8007   1.481   4.258   5.673
 2441SOL     OW 8008   0.527   3.980   5.914
 2441SOL    HW1 8009   0.554   3.921   5.839
 2441SOL    HW2 8010   0.527   4.075   5.883
 2442SOL     OW 8011   1.754   4.947   7.174
 2442SOL    HW1 8012   1.845   4.908   7.161
 2442SOL    HW2 8013   1.762   5.043   7.198
 2443SOL     OW 8014   1.064   5.071   6.926
 2443SOL    HW1 8015   0.984   5.048   6.981
 2443SOL    HW2 8016   1.147   5.045   6.975
 2444SOL     OW 8017   1.111   4.919   6.686
 2444SOL    HW1 8018   1.071   4.963   6.767
 2444SOL    HW2 8019   1.070   4.956   6.603
 2445SOL     OW 8020   1.638   4.823   6.665
 2445SOL    HW1 8021   1.643   4.904   6.724
 2445SOL    HW2 8022   1.552   4.825   6.614
 2446SOL     OW 8023   0.915   3.813   6.988
 2446SOL    HW1 8024   0.940   3.793   6.893
 2446SOL    HW2 8025   0.987   3.869   7.030
 2447SOL     OW 8026   0.980   4.840   7.305
 2447SOL    HW1 8027   0.881   4.846   7.315
 2447SOL    HW2 8028   1.003   4.760   7.249
 2448SOL     OW 8029   0.705   4.774   5.954
 2448SOL    HW1 8030   0.691   4.781   6.053
 2448SOL    HW2 8031   0.789   4.723   5.936
 2449SOL     OW 8032   0.410   4.537   6.837
 2449SOL    HW1 8033   0.496   4.549   6.887
 2449SOL    HW2 8034   0.368   4.450   6.864
 2450SOL     OW 8035   1.274   4.110   6.848
 2450SOL    HW1 8036   1.295   4.184   6.912
 2450SOL    HW2 8037   1.185   4.127   6.805
 2451SOL     OW 8038   0.064   5.288   6.917
 2451SOL    HW1 8039   0.018   5.370   6.883
 2451SOL    HW2 8040   0.162   5.307   6.926
 2452SOL     OW 8041   0.367   4.824   6.087
 2452SOL    HW1 8042   0.360   4.907   6.031
 2452SOL    HW2 8043   0.371   4.744   6.027
 2453SOL     OW 8044   0.566   4.261   6.451
 2453SOL    HW1 8045   0.578   4.327   6.377
 2453SOL    HW2 8046   0.612   4.295   6.534
 2454SOL     OW 8047   1.252   5.072   5.974
 2454SOL    HW1 8048   1.302   5.149   6.014
 2454SOL    HW2 8049   1.157   5.074   6.006
 2455SOL     OW 8050   1.272   5.169   6.728
 2455SOL    HW1 8051   1.319   5.182   6.815
 2455SOL    HW2 8052   1.206   5.095   6.737
 2456SOL     OW 8053   1.582   4.363   6.058
 2456SOL    HW1 8054   1.551   4.424   6.131
 2456SOL    HW2 8055   1.632   4.415   5.989
 2457SOL     OW 8056   0.354   5.234   6.915
 2457SOL    HW1 8057   0.333   5.190   6.828
 2457SOL    HW2 8058   0.451   5.260   6.918
 2458SOL     OW 8059   0.402   4.475   7.184
 2458SOL    HW1 8060   0.470   4.530   7.137
 2458SOL    HW2 8061   0.442   4.387   7.211
 2459SOL     OW 8062   1.587   4.503   7.256
 2459SOL    HW1 8063   1.495   4.541   7.251
 2459SOL    HW2 8064   1.647   4.550   7.191
 2460SOL     OW 8065   1.013   3.829   7.356
 2460SOL    HW1 8066   1.019   3.914   7.304
 2460SOL    HW2 8067   1.045   3.753   7.299
 2461SOL     OW 8068   0.504   3.774   7.326
 2461SOL    HW1 8069   0.462   3.717   7.256
 2461SOL    HW2 8070   0.438   3.843   7.358
 2462SOL     OW 8071   0.573   4.594   6.615
 2462SOL    HW1 8072   0.617   4.683   6.606
 2462SOL    HW2 8073   0.510   4.594   6.692
 2463SOL     OW 8074   1.360   4.586   6.631
 2463SOL    HW1 8075   1.285   4.586   6.565
 2463SOL    HW2 8076   1.397   4.494   6.640
 2464SOL     OW 8077   1.209   4.249   5.861
 2464SOL    HW1 8078   1.222   4.165   5.915
 2464SOL    HW2 8079   1.180   4.323   5.921
 2465SOL     OW 8080   0.307   3.937   6.817
 2465SOL    HW1 8081   0.284   3.974   6.907
 2465SOL    HW2 8082   0.277   3.842   6.811
 2466SOL     OW 8083   0.037   5.034   6.868
 2466SOL    HW1 8084   0.090   4.985   6.936
 2466SOL    HW2 8085   0.059   5.132   6.873
 2467SOL     OW 8086   0.732   4.358   6.650
 2467SOL    HW1 8087   0.791   4.332   6.574
 2467SOL    HW2 8088   0.704   4.454   6.639
 2468SOL     OW 8089   1.728   4.659   7.440
 2468SOL    HW1 8090   1.682   4.652   7.351
 2468SOL    HW2 8091   1.666   4.703   7.506
 2469SOL     OW 8092   0.307   3.787   6.204
 2469SOL    HW1 8093   0.296   3.881   6.237
 2469SOL    HW2 8094   0.302   3.724   6.281
 2470SOL     OW 8095   1.622   4.091   5.960
 2470SOL    HW1 8096   1.624   4.015   6.024
 2470SOL    HW2 8097   1.574   4.168   6.000
 2471SOL     OW 8098   1.023   4.490   6.552
 2471SOL    HW1 8099   1.038   4.511   6.648
 2471SOL    HW2 8100   0.993   4.395   6.543
 2472SOL     OW 8101   1.859   5.242   7.191
 2472SOL    HW1 8102   1.873   5.269   7.096
 2472SOL    HW2 8103   1.942   5.264   7.244
 2473SOL     OW 8104   0.350   4.622   7.390
 2473SOL    HW1 8105   0.426   4.666   7.438
 2473SOL    HW2 8106   0.385   4.575   7.308
 2474SOL     OW 8107   1.540   3.998   5.711
 2474SOL    HW1 8108   1.479   3.923   5.734
 2474SOL    HW2 8109   1.562   4.050   5.794
 2475SOL     OW 8110   1.303   4.562   5.628
 2475SOL    HW1 8111   1.337   4.469   5.643
 2475SOL    HW2 8112   1.321   4.589   5.533
 2476SOL     OW 8113   1.068   5.057   6.435
 2476SOL    HW1 8114   1.075   4.973   6.380
 2476SOL    HW2 8115   1.130   5.126   6.399
 2477SOL     OW 8116   0.319   4.534   6.535
 2477SOL    HW1 8117   0.412   4.570   6.540
 2477SOL    HW2 8118   0.313   4.449   6.587
 2478SOL     OW 8119   0.339   4.233   6.592
 2478SOL    HW1 8120   0.287   4.150   6.575
 2478SOL    HW2 8121   0.416   4.238   6.528
 2479SOL     OW 8122   1.138   4.104   7.264
 2479SOL    HW1 8123   1.093   4.167   7.328
 2479SOL    HW2 8124   1.231   4.135   7.247
 2480SOL     OW 8125   1.160   3.931   7.063
 2480SOL    HW1 8126   1.160   3.995   7.140
 2480SOL    HW2 8127   1.188   3.979   6.980
 2481SOL     OW 8128   0.008   5.050   5.786
 2481SOL    HW1 8129  -0.085   5.071   5.755
 2481SOL    HW2 8130   0.018   4.951   5.799
 2482SOL     OW 8131   1.002   4.520   6.824
 2482SOL    HW1 8132   1.043   4.488   6.910
 2482SOL    HW2 8133   0.906   4.493   6.821
 2483SOL     OW 8134   0.040   4.268   6.700
 2483SOL    HW1 8135   0.125   4.235   6.659
 2483SOL    HW2 8136   0.053   4.283   6.798
 2484SOL     OW 8137   0.189   4.244   7.308
 2484SOL    HW1 8138   0.248   4.204   7.238
 2484SOL    HW2 8139   0.131   4.315   7.267
 2485SOL     OW 8140   1.369   4.674   7.246
 2485SOL    HW1 8141   1.408   4.763   7.266
 2485SOL    HW2 8142   1.379   4.654   7.149
 2486SOL     OW 8143   0.815   4.296   5.911
 2486SOL    HW1 8144   0.822   4.207   5.865
 2486SOL    HW2 8145   0.721   4.330   5.903
 2487SOL     OW 8146   1.657   4.328   6.792
 2487SOL    HW1 8147   1.619   4.259   6.854
 2487SOL    HW2 8148   1.739   4.292   6.748
 2488SOL     OW 8149   0.252   5.288   7.330
 2488SOL    HW1 8150   0.222   5.345   7.406
 2488SOL    HW2 8151   0.245   5.191   7.356
 2489SOL     OW 8152   0.671   4.188   6.855
 2489SOL    HW1 8153   0.637   4.099   6.825
 2489SOL    HW2 8154   0.697   4.242   6.775
 2490SOL     OW 8155   0.473   4.224   5.777
 2490SOL    HW1 8156   0.534   4.304   5.781
 2490SOL    HW2 8157   0.378   4.255   5.784
 2491SOL     OW 8158   0.159   4.861   7.052
 2491SOL    HW1 8159   0.181   4.800   7.128
 2491SOL    HW2 8160   0.169   4.812   6.966
 2492SOL     OW 8161   1.347   4.783   6.820
 2492SOL    HW1 8162   1.371   4.720   6.746
 2492SOL    HW2 8163   1.257   4.823   6.802
 2493SOL     OW 8164   1.302   4.579   5.895
 2493SOL    HW1 8165   1.216   4.548   5.937
 2493SOL    HW2 8166   1.298   4.565   5.796
 2494SOL     OW 8167   0.083   4.982   6.608
 2494SOL    HW1 8168   0.078   4.981   6.708
 2494SOL    HW2 8169   0.000   4.941   6.570
 2495SOL     OW 8170   0.688   5.386   7.302
 2495SOL    HW1 8171   0.632   5.467   7.311
 2495SOL    HW2 8172   0.740   5.390   7.216
 2496SOL     OW 8173   1.726   3.859   6.109
 2496SOL    HW1 8174   1.799   3.842   6.042
 2496SOL    HW2 8175   1.695   3.772   6.147
 2497SOL     OW 8176   1.280   4.651   6.258
 2497SOL    HW1 8177   1.340   4.570   6.260
 2497SOL    HW2 8178   1.320   4.720   6.198
 2498SOL     OW 8179   0.830   4.997   7.008
 2498SOL    HW1 8180   0.825   5.030   7.103
 2498SOL    HW2 8181   0.744   5.016   6.962
 2499SOL     OW 8182   1.841   3.899   6.549
 2499SOL    HW1 8183   1.880   3.814   6.513
 2499SOL    HW2 8184   1.743   3.901   6.530
 2500SOL     OW 8185   0.263   4.050   6.306
 2500SOL    HW1 8186   0.184   4.101   6.272
 2500SOL    HW2 8187   0.254   4.035   6.404
 2501SOL     OW 8188   0.822   4.726   6.958
 2501SOL    HW1 8189   0.862   4.725   6.866
 2501SOL    HW2 8190   0.832   4.818   6.998
 2502SOL     OW 8191   0.916   4.634   5.877
 2502SOL    HW1 8192   0.979   4.672   5.809
 2502SOL    HW2 8193   0.956   4.551   5.916
 2503SOL     OW 8194   0.372   5.012   7.076
 2503SOL    HW1 8195   0.359   5.105   7.042
 2503SOL    HW2 8196   0.288   4.960   7.063
 2504SOL     OW 8197   1.614   5.016   6.875
 2504SOL    HW1 8198   1.674   5.019   6.955
 2504SOL    HW2 8199   1.539   5.080   6.888
 2505SOL     OW 8200   1.039   4.822   6.282
 2505SOL    HW1 8201   0.969   4.775   6.336
 2505SOL    HW2 8202   1.098   4.754   6.239
 2506SOL     OW 8203   1.014   3.960   6.557
 2506SOL    HW1 8204   1.006   3.924   6.464
 2506SOL    HW2 8205   1.012   3.884   6.622
 2507SOL     OW 8206   1.709   4.109   6.967
 2507SOL    HW1 8207   1.782   4.178   6.971
 2507SOL    HW2 8208   1.737   4.034   6.908
 2508SOL     OW 8209   0.255   5.072   5.876
 2508SOL    HW1 8210   0.159   5.073   5.849
 2508SOL    HW2 8211   0.267   5.125   5.960
 2509SOL     OW 8212   0.105   4.737   7.312
 2509SOL    HW1 8213   0.028   4.704   7.366
 2509SOL    HW2 8214   0.190   4.707   7.354
 2510SOL     OW 8215   0.672   3.927   7.075
 2510SOL    HW1 8216   0.762   3.911   7.035
 2510SOL    HW2 8217   0.680   3.932   7.174
 2511SOL     OW 8218   0.075   4.069   5.619
 2511SOL    HW1 8219  -0.017   4.041   5.590
 2511SOL    HW2 8220   0.106   4.146   5.563
 2512SOL     OW 8221   1.440   4.580   6.984
 2512SOL    HW1 8222   1.383   4.632   6.921
 2512SOL    HW2 8223   1.536   4.592   6.960
 2513SOL     OW 8224   0.072   3.890   5.904
 2513SOL    HW1 8225   0.055   3.973   5.850
 2513SOL    HW2 8226   0.162   3.853   5.882
 2514SOL     OW 8227   1.183   5.059   5.705
 2514SOL    HW1 8228   1.084   5.048   5.707
 2514SOL    HW2 8229   1.217   5.074   5.798
 2515SOL     OW 8230   0.613   4.566   7.017
 2515SOL    HW1 8231   0.669   4.647   7.000
 2515SOL    HW2 8232   0.672   4.486   7.020
 2516SOL     OW 8233   0.716   4.289   7.294
 2516SOL    HW1 8234   0.735   4.354   7.368
 2516SOL    HW2 8235   0.776   4.209   7.303
 2517SOL     OW 8236   1.450   4.944   7.219
 2517SOL    HW1 8237   1.441   4.934   7.318
 2517SOL    HW2 8238   1.546   4.937   7.193
 2518SOL     OW 8239   1.674   4.607   6.840
 2518SOL    HW1 8240   1.647   4.518   6.803
 2518SOL    HW2 8241   1.675   4.675   6.767
 2519SOL     OW 8242   1.225   4.049   6.035
 2519SOL    HW1 8243   1.290   3.975   6.024
 2519SOL    HW2 8244   1.245   4.099   6.119
 2520SOL     OW 8245   0.594   4.469   6.238
 2520SOL    HW1 8246   0.644   4.554   6.219
 2520SOL    HW2 8247   0.506   4.471   6.190
 2521SOL     OW 8248   1.777   4.066   7.228
 2521SOL    HW1 8249   1.760   4.097   7.134
 2521SOL    HW2 8250   1.693   4.029   7.266
 2522SOL     OW 8251   1.730   4.658   7.103
 2522SOL    HW1 8252   1.768   4.749   7.118
 2522SOL    HW2 8253   1.722   4.641   7.004
 2523SOL     OW 8254   0.859   5.098   5.602
 2523SOL    HW1 8255   0.813   5.113   5.690
 2523SOL    HW2 8256   0.903   5.183   5.572
 2524SOL     OW 8257   0.859   4.680   6.447
 2524SOL    HW1 8258   0.913   4.611   6.495
 2524SOL    HW2 8259   0.827   4.749   6.513
 2525SOL     OW 8260   1.083   4.708   5.673
 2525SOL    HW1 8261   1.060   4.761   5.591
 2525SOL    HW2 8262   1.164   4.652   5.654
 2526SOL     OW 8263   0.221   5.038   7.430
 2526SOL    HW1 8264   0.156   4.965   7.409
 2526SOL    HW2 8265   0.225   5.052   7.528
 2527SOL     OW 8266   0.079   4.964   6.239
 2527SOL    HW1 8267   0.078   4.917   6.327
 2527SOL    HW2 8268   0.161   4.936   6.188
 2528SOL     OW 8269   0.672   5.115   7.210
 2528SOL    HW1 8270   0.594   5.065   7.248
 2528SOL    HW2 8271   0.669   5.210   7.241
 2529SOL     OW 8272   1.824   3.916   6.813
 2529SOL    HW1 8273   1.820   3.826   6.857
 2529SOL    HW2 8274   1.827   3.905   6.714
 2530SOL     OW 8275   0.428   4.148   6.106
 2530SOL    HW1 8276   0.458   4.076   6.044
 2530SOL    HW2 8277   0.389   4.108   6.189
 2531SOL     OW 8278   1.705   5.211   6.690
 2531SOL    HW1 8279   1.612   5.186   6.663
 2531SOL    HW2 8280   1.731   5.161   6.772
 2532SOL     OW 8281   0.317   4.271   6.866
 2532SOL    HW1 8282   0.355   4.212   6.938
 2532SOL    HW2 8283   0.357   4.245   6.778
 2533SOL     OW 8284   1.424   3.938   6.698
 2533SOL    HW1 8285   1.476   3.873   6.753
 2533SOL    HW2 8286   1.375   4.001   6.759
 2534SOL     OW 8287   1.001   3.758   6.740
 2534SOL    HW1 8288   0.938   3.686   6.709
 2534SOL    HW2 8289   1.094   3.722   6.740
 2535SOL     OW 8290   0.770   5.054   5.887
 2535SOL    HW1 8291   0.724   4.967   5.904
 2535SOL    HW2 8292   0.861   5.051   5.928
 2536SOL     OW 8293   0.618   5.291   6.870
 2536SOL    HW1 8294   0.613   5.373   6.927
 2536SOL    HW2 8295   0.707   5.288   6.825
 2537SOL     OW 8296   1.352   3.776   5.754
 2537SOL    HW1 8297   1.387   3.735   5.670
 2537SOL    HW2 8298   1.262   3.738   5.774
 2538SOL     OW 8299   1.300   4.177   6.277
 2538SOL    HW1 8300   1.241   4.257   6.281
 2538SOL    HW2 8301   1.315   4.142   6.370
 2539SOL     OW 8302   1.593   3.945   6.468
 2539SOL    HW1 8303   1.509   3.944   6.522
 2539SOL    HW2 8304   1.595   4.028   6.412
 2540SOL     OW 8305   0.039   4.801   5.886
 2540SOL    HW1 8306   0.138   4.790   5.877
 2540SOL    HW2 8307  -0.001   4.715   5.918
 2541SOL     OW 8308   0.230   4.352   7.561
 2541SOL    HW1 8309   0.137   4.350   7.598
 2541SOL    HW2 8310   0.231   4.313   7.469
 2542SOL     OW 8311   1.755   4.331   7.679
 2542SOL    HW1 8312   1.743   4.318   7.580
 2542SOL    HW2 8313   1.725   4.250   7.728
 2543SOL     OW 8314   0.231   5.437   7.931
 2543SOL    HW1 8315   0.265   5.514   7.985
 2543SOL    HW2 8316   0.275   5.437   7.841
 2544SOL     OW 8317   0.230   5.158   7.986
 2544SOL    HW1 8318   0.204   5.254   7.986
 2544SOL    HW2 8319   0.159   5.104   8.031
 2545SOL     OW 8320   0.606   4.688   7.571
 2545SOL    HW1 8321   0.613   4.772   7.517
 2545SOL    HW2 8322   0.652   4.701   7.659
 2546SOL     OW 8323   0.027   5.320   7.565
 2546SOL    HW1 8324   0.008   5.224   7.586
 2546SOL    HW2 8325  -0.006   5.378   7.640
 2547SOL     OW 8326   1.689   4.646   8.060
 2547SOL    HW1 8327   1.784   4.617   8.068
 2547SOL    HW2 8328   1.681   4.711   7.985
 2548SOL     OW 8329   1.641   4.832   7.880
 2548SOL    HW1 8330   1.727   4.834   7.828
 2548SOL    HW2 8331   1.655   4.879   7.968
 2549SOL     OW 8332   0.809   3.728   7.950
 2549SOL    HW1 8333   0.849   3.819   7.941
 2549SOL    HW2 8334   0.709   3.736   7.956
 2550SOL     OW 8335   1.525   4.723   7.638
 2550SOL    HW1 8336   1.462   4.647   7.651
 2550SOL    HW2 8337   1.573   4.741   7.724
 2551SOL     OW 8338   0.598   4.453   7.718
 2551SOL    HW1 8339   0.622   4.522   7.650
 2551SOL    HW2 8340   0.520   4.486   7.772
 2552SOL     OW 8341   0.076   4.535   8.237
 2552SOL    HW1 8342   0.175   4.523   8.246
 2552SOL    HW2 8343   0.052   4.630   8.258
 2553SOL     OW 8344   0.865   4.072   7.643
 2553SOL    HW1 8345   0.924   4.135   7.594
 2553SOL    HW2 8346   0.884   3.978   7.614
 2554SOL     OW 8347   0.321   4.667   7.690
 2554SOL    HW1 8348   0.403   4.706   7.648
 2554SOL    HW2 8349   0.294   4.585   7.641
 2555SOL     OW 8350   1.111   5.500   7.685
 2555SOL    HW1 8351   1.051   5.438   7.735
 2555SOL    HW2 8352   1.142   5.456   7.600
 2556SOL     OW 8353   1.632   5.101   7.529
 2556SOL    HW1 8354   1.600   5.195   7.519
 2556SOL    HW2 8355   1.556   5.038   7.517
 2557SOL     OW 8356   1.400   3.831   7.874
 2557SOL    HW1 8357   1.376   3.794   7.784
 2557SOL    HW2 8358   1.499   3.847   7.878
 2558SOL     OW 8359   0.382   4.424   7.928
 2558SOL    HW1 8360   0.427   4.334   7.925
 2558SOL    HW2 8361   0.288   4.413   7.961
 2559SOL     OW 8362   0.614   3.846   7.565
 2559SOL    HW1 8363   0.712   3.824   7.572
 2559SOL    HW2 8364   0.583   3.829   7.472
 2560SOL     OW 8365   0.539   3.788   7.960
 2560SOL    HW1 8366   0.458   3.789   8.018
 2560SOL    HW2 8367   0.542   3.871   7.905
 2561SOL     OW 8368   1.434   4.912   7.489
 2561SOL    HW1 8369   1.466   4.836   7.546
 2561SOL    HW2 8370   1.342   4.939   7.519
 2562SOL     OW 8371   0.297   3.759   7.619
 2562SOL    HW1 8372   0.346   3.843   7.598
 2562SOL    HW2 8373   0.359   3.694   7.664
 2563SOL     OW 8374   0.935   3.960   7.928
 2563SOL    HW1 8375   0.887   4.001   7.850
 2563SOL    HW2 8376   1.034   3.958   7.909
 2564SOL     OW 8377   0.459   4.876   8.189
 2564SOL    HW1 8378   0.388   4.849   8.254
 2564SOL    HW2 8379   0.433   4.848   8.096
 2565SOL     OW 8380   1.032   4.273   7.464
 2565SOL    HW1 8381   0.991   4.355   7.425
 2565SOL    HW2 8382   1.096   4.299   7.537
 2566SOL     OW 8383   1.857   4.557   7.825
 2566SOL    HW1 8384   1.899   4.493   7.889
 2566SOL    HW2 8385   1.819   4.506   7.747
 2567SOL     OW 8386   0.488   5.109   7.622
 2567SOL    HW1 8387   0.401   5.094   7.669
 2567SOL    HW2 8388   0.471   5.135   7.527
 2568SOL     OW 8389   1.390   4.299   7.526
 2568SOL    HW1 8390   1.336   4.278   7.607
 2568SOL    HW2 8391   1.481   4.258   7.535
 2569SOL     OW 8392   0.527   3.980   7.776
 2569SOL    HW1 8393   0.554   3.921   7.701
 2569SOL    HW2 8394   0.527   4.075   7.745
 2570SOL     OW 8395   0.705   4.774   7.816
 2570SOL    HW1 8396   0.691   4.781   7.915
 2570SOL    HW2 8397   0.789   4.723   7.798
 2571SOL     OW 8398   0.367   4.824   7.949
 2571SOL    HW1 8399   0.360   4.907   7.893
 2571SOL    HW2 8400   0.371   4.744   7.889
 2572SOL     OW 8401   1.252   5.072   7.836
 2572SOL    HW1 8402   1.302   5.149   7.876
 2572SOL    HW2 8403   1.157   5.074   7.868
 2573SOL     OW 8404   1.582   4.363   7.920
 2573SOL    HW1 8405   1.551   4.424   7.993
 2573SOL    HW2 8406   1.632   4.415   7.851
 2574SOL     OW 8407   1.209   4.249   7.723
 2574SOL    HW1 8408   1.222   4.165   7.777
 2574SOL    HW2 8409   1.180   4.323   7.783
 2575SOL     OW 8410   1.622   4.091   7.822
 2575SOL    HW1 8411   1.624   4.015   7.886
 2575SOL    HW2 8412   1.574   4.168   7.862
 2576SOL     OW 8413   1.540   3.998   7.573
 2576SOL    HW1 8414   1.479   3.923   7.596
 2576SOL    HW2 8415   1.562   4.050   7.656
 2577SOL     OW 8416   1.303   4.562   7.490
 2577SOL    HW1 8417   1.337   4.469   7.505
 2577SOL    HW2 8418   1.321   4.589   7.395
 2578SOL     OW 8419   0.008   5.050   7.648
 2578SOL    HW1 8420  -0.085   5.071   7.617
 2578SOL    HW2 8421   0.018   4.951   7.661
 2579SOL     OW 8422   0.815   4.296   7.773
 2579SOL    HW1 8423   0.822   4.207   7.727
 2579SOL    HW2 8424   0.721   4.330   7.765
 2580SOL     OW 8425   0.473   4.224   7.639
 2580SOL    HW1 8426   0.534   4.304   7.643
 2580SOL    HW2 8427   0.378   4.255   7.646
 2581SOL     OW 8428   1.302   4.579   7.757
 2581SOL    HW1 8429   1.216   4.548   7.799
 2581SOL    HW2 8430   1.298   4.565   7.658
 2582SOL     OW 8431   1.726   3.859   7.971
 2582SOL    HW1 8432   1.799   3.842   7.904
 2582SOL    HW2 8433   1.695   3.772   8.009
 2583SOL     OW 8434   0.916   4.634   7.739
 2583SOL    HW1 8435   0.979   4.672   7.671
 2583SOL    HW2 8436   0.956   4.551   7.778
 2584SOL     OW 8437   0.255   5.072   7.738
 2584SOL    HW1 8438   0.159   5.073   7.711
 2584SOL    HW2 8439   0.267   5.125   7.822
 2585SOL     OW 8440   0.075   4.069   7.481
 2585SOL    HW1 8441  -0.017   4.041   7.452
 2585SOL    HW2 8442   0.106   4.146   7.425
 2586SOL     OW 8443   0.072   3.890   7.766
 2586SOL    HW1 8444   0.055   3.973   7.712
 2586SOL    HW2 8445   0.162   3.853   7.744
 2587SOL     OW 8446   1.183   5.059   7.567
 2587SOL    HW1 8447   1.084   5.048   7.569
 2587SOL    HW2 8448   1.217   5.074   7.660
 2588SOL     OW 8449   1.225   4.049   7.897
 2588SOL    HW1 8450   1.290   3.975   7.886
 2588SOL    HW2 8451   1.245   4.099   7.981
 2589SOL     OW 8452   0.594   4.469   8.100
 2589SOL    HW1 8453   0.644   4.554   8.081
 2589SOL    HW2 8454   0.506   4.471   8.052
 2590SOL     OW 8455   0.859   5.098   7.464
 2590SOL    HW1 8456   0.813   5.113   7.552
 2590SOL    HW2 8457   0.903   5.183   7.434
 2591SOL     OW 8458   1.083   4.708   7.535
 2591SOL    HW1 8459   1.060   4.761   7.453
 2591SOL    HW2 8460   1.164   4.652   7.516
 2592SOL     OW 8461   0.428   4.148   7.968
 2592SOL    HW1 8462   0.458   4.076   7.906
 2592SOL    HW2 8463   0.389   4.108   8.051
 2593SOL     OW 8464   0.770   5.054   7.749
 2593SOL    HW1 8465   0.724   4.967   7.766
 2593SOL    HW2 8466   0.861   5.051   7.790
 2594SOL     OW 8467   1.352   3.776   7.616
 2594SOL    HW1 8468   1.387   3.735   7.532
 2594SOL    HW2 8469   1.262   3.738   7.636
 2595SOL     OW 8470   0.039   4.801   7.748
 2595SOL    HW1 8471   0.138   4.790   7.739
 2595SOL    HW2 8472  -0.001   4.715   7.780
 2596SOL     OW 8473   2.092   0.628   0.113
 2596SOL    HW1 8474   1.999   0.626   0.150
 2596SOL    HW2 8475   2.093   0.589   0.021
 2597SOL     OW 8476   2.087   0.275   0.996
 2597SOL    HW1 8477   2.122   0.258   1.088
 2597SOL    HW2 8478   1.999   0.230   0.984
 2598SOL     OW 8479   1.881   0.368   0.647
 2598SOL    HW1 8480   1.799   0.411   0.686
 2598SOL    HW2 8481   1.853   0.295   0.584
 2599SOL     OW 8482   2.431   1.275   1.165
 2599SOL    HW1 8483   2.338   1.268   1.128
 2599SOL    HW2 8484   2.442   1.364   1.209
 2600SOL     OW 8485   3.417   1.511   0.703
 2600SOL    HW1 8486   3.360   1.495   0.784
 2600SOL    HW2 8487   3.358   1.521   0.623
 2601SOL     OW 8488   2.997   0.703   0.717
 2601SOL    HW1 8489   3.054   0.781   0.692
 2601SOL    HW2 8490   2.937   0.729   0.793
 2602SOL     OW 8491   3.617   0.607   0.231
 2602SOL    HW1 8492   3.605   0.594   0.132
 2602SOL    HW2 8493   3.587   0.526   0.280
 2603SOL     OW 8494   2.630   1.144   1.023
 2603SOL    HW1 8495   2.552   1.161   1.083
 2603SOL    HW2 8496   2.664   1.231   0.987
 2604SOL     OW 8497   2.712   0.798   1.823
 2604SOL    HW1 8498   2.708   0.874   1.888
 2604SOL    HW2 8499   2.734   0.834   1.732
 2605SOL     OW 8500   2.547   1.012   0.665
 2605SOL    HW1 8501   2.616   0.996   0.735
 2605SOL    HW2 8502   2.474   1.069   0.703
 2606SOL     OW 8503   2.548   1.161   1.803
 2606SOL    HW1 8504   2.608   1.240   1.817
 2606SOL    HW2 8505   2.462   1.192   1.762
 2607SOL     OW 8506   2.197   1.435   1.061
 2607SOL    HW1 8507   2.119   1.404   1.008
 2607SOL    HW2 8508   2.255   1.493   1.004
 2608SOL     OW 8509   3.322   1.505   1.339
 2608SOL    HW1 8510   3.346   1.599   1.365
 2608SOL    HW2 8511   3.306   1.451   1.421
 2609SOL     OW 8512   2.300   0.392   1.499
 2609SOL    HW1 8513   2.382   0.336   1.508
 2609SOL    HW2 8514   2.219   0.334   1.503
 2610SOL     OW 8515   3.465   0.447   0.737
 2610SOL    HW1 8516   3.391   0.493   0.687
 2610SOL    HW2 8517   3.516   0.515   0.790
 2611SOL     OW 8518   2.093   1.713   0.483
 2611SOL    HW1 8519   2.127   1.790   0.537
 2611SOL    HW2 8520   2.137   1.713   0.393
 2612SOL     OW 8521   2.989   1.341   1.690
 2612SOL    HW1 8522   3.036   1.341   1.778
 2612SOL    HW2 8523   2.941   1.254   1.679
 2613SOL     OW 8524   2.092   1.434   0.538
 2613SOL    HW1 8525   2.066   1.530   0.538
 2613SOL    HW2 8526   2.021   1.380   0.583
 2614SOL     OW 8527   2.102   1.091   0.886
 2614SOL    HW1 8528   2.116   1.007   0.938
 2614SOL    HW2 8529   2.047   1.155   0.941
 2615SOL     OW 8530   2.482   1.786   1.439
 2615SOL    HW1 8531   2.390   1.769   1.474
 2615SOL    HW2 8532   2.510   1.878   1.465
 2616SOL     OW 8533   2.468   0.964   0.123
 2616SOL    HW1 8534   2.475   1.048   0.069
 2616SOL    HW2 8535   2.514   0.977   0.211
 2617SOL     OW 8536   3.456   0.114   1.480
 2617SOL    HW1 8537   3.438   0.181   1.408
 2617SOL    HW2 8538   3.453   0.160   1.569
 2618SOL     OW 8539   1.984   0.643   0.563
 2618SOL    HW1 8540   1.939   0.555   0.580
 2618SOL    HW2 8541   1.983   0.697   0.647
 2619SOL     OW 8542   3.704   1.767   0.359
 2619SOL    HW1 8543   3.758   1.738   0.439
 2619SOL    HW2 8544   3.734   1.857   0.330
 2620SOL     OW 8545   1.889   1.596   0.117
 2620SOL    HW1 8546   1.870   1.500   0.138
 2620SOL    HW2 8547   1.856   1.654   0.192
 2621SOL     OW 8548   3.551   0.922   0.612
 2621SOL    HW1 8549   3.646   0.893   0.620
 2621SOL    HW2 8550   3.543   0.987   0.537
 2622SOL     OW 8551   3.503   1.108   0.432
 2622SOL    HW1 8552   3.589   1.110   0.380
 2622SOL    HW2 8553   3.517   1.155   0.520
 2623SOL     OW 8554   1.975   0.737   1.597
 2623SOL    HW1 8555   2.063   0.724   1.642
 2623SOL    HW2 8556   1.962   0.834   1.575
 2624SOL     OW 8557   2.475   1.365   0.726
 2624SOL    HW1 8558   2.426   1.278   0.735
 2624SOL    HW2 8559   2.452   1.408   0.639
 2625SOL     OW 8560   3.155   1.228   1.423
 2625SOL    HW1 8561   3.192   1.155   1.365
 2625SOL    HW2 8562   3.207   1.233   1.508
 2626SOL     OW 8563   2.671   0.004   0.502
 2626SOL    HW1 8564   2.711   0.095   0.493
 2626SOL    HW2 8565   2.571   0.012   0.508
 2627SOL     OW 8566   2.059   0.976   1.264
 2627SOL    HW1 8567   2.148   0.931   1.250
 2627SOL    HW2 8568   1.986   0.911   1.245
 2628SOL     OW 8569   3.387   0.999   0.190
 2628SOL    HW1 8570   3.324   0.923   0.203
 2628SOL    HW2 8571   3.435   1.017   0.276
 2629SOL     OW 8572   3.049   1.792   1.616
 2629SOL    HW1 8573   3.073   1.852   1.540
 2629SOL    HW2 8574   3.056   1.697   1.586
 2630SOL     OW 8575   2.179   0.251   1.801
 2630SOL    HW1 8576   2.250   0.322   1.807
 2630SOL    HW2 8577   2.091   0.290   1.829
 2631SOL     OW 8578   3.328   1.417   0.953
 2631SOL    HW1 8579   3.269   1.423   1.033
 2631SOL    HW2 8580   3.313   1.329   0.907
 2632SOL     OW 8581   3.529   1.714   0.572
 2632SOL    HW1 8582   3.488   1.691   0.484
 2632SOL    HW2 8583   3.511   1.640   0.637
 2633SOL     OW 8584   2.460   0.729   0.270
 2633SOL    HW1 8585   2.484   0.798   0.202
 2633SOL    HW2 8586   2.382   0.762   0.324
 2634SOL     OW 8587   3.143   0.345   0.944
 2634SOL    HW1 8588   3.057   0.295   0.931
 2634SOL    HW2 8589   3.205   0.291   1.000
 2635SOL     OW 8590   3.438   1.662   0.307
 2635SOL    HW1 8591   3.527   1.708   0.310
 2635SOL    HW2 8592   3.417   1.638   0.212
 2636SOL     OW 8593   2.669   0.605   1.465
 2636SOL    HW1 8594   2.622   0.602   1.554
 2636SOL    HW2 8595   2.618   0.550   1.399
 2637SOL     OW 8596   3.256   0.469   1.674
 2637SOL    HW1 8597   3.236   0.512   1.762
 2637SOL    HW2 8598   3.334   0.407   1.683
 2638SOL     OW 8599   2.835   0.890   1.572
 2638SOL    HW1 8600   2.881   0.806   1.543
 2638SOL    HW2 8601   2.779   0.924   1.497
 2639SOL     OW 8602   2.853   0.410   1.242
 2639SOL    HW1 8603   2.776   0.444   1.296
 2639SOL    HW2 8604   2.819   0.359   1.163
 2640SOL     OW 8605   2.903   0.701   0.429
 2640SOL    HW1 8606   2.929   0.697   0.525
 2640SOL    HW2 8607   2.818   0.650   0.415
 2641SOL     OW 8608   1.938   0.811   0.789
 2641SOL    HW1 8609   2.037   0.799   0.798
 2641SOL    HW2 8610   1.914   0.906   0.810
 2642SOL     OW 8611   1.992   1.821   1.571
 2642SOL    HW1 8612   1.982   1.806   1.670
 2642SOL    HW2 8613   1.906   1.857   1.535
 2643SOL     OW 8614   2.727   0.348   0.195
 2643SOL    HW1 8615   2.786   0.411   0.146
 2643SOL    HW2 8616   2.746   0.254   0.166
 2644SOL     OW 8617   3.581   0.585   1.831
 2644SOL    HW1 8618   3.555   0.674   1.795
 2644SOL    HW2 8619   3.579   0.517   1.758
 2645SOL     OW 8620   3.224   1.144   0.545
 2645SOL    HW1 8621   3.307   1.115   0.497
 2645SOL    HW2 8622   3.175   1.211   0.489
 2646SOL     OW 8623   2.412   0.196   0.885
 2646SOL    HW1 8624   2.407   0.191   0.985
 2646SOL    HW2 8625   2.414   0.292   0.856
 2647SOL     OW 8626   2.870   1.456   0.477
 2647SOL    HW1 8627   2.824   1.528   0.425
 2647SOL    HW2 8628   2.866   1.476   0.575
 2648SOL     OW 8629   2.213   1.801   0.853
 2648SOL    HW1 8630   2.263   1.715   0.859
 2648SOL    HW2 8631   2.278   1.878   0.850
 2649SOL     OW 8632   3.657   1.066   0.873
 2649SOL    HW1 8633   3.595   1.051   0.797
 2649SOL    HW2 8634   3.605   1.077   0.958
 2650SOL     OW 8635   3.089   1.550   1.506
 2650SOL    HW1 8636   3.095   1.473   1.570
 2650SOL    HW2 8637   3.037   1.524   1.426
 2651SOL     OW 8638   2.183   0.943   0.242
 2651SOL    HW1 8639   2.265   0.982   0.200
 2651SOL    HW2 8640   2.156   0.861   0.193
 2652SOL     OW 8641   3.320   0.735   0.728
 2652SOL    HW1 8642   3.315   0.670   0.803
 2652SOL    HW2 8643   3.400   0.794   0.741
 2653SOL     OW 8644   2.323   1.266   1.727
 2653SOL    HW1 8645   2.273   1.267   1.641
 2653SOL    HW2 8646   2.260   1.248   1.803
 2654SOL     OW 8647   2.973   1.776   0.237
 2654SOL    HW1 8648   2.913   1.714   0.287
 2654SOL    HW2 8649   3.004   1.732   0.152
 2655SOL     OW 8650   2.064   0.285   1.498
 2655SOL    HW1 8651   1.984   0.345   1.485
 2655SOL    HW2 8652   2.054   0.236   1.584
 2656SOL     OW 8653   3.494   1.377   0.081
 2656SOL    HW1 8654   3.462   1.471   0.071
 2656SOL    HW2 8655   3.418   1.314   0.069
 2657SOL     OW 8656   2.326   1.743   0.323
 2657SOL    HW1 8657   2.359   1.782   0.409
 2657SOL    HW2 8658   2.402   1.736   0.258
 2658SOL     OW 8659   3.262   0.107   0.426
 2658SOL    HW1 8660   3.238   0.070   0.336
 2658SOL    HW2 8661   3.361   0.123   0.430
 2659SOL     OW 8662   2.111   1.785   1.241
 2659SOL    HW1 8663   2.168   1.720   1.291
 2659SOL    HW2 8664   2.095   1.752   1.148
 2660SOL     OW 8665   2.802   1.698   0.904
 2660SOL    HW1 8666   2.882   1.641   0.925
 2660SOL    HW2 8667   2.753   1.658   0.827
 2661SOL     OW 8668   2.244   0.700   0.480
 2661SOL    HW1 8669   2.289   0.610   0.477
 2661SOL    HW2 8670   2.150   0.689   0.513
 2662SOL     OW 8671   3.409   0.222   1.729
 2662SOL    HW1 8672   3.404   0.259   1.821
 2662SOL    HW2 8673   3.337   0.153   1.717
 2663SOL     OW 8674   2.476   0.122   0.117
 2663SOL    HW1 8675   2.574   0.100   0.124
 2663SOL    HW2 8676   2.445   0.105   0.024
 2664SOL     OW 8677   2.643   0.264   1.749
 2664SOL    HW1 8678   2.710   0.203   1.792
 2664SOL    HW2 8679   2.570   0.283   1.814
 2665SOL     OW 8680   2.750   1.514   1.195
 2665SOL    HW1 8681   2.727   1.489   1.101
 2665SOL    HW2 8682   2.811   1.445   1.234
 2666SOL     OW 8683   3.213   0.590   1.433
 2666SOL    HW1 8684   3.241   0.547   1.518
 2666SOL    HW2 8685   3.238   0.686   1.434
 2667SOL     OW 8686   2.665   1.402   0.924
 2667SOL    HW1 8687   2.755   1.416   0.882
 2667SOL    HW2 8688   2.594   1.404   0.853
 2668SOL     OW 8689   2.784   0.503   0.899
 2668SOL    HW1 8690   2.759   0.494   0.803
 2668SOL    HW2 8691   2.832   0.421   0.930
 2669SOL     OW 8692   2.401   0.064   0.512
 2669SOL    HW1 8693   2.320   0.065   0.570
 2669SOL    HW2 8694   2.404   0.147   0.457
 2670SOL     OW 8695   3.296   1.188   0.041
 2670SOL    HW1 8696   3.328   1.112   0.098
 2670SOL    HW2 8697   3.204   1.215   0.071
 2671SOL     OW 8698   2.159   0.035   0.171
 2671SOL    HW1 8699   2.208   0.119   0.150
 2671SOL    HW2 8700   2.221  -0.030   0.216
 2672SOL     OW 8701   2.797   0.236   0.480
 2672SOL    HW1 8702   2.749   0.277   0.402
 2672SOL    HW2 8703   2.896   0.234   0.461
 2673SOL     OW 8704   2.938   0.683   1.464
 2673SOL    HW1 8705   2.858   0.622   1.467
 2673SOL    HW2 8706   3.019   0.630   1.440
 2674SOL     OW 8707   3.089   1.570   0.793
 2674SOL    HW1 8708   3.110   1.644   0.728
 2674SOL    HW2 8709   3.157   1.570   0.866
 2675SOL     OW 8710   2.321   1.152   0.741
 2675SOL    HW1 8711   2.250   1.125   0.806
 2675SOL    HW2 8712   2.295   1.124   0.648
 2676SOL     OW 8713   3.133   1.797   0.591
 2676SOL    HW1 8714   3.177   1.861   0.527
 2676SOL    HW2 8715   3.083   1.849   0.661
 2677SOL     OW 8716   2.894   0.549   0.016
 2677SOL    HW1 8717   2.853   0.631  -0.023
 2677SOL    HW2 8718   2.958   0.575   0.089
 2678SOL     OW 8719   1.940   0.556   1.386
 2678SOL    HW1 8720   2.032   0.555   1.345
 2678SOL    HW2 8721   1.934   0.630   1.453
 2679SOL     OW 8722   2.423   0.222   1.147
 2679SOL    HW1 8723   2.461   0.138   1.184
 2679SOL    HW2 8724   2.335   0.241   1.191
 2680SOL     OW 8725   2.728   0.454   0.642
 2680SOL    HW1 8726   2.696   0.526   0.580
 2680SOL    HW2 8727   2.752   0.373   0.589
 2681SOL     OW 8728   2.879   0.039   0.753
 2681SOL    HW1 8729   2.807   0.044   0.684
 2681SOL    HW2 8730   2.855  -0.030   0.822
 2682SOL     OW 8731   3.291   1.173   0.867
 2682SOL    HW1 8732   3.236   1.089   0.860
 2682SOL    HW2 8733   3.317   1.202   0.775
 2683SOL     OW 8734   3.328   0.590   0.992
 2683SOL    HW1 8735   3.298   0.495   0.999
 2683SOL    HW2 8736   3.401   0.606   1.058
 2684SOL     OW 8737   3.719   0.833   0.377
 2684SOL    HW1 8738   3.761   0.769   0.441
 2684SOL    HW2 8739   3.681   0.782   0.299
 2685SOL     OW 8740   2.350   1.385   0.174
 2685SOL    HW1 8741   2.263   1.370   0.221
 2685SOL    HW2 8742   2.333   1.411   0.079
 2686SOL     OW 8743   3.526   1.280   0.657
 2686SOL    HW1 8744   3.625   1.288   0.671
 2686SOL    HW2 8745   3.481   1.364   0.688
 2687SOL     OW 8746   3.252   0.575   0.078
 2687SOL    HW1 8747   3.198   0.554   0.159
 2687SOL    HW2 8748   3.343   0.534   0.087
 2688SOL     OW 8749   2.389   0.256   0.328
 2688SOL    HW1 8750   2.416   0.197   0.253
 2688SOL    HW2 8751   2.389   0.351   0.297
 2689SOL     OW 8752   3.616   1.223   1.588
 2689SOL    HW1 8753   3.707   1.184   1.575
 2689SOL    HW2 8754   3.624   1.319   1.612
 2690SOL     OW 8755   2.926   1.347   1.340
 2690SOL    HW1 8756   2.846   1.324   1.395
 2690SOL    HW2 8757   3.009   1.321   1.389
 2691SOL     OW 8758   3.454   1.629   1.625
 2691SOL    HW1 8759   3.481   1.663   1.535
 2691SOL    HW2 8760   3.533   1.591   1.671
 2692SOL     OW 8761   2.973   1.195   1.100
 2692SOL    HW1 8762   2.933   1.239   1.181
 2692SOL    HW2 8763   2.932   1.232   1.017
 2693SOL     OW 8764   3.500   1.099   1.079
 2693SOL    HW1 8765   3.505   1.180   1.138
 2693SOL    HW2 8766   3.414   1.101   1.028
 2694SOL     OW 8767   2.777   0.089   1.402
 2694SOL    HW1 8768   2.802   0.069   1.307
 2694SOL    HW2 8769   2.849   0.145   1.444
 2695SOL     OW 8770   2.842   1.116   1.719
 2695SOL    HW1 8771   2.743   1.122   1.729
 2695SOL    HW2 8772   2.865   1.036   1.663
 2696SOL     OW 8773   2.567   1.050   0.368
 2696SOL    HW1 8774   2.553   1.057   0.467
 2696SOL    HW2 8775   2.651   0.999   0.350
 2697SOL     OW 8776   2.272   0.813   1.251
 2697SOL    HW1 8777   2.358   0.825   1.301
 2697SOL    HW2 8778   2.230   0.726   1.278
 2698SOL     OW 8779   3.136   0.386   1.262
 2698SOL    HW1 8780   3.157   0.460   1.326
 2698SOL    HW2 8781   3.047   0.403   1.219
 2699SOL     OW 8782   1.926   1.564   1.331
 2699SOL    HW1 8783   1.880   1.646   1.297
 2699SOL    HW2 8784   2.024   1.583   1.340
 2700SOL     OW 8785   2.229   1.100   0.501
 2700SOL    HW1 8786   2.222   1.183   0.445
 2700SOL    HW2 8787   2.233   1.020   0.441
 2701SOL     OW 8788   2.428   0.537   0.865
 2701SOL    HW1 8789   2.440   0.603   0.791
 2701SOL    HW2 8790   2.474   0.571   0.948
 2702SOL     OW 8791   3.114   1.348   0.388
 2702SOL    HW1 8792   3.164   1.425   0.428
 2702SOL    HW2 8793   3.019   1.350   0.420
 2703SOL     OW 8794   3.134   1.445   1.142
 2703SOL    HW1 8795   3.181   1.458   1.229
 2703SOL    HW2 8796   3.068   1.371   1.151
 2704SOL     OW 8797   3.444   0.639   0.472
 2704SOL    HW1 8798   3.413   0.700   0.545
 2704SOL    HW2 8799   3.494   0.691   0.403
 2705SOL     OW 8800   2.216   1.510   1.329
 2705SOL    HW1 8801   2.195   1.466   1.242
 2705SOL    HW2 8802   2.313   1.536   1.332
 2706SOL     OW 8803   2.264   0.751   1.598
 2706SOL    HW1 8804   2.332   0.806   1.551
 2706SOL    HW2 8805   2.304   0.663   1.625
 2707SOL     OW 8806   3.449   0.779   1.670
 2707SOL    HW1 8807   3.357   0.817   1.665
 2707SOL    HW2 8808   3.509   0.826   1.605
 2708SOL     OW 8809   2.875   0.105   1.770
 2708SOL    HW1 8810   2.881   0.190   1.718
 2708SOL    HW2 8811   2.907   0.029   1.713
 2709SOL     OW 8812   2.366   0.050   1.740
 2709SOL    HW1 8813   2.324  -0.007   1.670
 2709SOL    HW2 8814   2.300   0.119   1.772
 2710SOL     OW 8815   2.435   0.870   1.029
 2710SOL    HW1 8816   2.479   0.959   1.020
 2710SOL    HW2 8817   2.372   0.870   1.106
 2711SOL     OW 8818   3.222   0.862   1.045
 2711SOL    HW1 8819   3.147   0.862   0.979
 2711SOL    HW2 8820   3.259   0.770   1.054
 2712SOL     OW 8821   3.071   0.525   0.275
 2712SOL    HW1 8822   3.084   0.441   0.329
 2712SOL    HW2 8823   3.042   0.599   0.335
 2713SOL     OW 8824   2.169   0.213   1.231
 2713SOL    HW1 8825   2.146   0.250   1.321
 2713SOL    HW2 8826   2.139   0.118   1.225
 2714SOL     OW 8827   1.899   1.310   1.282
 2714SOL    HW1 8828   1.952   1.261   1.350
 2714SOL    HW2 8829   1.921   1.408   1.287
 2715SOL     OW 8830   2.594   0.634   1.064
 2715SOL    HW1 8831   2.653   0.608   0.988
 2715SOL    HW2 8832   2.566   0.730   1.053
 2716SOL     OW 8833   3.590   0.935   1.854
 2716SOL    HW1 8834   3.544   0.928   1.765
 2716SOL    HW2 8835   3.528   0.979   1.920
 2717SOL     OW 8836   2.169   0.063   0.618
 2717SOL    HW1 8837   2.158   0.157   0.651
 2717SOL    HW2 8838   2.164   0.000   0.695
 2718SOL     OW 8839   3.484   0.367   0.374
 2718SOL    HW1 8840   3.486   0.291   0.438
 2718SOL    HW2 8841   3.436   0.444   0.414
 2719SOL     OW 8842   2.885   0.766   0.966
 2719SOL    HW1 8843   2.900   0.787   1.062
 2719SOL    HW2 8844   2.855   0.671   0.957
 2720SOL     OW 8845   2.842   1.573   1.700
 2720SOL    HW1 8846   2.822   1.617   1.612
 2720SOL    HW2 8847   2.881   1.482   1.684
 2721SOL     OW 8848   3.721   1.518   1.605
 2721SOL    HW1 8849   3.735   1.545   1.510
 2721SOL    HW2 8850   3.804   1.540   1.658
 2722SOL     OW 8851   2.212   0.898   1.804
 2722SOL    HW1 8852   2.288   0.942   1.852
 2722SOL    HW2 8853   2.247   0.851   1.722
 2723SOL     OW 8854   3.402   0.274   0.125
 2723SOL    HW1 8855   3.341   0.199   0.148
 2723SOL    HW2 8856   3.424   0.326   0.208
 2724SOL     OW 8857   3.165   0.838   0.042
 2724SOL    HW1 8858   3.199   0.745   0.057
 2724SOL    HW2 8859   3.183   0.865  -0.053
 2725SOL     OW 8860   2.930   1.333   0.849
 2725SOL    HW1 8861   2.937   1.249   0.794
 2725SOL    HW2 8862   2.992   1.402   0.813
 2726SOL     OW 8863   2.181   0.810   0.949
 2726SOL    HW1 8864   2.274   0.846   0.954
 2726SOL    HW2 8865   2.175   0.725   1.001
 2727SOL     OW 8866   2.201   0.509   1.006
 2727SOL    HW1 8867   2.149   0.426   0.989
 2727SOL    HW2 8868   2.278   0.514   0.942
 2728SOL     OW 8869   3.000   0.380   1.678
 2728SOL    HW1 8870   2.955   0.443   1.742
 2728SOL    HW2 8871   3.093   0.411   1.661
 2729SOL     OW 8872   3.022   0.207   1.477
 2729SOL    HW1 8873   3.022   0.271   1.554
 2729SOL    HW2 8874   3.050   0.255   1.394
 2730SOL     OW 8875   1.870   1.326   0.200
 2730SOL    HW1 8876   1.777   1.347   0.169
 2730SOL    HW2 8877   1.880   1.227   0.213
 2731SOL     OW 8878   1.950   1.801   0.927
 2731SOL    HW1 8879   1.908   1.715   0.900
 2731SOL    HW2 8880   2.044   1.804   0.893
 2732SOL     OW 8881   2.366   1.568   0.910
 2732SOL    HW1 8882   2.432   1.642   0.919
 2732SOL    HW2 8883   2.410   1.489   0.868
 2733SOL     OW 8884   2.864   0.796   1.238
 2733SOL    HW1 8885   2.905   0.764   1.324
 2733SOL    HW2 8886   2.768   0.769   1.235
 2734SOL     OW 8887   1.902   0.544   1.114
 2734SOL    HW1 8888   1.987   0.511   1.073
 2734SOL    HW2 8889   1.915   0.559   1.212
 2735SOL     OW 8890   2.051   0.520   1.722
 2735SOL    HW1 8891   2.110   0.480   1.652
 2735SOL    HW2 8892   1.993   0.591   1.681
 2736SOL     OW 8893   3.231   0.950   1.660
 2736SOL    HW1 8894   3.270   1.039   1.680
 2736SOL    HW2 8895   3.241   0.930   1.563
 2737SOL     OW 8896   2.677   0.572   0.325
 2737SOL    HW1 8897   2.684   0.483   0.279
 2737SOL    HW2 8898   2.583   0.606   0.317
 2738SOL     OW 8899   3.519   0.604   1.206
 2738SOL    HW1 8900   3.481   0.535   1.268
 2738SOL    HW2 8901   3.601   0.568   1.162
 2739SOL     OW 8902   2.114   1.564   1.744
 2739SOL    HW1 8903   2.084   1.621   1.820
 2739SOL    HW2 8904   2.107   1.467   1.770
 2740SOL     OW 8905   2.533   0.464   1.269
 2740SOL    HW1 8906   2.499   0.375   1.239
 2740SOL    HW2 8907   2.559   0.518   1.189
 2741SOL     OW 8908   2.792   1.678   1.465
 2741SOL    HW1 8909   2.768   1.660   1.370
 2741SOL    HW2 8910   2.822   1.772   1.475
 2742SOL     OW 8911   2.335   0.500   0.191
 2742SOL    HW1 8912   2.396   0.580   0.195
 2742SOL    HW2 8913   2.240   0.531   0.198
 2743SOL     OW 8914   2.021   1.137   1.466
 2743SOL    HW1 8915   2.043   1.076   1.542
 2743SOL    HW2 8916   2.031   1.088   1.380
 2744SOL     OW 8917   3.209   1.059   1.234
 2744SOL    HW1 8918   3.233   0.996   1.160
 2744SOL    HW2 8919   3.119   1.099   1.216
 2745SOL     OW 8920   3.164   0.855   0.309
 2745SOL    HW1 8921   3.078   0.824   0.351
 2745SOL    HW2 8922   3.160   0.841   0.210
 2746SOL     OW 8923   3.621   1.747   1.154
 2746SOL    HW1 8924   3.682   1.777   1.081
 2746SOL    HW2 8925   3.583   1.658   1.132
 2747SOL     OW 8926   3.114   1.731   1.128
 2747SOL    HW1 8927   3.198   1.736   1.074
 2747SOL    HW2 8928   3.091   1.635   1.146
 2748SOL     OW 8929   1.945   1.258   1.022
 2748SOL    HW1 8930   1.940   1.257   1.122
 2748SOL    HW2 8931   1.862   1.217   0.984
 2749SOL     OW 8932   2.550   1.662   1.716
 2749SOL    HW1 8933   2.494   1.743   1.725
 2749SOL    HW2 8934   2.602   1.666   1.630
 2750SOL     OW 8935   2.765   0.086   0.133
 2750SOL    HW1 8936   2.816   0.087   0.047
 2750SOL    HW2 8937   2.821   0.044   0.204
 2751SOL     OW 8938   3.588   0.135   0.523
 2751SOL    HW1 8939   3.661   0.118   0.456
 2751SOL    HW2 8940   3.557   0.048   0.561
 2752SOL     OW 8941   3.250   1.573   0.477
 2752SOL    HW1 8942   3.317   1.585   0.403
 2752SOL    HW2 8943   3.210   1.662   0.500
 2753SOL     OW 8944   1.992   1.794   1.851
 2753SOL    HW1 8945   1.951   1.720   1.904
 2753SOL    HW2 8946   2.056   1.845   1.909
 2754SOL     OW 8947   3.142   0.927   0.672
 2754SOL    HW1 8948   3.202   0.846   0.674
 2754SOL    HW2 8949   3.182   0.996   0.612
 2755SOL     OW 8950   2.692   1.273   1.422
 2755SOL    HW1 8951   2.687   1.306   1.517
 2755SOL    HW2 8952   2.606   1.292   1.376
 2756SOL     OW 8953   2.534   1.616   0.154
 2756SOL    HW1 8954   2.543   1.626   0.055
 2756SOL    HW2 8955   2.494   1.527   0.175
 2757SOL     OW 8956   3.512   1.720   1.394
 2757SOL    HW1 8957   3.565   1.730   1.310
 2757SOL    HW2 8958   3.485   1.810   1.428
 2758SOL     OW 8959   3.703   0.175   0.963
 2758SOL    HW1 8960   3.742   0.090   0.927
 2758SOL    HW2 8961   3.605   0.177   0.944
 2759SOL     OW 8962   2.125   0.326   0.720
 2759SOL    HW1 8963   2.046   0.377   0.686
 2759SOL    HW2 8964   2.116   0.311   0.818
 2760SOL     OW 8965   3.056   1.612   0.031
 2760SOL    HW1 8966   3.062   1.519   0.068
 2760SOL    HW2 8967   2.997   1.612  -0.049
 2761SOL     OW 8968   2.684   1.002   1.372
 2761SOL    HW1 8969   2.724   1.001   1.280
 2761SOL    HW2 8970   2.694   1.094   1.412
 2762SOL     OW 8971   2.778   0.910   0.291
 2762SOL    HW1 8972   2.841   0.948   0.223
 2762SOL    HW2 8973   2.818   0.827   0.330
 2763SOL     OW 8974   3.366   1.607   0.044
 2763SOL    HW1 8975   3.274   1.644   0.051
 2763SOL    HW2 8976   3.404   1.627  -0.046
 2764SOL     OW 8977   2.234   1.288   1.490
 2764SOL    HW1 8978   2.221   1.381   1.456
 2764SOL    HW2 8979   2.150   1.236   1.477
 2765SOL     OW 8980   3.476   1.292   1.289
 2765SOL    HW1 8981   3.536   1.295   1.369
 2765SOL    HW2 8982   3.401   1.356   1.302
 2766SOL     OW 8983   2.901   1.098   0.696
 2766SOL    HW1 8984   2.831   1.051   0.750
 2766SOL    HW2 8985   2.960   1.030   0.653
 2767SOL     OW 8986   2.876   0.236   0.971
 2767SOL    HW1 8987   2.868   0.200   0.878
 2767SOL    HW2 8988   2.874   0.160   1.036
 2768SOL     OW 8989   2.452   1.487   0.491
 2768SOL    HW1 8990   2.494   1.429   0.421
 2768SOL    HW2 8991   2.408   1.566   0.447
 2769SOL     OW 8992   3.571   0.385   1.381
 2769SOL    HW1 8993   3.644   0.454   1.385
 2769SOL    HW2 8994   3.599   0.310   1.322
 2770SOL     OW 8995   2.117   1.348   0.290
 2770SOL    HW1 8996   2.021   1.349   0.263
 2770SOL    HW2 8997   2.129   1.401   0.374
 2771SOL     OW 8998   1.967   1.013   1.726
 2771SOL    HW1 8999   1.890   0.980   1.780
 2771SOL    HW2 9000   2.052   0.983   1.768
 2772SOL     OW 9001   2.534   0.203   1.489
 2772SOL    HW1 9002   2.624   0.187   1.449
 2772SOL    HW2 9003   2.542   0.208   1.588
 2773SOL     OW 9004   1.937   0.345   0.033
 2773SOL    HW1 9005   1.845   0.317   0.004
 2773SOL    HW2 9006   1.968   0.422  -0.023
 2774SOL     OW 9007   3.302   0.856   1.398
 2774SOL    HW1 9008   3.245   0.908   1.335
 2774SOL    HW2 9009   3.398   0.868   1.374
 2775SOL     OW 9010   1.934   0.166   0.318
 2775SOL    HW1 9011   1.917   0.249   0.264
 2775SOL    HW2 9012   2.024   0.129   0.296
 2776SOL     OW 9013   3.045   1.335   0.119
 2776SOL    HW1 9014   2.946   1.324   0.121
 2776SOL    HW2 9015   3.079   1.350   0.212
 2777SOL     OW 9016   2.475   0.842   1.431
 2777SOL    HW1 9017   2.531   0.923   1.414
 2777SOL    HW2 9018   2.534   0.762   1.434
 2778SOL     OW 9019   3.355   1.767   0.959
 2778SOL    HW1 9020   3.388   1.831   0.890
 2778SOL    HW2 9021   3.421   1.761   1.034
 2779SOL     OW 9022   2.578   0.565   1.708
 2779SOL    HW1 9023   2.597   0.630   1.782
 2779SOL    HW2 9024   2.638   0.485   1.717
 2780SOL     OW 9025   3.312   1.220   1.633
 2780SOL    HW1 9026   3.303   1.210   1.732
 2780SOL    HW2 9027   3.408   1.213   1.607
 2781SOL     OW 9028   2.252   1.741   1.560
 2781SOL    HW1 9029   2.161   1.782   1.558
 2781SOL    HW2 9030   2.245   1.647   1.592
 2782SOL     OW 9031   3.536   0.883   1.254
 2782SOL    HW1 9032   3.509   0.794   1.217
 2782SOL    HW2 9033   3.537   0.951   1.181
 2783SOL     OW 9034   3.087   0.325   0.449
 2783SOL    HW1 9035   3.152   0.251   0.438
 2783SOL    HW2 9036   3.107   0.375   0.533
 2784SOL     OW 9037   2.456   0.745   0.652
 2784SOL    HW1 9038   2.506   0.830   0.633
 2784SOL    HW2 9039   2.368   0.747   0.604
 2785SOL     OW 9040   3.639   0.342   1.642
 2785SOL    HW1 9041   3.622   0.373   1.548
 2785SOL    HW2 9042   3.555   0.305   1.680
 2786SOL     OW 9043   3.592   0.934   1.517
 2786SOL    HW1 9044   3.630   1.025   1.532
 2786SOL    HW2 9045   3.584   0.917   1.418
 2787SOL     OW 9046   2.721   1.374   0.016
 2787SOL    HW1 9047   2.675   1.389   0.104
 2787SOL    HW2 9048   2.765   1.459  -0.014
 2788SOL     OW 9049   2.523   1.790   0.953
 2788SOL    HW1 9050   2.477   1.878   0.940
 2788SOL    HW2 9051   2.622   1.802   0.946
 2789SOL     OW 9052   2.721   0.956   0.861
 2789SOL    HW1 9053   2.775   0.887   0.909
 2789SOL    HW2 9054   2.689   1.025   0.927
 2790SOL     OW 9055   2.945   0.984   0.087
 2790SOL    HW1 9056   2.922   1.037   0.005
 2790SOL    HW2 9057   3.026   0.928   0.068
 2791SOL     OW 9058   3.723   1.569   0.851
 2791SOL    HW1 9059   3.652   1.557   0.781
 2791SOL    HW2 9060   3.724   1.490   0.911
 2792SOL     OW 9061   2.083   1.314   1.844
 2792SOL    HW1 9062   2.018   1.241   1.823
 2792SOL    HW2 9063   2.087   1.328   1.942
 2793SOL     OW 9064   1.941   1.240   0.653
 2793SOL    HW1 9065   1.940   1.193   0.741
 2793SOL    HW2 9066   2.023   1.212   0.602
 2794SOL     OW 9067   2.534   1.391   1.624
 2794SOL    HW1 9068   2.456   1.341   1.662
 2794SOL    HW2 9069   2.531   1.486   1.655
 2795SOL     OW 9070   3.686   0.192   1.227
 2795SOL    HW1 9071   3.682   0.102   1.271
 2795SOL    HW2 9072   3.689   0.181   1.128
 2796SOL     OW 9073   2.290   0.424   0.520
 2796SOL    HW1 9074   2.320   0.352   0.458
 2796SOL    HW2 9075   2.251   0.384   0.603
 2797SOL     OW 9076   3.567   1.487   1.104
 2797SOL    HW1 9077   3.474   1.462   1.077
 2797SOL    HW2 9078   3.593   1.437   1.186
 2798SOL     OW 9079   2.179   0.547   1.280
 2798SOL    HW1 9080   2.217   0.488   1.352
 2798SOL    HW2 9081   2.219   0.521   1.192
 2799SOL     OW 9082   2.674   1.586   0.687
 2799SOL    HW1 9083   2.706   1.596   0.593
 2799SOL    HW2 9084   2.595   1.524   0.689
 2800SOL     OW 9085   3.286   0.214   1.112
 2800SOL    HW1 9086   3.338   0.149   1.167
 2800SOL    HW2 9087   3.237   0.277   1.173
 2801SOL     OW 9088   2.863   0.034   1.154
 2801SOL    HW1 9089   2.800  -0.038   1.123
 2801SOL    HW2 9090   2.956  -0.002   1.154
 2802SOL     OW 9091   2.632   1.330   0.301
 2802SOL    HW1 9092   2.586   1.243   0.318
 2802SOL    HW2 9093   2.723   1.327   0.342
 2803SOL     OW 9094   2.480   1.567   1.284
 2803SOL    HW1 9095   2.475   1.649   1.341
 2803SOL    HW2 9096   2.569   1.564   1.239
 2804SOL     OW 9097   3.214   0.052   0.168
 2804SOL    HW1 9098   3.249   0.011   0.084
 2804SOL    HW2 9099   3.124   0.014   0.188
 2805SOL     OW 9100   3.162   0.453   0.691
 2805SOL    HW1 9101   3.103   0.533   0.695
 2805SOL    HW2 9102   3.177   0.418   0.784
 2806SOL     OW 9103   3.455   0.221   0.882
 2806SOL    HW1 9104   3.371   0.220   0.936
 2806SOL    HW2 9105   3.457   0.304   0.826
 2807SOL     OW 9106   1.901   1.077   0.300
 2807SOL    HW1 9107   2.000   1.066   0.291
 2807SOL    HW2 9108   1.861   0.991   0.332
 2808SOL     OW 9109   2.737   1.646   0.337
 2808SOL    HW1 9110   2.660   1.611   0.283
 2808SOL    HW2 9111   2.705   1.717   0.399
 2809SOL     OW 9112   2.092   0.628   1.975
 2809SOL    HW1 9113   1.999   0.626   2.012
 2809SOL    HW2 9114   2.093   0.589   1.883
 2810SOL     OW 9115   2.087   0.275   2.858
 2810SOL    HW1 9116   2.122   0.258   2.950
 2810SOL    HW2 9117   1.999   0.230   2.846
 2811SOL     OW 9118   1.881   0.368   2.509
 2811SOL    HW1 9119   1.799   0.411   2.548
 2811SOL    HW2 9120   1.853   0.295   2.446
 2812SOL     OW 9121   2.431   1.275   3.027
 2812SOL    HW1 9122   2.338   1.268   2.990
 2812SOL    HW2 9123   2.442   1.364   3.071
 2813SOL     OW 9124   3.417   1.511   2.565
 2813SOL    HW1 9125   3.360   1.495   2.646
 2813SOL    HW2 9126   3.358   1.521   2.485
 2814SOL     OW 9127   2.997   0.703   2.579
 2814SOL    HW1 9128   3.054   0.781   2.554
 2814SOL    HW2 9129   2.937   0.729   2.655
 2815SOL     OW 9130   3.617   0.607   2.093
 2815SOL    HW1 9131   3.605   0.594   1.994
 2815SOL    HW2 9132   3.587   0.526   2.142
 2816SOL     OW 9133   2.630   1.144   2.885
 2816SOL    HW1 9134   2.552   1.161   2.945
 2816SOL    HW2 9135   2.664   1.231   2.849
 2817SOL     OW 9136   2.712   0.798   3.685
 2817SOL    HW1 9137   2.708   0.874   3.750
 2817SOL    HW2 9138   2.734   0.834   3.594
 2818SOL     OW 9139   2.547   1.012   2.527
 2818SOL    HW1 9140   2.616   0.996   2.597
 2818SOL    HW2 9141   2.474   1.069   2.565
 2819SOL     OW 9142   2.548   1.161   3.665
 2819SOL    HW1 9143   2.608   1.240   3.679
 2819SOL    HW2 9144   2.462   1.192   3.624
 2820SOL     OW 9145   2.197   1.435   2.923
 2820SOL    HW1 9146   2.119   1.404   2.870
 2820SOL    HW2 9147   2.255   1.493   2.866
 2821SOL     OW 9148   3.322   1.505   3.201
 2821SOL    HW1 9149   3.346   1.599   3.227
 2821SOL    HW2 9150   3.306   1.451   3.283
 2822SOL     OW 9151   2.300   0.392   3.361
 2822SOL    HW1 9152   2.382   0.336   3.370
 2822SOL    HW2 9153   2.219   0.334   3.365
 2823SOL     OW 9154   3.465   0.447   2.599
 2823SOL    HW1 9155   3.391   0.493   2.549
 2823SOL    HW2 9156   3.516   0.515   2.652
 2824SOL     OW 9157   2.093   1.713   2.345
 2824SOL    HW1 9158   2.127   1.790   2.399
 2824SOL    HW2 9159   2.137   1.713   2.255
 2825SOL     OW 9160   2.989   1.341   3.552
 2825SOL    HW1 9161   3.036   1.341   3.640
 2825SOL    HW2 9162   2.941   1.254   3.541
 2826SOL     OW 9163   2.092   1.434   2.400
 2826SOL    HW1 9164   2.066   1.530   2.400
 2826SOL    HW2 9165   2.021   1.380   2.445
 2827SOL     OW 9166   2.102   1.091   2.748
 2827SOL    HW1 9167   2.116   1.007   2.800
 2827SOL    HW2 9168   2.047   1.155   2.803
 2828SOL     OW 9169   2.468   0.964   1.985
 2828SOL    HW1 9170   2.475   1.048   1.931
 2828SOL    HW2 9171   2.514   0.977   2.073
 2829SOL     OW 9172   3.456   0.114   3.342
 2829SOL    HW1 9173   3.438   0.181   3.270
 2829SOL    HW2 9174   3.453   0.160   3.431
 2830SOL     OW 9175   1.984   0.643   2.425
 2830SOL    HW1 9176   1.939   0.555   2.442
 2830SOL    HW2 9177   1.983   0.697   2.509
 2831SOL     OW 9178   3.704   1.767   2.221
 2831SOL    HW1 9179   3.758   1.738   2.301
 2831SOL    HW2 9180   3.734   1.857   2.192
 2832SOL     OW 9181   1.889   1.596   1.979
 2832SOL    HW1 9182   1.870   1.500   2.000
 2832SOL    HW2 9183   1.856   1.654   2.054
 2833SOL     OW 9184   3.551   0.922   2.474
 2833SOL    HW1 9185   3.646   0.893   2.482
 2833SOL    HW2 9186   3.543   0.987   2.399
 2834SOL     OW 9187   3.503   1.108   2.294
 2834SOL    HW1 9188   3.589   1.110   2.242
 2834SOL    HW2 9189   3.517   1.155   2.382
 2835SOL     OW 9190   1.975   0.737   3.459
 2835SOL    HW1 9191   2.063   0.724   3.504
 2835SOL    HW2 9192   1.962   0.834   3.437
 2836SOL     OW 9193   2.475   1.365   2.588
 2836SOL    HW1 9194   2.426   1.278   2.597
 2836SOL    HW2 9195   2.452   1.408   2.501
 2837SOL     OW 9196   3.155   1.228   3.285
 2837SOL    HW1 9197   3.192   1.155   3.227
 2837SOL    HW2 9198   3.207   1.233   3.370
 2838SOL     OW 9199   2.671   0.004   2.364
 2838SOL    HW1 9200   2.711   0.095   2.355
 2838SOL    HW2 9201   2.571   0.012   2.370
 2839SOL     OW 9202   2.059   0.976   3.126
 2839SOL    HW1 9203   2.148   0.931   3.112
 2839SOL    HW2 9204   1.986   0.911   3.107
 2840SOL     OW 9205   3.387   0.999   2.052
 2840SOL    HW1 9206   3.324   0.923   2.065
 2840SOL    HW2 9207   3.435   1.017   2.138
 2841SOL     OW 9208   2.179   0.251   3.663
 2841SOL    HW1 9209   2.250   0.322   3.669
 2841SOL    HW2 9210   2.091   0.290   3.691
 2842SOL     OW 9211   3.328   1.417   2.815
 2842SOL    HW1 9212   3.269   1.423   2.895
 2842SOL    HW2 9213   3.313   1.329   2.769
 2843SOL     OW 9214   3.529   1.714   2.434
 2843SOL    HW1 9215   3.488   1.691   2.346
 2843SOL    HW2 9216   3.511   1.640   2.499
 2844SOL     OW 9217   2.460   0.729   2.132
 2844SOL    HW1 9218   2.484   0.798   2.064
 2844SOL    HW2 9219   2.382   0.762   2.186
 2845SOL     OW 9220   3.143   0.345   2.806
 2845SOL    HW1 9221   3.057   0.295   2.793
 2845SOL    HW2 9222   3.205   0.291   2.862
 2846SOL     OW 9223   3.438   1.662   2.169
 2846SOL    HW1 9224   3.527   1.708   2.172
 2846SOL    HW2 9225   3.417   1.638   2.074
 2847SOL     OW 9226   2.669   0.605   3.327
 2847SOL    HW1 9227   2.622   0.602   3.416
 2847SOL    HW2 9228   2.618   0.550   3.261
 2848SOL     OW 9229   3.256   0.469   3.536
 2848SOL    HW1 9230   3.236   0.512   3.624
 2848SOL    HW2 9231   3.334   0.407   3.545
 2849SOL     OW 9232   2.835   0.890   3.434
 2849SOL    HW1 9233   2.881   0.806   3.405
 2849SOL    HW2 9234   2.779   0.924   3.359
 2850SOL     OW 9235   2.853   0.410   3.104
 2850SOL    HW1 9236   2.776   0.444   3.158
 2850SOL    HW2 9237   2.819   0.359   3.025
 2851SOL     OW 9238   2.903   0.701   2.291
 2851SOL    HW1 9239   2.929   0.697   2.387
 2851SOL    HW2 9240   2.818   0.650   2.277
 2852SOL     OW 9241   1.938   0.811   2.651
 2852SOL    HW1 9242   2.037   0.799   2.660
 2852SOL    HW2 9243   1.914   0.906   2.672
 2853SOL     OW 9244   1.992   1.821   3.433
 2853SOL    HW1 9245   1.982   1.806   3.532
 2853SOL    HW2 9246   1.906   1.857   3.397
 2854SOL     OW 9247   2.727   0.348   2.057
 2854SOL    HW1 9248   2.786   0.411   2.008
 2854SOL    HW2 9249   2.746   0.254   2.028
 2855SOL     OW 9250   3.581   0.585   3.693
 2855SOL    HW1 9251   3.555   0.674   3.657
 2855SOL    HW2 9252   3.579   0.517   3.620
 2856SOL     OW 9253   3.224   1.144   2.407
 2856SOL    HW1 9254   3.307   1.115   2.359
 2856SOL    HW2 9255   3.175   1.211   2.351
 2857SOL     OW 9256   2.412   0.196   2.747
 2857SOL    HW1 9257   2.407   0.191   2.847
 2857SOL    HW2 9258   2.414   0.292   2.718
 2858SOL     OW 9259   2.870   1.456   2.339
 2858SOL    HW1 9260   2.824   1.528   2.287
 2858SOL    HW2 9261   2.866   1.476   2.437
 2859SOL     OW 9262   2.213   1.801   2.715
 2859SOL    HW1 9263   2.263   1.715   2.721
 2859SOL    HW2 9264   2.278   1.878   2.712
 2860SOL     OW 9265   3.657   1.066   2.735
 2860SOL    HW1 9266   3.595   1.051   2.659
 2860SOL    HW2 9267   3.605   1.077   2.820
 2861SOL     OW 9268   3.089   1.550   3.368
 2861SOL    HW1 9269   3.095   1.473   3.432
 2861SOL    HW2 9270   3.037   1.524   3.288
 2862SOL     OW 9271   2.183   0.943   2.104
 2862SOL    HW1 9272   2.265   0.982   2.062
 2862SOL    HW2 9273   2.156   0.861   2.055
 2863SOL     OW 9274   3.320   0.735   2.590
 2863SOL    HW1 9275   3.315   0.670   2.665
 2863SOL    HW2 9276   3.400   0.794   2.603
 2864SOL     OW 9277   2.323   1.266   3.589
 2864SOL    HW1 9278   2.273   1.267   3.503
 2864SOL    HW2 9279   2.260   1.248   3.665
 2865SOL     OW 9280   2.973   1.776   2.099
 2865SOL    HW1 9281   2.913   1.714   2.149
 2865SOL    HW2 9282   3.004   1.732   2.014
 2866SOL     OW 9283   2.064   0.285   3.360
 2866SOL    HW1 9284   1.984   0.345   3.347
 2866SOL    HW2 9285   2.054   0.236   3.446
 2867SOL     OW 9286   3.494   1.377   1.943
 2867SOL    HW1 9287   3.462   1.471   1.933
 2867SOL    HW2 9288   3.418   1.314   1.931
 2868SOL     OW 9289   2.326   1.743   2.185
 2868SOL    HW1 9290   2.359   1.782   2.271
 2868SOL    HW2 9291   2.402   1.736   2.120
 2869SOL     OW 9292   3.262   0.107   2.288
 2869SOL    HW1 9293   3.238   0.070   2.198
 2869SOL    HW2 9294   3.361   0.123   2.292
 2870SOL     OW 9295   2.111   1.785   3.103
 2870SOL    HW1 9296   2.168   1.720   3.153
 2870SOL    HW2 9297   2.095   1.752   3.010
 2871SOL     OW 9298   2.802   1.698   2.766
 2871SOL    HW1 9299   2.882   1.641   2.787
 2871SOL    HW2 9300   2.753   1.658   2.689
 2872SOL     OW 9301   2.244   0.700   2.342
 2872SOL    HW1 9302   2.289   0.610   2.339
 2872SOL    HW2 9303   2.150   0.689   2.375
 2873SOL     OW 9304   3.409   0.222   3.591
 2873SOL    HW1 9305   3.404   0.259   3.683
 2873SOL    HW2 9306   3.337   0.153   3.579
 2874SOL     OW 9307   2.476   0.122   1.979
 2874SOL    HW1 9308   2.574   0.100   1.986
 2874SOL    HW2 9309   2.445   0.105   1.886
 2875SOL     OW 9310   2.643   0.264   3.611
 2875SOL    HW1 9311   2.710   0.203   3.654
 2875SOL    HW2 9312   2.570   0.283   3.676
 2876SOL     OW 9313   2.750   1.514   3.057
 2876SOL    HW1 9314   2.727   1.489   2.963
 2876SOL    HW2 9315   2.811   1.445   3.096
 2877SOL     OW 9316   3.213   0.590   3.295
 2877SOL    HW1 9317   3.241   0.547   3.380
 2877SOL    HW2 9318   3.238   0.686   3.296
 2878SOL     OW 9319   2.665   1.402   2.786
 2878SOL    HW1 9320   2.755   1.416   2.744
 2878SOL    HW2 9321   2.594   1.404   2.715
 2879SOL     OW 9322   2.784   0.503   2.761
 2879SOL    HW1 9323   2.759   0.494   2.665
 2879SOL    HW2 9324   2.832   0.421   2.792
 2880SOL     OW 9325   2.401   0.064   2.374
 2880SOL    HW1 9326   2.320   0.065   2.432
 2880SOL    HW2 9327   2.404   0.147   2.319
 2881SOL     OW 9328   3.296   1.188   1.903
 2881SOL    HW1 9329   3.328   1.112   1.960
 2881SOL    HW2 9330   3.204   1.215   1.933
 2882SOL     OW 9331   2.159   0.035   2.033
 2882SOL    HW1 9332   2.208   0.119   2.012
 2882SOL    HW2 9333   2.221  -0.030   2.078
 2883SOL     OW 9334   2.797   0.236   2.342
 2883SOL    HW1 9335   2.749   0.277   2.264
 2883SOL    HW2 9336   2.896   0.234   2.323
 2884SOL     OW 9337   2.938   0.683   3.326
 2884SOL    HW1 9338   2.858   0.622   3.329
 2884SOL    HW2 9339   3.019   0.630   3.302
 2885SOL     OW 9340   3.089   1.570   2.655
 2885SOL    HW1 9341   3.110   1.644   2.590
 2885SOL    HW2 9342   3.157   1.570   2.728
 2886SOL     OW 9343   2.321   1.152   2.603
 2886SOL    HW1 9344   2.250   1.125   2.668
 2886SOL    HW2 9345   2.295   1.124   2.510
 2887SOL     OW 9346   3.133   1.797   2.453
 2887SOL    HW1 9347   3.177   1.861   2.389
 2887SOL    HW2 9348   3.083   1.849   2.523
 2888SOL     OW 9349   2.894   0.549   1.878
 2888SOL    HW1 9350   2.853   0.631   1.839
 2888SOL    HW2 9351   2.958   0.575   1.951
 2889SOL     OW 9352   1.940   0.556   3.248
 2889SOL    HW1 9353   2.032   0.555   3.207
 2889SOL    HW2 9354   1.934   0.630   3.315
 2890SOL     OW 9355   2.423   0.222   3.009
 2890SOL    HW1 9356   2.461   0.138   3.046
 2890SOL    HW2 9357   2.335   0.241   3.053
 2891SOL     OW 9358   2.728   0.454   2.504
 2891SOL    HW1 9359   2.696   0.526   2.442
 2891SOL    HW2 9360   2.752   0.373   2.451
 2892SOL     OW 9361   2.879   0.039   2.615
 2892SOL    HW1 9362   2.807   0.044   2.546
 2892SOL    HW2 9363   2.855  -0.030   2.684
 2893SOL     OW 9364   3.291   1.173   2.729
 2893SOL    HW1 9365   3.236   1.089   2.722
 2893SOL    HW2 9366   3.317   1.202   2.637
 2894SOL     OW 9367   3.328   0.590   2.854
 2894SOL    HW1 9368   3.298   0.495   2.861
 2894SOL    HW2 9369   3.401   0.606   2.920
 2895SOL     OW 9370   3.719   0.833   2.239
 2895SOL    HW1 9371   3.761   0.769   2.303
 2895SOL    HW2 9372   3.681   0.782   2.161
 2896SOL     OW 9373   2.350   1.385   2.036
 2896SOL    HW1 9374   2.263   1.370   2.083
 2896SOL    HW2 9375   2.333   1.411   1.941
 2897SOL     OW 9376   3.526   1.280   2.519
 2897SOL    HW1 9377   3.625   1.288   2.533
 2897SOL    HW2 9378   3.481   1.364   2.550
 2898SOL     OW 9379   3.252   0.575   1.940
 2898SOL    HW1 9380   3.198   0.554   2.021
 2898SOL    HW2 9381   3.343   0.534   1.949
 2899SOL     OW 9382   2.389   0.256   2.190
 2899SOL    HW1 9383   2.416   0.197   2.115
 2899SOL    HW2 9384   2.389   0.351   2.159
 2900SOL     OW 9385   3.616   1.223   3.450
 2900SOL    HW1 9386   3.707   1.184   3.437
 2900SOL    HW2 9387   3.624   1.319   3.474
 2901SOL     OW 9388   2.926   1.347   3.202
 2901SOL    HW1 9389   2.846   1.324   3.257
 2901SOL    HW2 9390   3.009   1.321   3.251
 2902SOL     OW 9391   3.454   1.629   3.487
 2902SOL    HW1 9392   3.481   1.663   3.397
 2902SOL    HW2 9393   3.533   1.591   3.533
 2903SOL     OW 9394   2.973   1.195   2.962
 2903SOL    HW1 9395   2.933   1.239   3.043
 2903SOL    HW2 9396   2.932   1.232   2.879
 2904SOL     OW 9397   3.500   1.099   2.941
 2904SOL    HW1 9398   3.505   1.180   3.000
 2904SOL    HW2 9399   3.414   1.101   2.890
 2905SOL     OW 9400   2.777   0.089   3.264
 2905SOL    HW1 9401   2.802   0.069   3.169
 2905SOL    HW2 9402   2.849   0.145   3.306
 2906SOL     OW 9403   2.842   1.116   3.581
 2906SOL    HW1 9404   2.743   1.122   3.591
 2906SOL    HW2 9405   2.865   1.036   3.525
 2907SOL     OW 9406   2.567   1.050   2.230
 2907SOL    HW1 9407   2.553   1.057   2.329
 2907SOL    HW2 9408   2.651   0.999   2.212
 2908SOL     OW 9409   2.272   0.813   3.113
 2908SOL    HW1 9410   2.358   0.825   3.163
 2908SOL    HW2 9411   2.230   0.726   3.140
 2909SOL     OW 9412   3.136   0.386   3.124
 2909SOL    HW1 9413   3.157   0.460   3.188
 2909SOL    HW2 9414   3.047   0.403   3.081
 2910SOL     OW 9415   1.926   1.564   3.193
 2910SOL    HW1 9416   1.880   1.646   3.159
 2910SOL    HW2 9417   2.024   1.583   3.202
 2911SOL     OW 9418   2.229   1.100   2.363
 2911SOL    HW1 9419   2.222   1.183   2.307
 2911SOL    HW2 9420   2.233   1.020   2.303
 2912SOL     OW 9421   2.428   0.537   2.727
 2912SOL    HW1 9422   2.440   0.603   2.653
 2912SOL    HW2 9423   2.474   0.571   2.810
 2913SOL     OW 9424   3.114   1.348   2.250
 2913SOL    HW1 9425   3.164   1.425   2.290
 2913SOL    HW2 9426   3.019   1.350   2.282
 2914SOL     OW 9427   3.134   1.445   3.004
 2914SOL    HW1 9428   3.181   1.458   3.091
 2914SOL    HW2 9429   3.068   1.371   3.013
 2915SOL     OW 9430   3.444   0.639   2.334
 2915SOL    HW1 9431   3.413   0.700   2.407
 2915SOL    HW2 9432   3.494   0.691   2.265
 2916SOL     OW 9433   2.216   1.510   3.191
 2916SOL    HW1 9434   2.195   1.466   3.104
 2916SOL    HW2 9435   2.313   1.536   3.194
 2917SOL     OW 9436   2.264   0.751   3.460
 2917SOL    HW1 9437   2.332   0.806   3.413
 2917SOL    HW2 9438   2.304   0.663   3.487
 2918SOL     OW 9439   3.449   0.779   3.532
 2918SOL    HW1 9440   3.357   0.817   3.527
 2918SOL    HW2 9441   3.509   0.826   3.467
 2919SOL     OW 9442   2.875   0.105   3.632
 2919SOL    HW1 9443   2.881   0.190   3.580
 2919SOL    HW2 9444   2.907   0.029   3.575
 2920SOL     OW 9445   2.366   0.050   3.602
 2920SOL    HW1 9446   2.324  -0.007   3.532
 2920SOL    HW2 9447   2.300   0.119   3.634
 2921SOL     OW 9448   2.435   0.870   2.891
 2921SOL    HW1 9449   2.479   0.959   2.882
 2921SOL    HW2 9450   2.372   0.870   2.968
 2922SOL     OW 9451   3.222   0.862   2.907
 2922SOL    HW1 9452   3.147   0.862   2.841
 2922SOL    HW2 9453   3.259   0.770   2.916
 2923SOL     OW 9454   3.071   0.525   2.137
 2923SOL    HW1 9455   3.084   0.441   2.191
 2923SOL    HW2 9456   3.042   0.599   2.197
 2924SOL     OW 9457   2.169   0.213   3.093
 2924SOL    HW1 9458   2.146   0.250   3.183
 2924SOL    HW2 9459   2.139   0.118   3.087
 2925SOL     OW 9460   1.899   1.310   3.144
 2925SOL    HW1 9461   1.952   1.261   3.212
 2925SOL    HW2 9462   1.921   1.408   3.149
 2926SOL     OW 9463   2.594   0.634   2.926
 2926SOL    HW1 9464   2.653   0.608   2.850
 2926SOL    HW2 9465   2.566   0.730   2.915
 2927SOL     OW 9466   3.590   0.935   3.716
 2927SOL    HW1 9467   3.544   0.928   3.627
 2927SOL    HW2 9468   3.528   0.979   3.782
 2928SOL     OW 9469   2.169   0.063   2.480
 2928SOL    HW1 9470   2.158   0.157   2.513
 2928SOL    HW2 9471   2.164   0.000   2.557
 2929SOL     OW 9472   3.484   0.367   2.236
 2929SOL    HW1 9473   3.486   0.291   2.300
 2929SOL    HW2 9474   3.436   0.444   2.276
 2930SOL     OW 9475   2.885   0.766   2.828
 2930SOL    HW1 9476   2.900   0.787   2.924
 2930SOL    HW2 9477   2.855   0.671   2.819
 2931SOL     OW 9478   2.842   1.573   3.562
 2931SOL    HW1 9479   2.822   1.617   3.474
 2931SOL    HW2 9480   2.881   1.482   3.546
 2932SOL     OW 9481   3.721   1.518   3.467
 2932SOL    HW1 9482   3.735   1.545   3.372
 2932SOL    HW2 9483   3.804   1.540   3.520
 2933SOL     OW 9484   2.212   0.898   3.666
 2933SOL    HW1 9485   2.288   0.942   3.714
 2933SOL    HW2 9486   2.247   0.851   3.584
 2934SOL     OW 9487   3.402   0.274   1.987
 2934SOL    HW1 9488   3.341   0.199   2.010
 2934SOL    HW2 9489   3.424   0.326   2.070
 2935SOL     OW 9490   3.165   0.838   1.904
 2935SOL    HW1 9491   3.199   0.745   1.919
 2935SOL    HW2 9492   3.183   0.865   1.809
 2936SOL     OW 9493   2.930   1.333   2.711
 2936SOL    HW1 9494   2.937   1.249   2.656
 2936SOL    HW2 9495   2.992   1.402   2.675
 2937SOL     OW 9496   2.181   0.810   2.811
 2937SOL    HW1 9497   2.274   0.846   2.816
 2937SOL    HW2 9498   2.175   0.725   2.863
 2938SOL     OW 9499   2.201   0.509   2.868
 2938SOL    HW1 9500   2.149   0.426   2.851
 2938SOL    HW2 9501   2.278   0.514   2.804
 2939SOL     OW 9502   3.000   0.380   3.540
 2939SOL    HW1 9503   2.955   0.443   3.604
 2939SOL    HW2 9504   3.093   0.411   3.523
 2940SOL     OW 9505   3.022   0.207   3.339
 2940SOL    HW1 9506   3.022   0.271   3.416
 2940SOL    HW2 9507   3.050   0.255   3.256
 2941SOL     OW 9508   1.870   1.326   2.062
 2941SOL    HW1 9509   1.777   1.347   2.031
 2941SOL    HW2 9510   1.880   1.227   2.075
 2942SOL     OW 9511   1.950   1.801   2.789
 2942SOL    HW1 9512   1.908   1.715   2.762
 2942SOL    HW2 9513   2.044   1.804   2.755
 2943SOL     OW 9514   2.366   1.568   2.772
 2943SOL    HW1 9515   2.432   1.642   2.781
 2943SOL    HW2 9516   2.410   1.489   2.730
 2944SOL     OW 9517   2.864   0.796   3.100
 2944SOL    HW1 9518   2.905   0.764   3.186
 2944SOL    HW2 9519   2.768   0.769   3.097
 2945SOL     OW 9520   1.902   0.544   2.976
 2945SOL    HW1 9521   1.987   0.511   2.935
 2945SOL    HW2 9522   1.915   0.559   3.074
 2946SOL     OW 9523   2.051   0.520   3.584
 2946SOL    HW1 9524   2.110   0.480   3.514
 2946SOL    HW2 9525   1.993   0.591   3.543
 2947SOL     OW 9526   3.231   0.950   3.522
 2947SOL    HW1 9527   3.270   1.039   3.542
 2947SOL    HW2 9528   3.241   0.930   3.425
 2948SOL     OW 9529   2.677   0.572   2.187
 2948SOL    HW1 9530   2.684   0.483   2.141
 2948SOL    HW2 9531   2.583   0.606   2.179
 2949SOL     OW 9532   3.519   0.604   3.068
 2949SOL    HW1 9533   3.481   0.535   3.130
 2949SOL    HW2 9534   3.601   0.568   3.024
 2950SOL     OW 9535   2.114   1.564   3.606
 2950SOL    HW1 9536   2.084   1.621   3.682
 2950SOL    HW2 9537   2.107   1.467   3.632
 2951SOL     OW 9538   2.533   0.464   3.131
 2951SOL    HW1 9539   2.499   0.375   3.101
 2951SOL    HW2 9540   2.559   0.518   3.051
 2952SOL     OW 9541   2.792   1.678   3.327
 2952SOL    HW1 9542   2.768   1.660   3.232
 2952SOL    HW2 9543   2.822   1.772   3.337
 2953SOL     OW 9544   2.335   0.500   2.053
 2953SOL    HW1 9545   2.396   0.580   2.057
 2953SOL    HW2 9546   2.240   0.531   2.060
 2954SOL     OW 9547   2.021   1.137   3.328
 2954SOL    HW1 9548   2.043   1.076   3.404
 2954SOL    HW2 9549   2.031   1.088   3.242
 2955SOL     OW 9550   3.209   1.059   3.096
 2955SOL    HW1 9551   3.233   0.996   3.022
 2955SOL    HW2 9552   3.119   1.099   3.078
 2956SOL     OW 9553   3.164   0.855   2.171
 2956SOL    HW1 9554   3.078   0.824   2.213
 2956SOL    HW2 9555   3.160   0.841   2.072
 2957SOL     OW 9556   3.621   1.747   3.016
 2957SOL    HW1 9557   3.682   1.777   2.943
 2957SOL    HW2 9558   3.583   1.658   2.994
 2958SOL     OW 9559   3.114   1.731   2.990
 2958SOL    HW1 9560   3.198   1.736   2.936
 2958SOL    HW2 9561   3.091   1.635   3.008
 2959SOL     OW 9562   1.945   1.258   2.884
 2959SOL    HW1 9563   1.940   1.257   2.984
 2959SOL    HW2 9564   1.862   1.217   2.846
 2960SOL     OW 9565   2.550   1.662   3.578
 2960SOL    HW1 9566   2.494   1.743   3.587
 2960SOL    HW2 9567   2.602   1.666   3.492
 2961SOL     OW 9568   3.588   0.135   2.385
 2961SOL    HW1 9569   3.661   0.118   2.318
 2961SOL    HW2 9570   3.557   0.048   2.423
 2962SOL     OW 9571   3.250   1.573   2.339
 2962SOL    HW1 9572   3.317   1.585   2.265
 2962SOL    HW2 9573   3.210   1.662   2.362
 2963SOL     OW 9574   1.992   1.794   3.713
 2963SOL    HW1 9575   1.951   1.720   3.766
 2963SOL    HW2 9576   2.056   1.845   3.771
 2964SOL     OW 9577   3.142   0.927   2.534
 2964SOL    HW1 9578   3.202   0.846   2.536
 2964SOL    HW2 9579   3.182   0.996   2.474
 2965SOL     OW 9580   2.692   1.273   3.284
 2965SOL    HW1 9581   2.687   1.306   3.379
 2965SOL    HW2 9582   2.606   1.292   3.238
 2966SOL     OW 9583   2.534   1.616   2.016
 2966SOL    HW1 9584   2.543   1.626   1.917
 2966SOL    HW2 9585   2.494   1.527   2.037
 2967SOL     OW 9586   3.512   1.720   3.256
 2967SOL    HW1 9587   3.565   1.730   3.172
 2967SOL    HW2 9588   3.485   1.810   3.290
 2968SOL     OW 9589   3.703   0.175   2.825
 2968SOL    HW1 9590   3.742   0.090   2.789
 2968SOL    HW2 9591   3.605   0.177   2.806
 2969SOL     OW 9592   2.125   0.326   2.582
 2969SOL    HW1 9593   2.046   0.377   2.548
 2969SOL    HW2 9594   2.116   0.311   2.680
 2970SOL     OW 9595   3.056   1.612   1.893
 2970SOL    HW1 9596   3.062   1.519   1.930
 2970SOL    HW2 9597   2.997   1.612   1.813
 2971SOL     OW 9598   2.684   1.002   3.234
 2971SOL    HW1 9599   2.724   1.001   3.142
 2971SOL    HW2 9600   2.694   1.094   3.274
 2972SOL     OW 9601   2.778   0.910   2.153
 2972SOL    HW1 9602   2.841   0.948   2.085
 2972SOL    HW2 9603   2.818   0.827   2.192
 2973SOL     OW 9604   3.366   1.607   1.906
 2973SOL    HW1 9605   3.274   1.644   1.913
 2973SOL    HW2 9606   3.404   1.627   1.816
 2974SOL     OW 9607   2.234   1.288   3.352
 2974SOL    HW1 9608   2.221   1.381   3.318
 2974SOL    HW2 9609   2.150   1.236   3.339
 2975SOL     OW 9610   3.476   1.292   3.151
 2975SOL    HW1 9611   3.536   1.295   3.231
 2975SOL    HW2 9612   3.401   1.356   3.164
 2976SOL     OW 9613   2.901   1.098   2.558
 2976SOL    HW1 9614   2.831   1.051   2.612
 2976SOL    HW2 9615   2.960   1.030   2.515
 2977SOL     OW 9616   2.876   0.236   2.833
 2977SOL    HW1 9617   2.868   0.200   2.740
 2977SOL    HW2 9618   2.874   0.160   2.898
 2978SOL     OW 9619   2.452   1.487   2.353
 2978SOL    HW1 9620   2.494   1.429   2.283
 2978SOL    HW2 9621   2.408   1.566   2.309
 2979SOL     OW 9622   3.571   0.385   3.243
 2979SOL    HW1 9623   3.644   0.454   3.247
 2979SOL    HW2 9624   3.599   0.310   3.184
 2980SOL     OW 9625   2.117   1.348   2.152
 2980SOL    HW1 9626   2.021   1.349   2.125
 2980SOL    HW2 9627   2.129   1.401   2.236
 2981SOL     OW 9628   1.967   1.013   3.588
 2981SOL    HW1 9629   1.890   0.980   3.642
 2981SOL    HW2 9630   2.052   0.983   3.630
 2982SOL     OW 9631   2.534   0.203   3.351
 2982SOL    HW1 9632   2.624   0.187   3.311
 2982SOL    HW2 9633   2.542   0.208   3.450
 2983SOL     OW 9634   1.937   0.345   1.895
 2983SOL    HW1 9635   1.845   0.317   1.866
 2983SOL    HW2 9636   1.968   0.422   1.839
 2984SOL     OW 9637   3.302   0.856   3.260
 2984SOL    HW1 9638   3.245   0.908   3.197
 2984SOL    HW2 9639   3.398   0.868   3.236
 2985SOL     OW 9640   1.934   0.166   2.180
 2985SOL    HW1 9641   1.917   0.249   2.126
 2985SOL    HW2 9642   2.024   0.129   2.158
 2986SOL     OW 9643   3.045   1.335   1.981
 2986SOL    HW1 9644   2.946   1.324   1.983
 2986SOL    HW2 9645   3.079   1.350   2.074
 2987SOL     OW 9646   2.475   0.842   3.293
 2987SOL    HW1 9647   2.531   0.923   3.276
 2987SOL    HW2 9648   2.534   0.762   3.296
 2988SOL     OW 9649   3.355   1.767   2.821
 2988SOL    HW1 9650   3.388   1.831   2.752
 2988SOL    HW2 9651   3.421   1.761   2.896
 2989SOL     OW 9652   2.578   0.565   3.570
 2989SOL    HW1 9653   2.597   0.630   3.644
 2989SOL    HW2 9654   2.638   0.485   3.579
 2990SOL     OW 9655   3.312   1.220   3.495
 2990SOL    HW1 9656   3.303   1.210   3.594
 2990SOL    HW2 9657   3.408   1.213   3.469
 2991SOL     OW 9658   2.252   1.741   3.422
 2991SOL    HW1 9659   2.161   1.782   3.420
 2991SOL    HW2 9660   2.245   1.647   3.454
 2992SOL     OW 9661   3.536   0.883   3.116
 2992SOL    HW1 9662   3.509   0.794   3.079
 2992SOL    HW2 9663   3.537   0.951   3.043
 2993SOL     OW 9664   3.087   0.325   2.311
 2993SOL    HW1 9665   3.152   0.251   2.300
 2993SOL    HW2 9666   3.107   0.375   2.395
 2994SOL     OW 9667   2.456   0.745   2.514
 2994SOL    HW1 9668   2.506   0.830   2.495
 2994SOL    HW2 9669   2.368   0.747   2.466
 2995SOL     OW 9670   3.639   0.342   3.504
 2995SOL    HW1 9671   3.622   0.373   3.410
 2995SOL    HW2 9672   3.555   0.305   3.542
 2996SOL     OW 9673   3.592   0.934   3.379
 2996SOL    HW1 9674   3.630   1.025   3.394
 2996SOL    HW2 9675   3.584   0.917   3.280
 2997SOL     OW 9676   2.721   1.374   1.878
 2997SOL    HW1 9677   2.675   1.389   1.966
 2997SOL    HW2 9678   2.765   1.459   1.848
 2998SOL     OW 9679   2.523   1.790   2.815
 2998SOL    HW1 9680   2.477   1.878   2.802
 2998SOL    HW2 9681   2.622   1.802   2.808
 2999SOL     OW 9682   2.721   0.956   2.723
 2999SOL    HW1 9683   2.775   0.887   2.771
 2999SOL    HW2 9684   2.689   1.025   2.789
 3000SOL     OW 9685   2.945   0.984   1.949
 3000SOL    HW1 9686   2.922   1.037   1.867
 3000SOL    HW2 9687   3.026   0.928   1.930
 3001SOL     OW 9688   3.723   1.569   2.713
 3001SOL    HW1 9689   3.652   1.557   2.643
 3001SOL    HW2 9690   3.724   1.490   2.773
 3002SOL     OW 9691   2.083   1.314   3.706
 3002SOL    HW1 9692   2.018   1.241   3.685
 3002SOL    HW2 9693   2.087   1.328   3.804
 3003SOL     OW 9694   1.941   1.240   2.515
 3003SOL    HW1 9695   1.940   1.193   2.603
 3003SOL    HW2 9696   2.023   1.212   2.464
 3004SOL     OW 9697   2.534   1.391   3.486
 3004SOL    HW1 9698   2.456   1.341   3.524
 3004SOL    HW2 9699   2.531   1.486   3.517
 3005SOL     OW 9700   3.686   0.192   3.089
 3005SOL    HW1 9701   3.682   0.102   3.133
 3005SOL    HW2 9702   3.689   0.181   2.990
 3006SOL     OW 9703   2.290   0.424   2.382
 3006SOL    HW1 9704   2.320   0.352   2.320
 3006SOL    HW2 9705   2.251   0.384   2.465
 3007SOL     OW 9706   3.567   1.487   2.966
 3007SOL    HW1 9707   3.474   1.462   2.939
 3007SOL    HW2 9708   3.593   1.437   3.048
 3008SOL     OW 9709   2.179   0.547   3.142
 3008SOL    HW1 9710   2.217   0.488   3.214
 3008SOL    HW2 9711   2.219   0.521   3.054
 3009SOL     OW 9712   2.674   1.586   2.549
 3009SOL    HW1 9713   2.706   1.596   2.455
 3009SOL    HW2 9714   2.595   1.524   2.551
 3010SOL     OW 9715   3.286   0.214   2.974
 3010SOL    HW1 9716   3.338   0.149   3.029
 3010SOL    HW2 9717   3.237   0.277   3.035
 3011SOL     OW 9718   2.863   0.034   3.016
 3011SOL    HW1 9719   2.800  -0.038   2.985
 3011SOL    HW2 9720   2.956  -0.002   3.016
 3012SOL     OW 9721   2.632   1.330   2.163
 3012SOL    HW1 9722   2.586   1.243   2.180
 3012SOL    HW2 9723   2.723   1.327   2.204
 3013SOL     OW 9724   2.480   1.567   3.146
 3013SOL    HW1 9725   2.475   1.649   3.203
 3013SOL    HW2 9726   2.569   1.564   3.101
 3014SOL     OW 9727   3.214   0.052   2.030
 3014SOL    HW1 9728   3.249   0.011   1.946
 3014SOL    HW2 9729   3.124   0.014   2.050
 3015SOL     OW 9730   3.162   0.453   2.553
 3015SOL    HW1 9731   3.103   0.533   2.557
 3015SOL    HW2 9732   3.177   0.418   2.646
 3016SOL     OW 9733   3.455   0.221   2.744
 3016SOL    HW1 9734   3.371   0.220   2.798
 3016SOL    HW2 9735   3.457   0.304   2.688
 3017SOL     OW 9736   1.901   1.077   2.162
 3017SOL    HW1 9737   2.000   1.066   2.153
 3017SOL    HW2 9738   1.861   0.991   2.194
 3018SOL     OW 9739   2.737   1.646   2.199
 3018SOL    HW1 9740   2.660   1.611   2.145
 3018SOL    HW2 9741   2.705   1.717   2.261
 3019SOL     OW 9742   2.092   0.628   3.837
 3019SOL    HW1 9743   1.999   0.626   3.874
 3019SOL    HW2 9744   2.093   0.589   3.745
 3020SOL     OW 9745   2.087   0.275   4.720
 3020SOL    HW1 9746   2.122   0.258   4.812
 3020SOL    HW2 9747   1.999   0.230   4.708
 3021SOL     OW 9748   1.881   0.368   4.371
 3021SOL    HW1 9749   1.799   0.411   4.410
 3021SOL    HW2 9750   1.853   0.295   4.308
 3022SOL     OW 9751   2.431   1.275   4.889
 3022SOL    HW1 9752   2.338   1.268   4.852
 3022SOL    HW2 9753   2.442   1.364   4.933
 3023SOL     OW 9754   3.417   1.511   4.427
 3023SOL    HW1 9755   3.360   1.495   4.508
 3023SOL    HW2 9756   3.358   1.521   4.347
 3024SOL     OW 9757   2.997   0.703   4.441
 3024SOL    HW1 9758   3.054   0.781   4.416
 3024SOL    HW2 9759   2.937   0.729   4.517
 3025SOL     OW 9760   3.617   0.607   3.955
 3025SOL    HW1 9761   3.605   0.594   3.856
 3025SOL    HW2 9762   3.587   0.526   4.004
 3026SOL     OW 9763   2.630   1.144   4.747
 3026SOL    HW1 9764   2.552   1.161   4.807
 3026SOL    HW2 9765   2.664   1.231   4.711
 3027SOL     OW 9766   2.712   0.798   5.547
 3027SOL    HW1 9767   2.708   0.874   5.612
 3027SOL    HW2 9768   2.734   0.834   5.456
 3028SOL     OW 9769   2.547   1.012   4.389
 3028SOL    HW1 9770   2.616   0.996   4.459
 3028SOL    HW2 9771   2.474   1.069   4.427
 3029SOL     OW 9772   2.548   1.161   5.527
 3029SOL    HW1 9773   2.608   1.240   5.541
 3029SOL    HW2 9774   2.462   1.192   5.486
 3030SOL     OW 9775   2.197   1.435   4.785
 3030SOL    HW1 9776   2.119   1.404   4.732
 3030SOL    HW2 9777   2.255   1.493   4.728
 3031SOL     OW 9778   3.322   1.505   5.063
 3031SOL    HW1 9779   3.346   1.599   5.089
 3031SOL    HW2 9780   3.306   1.451   5.145
 3032SOL     OW 9781   2.300   0.392   5.223
 3032SOL    HW1 9782   2.382   0.336   5.232
 3032SOL    HW2 9783   2.219   0.334   5.227
 3033SOL     OW 9784   3.465   0.447   4.461
 3033SOL    HW1 9785   3.391   0.493   4.411
 3033SOL    HW2 9786   3.516   0.515   4.514
 3034SOL     OW 9787   2.093   1.713   4.207
 3034SOL    HW1 9788   2.127   1.790   4.261
 3034SOL    HW2 9789   2.137   1.713   4.117
 3035SOL     OW 9790   2.989   1.341   5.414
 3035SOL    HW1 9791   3.036   1.341   5.502
 3035SOL    HW2 9792   2.941   1.254   5.403
 3036SOL     OW 9793   2.092   1.434   4.262
 3036SOL    HW1 9794   2.066   1.530   4.262
 3036SOL    HW2 9795   2.021   1.380   4.307
 3037SOL     OW 9796   2.102   1.091   4.610
 3037SOL    HW1 9797   2.116   1.007   4.662
 3037SOL    HW2 9798   2.047   1.155   4.665
 3038SOL     OW 9799   2.482   1.786   5.163
 3038SOL    HW1 9800   2.390   1.769   5.198
 3038SOL    HW2 9801   2.510   1.878   5.189
 3039SOL     OW 9802   2.468   0.964   3.847
 3039SOL    HW1 9803   2.475   1.048   3.793
 3039SOL    HW2 9804   2.514   0.977   3.935
 3040SOL     OW 9805   3.456   0.114   5.204
 3040SOL    HW1 9806   3.438   0.181   5.132
 3040SOL    HW2 9807   3.453   0.160   5.293
 3041SOL     OW 9808   1.984   0.643   4.287
 3041SOL    HW1 9809   1.939   0.555   4.304
 3041SOL    HW2 9810   1.983   0.697   4.371
 3042SOL     OW 9811   3.704   1.767   4.083
 3042SOL    HW1 9812   3.758   1.738   4.163
 3042SOL    HW2 9813   3.734   1.857   4.054
 3043SOL     OW 9814   1.889   1.596   3.841
 3043SOL    HW1 9815   1.870   1.500   3.862
 3043SOL    HW2 9816   1.856   1.654   3.916
 3044SOL     OW 9817   3.551   0.922   4.336
 3044SOL    HW1 9818   3.646   0.893   4.344
 3044SOL    HW2 9819   3.543   0.987   4.261
 3045SOL     OW 9820   3.503   1.108   4.156
 3045SOL    HW1 9821   3.589   1.110   4.104
 3045SOL    HW2 9822   3.517   1.155   4.244
 3046SOL     OW 9823   1.975   0.737   5.321
 3046SOL    HW1 9824   2.063   0.724   5.366
 3046SOL    HW2 9825   1.962   0.834   5.299
 3047SOL     OW 9826   2.475   1.365   4.450
 3047SOL    HW1 9827   2.426   1.278   4.459
 3047SOL    HW2 9828   2.452   1.408   4.363
 3048SOL     OW 9829   3.155   1.228   5.147
 3048SOL    HW1 9830   3.192   1.155   5.089
 3048SOL    HW2 9831   3.207   1.233   5.232
 3049SOL     OW 9832   2.671   0.004   4.226
 3049SOL    HW1 9833   2.711   0.095   4.217
 3049SOL    HW2 9834   2.571   0.012   4.232
 3050SOL     OW 9835   2.059   0.976   4.988
 3050SOL    HW1 9836   2.148   0.931   4.974
 3050SOL    HW2 9837   1.986   0.911   4.969
 3051SOL     OW 9838   3.387   0.999   3.914
 3051SOL    HW1 9839   3.324   0.923   3.927
 3051SOL    HW2 9840   3.435   1.017   4.000
 3052SOL     OW 9841   3.049   1.792   5.340
 3052SOL    HW1 9842   3.073   1.852   5.264
 3052SOL    HW2 9843   3.056   1.697   5.310
 3053SOL     OW 9844   2.179   0.251   5.525
 3053SOL    HW1 9845   2.250   0.322   5.531
 3053SOL    HW2 9846   2.091   0.290   5.553
 3054SOL     OW 9847   3.328   1.417   4.677
 3054SOL    HW1 9848   3.269   1.423   4.757
 3054SOL    HW2 9849   3.313   1.329   4.631
 3055SOL     OW 9850   3.529   1.714   4.296
 3055SOL    HW1 9851   3.488   1.691   4.208
 3055SOL    HW2 9852   3.511   1.640   4.361
 3056SOL     OW 9853   2.460   0.729   3.994
 3056SOL    HW1 9854   2.484   0.798   3.926
 3056SOL    HW2 9855   2.382   0.762   4.048
 3057SOL     OW 9856   3.143   0.345   4.668
 3057SOL    HW1 9857   3.057   0.295   4.655
 3057SOL    HW2 9858   3.205   0.291   4.724
 3058SOL     OW 9859   3.438   1.662   4.031
 3058SOL    HW1 9860   3.527   1.708   4.034
 3058SOL    HW2 9861   3.417   1.638   3.936
 3059SOL     OW 9862   2.669   0.605   5.189
 3059SOL    HW1 9863   2.622   0.602   5.278
 3059SOL    HW2 9864   2.618   0.550   5.123
 3060SOL     OW 9865   3.256   0.469   5.398
 3060SOL    HW1 9866   3.236   0.512   5.486
 3060SOL    HW2 9867   3.334   0.407   5.407
 3061SOL     OW 9868   2.835   0.890   5.296
 3061SOL    HW1 9869   2.881   0.806   5.267
 3061SOL    HW2 9870   2.779   0.924   5.221
 3062SOL     OW 9871   2.853   0.410   4.966
 3062SOL    HW1 9872   2.776   0.444   5.020
 3062SOL    HW2 9873   2.819   0.359   4.887
 3063SOL     OW 9874   2.903   0.701   4.153
 3063SOL    HW1 9875   2.929   0.697   4.249
 3063SOL    HW2 9876   2.818   0.650   4.139
 3064SOL     OW 9877   1.938   0.811   4.513
 3064SOL    HW1 9878   2.037   0.799   4.522
 3064SOL    HW2 9879   1.914   0.906   4.534
 3065SOL     OW 9880   1.992   1.821   5.295
 3065SOL    HW1 9881   1.982   1.806   5.394
 3065SOL    HW2 9882   1.906   1.857   5.259
 3066SOL     OW 9883   2.727   0.348   3.919
 3066SOL    HW1 9884   2.786   0.411   3.870
 3066SOL    HW2 9885   2.746   0.254   3.890
 3067SOL     OW 9886   3.581   0.585   5.555
 3067SOL    HW1 9887   3.555   0.674   5.519
 3067SOL    HW2 9888   3.579   0.517   5.482
 3068SOL     OW 9889   3.224   1.144   4.269
 3068SOL    HW1 9890   3.307   1.115   4.221
 3068SOL    HW2 9891   3.175   1.211   4.213
 3069SOL     OW 9892   2.412   0.196   4.609
 3069SOL    HW1 9893   2.407   0.191   4.709
 3069SOL    HW2 9894   2.414   0.292   4.580
 3070SOL     OW 9895   2.870   1.456   4.201
 3070SOL    HW1 9896   2.824   1.528   4.149
 3070SOL    HW2 9897   2.866   1.476   4.299
 3071SOL     OW 9898   3.657   1.066   4.597
 3071SOL    HW1 9899   3.595   1.051   4.521
 3071SOL    HW2 9900   3.605   1.077   4.682
 3072SOL     OW 9901   3.089   1.550   5.230
 3072SOL    HW1 9902   3.095   1.473   5.294
 3072SOL    HW2 9903   3.037   1.524   5.150
 3073SOL     OW 9904   2.183   0.943   3.966
 3073SOL    HW1 9905   2.265   0.982   3.924
 3073SOL    HW2 9906   2.156   0.861   3.917
 3074SOL     OW 9907   3.320   0.735   4.452
 3074SOL    HW1 9908   3.315   0.670   4.527
 3074SOL    HW2 9909   3.400   0.794   4.465
 3075SOL     OW 9910   2.323   1.266   5.451
 3075SOL    HW1 9911   2.273   1.267   5.365
 3075SOL    HW2 9912   2.260   1.248   5.527
 3076SOL     OW 9913   2.973   1.776   3.961
 3076SOL    HW1 9914   2.913   1.714   4.011
 3076SOL    HW2 9915   3.004   1.732   3.876
 3077SOL     OW 9916   2.064   0.285   5.222
 3077SOL    HW1 9917   1.984   0.345   5.209
 3077SOL    HW2 9918   2.054   0.236   5.308
 3078SOL     OW 9919   3.494   1.377   3.805
 3078SOL    HW1 9920   3.462   1.471   3.795
 3078SOL    HW2 9921   3.418   1.314   3.793
 3079SOL     OW 9922   2.326   1.743   4.047
 3079SOL    HW1 9923   2.359   1.782   4.133
 3079SOL    HW2 9924   2.402   1.736   3.982
 3080SOL     OW 9925   3.262   0.107   4.150
 3080SOL    HW1 9926   3.238   0.070   4.060
 3080SOL    HW2 9927   3.361   0.123   4.154
 3081SOL     OW 9928   2.111   1.785   4.965
 3081SOL    HW1 9929   2.168   1.720   5.015
 3081SOL    HW2 9930   2.095   1.752   4.872
 3082SOL     OW 9931   2.802   1.698   4.628
 3082SOL    HW1 9932   2.882   1.641   4.649
 3082SOL    HW2 9933   2.753   1.658   4.551
 3083SOL     OW 9934   2.244   0.700   4.204
 3083SOL    HW1 9935   2.289   0.610   4.201
 3083SOL    HW2 9936   2.150   0.689   4.237
 3084SOL     OW 9937   3.409   0.222   5.453
 3084SOL    HW1 9938   3.404   0.259   5.545
 3084SOL    HW2 9939   3.337   0.153   5.441
 3085SOL     OW 9940   2.476   0.122   3.841
 3085SOL    HW1 9941   2.574   0.100   3.848
 3085SOL    HW2 9942   2.445   0.105   3.748
 3086SOL     OW 9943   2.643   0.264   5.473
 3086SOL    HW1 9944   2.710   0.203   5.516
 3086SOL    HW2 9945   2.570   0.283   5.538
 3087SOL     OW 9946   2.750   1.514   4.919
 3087SOL    HW1 9947   2.727   1.489   4.825
 3087SOL    HW2 9948   2.811   1.445   4.958
 3088SOL     OW 9949   3.213   0.590   5.157
 3088SOL    HW1 9950   3.241   0.547   5.242
 3088SOL    HW2 9951   3.238   0.686   5.158
 3089SOL     OW 9952   2.665   1.402   4.648
 3089SOL    HW1 9953   2.755   1.416   4.606
 3089SOL    HW2 9954   2.594   1.404   4.577
 3090SOL     OW 9955   2.784   0.503   4.623
 3090SOL    HW1 9956   2.759   0.494   4.527
 3090SOL    HW2 9957   2.832   0.421   4.654
 3091SOL     OW 9958   2.401   0.064   4.236
 3091SOL    HW1 9959   2.320   0.065   4.294
 3091SOL    HW2 9960   2.404   0.147   4.181
 3092SOL     OW 9961   3.296   1.188   3.765
 3092SOL    HW1 9962   3.328   1.112   3.822
 3092SOL    HW2 9963   3.204   1.215   3.795
 3093SOL     OW 9964   2.159   0.035   3.895
 3093SOL    HW1 9965   2.208   0.119   3.874
 3093SOL    HW2 9966   2.221  -0.030   3.940
 3094SOL     OW 9967   2.797   0.236   4.204
 3094SOL    HW1 9968   2.749   0.277   4.126
 3094SOL    HW2 9969   2.896   0.234   4.185
 3095SOL     OW 9970   2.938   0.683   5.188
 3095SOL    HW1 9971   2.858   0.622   5.191
 3095SOL    HW2 9972   3.019   0.630   5.164
 3096SOL     OW 9973   3.089   1.570   4.517
 3096SOL    HW1 9974   3.110   1.644   4.452
 3096SOL    HW2 9975   3.157   1.570   4.590
 3097SOL     OW 9976   2.321   1.152   4.465
 3097SOL    HW1 9977   2.250   1.125   4.530
 3097SOL    HW2 9978   2.295   1.124   4.372
 3098SOL     OW 9979   2.894   0.549   3.740
 3098SOL    HW1 9980   2.853   0.631   3.701
 3098SOL    HW2 9981   2.958   0.575   3.813
 3099SOL     OW 9982   1.940   0.556   5.110
 3099SOL    HW1 9983   2.032   0.555   5.069
 3099SOL    HW2 9984   1.934   0.630   5.177
 3100SOL     OW 9985   2.423   0.222   4.871
 3100SOL    HW1 9986   2.461   0.138   4.908
 3100SOL    HW2 9987   2.335   0.241   4.915
 3101SOL     OW 9988   2.728   0.454   4.366
 3101SOL    HW1 9989   2.696   0.526   4.304
 3101SOL    HW2 9990   2.752   0.373   4.313
 3102SOL     OW 9991   2.879   0.039   4.477
 3102SOL    HW1 9992   2.807   0.044   4.408
 3102SOL    HW2 9993   2.855  -0.030   4.546
 3103SOL     OW 9994   3.291   1.173   4.591
 3103SOL    HW1 9995   3.236   1.089   4.584
 3103SOL    HW2 9996   3.317   1.202   4.499
 3104SOL     OW 9997   3.328   0.590   4.716
 3104SOL    HW1 9998   3.298   0.495   4.723
 3104SOL    HW2 9999   3.401   0.606   4.782
 3105SOL     OW10000   3.719   0.833   4.101
 3105SOL    HW110001   3.761   0.769   4.165
 3105SOL    HW210002   3.681   0.782   4.023
 3106SOL     OW10003   2.350   1.385   3.898
 3106SOL    HW110004   2.263   1.370   3.945
 3106SOL    HW210005   2.333   1.411   3.803
 3107SOL     OW10006   3.526   1.280   4.381
 3107SOL    HW110007   3.625   1.288   4.395
 3107SOL    HW210008   3.481   1.364   4.412
 3108SOL     OW10009   3.252   0.575   3.802
 3108SOL    HW110010   3.198   0.554   3.883
 3108SOL    HW210011   3.343   0.534   3.811
 3109SOL     OW10012   2.389   0.256   4.052
 3109SOL    HW110013   2.416   0.197   3.977
 3109SOL    HW210014   2.389   0.351   4.021
 3110SOL     OW10015   3.616   1.223   5.312
 3110SOL    HW110016   3.707   1.184   5.299
 3110SOL    HW210017   3.624   1.319   5.336
 3111SOL     OW10018   2.926   1.347   5.064
 3111SOL    HW110019   2.846   1.324   5.119
 3111SOL    HW210020   3.009   1.321   5.113
 3112SOL     OW10021   3.454   1.629   5.349
 3112SOL    HW110022   3.481   1.663   5.259
 3112SOL    HW210023   3.533   1.591   5.395
 3113SOL     OW10024   2.973   1.195   4.824
 3113SOL    HW110025   2.933   1.239   4.905
 3113SOL    HW210026   2.932   1.232   4.741
 3114SOL     OW10027   3.500   1.099   4.803
 3114SOL    HW110028   3.505   1.180   4.862
 3114SOL    HW210029   3.414   1.101   4.752
 3115SOL     OW10030   2.777   0.089   5.126
 3115SOL    HW110031   2.802   0.069   5.031
 3115SOL    HW210032   2.849   0.145   5.168
 3116SOL     OW10033   2.842   1.116   5.443
 3116SOL    HW110034   2.743   1.122   5.453
 3116SOL    HW210035   2.865   1.036   5.387
 3117SOL     OW10036   2.567   1.050   4.092
 3117SOL    HW110037   2.553   1.057   4.191
 3117SOL    HW210038   2.651   0.999   4.074
 3118SOL     OW10039   2.272   0.813   4.975
 3118SOL    HW110040   2.358   0.825   5.025
 3118SOL    HW210041   2.230   0.726   5.002
 3119SOL     OW10042   3.136   0.386   4.986
 3119SOL    HW110043   3.157   0.460   5.050
 3119SOL    HW210044   3.047   0.403   4.943
 3120SOL     OW10045   1.926   1.564   5.055
 3120SOL    HW110046   1.880   1.646   5.021
 3120SOL    HW210047   2.024   1.583   5.064
 3121SOL     OW10048   2.229   1.100   4.225
 3121SOL    HW110049   2.222   1.183   4.169
 3121SOL    HW210050   2.233   1.020   4.165
 3122SOL     OW10051   2.428   0.537   4.589
 3122SOL    HW110052   2.440   0.603   4.515
 3122SOL    HW210053   2.474   0.571   4.672
 3123SOL     OW10054   3.114   1.348   4.112
 3123SOL    HW110055   3.164   1.425   4.152
 3123SOL    HW210056   3.019   1.350   4.144
 3124SOL     OW10057   3.134   1.445   4.866
 3124SOL    HW110058   3.181   1.458   4.953
 3124SOL    HW210059   3.068   1.371   4.875
 3125SOL     OW10060   3.444   0.639   4.196
 3125SOL    HW110061   3.413   0.700   4.269
 3125SOL    HW210062   3.494   0.691   4.127
 3126SOL     OW10063   2.216   1.510   5.053
 3126SOL    HW110064   2.195   1.466   4.966
 3126SOL    HW210065   2.313   1.536   5.056
 3127SOL     OW10066   2.264   0.751   5.322
 3127SOL    HW110067   2.332   0.806   5.275
 3127SOL    HW210068   2.304   0.663   5.349
 3128SOL     OW10069   3.449   0.779   5.394
 3128SOL    HW110070   3.357   0.817   5.389
 3128SOL    HW210071   3.509   0.826   5.329
 3129SOL     OW10072   2.875   0.105   5.494
 3129SOL    HW110073   2.881   0.190   5.442
 3129SOL    HW210074   2.907   0.029   5.437
 3130SOL     OW10075   2.366   0.050   5.464
 3130SOL    HW110076   2.324  -0.007   5.394
 3130SOL    HW210077   2.300   0.119   5.496
 3131SOL     OW10078   2.435   0.870   4.753
 3131SOL    HW110079   2.479   0.959   4.744
 3131SOL    HW210080   2.372   0.870   4.830
 3132SOL     OW10081   3.222   0.862   4.769
 3132SOL    HW110082   3.147   0.862   4.703
 3132SOL    HW210083   3.259   0.770   4.778
 3133SOL     OW10084   3.071   0.525   3.999
 3133SOL    HW110085   3.084   0.441   4.053
 3133SOL    HW210086   3.042   0.599   4.059
 3134SOL     OW10087   2.169   0.213   4.955
 3134SOL    HW110088   2.146   0.250   5.045
 3134SOL    HW210089   2.139   0.118   4.949
 3135SOL     OW10090   1.899   1.310   5.006
 3135SOL    HW110091   1.952   1.261   5.074
 3135SOL    HW210092   1.921   1.408   5.011
 3136SOL     OW10093   2.594   0.634   4.788
 3136SOL    HW110094   2.653   0.608   4.712
 3136SOL    HW210095   2.566   0.730   4.777
 3137SOL     OW10096   3.590   0.935   5.578
 3137SOL    HW110097   3.544   0.928   5.489
 3137SOL    HW210098   3.528   0.979   5.644
 3138SOL     OW10099   2.169   0.063   4.342
 3138SOL    HW110100   2.158   0.157   4.375
 3138SOL    HW210101   2.164   0.000   4.419
 3139SOL     OW10102   3.484   0.367   4.098
 3139SOL    HW110103   3.486   0.291   4.162
 3139SOL    HW210104   3.436   0.444   4.138
 3140SOL     OW10105   2.885   0.766   4.690
 3140SOL    HW110106   2.900   0.787   4.786
 3140SOL    HW210107   2.855   0.671   4.681
 3141SOL     OW10108   2.842   1.573   5.424
 3141SOL    HW110109   2.822   1.617   5.336
 3141SOL    HW210110   2.881   1.482   5.408
 3142SOL     OW10111   3.721   1.518   5.329
 3142SOL    HW110112   3.735   1.545   5.234
 3142SOL    HW210113   3.804   1.540   5.382
 3143SOL     OW10114   2.212   0.898   5.528
 3143SOL    HW110115   2.288   0.942   5.576
 3143SOL    HW210116   2.247   0.851   5.446
 3144SOL     OW10117   3.402   0.274   3.849
 3144SOL    HW110118   3.341   0.199   3.872
 3144SOL    HW210119   3.424   0.326   3.932
 3145SOL     OW10120   3.165   0.838   3.766
 3145SOL    HW110121   3.199   0.745   3.781
 3145SOL    HW210122   3.183   0.865   3.671
 3146SOL     OW10123   2.930   1.333   4.573
 3146SOL    HW110124   2.937   1.249   4.518
 3146SOL    HW210125   2.992   1.402   4.537
 3147SOL     OW10126   2.181   0.810   4.673
 3147SOL    HW110127   2.274   0.846   4.678
 3147SOL    HW210128   2.175   0.725   4.725
 3148SOL     OW10129   2.201   0.509   4.730
 3148SOL    HW110130   2.149   0.426   4.713
 3148SOL    HW210131   2.278   0.514   4.666
 3149SOL     OW10132   3.000   0.380   5.402
 3149SOL    HW110133   2.955   0.443   5.466
 3149SOL    HW210134   3.093   0.411   5.385
 3150SOL     OW10135   3.022   0.207   5.201
 3150SOL    HW110136   3.022   0.271   5.278
 3150SOL    HW210137   3.050   0.255   5.118
 3151SOL     OW10138   1.870   1.326   3.924
 3151SOL    HW110139   1.777   1.347   3.893
 3151SOL    HW210140   1.880   1.227   3.937
 3152SOL     OW10141   2.366   1.568   4.634
 3152SOL    HW110142   2.432   1.642   4.643
 3152SOL    HW210143   2.410   1.489   4.592
 3153SOL     OW10144   2.864   0.796   4.962
 3153SOL    HW110145   2.905   0.764   5.048
 3153SOL    HW210146   2.768   0.769   4.959
 3154SOL     OW10147   1.902   0.544   4.838
 3154SOL    HW110148   1.987   0.511   4.797
 3154SOL    HW210149   1.915   0.559   4.936
 3155SOL     OW10150   2.051   0.520   5.446
 3155SOL    HW110151   2.110   0.480   5.376
 3155SOL    HW210152   1.993   0.591   5.405
 3156SOL     OW10153   3.231   0.950   5.384
 3156SOL    HW110154   3.270   1.039   5.404
 3156SOL    HW210155   3.241   0.930   5.287
 3157SOL     OW10156   2.677   0.572   4.049
 3157SOL    HW110157   2.684   0.483   4.003
 3157SOL    HW210158   2.583   0.606   4.041
 3158SOL     OW10159   3.519   0.604   4.930
 3158SOL    HW110160   3.481   0.535   4.992
 3158SOL    HW210161   3.601   0.568   4.886
 3159SOL     OW10162   2.114   1.564   5.468
 3159SOL    HW110163   2.084   1.621   5.544
 3159SOL    HW210164   2.107   1.467   5.494
 3160SOL     OW10165   2.533   0.464   4.993
 3160SOL    HW110166   2.499   0.375   4.963
 3160SOL    HW210167   2.559   0.518   4.913
 3161SOL     OW10168   2.792   1.678   5.189
 3161SOL    HW110169   2.768   1.660   5.094
 3161SOL    HW210170   2.822   1.772   5.199
 3162SOL     OW10171   2.335   0.500   3.915
 3162SOL    HW110172   2.396   0.580   3.919
 3162SOL    HW210173   2.240   0.531   3.922
 3163SOL     OW10174   2.021   1.137   5.190
 3163SOL    HW110175   2.043   1.076   5.266
 3163SOL    HW210176   2.031   1.088   5.104
 3164SOL     OW10177   3.209   1.059   4.958
 3164SOL    HW110178   3.233   0.996   4.884
 3164SOL    HW210179   3.119   1.099   4.940
 3165SOL     OW10180   3.164   0.855   4.033
 3165SOL    HW110181   3.078   0.824   4.075
 3165SOL    HW210182   3.160   0.841   3.934
 3166SOL     OW10183   3.621   1.747   4.878
 3166SOL    HW110184   3.682   1.777   4.805
 3166SOL    HW210185   3.583   1.658   4.856
 3167SOL     OW10186   3.114   1.731   4.852
 3167SOL    HW110187   3.198   1.736   4.798
 3167SOL    HW210188   3.091   1.635   4.870
 3168SOL     OW10189   1.945   1.258   4.746
 3168SOL    HW110190   1.940   1.257   4.846
 3168SOL    HW210191   1.862   1.217   4.708
 3169SOL     OW10192   2.550   1.662   5.440
 3169SOL    HW110193   2.494   1.743   5.449
 3169SOL    HW210194   2.602   1.666   5.354
 3170SOL     OW10195   3.588   0.135   4.247
 3170SOL    HW110196   3.661   0.118   4.180
 3170SOL    HW210197   3.557   0.048   4.285
 3171SOL     OW10198   3.250   1.573   4.201
 3171SOL    HW110199   3.317   1.585   4.127
 3171SOL    HW210200   3.210   1.662   4.224
 3172SOL     OW10201   1.992   1.794   5.575
 3172SOL    HW110202   1.951   1.720   5.628
 3172SOL    HW210203   2.056   1.845   5.633
 3173SOL     OW10204   3.142   0.927   4.396
 3173SOL    HW110205   3.202   0.846   4.398
 3173SOL    HW210206   3.182   0.996   4.336
 3174SOL     OW10207   2.692   1.273   5.146
 3174SOL    HW110208   2.687   1.306   5.241
 3174SOL    HW210209   2.606   1.292   5.100
 3175SOL     OW10210   2.534   1.616   3.878
 3175SOL    HW110211   2.543   1.626   3.779
 3175SOL    HW210212   2.494   1.527   3.899
 3176SOL     OW10213   3.512   1.720   5.118
 3176SOL    HW110214   3.565   1.730   5.034
 3176SOL    HW210215   3.485   1.810   5.152
 3177SOL     OW10216   3.703   0.175   4.687
 3177SOL    HW110217   3.742   0.090   4.651
 3177SOL    HW210218   3.605   0.177   4.668
 3178SOL     OW10219   2.125   0.326   4.444
 3178SOL    HW110220   2.046   0.377   4.410
 3178SOL    HW210221   2.116   0.311   4.542
 3179SOL     OW10222   3.056   1.612   3.755
 3179SOL    HW110223   3.062   1.519   3.792
 3179SOL    HW210224   2.997   1.612   3.675
 3180SOL     OW10225   2.684   1.002   5.096
 3180SOL    HW110226   2.724   1.001   5.004
 3180SOL    HW210227   2.694   1.094   5.136
 3181SOL     OW10228   2.778   0.910   4.015
 3181SOL    HW110229   2.841   0.948   3.947
 3181SOL    HW210230   2.818   0.827   4.054
 3182SOL     OW10231   3.366   1.607   3.768
 3182SOL    HW110232   3.274   1.644   3.775
 3182SOL    HW210233   3.404   1.627   3.678
 3183SOL     OW10234   2.234   1.288   5.214
 3183SOL    HW110235   2.221   1.381   5.180
 3183SOL    HW210236   2.150   1.236   5.201
 3184SOL     OW10237   3.476   1.292   5.013
 3184SOL    HW110238   3.536   1.295   5.093
 3184SOL    HW210239   3.401   1.356   5.026
 3185SOL     OW10240   2.901   1.098   4.420
 3185SOL    HW110241   2.831   1.051   4.474
 3185SOL    HW210242   2.960   1.030   4.377
 3186SOL     OW10243   2.876   0.236   4.695
 3186SOL    HW110244   2.868   0.200   4.602
 3186SOL    HW210245   2.874   0.160   4.760
 3187SOL     OW10246   2.452   1.487   4.215
 3187SOL    HW110247   2.494   1.429   4.145
 3187SOL    HW210248   2.408   1.566   4.171
 3188SOL     OW10249   3.571   0.385   5.105
 3188SOL    HW110250   3.644   0.454   5.109
 3188SOL    HW210251   3.599   0.310   5.046
 3189SOL     OW10252   2.117   1.348   4.014
 3189SOL    HW110253   2.021   1.349   3.987
 3189SOL    HW210254   2.129   1.401   4.098
 3190SOL     OW10255   1.967   1.013   5.450
 3190SOL    HW110256   1.890   0.980   5.504
 3190SOL    HW210257   2.052   0.983   5.492
 3191SOL     OW10258   2.534   0.203   5.213
 3191SOL    HW110259   2.624   0.187   5.173
 3191SOL    HW210260   2.542   0.208   5.312
 3192SOL     OW10261   1.937   0.345   3.757
 3192SOL    HW110262   1.845   0.317   3.728
 3192SOL    HW210263   1.968   0.422   3.701
 3193SOL     OW10264   3.302   0.856   5.122
 3193SOL    HW110265   3.245   0.908   5.059
 3193SOL    HW210266   3.398   0.868   5.098
 3194SOL     OW10267   1.934   0.166   4.042
 3194SOL    HW110268   1.917   0.249   3.988
 3194SOL    HW210269   2.024   0.129   4.020
 3195SOL     OW10270   3.045   1.335   3.843
 3195SOL    HW110271   2.946   1.324   3.845
 3195SOL    HW210272   3.079   1.350   3.936
 3196SOL     OW10273   2.475   0.842   5.155
 3196SOL    HW110274   2.531   0.923   5.138
 3196SOL    HW210275   2.534   0.762   5.158
 3197SOL     OW10276   3.355   1.767   4.683
 3197SOL    HW110277   3.388   1.831   4.614
 3197SOL    HW210278   3.421   1.761   4.758
 3198SOL     OW10279   2.578   0.565   5.432
 3198SOL    HW110280   2.597   0.630   5.506
 3198SOL    HW210281   2.638   0.485   5.441
 3199SOL     OW10282   3.312   1.220   5.357
 3199SOL    HW110283   3.303   1.210   5.456
 3199SOL    HW210284   3.408   1.213   5.331
 3200SOL     OW10285   2.252   1.741   5.284
 3200SOL    HW110286   2.161   1.782   5.282
 3200SOL    HW210287   2.245   1.647   5.316
 3201SOL     OW10288   3.536   0.883   4.978
 3201SOL    HW110289   3.509   0.794   4.941
 3201SOL    HW210290   3.537   0.951   4.905
 3202SOL     OW10291   3.087   0.325   4.173
 3202SOL    HW110292   3.152   0.251   4.162
 3202SOL    HW210293   3.107   0.375   4.257
 3203SOL     OW10294   2.456   0.745   4.376
 3203SOL    HW110295   2.506   0.830   4.357
 3203SOL    HW210296   2.368   0.747   4.328
 3204SOL     OW10297   3.639   0.342   5.366
 3204SOL    HW110298   3.622   0.373   5.272
 3204SOL    HW210299   3.555   0.305   5.404
 3205SOL     OW10300   3.592   0.934   5.241
 3205SOL    HW110301   3.630   1.025   5.256
 3205SOL    HW210302   3.584   0.917   5.142
 3206SOL     OW10303   2.721   1.374   3.740
 3206SOL    HW110304   2.675   1.389   3.828
 3206SOL    HW210305   2.765   1.459   3.710
 3207SOL     OW10306   2.721   0.956   4.585
 3207SOL    HW110307   2.775   0.887   4.633
 3207SOL    HW210308   2.689   1.025   4.651
 3208SOL     OW10309   2.945   0.984   3.811
 3208SOL    HW110310   2.922   1.037   3.729
 3208SOL    HW210311   3.026   0.928   3.792
 3209SOL     OW10312   3.723   1.569   4.575
 3209SOL    HW110313   3.652   1.557   4.505
 3209SOL    HW210314   3.724   1.490   4.635
 3210SOL     OW10315   2.083   1.314   5.568
 3210SOL    HW110316   2.018   1.241   5.547
 3210SOL    HW210317   2.087   1.328   5.666
 3211SOL     OW10318   1.941   1.240   4.377
 3211SOL    HW110319   1.940   1.193   4.465
 3211SOL    HW210320   2.023   1.212   4.326
 3212SOL     OW10321   2.534   1.391   5.348
 3212SOL    HW110322   2.456   1.341   5.386
 3212SOL    HW210323   2.531   1.486   5.379
 3213SOL     OW10324   3.686   0.192   4.951
 3213SOL    HW110325   3.682   0.102   4.995
 3213SOL    HW210326   3.689   0.181   4.852
 3214SOL     OW10327   2.290   0.424   4.244
 3214SOL    HW110328   2.320   0.352   4.182
 3214SOL    HW210329   2.251   0.384   4.327
 3215SOL     OW10330   3.567   1.487   4.828
 3215SOL    HW110331   3.474   1.462   4.801
 3215SOL    HW210332   3.593   1.437   4.910
 3216SOL     OW10333   2.179   0.547   5.004
 3216SOL    HW110334   2.217   0.488   5.076
 3216SOL    HW210335   2.219   0.521   4.916
 3217SOL     OW10336   2.674   1.586   4.411
 3217SOL    HW110337   2.706   1.596   4.317
 3217SOL    HW210338   2.595   1.524   4.413
 3218SOL     OW10339   3.286   0.214   4.836
 3218SOL    HW110340   3.338   0.149   4.891
 3218SOL    HW210341   3.237   0.277   4.897
 3219SOL     OW10342   2.863   0.034   4.878
 3219SOL    HW110343   2.800  -0.038   4.847
 3219SOL    HW210344   2.956  -0.002   4.878
 3220SOL     OW10345   2.632   1.330   4.025
 3220SOL    HW110346   2.586   1.243   4.042
 3220SOL    HW210347   2.723   1.327   4.066
 3221SOL     OW10348   2.480   1.567   5.008
 3221SOL    HW110349   2.475   1.649   5.065
 3221SOL    HW210350   2.569   1.564   4.963
 3222SOL     OW10351   3.214   0.052   3.892
 3222SOL    HW110352   3.249   0.011   3.808
 3222SOL    HW210353   3.124   0.014   3.912
 3223SOL     OW10354   3.162   0.453   4.415
 3223SOL    HW110355   3.103   0.533   4.419
 3223SOL    HW210356   3.177   0.418   4.508
 3224SOL     OW10357   3.455   0.221   4.606
 3224SOL    HW110358   3.371   0.220   4.660
 3224SOL    HW210359   3.457   0.304   4.550
 3225SOL     OW10360   1.901   1.077   4.024
 3225SOL    HW110361   2.000   1.066   4.015
 3225SOL    HW210362   1.861   0.991   4.056
 3226SOL     OW10363   2.737   1.646   4.061
 3226SOL    HW110364   2.660   1.611   4.007
 3226SOL    HW210365   2.705   1.717   4.123
 3227SOL     OW10366   2.092   0.628   5.699
 3227SOL    HW110367   1.999   0.626   5.736
 3227SOL    HW210368   2.093   0.589   5.607
 3228SOL     OW10369   2.087   0.275   6.582
 3228SOL    HW110370   2.122   0.258   6.674
 3228SOL    HW210371   1.999   0.230   6.570
 3229SOL     OW10372   1.881   0.368   6.233
 3229SOL    HW110373   1.799   0.411   6.272
 3229SOL    HW210374   1.853   0.295   6.170
 3230SOL     OW10375   2.431   1.275   6.751
 3230SOL    HW110376   2.338   1.268   6.714
 3230SOL    HW210377   2.442   1.364   6.795
 3231SOL     OW10378   3.417   1.511   6.289
 3231SOL    HW110379   3.360   1.495   6.370
 3231SOL    HW210380   3.358   1.521   6.209
 3232SOL     OW10381   2.997   0.703   6.303
 3232SOL    HW110382   3.054   0.781   6.278
 3232SOL    HW210383   2.937   0.729   6.379
 3233SOL     OW10384   3.617   0.607   5.817
 3233SOL    HW110385   3.605   0.594   5.718
 3233SOL    HW210386   3.587   0.526   5.866
 3234SOL     OW10387   2.630   1.144   6.609
 3234SOL    HW110388   2.552   1.161   6.669
 3234SOL    HW210389   2.664   1.231   6.573
 3235SOL     OW10390   2.712   0.798   7.409
 3235SOL    HW110391   2.708   0.874   7.474
 3235SOL    HW210392   2.734   0.834   7.318
 3236SOL     OW10393   2.547   1.012   6.251
 3236SOL    HW110394   2.616   0.996   6.321
 3236SOL    HW210395   2.474   1.069   6.289
 3237SOL     OW10396   2.548   1.161   7.389
 3237SOL    HW110397   2.608   1.240   7.403
 3237SOL    HW210398   2.462   1.192   7.348
 3238SOL     OW10399   2.197   1.435   6.647
 3238SOL    HW110400   2.119   1.404   6.594
 3238SOL    HW210401   2.255   1.493   6.590
 3239SOL     OW10402   3.322   1.505   6.925
 3239SOL    HW110403   3.346   1.599   6.951
 3239SOL    HW210404   3.306   1.451   7.007
 3240SOL     OW10405   2.300   0.392   7.085
 3240SOL    HW110406   2.382   0.336   7.094
 3240SOL    HW210407   2.219   0.334   7.089
 3241SOL     OW10408   3.465   0.447   6.323
 3241SOL    HW110409   3.391   0.493   6.273
 3241SOL    HW210410   3.516   0.515   6.376
 3242SOL     OW10411   2.093   1.713   6.069
 3242SOL    HW110412   2.127   1.790   6.123
 3242SOL    HW210413   2.137   1.713   5.979
 3243SOL     OW10414   2.989   1.341   7.276
 3243SOL    HW110415   3.036   1.341   7.364
 3243SOL    HW210416   2.941   1.254   7.265
 3244SOL     OW10417   2.092   1.434   6.124
 3244SOL    HW110418   2.066   1.530   6.124
 3244SOL    HW210419   2.021   1.380   6.169
 3245SOL     OW10420   2.102   1.091   6.472
 3245SOL    HW110421   2.116   1.007   6.524
 3245SOL    HW210422   2.047   1.155   6.527
 3246SOL     OW10423   2.482   1.786   7.025
 3246SOL    HW110424   2.390   1.769   7.060
 3246SOL    HW210425   2.510   1.878   7.051
 3247SOL     OW10426   2.468   0.964   5.709
 3247SOL    HW110427   2.475   1.048   5.655
 3247SOL    HW210428   2.514   0.977   5.797
 3248SOL     OW10429   3.456   0.114   7.066
 3248SOL    HW110430   3.438   0.181   6.994
 3248SOL    HW210431   3.453   0.160   7.155
 3249SOL     OW10432   1.984   0.643   6.149
 3249SOL    HW110433   1.939   0.555   6.166
 3249SOL    HW210434   1.983   0.697   6.233
 3250SOL     OW10435   3.704   1.767   5.945
 3250SOL    HW110436   3.758   1.738   6.025
 3250SOL    HW210437   3.734   1.857   5.916
 3251SOL     OW10438   1.889   1.596   5.703
 3251SOL    HW110439   1.870   1.500   5.724
 3251SOL    HW210440   1.856   1.654   5.778
 3252SOL     OW10441   3.551   0.922   6.198
 3252SOL    HW110442   3.646   0.893   6.206
 3252SOL    HW210443   3.543   0.987   6.123
 3253SOL     OW10444   3.503   1.108   6.018
 3253SOL    HW110445   3.589   1.110   5.966
 3253SOL    HW210446   3.517   1.155   6.106
 3254SOL     OW10447   1.975   0.737   7.183
 3254SOL    HW110448   2.063   0.724   7.228
 3254SOL    HW210449   1.962   0.834   7.161
 3255SOL     OW10450   2.475   1.365   6.312
 3255SOL    HW110451   2.426   1.278   6.321
 3255SOL    HW210452   2.452   1.408   6.225
 3256SOL     OW10453   3.155   1.228   7.009
 3256SOL    HW110454   3.192   1.155   6.951
 3256SOL    HW210455   3.207   1.233   7.094
 3257SOL     OW10456   2.671   0.004   6.088
 3257SOL    HW110457   2.711   0.095   6.079
 3257SOL    HW210458   2.571   0.012   6.094
 3258SOL     OW10459   2.059   0.976   6.850
 3258SOL    HW110460   2.148   0.931   6.836
 3258SOL    HW210461   1.986   0.911   6.831
 3259SOL     OW10462   3.387   0.999   5.776
 3259SOL    HW110463   3.324   0.923   5.789
 3259SOL    HW210464   3.435   1.017   5.862
 3260SOL     OW10465   3.049   1.792   7.202
 3260SOL    HW110466   3.073   1.852   7.126
 3260SOL    HW210467   3.056   1.697   7.172
 3261SOL     OW10468   2.179   0.251   7.387
 3261SOL    HW110469   2.250   0.322   7.393
 3261SOL    HW210470   2.091   0.290   7.415
 3262SOL     OW10471   3.328   1.417   6.539
 3262SOL    HW110472   3.269   1.423   6.619
 3262SOL    HW210473   3.313   1.329   6.493
 3263SOL     OW10474   3.529   1.714   6.158
 3263SOL    HW110475   3.488   1.691   6.070
 3263SOL    HW210476   3.511   1.640   6.223
 3264SOL     OW10477   2.460   0.729   5.856
 3264SOL    HW110478   2.484   0.798   5.788
 3264SOL    HW210479   2.382   0.762   5.910
 3265SOL     OW10480   3.143   0.345   6.530
 3265SOL    HW110481   3.057   0.295   6.517
 3265SOL    HW210482   3.205   0.291   6.586
 3266SOL     OW10483   3.438   1.662   5.893
 3266SOL    HW110484   3.527   1.708   5.896
 3266SOL    HW210485   3.417   1.638   5.798
 3267SOL     OW10486   2.669   0.605   7.051
 3267SOL    HW110487   2.622   0.602   7.140
 3267SOL    HW210488   2.618   0.550   6.985
 3268SOL     OW10489   3.256   0.469   7.260
 3268SOL    HW110490   3.236   0.512   7.348
 3268SOL    HW210491   3.334   0.407   7.269
 3269SOL     OW10492   2.835   0.890   7.158
 3269SOL    HW110493   2.881   0.806   7.129
 3269SOL    HW210494   2.779   0.924   7.083
 3270SOL     OW10495   2.853   0.410   6.828
 3270SOL    HW110496   2.776   0.444   6.882
 3270SOL    HW210497   2.819   0.359   6.749
 3271SOL     OW10498   2.903   0.701   6.015
 3271SOL    HW110499   2.929   0.697   6.111
 3271SOL    HW210500   2.818   0.650   6.001
 3272SOL     OW10501   1.938   0.811   6.375
 3272SOL    HW110502   2.037   0.799   6.384
 3272SOL    HW210503   1.914   0.906   6.396
 3273SOL     OW10504   1.992   1.821   7.157
 3273SOL    HW110505   1.982   1.806   7.256
 3273SOL    HW210506   1.906   1.857   7.121
 3274SOL     OW10507   2.727   0.348   5.781
 3274SOL    HW110508   2.786   0.411   5.732
 3274SOL    HW210509   2.746   0.254   5.752
 3275SOL     OW10510   3.581   0.585   7.417
 3275SOL    HW110511   3.555   0.674   7.381
 3275SOL    HW210512   3.579   0.517   7.344
 3276SOL     OW10513   3.224   1.144   6.131
 3276SOL    HW110514   3.307   1.115   6.083
 3276SOL    HW210515   3.175   1.211   6.075
 3277SOL     OW10516   2.412   0.196   6.471
 3277SOL    HW110517   2.407   0.191   6.571
 3277SOL    HW210518   2.414   0.292   6.442
 3278SOL     OW10519   2.870   1.456   6.063
 3278SOL    HW110520   2.824   1.528   6.011
 3278SOL    HW210521   2.866   1.476   6.161
 3279SOL     OW10522   2.213   1.801   6.439
 3279SOL    HW110523   2.263   1.715   6.445
 3279SOL    HW210524   2.278   1.878   6.436
 3280SOL     OW10525   3.657   1.066   6.459
 3280SOL    HW110526   3.595   1.051   6.383
 3280SOL    HW210527   3.605   1.077   6.544
 3281SOL     OW10528   3.089   1.550   7.092
 3281SOL    HW110529   3.095   1.473   7.156
 3281SOL    HW210530   3.037   1.524   7.012
 3282SOL     OW10531   2.183   0.943   5.828
 3282SOL    HW110532   2.265   0.982   5.786
 3282SOL    HW210533   2.156   0.861   5.779
 3283SOL     OW10534   3.320   0.735   6.314
 3283SOL    HW110535   3.315   0.670   6.389
 3283SOL    HW210536   3.400   0.794   6.327
 3284SOL     OW10537   2.323   1.266   7.313
 3284SOL    HW110538   2.273   1.267   7.227
 3284SOL    HW210539   2.260   1.248   7.389
 3285SOL     OW10540   2.973   1.776   5.823
 3285SOL    HW110541   2.913   1.714   5.873
 3285SOL    HW210542   3.004   1.732   5.738
 3286SOL     OW10543   2.064   0.285   7.084
 3286SOL    HW110544   1.984   0.345   7.071
 3286SOL    HW210545   2.054   0.236   7.170
 3287SOL     OW10546   3.494   1.377   5.667
 3287SOL    HW110547   3.462   1.471   5.657
 3287SOL    HW210548   3.418   1.314   5.655
 3288SOL     OW10549   2.326   1.743   5.909
 3288SOL    HW110550   2.359   1.782   5.995
 3288SOL    HW210551   2.402   1.736   5.844
 3289SOL     OW10552   3.262   0.107   6.012
 3289SOL    HW110553   3.238   0.070   5.922
 3289SOL    HW210554   3.361   0.123   6.016
 3290SOL     OW10555   2.111   1.785   6.827
 3290SOL    HW110556   2.168   1.720   6.877
 3290SOL    HW210557   2.095   1.752   6.734
 3291SOL     OW10558   2.802   1.698   6.490
 3291SOL    HW110559   2.882   1.641   6.511
 3291SOL    HW210560   2.753   1.658   6.413
 3292SOL     OW10561   2.244   0.700   6.066
 3292SOL    HW110562   2.289   0.610   6.063
 3292SOL    HW210563   2.150   0.689   6.099
 3293SOL     OW10564   3.409   0.222   7.315
 3293SOL    HW110565   3.404   0.259   7.407
 3293SOL    HW210566   3.337   0.153   7.303
 3294SOL     OW10567   2.476   0.122   5.703
 3294SOL    HW110568   2.574   0.100   5.710
 3294SOL    HW210569   2.445   0.105   5.610
 3295SOL     OW10570   2.643   0.264   7.335
 3295SOL    HW110571   2.710   0.203   7.378
 3295SOL    HW210572   2.570   0.283   7.400
 3296SOL     OW10573   2.750   1.514   6.781
 3296SOL    HW110574   2.727   1.489   6.687
 3296SOL    HW210575   2.811   1.445   6.820
 3297SOL     OW10576   3.213   0.590   7.019
 3297SOL    HW110577   3.241   0.547   7.104
 3297SOL    HW210578   3.238   0.686   7.020
 3298SOL     OW10579   2.665   1.402   6.510
 3298SOL    HW110580   2.755   1.416   6.468
 3298SOL    HW210581   2.594   1.404   6.439
 3299SOL     OW10582   2.784   0.503   6.485
 3299SOL    HW110583   2.759   0.494   6.389
 3299SOL    HW210584   2.832   0.421   6.516
 3300SOL     OW10585   2.401   0.064   6.098
 3300SOL    HW110586   2.320   0.065   6.156
 3300SOL    HW210587   2.404   0.147   6.043
 3301SOL     OW10588   3.296   1.188   5.627
 3301SOL    HW110589   3.328   1.112   5.684
 3301SOL    HW210590   3.204   1.215   5.657
 3302SOL     OW10591   2.159   0.035   5.757
 3302SOL    HW110592   2.208   0.119   5.736
 3302SOL    HW210593   2.221  -0.030   5.802
 3303SOL     OW10594   2.797   0.236   6.066
 3303SOL    HW110595   2.749   0.277   5.988
 3303SOL    HW210596   2.896   0.234   6.047
 3304SOL     OW10597   2.938   0.683   7.050
 3304SOL    HW110598   2.858   0.622   7.053
 3304SOL    HW210599   3.019   0.630   7.026
 3305SOL     OW10600   3.089   1.570   6.379
 3305SOL    HW110601   3.110   1.644   6.314
 3305SOL    HW210602   3.157   1.570   6.452
 3306SOL     OW10603   2.321   1.152   6.327
 3306SOL    HW110604   2.250   1.125   6.392
 3306SOL    HW210605   2.295   1.124   6.234
 3307SOL     OW10606   3.133   1.797   6.177
 3307SOL    HW110607   3.177   1.861   6.113
 3307SOL    HW210608   3.083   1.849   6.247
 3308SOL     OW10609   2.894   0.549   5.602
 3308SOL    HW110610   2.853   0.631   5.563
 3308SOL    HW210611   2.958   0.575   5.675
 3309SOL     OW10612   1.940   0.556   6.972
 3309SOL    HW110613   2.032   0.555   6.931
 3309SOL    HW210614   1.934   0.630   7.039
 3310SOL     OW10615   2.423   0.222   6.733
 3310SOL    HW110616   2.461   0.138   6.770
 3310SOL    HW210617   2.335   0.241   6.777
 3311SOL     OW10618   2.728   0.454   6.228
 3311SOL    HW110619   2.696   0.526   6.166
 3311SOL    HW210620   2.752   0.373   6.175
 3312SOL     OW10621   2.879   0.039   6.339
 3312SOL    HW110622   2.807   0.044   6.270
 3312SOL    HW210623   2.855  -0.030   6.408
 3313SOL     OW10624   3.291   1.173   6.453
 3313SOL    HW110625   3.236   1.089   6.446
 3313SOL    HW210626   3.317   1.202   6.361
 3314SOL     OW10627   3.328   0.590   6.578
 3314SOL    HW110628   3.298   0.495   6.585
 3314SOL    HW210629   3.401   0.606   6.644
 3315SOL     OW10630   3.719   0.833   5.963
 3315SOL    HW110631   3.761   0.769   6.027
 3315SOL    HW210632   3.681   0.782   5.885
 3316SOL     OW10633   2.350   1.385   5.760
 3316SOL    HW110634   2.263   1.370   5.807
 3316SOL    HW210635   2.333   1.411   5.665
 3317SOL     OW10636   3.526   1.280   6.243
 3317SOL    HW110637   3.625   1.288   6.257
 3317SOL    HW210638   3.481   1.364   6.274
 3318SOL     OW10639   3.252   0.575   5.664
 3318SOL    HW110640   3.198   0.554   5.745
 3318SOL    HW210641   3.343   0.534   5.673
 3319SOL     OW10642   2.389   0.256   5.914
 3319SOL    HW110643   2.416   0.197   5.839
 3319SOL    HW210644   2.389   0.351   5.883
 3320SOL     OW10645   3.616   1.223   7.174
 3320SOL    HW110646   3.707   1.184   7.161
 3320SOL    HW210647   3.624   1.319   7.198
 3321SOL     OW10648   2.926   1.347   6.926
 3321SOL    HW110649   2.846   1.324   6.981
 3321SOL    HW210650   3.009   1.321   6.975
 3322SOL     OW10651   3.454   1.629   7.211
 3322SOL    HW110652   3.481   1.663   7.121
 3322SOL    HW210653   3.533   1.591   7.257
 3323SOL     OW10654   2.973   1.195   6.686
 3323SOL    HW110655   2.933   1.239   6.767
 3323SOL    HW210656   2.932   1.232   6.603
 3324SOL     OW10657   3.500   1.099   6.665
 3324SOL    HW110658   3.505   1.180   6.724
 3324SOL    HW210659   3.414   1.101   6.614
 3325SOL     OW10660   2.777   0.089   6.988
 3325SOL    HW110661   2.802   0.069   6.893
 3325SOL    HW210662   2.849   0.145   7.030
 3326SOL     OW10663   2.842   1.116   7.305
 3326SOL    HW110664   2.743   1.122   7.315
 3326SOL    HW210665   2.865   1.036   7.249
 3327SOL     OW10666   2.567   1.050   5.954
 3327SOL    HW110667   2.553   1.057   6.053
 3327SOL    HW210668   2.651   0.999   5.936
 3328SOL     OW10669   2.272   0.813   6.837
 3328SOL    HW110670   2.358   0.825   6.887
 3328SOL    HW210671   2.230   0.726   6.864
 3329SOL     OW10672   3.136   0.386   6.848
 3329SOL    HW110673   3.157   0.460   6.912
 3329SOL    HW210674   3.047   0.403   6.805
 3330SOL     OW10675   1.926   1.564   6.917
 3330SOL    HW110676   1.880   1.646   6.883
 3330SOL    HW210677   2.024   1.583   6.926
 3331SOL     OW10678   2.229   1.100   6.087
 3331SOL    HW110679   2.222   1.183   6.031
 3331SOL    HW210680   2.233   1.020   6.027
 3332SOL     OW10681   2.428   0.537   6.451
 3332SOL    HW110682   2.440   0.603   6.377
 3332SOL    HW210683   2.474   0.571   6.534
 3333SOL     OW10684   3.114   1.348   5.974
 3333SOL    HW110685   3.164   1.425   6.014
 3333SOL    HW210686   3.019   1.350   6.006
 3334SOL     OW10687   3.134   1.445   6.728
 3334SOL    HW110688   3.181   1.458   6.815
 3334SOL    HW210689   3.068   1.371   6.737
 3335SOL     OW10690   3.444   0.639   6.058
 3335SOL    HW110691   3.413   0.700   6.131
 3335SOL    HW210692   3.494   0.691   5.989
 3336SOL     OW10693   2.216   1.510   6.915
 3336SOL    HW110694   2.195   1.466   6.828
 3336SOL    HW210695   2.313   1.536   6.918
 3337SOL     OW10696   2.264   0.751   7.184
 3337SOL    HW110697   2.332   0.806   7.137
 3337SOL    HW210698   2.304   0.663   7.211
 3338SOL     OW10699   3.449   0.779   7.256
 3338SOL    HW110700   3.357   0.817   7.251
 3338SOL    HW210701   3.509   0.826   7.191
 3339SOL     OW10702   2.875   0.105   7.356
 3339SOL    HW110703   2.881   0.190   7.304
 3339SOL    HW210704   2.907   0.029   7.299
 3340SOL     OW10705   2.366   0.050   7.326
 3340SOL    HW110706   2.324  -0.007   7.256
 3340SOL    HW210707   2.300   0.119   7.358
 3341SOL     OW10708   2.435   0.870   6.615
 3341SOL    HW110709   2.479   0.959   6.606
 3341SOL    HW210710   2.372   0.870   6.692
 3342SOL     OW10711   3.222   0.862   6.631
 3342SOL    HW110712   3.147   0.862   6.565
 3342SOL    HW210713   3.259   0.770   6.640
 3343SOL     OW10714   3.071   0.525   5.861
 3343SOL    HW110715   3.084   0.441   5.915
 3343SOL    HW210716   3.042   0.599   5.921
 3344SOL     OW10717   2.169   0.213   6.817
 3344SOL    HW110718   2.146   0.250   6.907
 3344SOL    HW210719   2.139   0.118   6.811
 3345SOL     OW10720   1.899   1.310   6.868
 3345SOL    HW110721   1.952   1.261   6.936
 3345SOL    HW210722   1.921   1.408   6.873
 3346SOL     OW10723   2.594   0.634   6.650
 3346SOL    HW110724   2.653   0.608   6.574
 3346SOL    HW210725   2.566   0.730   6.639
 3347SOL     OW10726   3.590   0.935   7.440
 3347SOL    HW110727   3.544   0.928   7.351
 3347SOL    HW210728   3.528   0.979   7.506
 3348SOL     OW10729   2.169   0.063   6.204
 3348SOL    HW110730   2.158   0.157   6.237
 3348SOL    HW210731   2.164   0.000   6.281
 3349SOL     OW10732   3.484   0.367   5.960
 3349SOL    HW110733   3.486   0.291   6.024
 3349SOL    HW210734   3.436   0.444   6.000
 3350SOL     OW10735   2.885   0.766   6.552
 3350SOL    HW110736   2.900   0.787   6.648
 3350SOL    HW210737   2.855   0.671   6.543
 3351SOL     OW10738   2.842   1.573   7.286
 3351SOL    HW110739   2.822   1.617   7.198
 3351SOL    HW210740   2.881   1.482   7.270
 3352SOL     OW10741   3.721   1.518   7.191
 3352SOL    HW110742   3.735   1.545   7.096
 3352SOL    HW210743   3.804   1.540   7.244
 3353SOL     OW10744   2.212   0.898   7.390
 3353SOL    HW110745   2.288   0.942   7.438
 3353SOL    HW210746   2.247   0.851   7.308
 3354SOL     OW10747   3.402   0.274   5.711
 3354SOL    HW110748   3.341   0.199   5.734
 3354SOL    HW210749   3.424   0.326   5.794
 3355SOL     OW10750   3.165   0.838   5.628
 3355SOL    HW110751   3.199   0.745   5.643
 3355SOL    HW210752   3.183   0.865   5.533
 3356SOL     OW10753   2.930   1.333   6.435
 3356SOL    HW110754   2.937   1.249   6.380
 3356SOL    HW210755   2.992   1.402   6.399
 3357SOL     OW10756   2.181   0.810   6.535
 3357SOL    HW110757   2.274   0.846   6.540
 3357SOL    HW210758   2.175   0.725   6.587
 3358SOL     OW10759   2.201   0.509   6.592
 3358SOL    HW110760   2.149   0.426   6.575
 3358SOL    HW210761   2.278   0.514   6.528
 3359SOL     OW10762   3.000   0.380   7.264
 3359SOL    HW110763   2.955   0.443   7.328
 3359SOL    HW210764   3.093   0.411   7.247
 3360SOL     OW10765   3.022   0.207   7.063
 3360SOL    HW110766   3.022   0.271   7.140
 3360SOL    HW210767   3.050   0.255   6.980
 3361SOL     OW10768   1.870   1.326   5.786
 3361SOL    HW110769   1.777   1.347   5.755
 3361SOL    HW210770   1.880   1.227   5.799
 3362SOL     OW10771   1.950   1.801   6.513
 3362SOL    HW110772   1.908   1.715   6.486
 3362SOL    HW210773   2.044   1.804   6.479
 3363SOL     OW10774   2.366   1.568   6.496
 3363SOL    HW110775   2.432   1.642   6.505
 3363SOL    HW210776   2.410   1.489   6.454
 3364SOL     OW10777   2.864   0.796   6.824
 3364SOL    HW110778   2.905   0.764   6.910
 3364SOL    HW210779   2.768   0.769   6.821
 3365SOL     OW10780   1.902   0.544   6.700
 3365SOL    HW110781   1.987   0.511   6.659
 3365SOL    HW210782   1.915   0.559   6.798
 3366SOL     OW10783   2.051   0.520   7.308
 3366SOL    HW110784   2.110   0.480   7.238
 3366SOL    HW210785   1.993   0.591   7.267
 3367SOL     OW10786   3.231   0.950   7.246
 3367SOL    HW110787   3.270   1.039   7.266
 3367SOL    HW210788   3.241   0.930   7.149
 3368SOL     OW10789   2.677   0.572   5.911
 3368SOL    HW110790   2.684   0.483   5.865
 3368SOL    HW210791   2.583   0.606   5.903
 3369SOL     OW10792   3.519   0.604   6.792
 3369SOL    HW110793   3.481   0.535   6.854
 3369SOL    HW210794   3.601   0.568   6.748
 3370SOL     OW10795   2.114   1.564   7.330
 3370SOL    HW110796   2.084   1.621   7.406
 3370SOL    HW210797   2.107   1.467   7.356
 3371SOL     OW10798   2.533   0.464   6.855
 3371SOL    HW110799   2.499   0.375   6.825
 3371SOL    HW210800   2.559   0.518   6.775
 3372SOL     OW10801   2.792   1.678   7.051
 3372SOL    HW110802   2.768   1.660   6.956
 3372SOL    HW210803   2.822   1.772   7.061
 3373SOL     OW10804   2.335   0.500   5.777
 3373SOL    HW110805   2.396   0.580   5.781
 3373SOL    HW210806   2.240   0.531   5.784
 3374SOL     OW10807   2.021   1.137   7.052
 3374SOL    HW110808   2.043   1.076   7.128
 3374SOL    HW210809   2.031   1.088   6.966
 3375SOL     OW10810   3.209   1.059   6.820
 3375SOL    HW110811   3.233   0.996   6.746
 3375SOL    HW210812   3.119   1.099   6.802
 3376SOL     OW10813   3.164   0.855   5.895
 3376SOL    HW110814   3.078   0.824   5.937
 3376SOL    HW210815   3.160   0.841   5.796
 3377SOL     OW10816   3.621   1.747   6.740
 3377SOL    HW110817   3.682   1.777   6.667
 3377SOL    HW210818   3.583   1.658   6.718
 3378SOL     OW10819   3.114   1.731   6.714
 3378SOL    HW110820   3.198   1.736   6.660
 3378SOL    HW210821   3.091   1.635   6.732
 3379SOL     OW10822   1.945   1.258   6.608
 3379SOL    HW110823   1.940   1.257   6.708
 3379SOL    HW210824   1.862   1.217   6.570
 3380SOL     OW10825   2.550   1.662   7.302
 3380SOL    HW110826   2.494   1.743   7.311
 3380SOL    HW210827   2.602   1.666   7.216
 3381SOL     OW10828   3.588   0.135   6.109
 3381SOL    HW110829   3.661   0.118   6.042
 3381SOL    HW210830   3.557   0.048   6.147
 3382SOL     OW10831   3.250   1.573   6.063
 3382SOL    HW110832   3.317   1.585   5.989
 3382SOL    HW210833   3.210   1.662   6.086
 3383SOL     OW10834   1.992   1.794   7.437
 3383SOL    HW110835   1.951   1.720   7.490
 3383SOL    HW210836   2.056   1.845   7.495
 3384SOL     OW10837   3.142   0.927   6.258
 3384SOL    HW110838   3.202   0.846   6.260
 3384SOL    HW210839   3.182   0.996   6.198
 3385SOL     OW10840   2.692   1.273   7.008
 3385SOL    HW110841   2.687   1.306   7.103
 3385SOL    HW210842   2.606   1.292   6.962
 3386SOL     OW10843   2.534   1.616   5.740
 3386SOL    HW110844   2.543   1.626   5.641
 3386SOL    HW210845   2.494   1.527   5.761
 3387SOL     OW10846   3.512   1.720   6.980
 3387SOL    HW110847   3.565   1.730   6.896
 3387SOL    HW210848   3.485   1.810   7.014
 3388SOL     OW10849   3.703   0.175   6.549
 3388SOL    HW110850   3.742   0.090   6.513
 3388SOL    HW210851   3.605   0.177   6.530
 3389SOL     OW10852   2.125   0.326   6.306
 3389SOL    HW110853   2.046   0.377   6.272
 3389SOL    HW210854   2.116   0.311   6.404
 3390SOL     OW10855   3.056   1.612   5.617
 3390SOL    HW110856   3.062   1.519   5.654
 3390SOL    HW210857   2.997   1.612   5.537
 3391SOL     OW10858   2.684   1.002   6.958
 3391SOL    HW110859   2.724   1.001   6.866
 3391SOL    HW210860   2.694   1.094   6.998
 3392SOL     OW10861   2.778   0.910   5.877
 3392SOL    HW110862   2.841   0.948   5.809
 3392SOL    HW210863   2.818   0.827   5.916
 3393SOL     OW10864   3.366   1.607   5.630
 3393SOL    HW110865   3.274   1.644   5.637
 3393SOL    HW210866   3.404   1.627   5.540
 3394SOL     OW10867   2.234   1.288   7.076
 3394SOL    HW110868   2.221   1.381   7.042
 3394SOL    HW210869   2.150   1.236   7.063
 3395SOL     OW10870   3.476   1.292   6.875
 3395SOL    HW110871   3.536   1.295   6.955
 3395SOL    HW210872   3.401   1.356   6.888
 3396SOL     OW10873   2.901   1.098   6.282
 3396SOL    HW110874   2.831   1.051   6.336
 3396SOL    HW210875   2.960   1.030   6.239
 3397SOL     OW10876   2.876   0.236   6.557
 3397SOL    HW110877   2.868   0.200   6.464
 3397SOL    HW210878   2.874   0.160   6.622
 3398SOL     OW10879   2.452   1.487   6.077
 3398SOL    HW110880   2.494   1.429   6.007
 3398SOL    HW210881   2.408   1.566   6.033
 3399SOL     OW10882   3.571   0.385   6.967
 3399SOL    HW110883   3.644   0.454   6.971
 3399SOL    HW210884   3.599   0.310   6.908
 3400SOL     OW10885   2.117   1.348   5.876
 3400SOL    HW110886   2.021   1.349   5.849
 3400SOL    HW210887   2.129   1.401   5.960
 3401SOL     OW10888   1.967   1.013   7.312
 3401SOL    HW110889   1.890   0.980   7.366
 3401SOL    HW210890   2.052   0.983   7.354
 3402SOL     OW10891   2.534   0.203   7.075
 3402SOL    HW110892   2.624   0.187   7.035
 3402SOL    HW210893   2.542   0.208   7.174
 3403SOL     OW10894   1.937   0.345   5.619
 3403SOL    HW110895   1.845   0.317   5.590
 3403SOL    HW210896   1.968   0.422   5.563
 3404SOL     OW10897   3.302   0.856   6.984
 3404SOL    HW110898   3.245   0.908   6.921
 3404SOL    HW210899   3.398   0.868   6.960
 3405SOL     OW10900   1.934   0.166   5.904
 3405SOL    HW110901   1.917   0.249   5.850
 3405SOL    HW210902   2.024   0.129   5.882
 3406SOL     OW10903   3.045   1.335   5.705
 3406SOL    HW110904   2.946   1.324   5.707
 3406SOL    HW210905   3.079   1.350   5.798
 3407SOL     OW10906   2.475   0.842   7.017
 3407SOL    HW110907   2.531   0.923   7.000
 3407SOL    HW210908   2.534   0.762   7.020
 3408SOL     OW10909   3.355   1.767   6.545
 3408SOL    HW110910   3.388   1.831   6.476
 3408SOL    HW210911   3.421   1.761   6.620
 3409SOL     OW10912   2.578   0.565   7.294
 3409SOL    HW110913   2.597   0.630   7.368
 3409SOL    HW210914   2.638   0.485   7.303
 3410SOL     OW10915   3.312   1.220   7.219
 3410SOL    HW110916   3.303   1.210   7.318
 3410SOL    HW210917   3.408   1.213   7.193
 3411SOL     OW10918   2.252   1.741   7.146
 3411SOL    HW110919   2.161   1.782   7.144
 3411SOL    HW210920   2.245   1.647   7.178
 3412SOL     OW10921   3.536   0.883   6.840
 3412SOL    HW110922   3.509   0.794   6.803
 3412SOL    HW210923   3.537   0.951   6.767
 3413SOL     OW10924   3.087   0.325   6.035
 3413SOL    HW110925   3.152   0.251   6.024
 3413SOL    HW210926   3.107   0.375   6.119
 3414SOL     OW10927   2.456   0.745   6.238
 3414SOL    HW110928   2.506   0.830   6.219
 3414SOL    HW210929   2.368   0.747   6.190
 3415SOL     OW10930   3.639   0.342   7.228
 3415SOL    HW110931   3.622   0.373   7.134
 3415SOL    HW210932   3.555   0.305   7.266
 3416SOL     OW10933   3.592   0.934   7.103
 3416SOL    HW110934   3.630   1.025   7.118
 3416SOL    HW210935   3.584   0.917   7.004
 3417SOL     OW10936   2.721   1.374   5.602
 3417SOL    HW110937   2.675   1.389   5.690
 3417SOL    HW210938   2.765   1.459   5.572
 3418SOL     OW10939   2.523   1.790   6.539
 3418SOL    HW110940   2.477   1.878   6.526
 3418SOL    HW210941   2.622   1.802   6.532
 3419SOL     OW10942   2.721   0.956   6.447
 3419SOL    HW110943   2.775   0.887   6.495
 3419SOL    HW210944   2.689   1.025   6.513
 3420SOL     OW10945   2.945   0.984   5.673
 3420SOL    HW110946   2.922   1.037   5.591
 3420SOL    HW210947   3.026   0.928   5.654
 3421SOL     OW10948   3.723   1.569   6.437
 3421SOL    HW110949   3.652   1.557   6.367
 3421SOL    HW210950   3.724   1.490   6.497
 3422SOL     OW10951   2.083   1.314   7.430
 3422SOL    HW110952   2.018   1.241   7.409
 3422SOL    HW210953   2.087   1.328   7.528
 3423SOL     OW10954   1.941   1.240   6.239
 3423SOL    HW110955   1.940   1.193   6.327
 3423SOL    HW210956   2.023   1.212   6.188
 3424SOL     OW10957   2.534   1.391   7.210
 3424SOL    HW110958   2.456   1.341   7.248
 3424SOL    HW210959   2.531   1.486   7.241
 3425SOL     OW10960   3.686   0.192   6.813
 3425SOL    HW110961   3.682   0.102   6.857
 3425SOL    HW210962   3.689   0.181   6.714
 3426SOL     OW10963   2.290   0.424   6.106
 3426SOL    HW110964   2.320   0.352   6.044
 3426SOL    HW210965   2.251   0.384   6.189
 3427SOL     OW10966   3.567   1.487   6.690
 3427SOL    HW110967   3.474   1.462   6.663
 3427SOL    HW210968   3.593   1.437   6.772
 3428SOL     OW10969   2.179   0.547   6.866
 3428SOL    HW110970   2.217   0.488   6.938
 3428SOL    HW210971   2.219   0.521   6.778
 3429SOL     OW10972   2.674   1.586   6.273
 3429SOL    HW110973   2.706   1.596   6.179
 3429SOL    HW210974   2.595   1.524   6.275
 3430SOL     OW10975   3.286   0.214   6.698
 3430SOL    HW110976   3.338   0.149   6.753
 3430SOL    HW210977   3.237   0.277   6.759
 3431SOL     OW10978   2.863   0.034   6.740
 3431SOL    HW110979   2.800  -0.038   6.709
 3431SOL    HW210980   2.956  -0.002   6.740
 3432SOL     OW10981   2.632   1.330   5.887
 3432SOL    HW110982   2.586   1.243   5.904
 3432SOL    HW210983   2.723   1.327   5.928
 3433SOL     OW10984   2.480   1.567   6.870
 3433SOL    HW110985   2.475   1.649   6.927
 3433SOL    HW210986   2.569   1.564   6.825
 3434SOL     OW10987   3.214   0.052   5.754
 3434SOL    HW110988   3.249   0.011   5.670
 3434SOL    HW210989   3.124   0.014   5.774
 3435SOL     OW10990   3.162   0.453   6.277
 3435SOL    HW110991   3.103   0.533   6.281
 3435SOL    HW210992   3.177   0.418   6.370
 3436SOL     OW10993   3.455   0.221   6.468
 3436SOL    HW110994   3.371   0.220   6.522
 3436SOL    HW210995   3.457   0.304   6.412
 3437SOL     OW10996   1.901   1.077   5.886
 3437SOL    HW110997   2.000   1.066   5.877
 3437SOL    HW210998   1.861   0.991   5.918
 3438SOL     OW10999   2.737   1.646   5.923
 3438SOL    HW111000   2.660   1.611   5.869
 3438SOL    HW211001   2.705   1.717   5.985
 3439SOL     OW11002   2.092   0.628   7.561
 3439SOL    HW111003   1.999   0.626   7.598
 3439SOL    HW211004   2.093   0.589   7.469
 3440SOL     OW11005   3.617   0.607   7.679
 3440SOL    HW111006   3.605   0.594   7.580
 3440SOL    HW211007   3.587   0.526   7.728
 3441SOL     OW11008   2.093   1.713   7.931
 3441SOL    HW111009   2.127   1.790   7.985
 3441SOL    HW211010   2.137   1.713   7.841
 3442SOL     OW11011   2.092   1.434   7.986
 3442SOL    HW111012   2.066   1.530   7.986
 3442SOL    HW211013   2.021   1.380   8.031
 3443SOL     OW11014   2.468   0.964   7.571
 3443SOL    HW111015   2.475   1.048   7.517
 3443SOL    HW211016   2.514   0.977   7.659
 3444SOL     OW11017   3.704   1.767   7.807
 3444SOL    HW111018   3.758   1.738   7.887
 3444SOL    HW211019   3.734   1.857   7.778
 3445SOL     OW11020   1.889   1.596   7.565
 3445SOL    HW111021   1.870   1.500   7.586
 3445SOL    HW211022   1.856   1.654   7.640
 3446SOL     OW11023   3.551   0.922   8.060
 3446SOL    HW111024   3.646   0.893   8.068
 3446SOL    HW211025   3.543   0.987   7.985
 3447SOL     OW11026   3.503   1.108   7.880
 3447SOL    HW111027   3.589   1.110   7.828
 3447SOL    HW211028   3.517   1.155   7.968
 3448SOL     OW11029   2.671   0.004   7.950
 3448SOL    HW111030   2.711   0.095   7.941
 3448SOL    HW211031   2.571   0.012   7.956
 3449SOL     OW11032   3.387   0.999   7.638
 3449SOL    HW111033   3.324   0.923   7.651
 3449SOL    HW211034   3.435   1.017   7.724
 3450SOL     OW11035   2.460   0.729   7.718
 3450SOL    HW111036   2.484   0.798   7.650
 3450SOL    HW211037   2.382   0.762   7.772
 3451SOL     OW11038   3.438   1.662   7.755
 3451SOL    HW111039   3.527   1.708   7.758
 3451SOL    HW211040   3.417   1.638   7.660
 3452SOL     OW11041   1.938   0.811   8.237
 3452SOL    HW111042   2.037   0.799   8.246
 3452SOL    HW211043   1.914   0.906   8.258
 3453SOL     OW11044   2.727   0.348   7.643
 3453SOL    HW111045   2.786   0.411   7.594
 3453SOL    HW211046   2.746   0.254   7.614
 3454SOL     OW11047   2.183   0.943   7.690
 3454SOL    HW111048   2.265   0.982   7.648
 3454SOL    HW211049   2.156   0.861   7.641
 3455SOL     OW11050   2.973   1.776   7.685
 3455SOL    HW111051   2.913   1.714   7.735
 3455SOL    HW211052   3.004   1.732   7.600
 3456SOL     OW11053   3.494   1.377   7.529
 3456SOL    HW111054   3.462   1.471   7.519
 3456SOL    HW211055   3.418   1.314   7.517
 3457SOL     OW11056   2.326   1.743   7.771
 3457SOL    HW111057   2.359   1.782   7.857
 3457SOL    HW211058   2.402   1.736   7.706
 3458SOL     OW11059   3.262   0.107   7.874
 3458SOL    HW111060   3.238   0.070   7.784
 3458SOL    HW211061   3.361   0.123   7.878
 3459SOL     OW11062   2.244   0.700   7.928
 3459SOL    HW111063   2.289   0.610   7.925
 3459SOL    HW211064   2.150   0.689   7.961
 3460SOL     OW11065   2.476   0.122   7.565
 3460SOL    HW111066   2.574   0.100   7.572
 3460SOL    HW211067   2.445   0.105   7.472
 3461SOL     OW11068   2.401   0.064   7.960
 3461SOL    HW111069   2.320   0.065   8.018
 3461SOL    HW211070   2.404   0.147   7.905
 3462SOL     OW11071   3.296   1.188   7.489
 3462SOL    HW111072   3.328   1.112   7.546
 3462SOL    HW211073   3.204   1.215   7.519
 3463SOL     OW11074   2.159   0.035   7.619
 3463SOL    HW111075   2.208   0.119   7.598
 3463SOL    HW211076   2.221  -0.030   7.664
 3464SOL     OW11077   2.797   0.236   7.928
 3464SOL    HW111078   2.749   0.277   7.850
 3464SOL    HW211079   2.896   0.234   7.909
 3465SOL     OW11080   2.321   1.152   8.189
 3465SOL    HW111081   2.250   1.125   8.254
 3465SOL    HW211082   2.295   1.124   8.096
 3466SOL     OW11083   3.133   1.797   8.039
 3466SOL    HW111084   3.177   1.861   7.975
 3466SOL    HW211085   3.083   1.849   8.109
 3467SOL     OW11086   2.894   0.549   7.464
 3467SOL    HW111087   2.853   0.631   7.425
 3467SOL    HW211088   2.958   0.575   7.537
 3468SOL     OW11089   3.719   0.833   7.825
 3468SOL    HW111090   3.761   0.769   7.889
 3468SOL    HW211091   3.681   0.782   7.747
 3469SOL     OW11092   2.350   1.385   7.622
 3469SOL    HW111093   2.263   1.370   7.669
 3469SOL    HW211094   2.333   1.411   7.527
 3470SOL     OW11095   3.252   0.575   7.526
 3470SOL    HW111096   3.198   0.554   7.607
 3470SOL    HW211097   3.343   0.534   7.535
 3471SOL     OW11098   2.389   0.256   7.776
 3471SOL    HW111099   2.416   0.197   7.701
 3471SOL    HW211100   2.389   0.351   7.745
 3472SOL     OW11101   2.567   1.050   7.816
 3472SOL    HW111102   2.553   1.057   7.915
 3472SOL    HW211103   2.651   0.999   7.798
 3473SOL     OW11104   2.229   1.100   7.949
 3473SOL    HW111105   2.222   1.183   7.893
 3473SOL    HW211106   2.233   1.020   7.889
 3474SOL     OW11107   3.114   1.348   7.836
 3474SOL    HW111108   3.164   1.425   7.876
 3474SOL    HW211109   3.019   1.350   7.868
 3475SOL     OW11110   3.444   0.639   7.920
 3475SOL    HW111111   3.413   0.700   7.993
 3475SOL    HW211112   3.494   0.691   7.851
 3476SOL     OW11113   3.071   0.525   7.723
 3476SOL    HW111114   3.084   0.441   7.777
 3476SOL    HW211115   3.042   0.599   7.783
 3477SOL     OW11116   3.484   0.367   7.822
 3477SOL    HW111117   3.486   0.291   7.886
 3477SOL    HW211118   3.436   0.444   7.862
 3478SOL     OW11119   3.402   0.274   7.573
 3478SOL    HW111120   3.341   0.199   7.596
 3478SOL    HW211121   3.424   0.326   7.656
 3479SOL     OW11122   3.165   0.838   7.490
 3479SOL    HW111123   3.199   0.745   7.505
 3479SOL    HW211124   3.183   0.865   7.395
 3480SOL     OW11125   1.870   1.326   7.648
 3480SOL    HW111126   1.777   1.347   7.617
 3480SOL    HW211127   1.880   1.227   7.661
 3481SOL     OW11128   2.677   0.572   7.773
 3481SOL    HW111129   2.684   0.483   7.727
 3481SOL    HW211130   2.583   0.606   7.765
 3482SOL     OW11131   2.335   0.500   7.639
 3482SOL    HW111132   2.396   0.580   7.643
 3482SOL    HW211133   2.240   0.531   7.646
 3483SOL     OW11134   3.164   0.855   7.757
 3483SOL    HW111135   3.078   0.824   7.799
 3483SOL    HW211136   3.160   0.841   7.658
 3484SOL     OW11137   3.588   0.135   7.971
 3484SOL    HW111138   3.661   0.118   7.904
 3484SOL    HW211139   3.557   0.048   8.009
 3485SOL     OW11140   3.250   1.573   7.925
 3485SOL    HW111141   3.317   1.585   7.851
 3485SOL    HW211142   3.210   1.662   7.948
 3486SOL     OW11143   2.534   1.616   7.602
 3486SOL    HW111144   2.543   1.626   7.503
 3486SOL    HW211145   2.494   1.527   7.623
 3487SOL     OW11146   3.056   1.612   7.479
 3487SOL    HW111147   3.062   1.519   7.516
 3487SOL    HW211148   2.997   1.612   7.399
 3488SOL     OW11149   2.778   0.910   7.739
 3488SOL    HW111150   2.841   0.948   7.671
 3488SOL    HW211151   2.818   0.827   7.778
 3489SOL     OW11152   3.366   1.607   7.492
 3489SOL    HW111153   3.274   1.644   7.499
 3489SOL    HW211154   3.404   1.627   7.402
 3490SOL     OW11155   2.452   1.487   7.939
 3490SOL    HW111156   2.494   1.429   7.869
 3490SOL    HW211157   2.408   1.566   7.895
 3491SOL     OW11158   2.117   1.348   7.738
 3491SOL    HW111159   2.021   1.349   7.711
 3491SOL    HW211160   2.129   1.401   7.822
 3492SOL     OW11161   1.937   0.345   7.481
 3492SOL    HW111162   1.845   0.317   7.452
 3492SOL    HW211163   1.968   0.422   7.425
 3493SOL     OW11164   1.934   0.166   7.766
 3493SOL    HW111165   1.917   0.249   7.712
 3493SOL    HW211166   2.024   0.129   7.744
 3494SOL     OW11167   3.045   1.335   7.567
 3494SOL    HW111168   2.946   1.324   7.569
 3494SOL    HW211169   3.079   1.350   7.660
 3495SOL     OW11170   3.087   0.325   7.897
 3495SOL    HW111171   3.152   0.251   7.886
 3495SOL    HW211172   3.107   0.375   7.981
 3496SOL     OW11173   2.456   0.745   8.100
 3496SOL    HW111174   2.506   0.830   8.081
 3496SOL    HW211175   2.368   0.747   8.052
 3497SOL     OW11176   2.721   1.374   7.464
 3497SOL    HW111177   2.675   1.389   7.552
 3497SOL    HW211178   2.765   1.459   7.434
 3498SOL     OW11179   2.945   0.984   7.535
 3498SOL    HW111180   2.922   1.037   7.453
 3498SOL    HW211181   3.026   0.928   7.516
 3499SOL     OW11182   2.290   0.424   7.968
 3499SOL    HW111183   2.320   0.352   7.906
 3499SOL    HW211184   2.251   0.384   8.051
 3500SOL     OW11185   2.632   1.330   7.749
 3500SOL    HW111186   2.586   1.243   7.766
 3500SOL    HW211187   2.723   1.327   7.790
 3501SOL     OW11188   3.214   0.052   7.616
 3501SOL    HW111189   3.249   0.011   7.532
 3501SOL    HW211190   3.124   0.014   7.636
 3502SOL     OW11191   1.901   1.077   7.748
 3502SOL    HW111192   2.000   1.066   7.739
 3502SOL    HW211193   1.861   0.991   7.780
 3503SOL     OW11194   2.737   1.646   7.785
 3503SOL    HW111195   2.660   1.611   7.731
 3503SOL    HW211196   2.705   1.717   7.847
 3504SOL     OW11197   2.092   2.490   0.113
 3504SOL    HW111198   1.999   2.488   0.150
 3504SOL    HW211199   2.093   2.451   0.021
 3505SOL     OW11200   2.087   2.137   0.996
 3505SOL    HW111201   2.122   2.120   1.088
 3505SOL    HW211202   1.999   2.092   0.984
 3506SOL     OW11203   1.881   2.230   0.647
 3506SOL    HW111204   1.799   2.273   0.686
 3506SOL    HW211205   1.853   2.157   0.584
 3507SOL     OW11206   2.431   3.137   1.165
 3507SOL    HW111207   2.338   3.130   1.128
 3507SOL    HW211208   2.442   3.226   1.209
 3508SOL     OW11209   3.417   3.373   0.703
 3508SOL    HW111210   3.360   3.357   0.784
 3508SOL    HW211211   3.358   3.383   0.623
 3509SOL     OW11212   2.997   2.565   0.717
 3509SOL    HW111213   3.054   2.643   0.692
 3509SOL    HW211214   2.937   2.591   0.793
 3510SOL     OW11215   3.617   2.469   0.231
 3510SOL    HW111216   3.605   2.456   0.132
 3510SOL    HW211217   3.587   2.388   0.280
 3511SOL     OW11218   2.630   3.006   1.023
 3511SOL    HW111219   2.552   3.023   1.083
 3511SOL    HW211220   2.664   3.093   0.987
 3512SOL     OW11221   2.548   3.023   1.803
 3512SOL    HW111222   2.608   3.102   1.817
 3512SOL    HW211223   2.462   3.054   1.762
 3513SOL     OW11224   2.197   3.297   1.061
 3513SOL    HW111225   2.119   3.266   1.008
 3513SOL    HW211226   2.255   3.355   1.004
 3514SOL     OW11227   3.322   3.367   1.339
 3514SOL    HW111228   3.346   3.461   1.365
 3514SOL    HW211229   3.306   3.313   1.421
 3515SOL     OW11230   2.300   2.254   1.499
 3515SOL    HW111231   2.382   2.198   1.508
 3515SOL    HW211232   2.219   2.196   1.503
 3516SOL     OW11233   3.465   2.309   0.737
 3516SOL    HW111234   3.391   2.355   0.687
 3516SOL    HW211235   3.516   2.377   0.790
 3517SOL     OW11236   2.093   3.575   0.483
 3517SOL    HW111237   2.127   3.652   0.537
 3517SOL    HW211238   2.137   3.575   0.393
 3518SOL     OW11239   2.989   3.203   1.690
 3518SOL    HW111240   3.036   3.203   1.778
 3518SOL    HW211241   2.941   3.116   1.679
 3519SOL     OW11242   2.092   3.296   0.538
 3519SOL    HW111243   2.066   3.392   0.538
 3519SOL    HW211244   2.021   3.242   0.583
 3520SOL     OW11245   2.102   2.953   0.886
 3520SOL    HW111246   2.116   2.869   0.938
 3520SOL    HW211247   2.047   3.017   0.941
 3521SOL     OW11248   2.482   3.648   1.439
 3521SOL    HW111249   2.390   3.631   1.474
 3521SOL    HW211250   2.510   3.740   1.465
 3522SOL     OW11251   2.468   2.826   0.123
 3522SOL    HW111252   2.475   2.910   0.069
 3522SOL    HW211253   2.514   2.839   0.211
 3523SOL     OW11254   3.456   1.976   1.480
 3523SOL    HW111255   3.438   2.043   1.408
 3523SOL    HW211256   3.453   2.022   1.569
 3524SOL     OW11257   1.984   2.505   0.563
 3524SOL    HW111258   1.939   2.417   0.580
 3524SOL    HW211259   1.983   2.559   0.647
 3525SOL     OW11260   3.704   3.629   0.359
 3525SOL    HW111261   3.758   3.600   0.439
 3525SOL    HW211262   3.734   3.719   0.330
 3526SOL     OW11263   1.889   3.458   0.117
 3526SOL    HW111264   1.870   3.362   0.138
 3526SOL    HW211265   1.856   3.516   0.192
 3527SOL     OW11266   3.551   2.784   0.612
 3527SOL    HW111267   3.646   2.755   0.620
 3527SOL    HW211268   3.543   2.849   0.537
 3528SOL     OW11269   3.503   2.970   0.432
 3528SOL    HW111270   3.589   2.972   0.380
 3528SOL    HW211271   3.517   3.017   0.520
 3529SOL     OW11272   1.975   2.599   1.597
 3529SOL    HW111273   2.063   2.586   1.642
 3529SOL    HW211274   1.962   2.696   1.575
 3530SOL     OW11275   2.475   3.227   0.726
 3530SOL    HW111276   2.426   3.140   0.735
 3530SOL    HW211277   2.452   3.270   0.639
 3531SOL     OW11278   3.155   3.090   1.423
 3531SOL    HW111279   3.192   3.017   1.365
 3531SOL    HW211280   3.207   3.095   1.508
 3532SOL     OW11281   2.671   1.866   0.502
 3532SOL    HW111282   2.711   1.957   0.493
 3532SOL    HW211283   2.571   1.874   0.508
 3533SOL     OW11284   2.059   2.838   1.264
 3533SOL    HW111285   2.148   2.793   1.250
 3533SOL    HW211286   1.986   2.773   1.245
 3534SOL     OW11287   3.387   2.861   0.190
 3534SOL    HW111288   3.324   2.785   0.203
 3534SOL    HW211289   3.435   2.879   0.276
 3535SOL     OW11290   3.049   3.654   1.616
 3535SOL    HW111291   3.073   3.714   1.540
 3535SOL    HW211292   3.056   3.559   1.586
 3536SOL     OW11293   2.179   2.113   1.801
 3536SOL    HW111294   2.250   2.184   1.807
 3536SOL    HW211295   2.091   2.152   1.829
 3537SOL     OW11296   3.328   3.279   0.953
 3537SOL    HW111297   3.269   3.285   1.033
 3537SOL    HW211298   3.313   3.191   0.907
 3538SOL     OW11299   3.529   3.576   0.572
 3538SOL    HW111300   3.488   3.553   0.484
 3538SOL    HW211301   3.511   3.502   0.637
 3539SOL     OW11302   3.143   2.207   0.944
 3539SOL    HW111303   3.057   2.157   0.931
 3539SOL    HW211304   3.205   2.153   1.000
 3540SOL     OW11305   3.438   3.524   0.307
 3540SOL    HW111306   3.527   3.570   0.310
 3540SOL    HW211307   3.417   3.500   0.212
 3541SOL     OW11308   3.256   2.331   1.674
 3541SOL    HW111309   3.236   2.374   1.762
 3541SOL    HW211310   3.334   2.269   1.683
 3542SOL     OW11311   2.853   2.272   1.242
 3542SOL    HW111312   2.776   2.306   1.296
 3542SOL    HW211313   2.819   2.221   1.163
 3543SOL     OW11314   1.938   2.673   0.789
 3543SOL    HW111315   2.037   2.661   0.798
 3543SOL    HW211316   1.914   2.768   0.810
 3544SOL     OW11317   1.992   3.683   1.571
 3544SOL    HW111318   1.982   3.668   1.670
 3544SOL    HW211319   1.906   3.719   1.535
 3545SOL     OW11320   2.727   2.210   0.195
 3545SOL    HW111321   2.786   2.273   0.146
 3545SOL    HW211322   2.746   2.116   0.166
 3546SOL     OW11323   3.581   2.447   1.831
 3546SOL    HW111324   3.555   2.536   1.795
 3546SOL    HW211325   3.579   2.379   1.758
 3547SOL     OW11326   3.224   3.006   0.545
 3547SOL    HW111327   3.307   2.977   0.497
 3547SOL    HW211328   3.175   3.073   0.489
 3548SOL     OW11329   2.412   2.058   0.885
 3548SOL    HW111330   2.407   2.053   0.985
 3548SOL    HW211331   2.414   2.154   0.856
 3549SOL     OW11332   2.870   3.318   0.477
 3549SOL    HW111333   2.824   3.390   0.425
 3549SOL    HW211334   2.866   3.338   0.575
 3550SOL     OW11335   2.213   3.663   0.853
 3550SOL    HW111336   2.263   3.577   0.859
 3550SOL    HW211337   2.278   3.740   0.850
 3551SOL     OW11338   3.657   2.928   0.873
 3551SOL    HW111339   3.595   2.913   0.797
 3551SOL    HW211340   3.605   2.939   0.958
 3552SOL     OW11341   3.089   3.412   1.506
 3552SOL    HW111342   3.095   3.335   1.570
 3552SOL    HW211343   3.037   3.386   1.426
 3553SOL     OW11344   2.183   2.805   0.242
 3553SOL    HW111345   2.265   2.844   0.200
 3553SOL    HW211346   2.156   2.723   0.193
 3554SOL     OW11347   3.320   2.597   0.728
 3554SOL    HW111348   3.315   2.532   0.803
 3554SOL    HW211349   3.400   2.656   0.741
 3555SOL     OW11350   2.323   3.128   1.727
 3555SOL    HW111351   2.273   3.129   1.641
 3555SOL    HW211352   2.260   3.110   1.803
 3556SOL     OW11353   2.973   3.638   0.237
 3556SOL    HW111354   2.913   3.576   0.287
 3556SOL    HW211355   3.004   3.594   0.152
 3557SOL     OW11356   2.064   2.147   1.498
 3557SOL    HW111357   1.984   2.207   1.485
 3557SOL    HW211358   2.054   2.098   1.584
 3558SOL     OW11359   3.494   3.239   0.081
 3558SOL    HW111360   3.462   3.333   0.071
 3558SOL    HW211361   3.418   3.176   0.069
 3559SOL     OW11362   2.326   3.605   0.323
 3559SOL    HW111363   2.359   3.644   0.409
 3559SOL    HW211364   2.402   3.598   0.258
 3560SOL     OW11365   3.262   1.969   0.426
 3560SOL    HW111366   3.238   1.932   0.336
 3560SOL    HW211367   3.361   1.985   0.430
 3561SOL     OW11368   2.111   3.647   1.241
 3561SOL    HW111369   2.168   3.582   1.291
 3561SOL    HW211370   2.095   3.614   1.148
 3562SOL     OW11371   2.802   3.560   0.904
 3562SOL    HW111372   2.882   3.503   0.925
 3562SOL    HW211373   2.753   3.520   0.827
 3563SOL     OW11374   2.244   2.562   0.480
 3563SOL    HW111375   2.289   2.472   0.477
 3563SOL    HW211376   2.150   2.551   0.513
 3564SOL     OW11377   3.409   2.084   1.729
 3564SOL    HW111378   3.404   2.121   1.821
 3564SOL    HW211379   3.337   2.015   1.717
 3565SOL     OW11380   2.476   1.984   0.117
 3565SOL    HW111381   2.574   1.962   0.124
 3565SOL    HW211382   2.445   1.967   0.024
 3566SOL     OW11383   2.643   2.126   1.749
 3566SOL    HW111384   2.710   2.065   1.792
 3566SOL    HW211385   2.570   2.145   1.814
 3567SOL     OW11386   2.750   3.376   1.195
 3567SOL    HW111387   2.727   3.351   1.101
 3567SOL    HW211388   2.811   3.307   1.234
 3568SOL     OW11389   3.213   2.452   1.433
 3568SOL    HW111390   3.241   2.409   1.518
 3568SOL    HW211391   3.238   2.548   1.434
 3569SOL     OW11392   2.665   3.264   0.924
 3569SOL    HW111393   2.755   3.278   0.882
 3569SOL    HW211394   2.594   3.266   0.853
 3570SOL     OW11395   2.784   2.365   0.899
 3570SOL    HW111396   2.759   2.356   0.803
 3570SOL    HW211397   2.832   2.283   0.930
 3571SOL     OW11398   2.401   1.926   0.512
 3571SOL    HW111399   2.320   1.927   0.570
 3571SOL    HW211400   2.404   2.009   0.457
 3572SOL     OW11401   3.296   3.050   0.041
 3572SOL    HW111402   3.328   2.974   0.098
 3572SOL    HW211403   3.204   3.077   0.071
 3573SOL     OW11404   2.159   1.897   0.171
 3573SOL    HW111405   2.208   1.981   0.150
 3573SOL    HW211406   2.221   1.832   0.216
 3574SOL     OW11407   2.797   2.098   0.480
 3574SOL    HW111408   2.749   2.139   0.402
 3574SOL    HW211409   2.896   2.096   0.461
 3575SOL     OW11410   2.938   2.545   1.464
 3575SOL    HW111411   2.858   2.484   1.467
 3575SOL    HW211412   3.019   2.492   1.440
 3576SOL     OW11413   3.089   3.432   0.793
 3576SOL    HW111414   3.110   3.506   0.728
 3576SOL    HW211415   3.157   3.432   0.866
 3577SOL     OW11416   2.321   3.014   0.741
 3577SOL    HW111417   2.250   2.987   0.806
 3577SOL    HW211418   2.295   2.986   0.648
 3578SOL     OW11419   3.133   3.659   0.591
 3578SOL    HW111420   3.177   3.723   0.527
 3578SOL    HW211421   3.083   3.711   0.661
 3579SOL     OW11422   2.894   2.411   0.016
 3579SOL    HW111423   2.853   2.493  -0.023
 3579SOL    HW211424   2.958   2.437   0.089
 3580SOL     OW11425   1.940   2.418   1.386
 3580SOL    HW111426   2.032   2.417   1.345
 3580SOL    HW211427   1.934   2.492   1.453
 3581SOL     OW11428   2.423   2.084   1.147
 3581SOL    HW111429   2.461   2.000   1.184
 3581SOL    HW211430   2.335   2.103   1.191
 3582SOL     OW11431   2.728   2.316   0.642
 3582SOL    HW111432   2.696   2.388   0.580
 3582SOL    HW211433   2.752   2.235   0.589
 3583SOL     OW11434   2.879   1.901   0.753
 3583SOL    HW111435   2.807   1.906   0.684
 3583SOL    HW211436   2.855   1.832   0.822
 3584SOL     OW11437   3.291   3.035   0.867
 3584SOL    HW111438   3.236   2.951   0.860
 3584SOL    HW211439   3.317   3.064   0.775
 3585SOL     OW11440   3.328   2.452   0.992
 3585SOL    HW111441   3.298   2.357   0.999
 3585SOL    HW211442   3.401   2.468   1.058
 3586SOL     OW11443   3.719   2.695   0.377
 3586SOL    HW111444   3.761   2.631   0.441
 3586SOL    HW211445   3.681   2.644   0.299
 3587SOL     OW11446   2.350   3.247   0.174
 3587SOL    HW111447   2.263   3.232   0.221
 3587SOL    HW211448   2.333   3.273   0.079
 3588SOL     OW11449   3.526   3.142   0.657
 3588SOL    HW111450   3.625   3.150   0.671
 3588SOL    HW211451   3.481   3.226   0.688
 3589SOL     OW11452   3.252   2.437   0.078
 3589SOL    HW111453   3.198   2.416   0.159
 3589SOL    HW211454   3.343   2.396   0.087
 3590SOL     OW11455   2.389   2.118   0.328
 3590SOL    HW111456   2.416   2.059   0.253
 3590SOL    HW211457   2.389   2.213   0.297
 3591SOL     OW11458   3.616   3.085   1.588
 3591SOL    HW111459   3.707   3.046   1.575
 3591SOL    HW211460   3.624   3.181   1.612
 3592SOL     OW11461   2.926   3.209   1.340
 3592SOL    HW111462   2.846   3.186   1.395
 3592SOL    HW211463   3.009   3.183   1.389
 3593SOL     OW11464   3.454   3.491   1.625
 3593SOL    HW111465   3.481   3.525   1.535
 3593SOL    HW211466   3.533   3.453   1.671
 3594SOL     OW11467   2.973   3.057   1.100
 3594SOL    HW111468   2.933   3.101   1.181
 3594SOL    HW211469   2.932   3.094   1.017
 3595SOL     OW11470   3.500   2.961   1.079
 3595SOL    HW111471   3.505   3.042   1.138
 3595SOL    HW211472   3.414   2.963   1.028
 3596SOL     OW11473   2.777   1.951   1.402
 3596SOL    HW111474   2.802   1.931   1.307
 3596SOL    HW211475   2.849   2.007   1.444
 3597SOL     OW11476   2.842   2.978   1.719
 3597SOL    HW111477   2.743   2.984   1.729
 3597SOL    HW211478   2.865   2.898   1.663
 3598SOL     OW11479   2.567   2.912   0.368
 3598SOL    HW111480   2.553   2.919   0.467
 3598SOL    HW211481   2.651   2.861   0.350
 3599SOL     OW11482   2.272   2.675   1.251
 3599SOL    HW111483   2.358   2.687   1.301
 3599SOL    HW211484   2.230   2.588   1.278
 3600SOL     OW11485   3.136   2.248   1.262
 3600SOL    HW111486   3.157   2.322   1.326
 3600SOL    HW211487   3.047   2.265   1.219
 3601SOL     OW11488   1.926   3.426   1.331
 3601SOL    HW111489   1.880   3.508   1.297
 3601SOL    HW211490   2.024   3.445   1.340
 3602SOL     OW11491   2.229   2.962   0.501
 3602SOL    HW111492   2.222   3.045   0.445
 3602SOL    HW211493   2.233   2.882   0.441
 3603SOL     OW11494   2.428   2.399   0.865
 3603SOL    HW111495   2.440   2.465   0.791
 3603SOL    HW211496   2.474   2.433   0.948
 3604SOL     OW11497   3.114   3.210   0.388
 3604SOL    HW111498   3.164   3.287   0.428
 3604SOL    HW211499   3.019   3.212   0.420
 3605SOL     OW11500   3.134   3.307   1.142
 3605SOL    HW111501   3.181   3.320   1.229
 3605SOL    HW211502   3.068   3.233   1.151
 3606SOL     OW11503   3.444   2.501   0.472
 3606SOL    HW111504   3.413   2.562   0.545
 3606SOL    HW211505   3.494   2.553   0.403
 3607SOL     OW11506   2.216   3.372   1.329
 3607SOL    HW111507   2.195   3.328   1.242
 3607SOL    HW211508   2.313   3.398   1.332
 3608SOL     OW11509   2.264   2.613   1.598
 3608SOL    HW111510   2.332   2.668   1.551
 3608SOL    HW211511   2.304   2.525   1.625
 3609SOL     OW11512   3.449   2.641   1.670
 3609SOL    HW111513   3.357   2.679   1.665
 3609SOL    HW211514   3.509   2.688   1.605
 3610SOL     OW11515   2.875   1.967   1.770
 3610SOL    HW111516   2.881   2.052   1.718
 3610SOL    HW211517   2.907   1.891   1.713
 3611SOL     OW11518   2.366   1.912   1.740
 3611SOL    HW111519   2.324   1.855   1.670
 3611SOL    HW211520   2.300   1.981   1.772
 3612SOL     OW11521   3.222   2.724   1.045
 3612SOL    HW111522   3.147   2.724   0.979
 3612SOL    HW211523   3.259   2.632   1.054
 3613SOL     OW11524   3.071   2.387   0.275
 3613SOL    HW111525   3.084   2.303   0.329
 3613SOL    HW211526   3.042   2.461   0.335
 3614SOL     OW11527   2.169   2.075   1.231
 3614SOL    HW111528   2.146   2.112   1.321
 3614SOL    HW211529   2.139   1.980   1.225
 3615SOL     OW11530   1.899   3.172   1.282
 3615SOL    HW111531   1.952   3.123   1.350
 3615SOL    HW211532   1.921   3.270   1.287
 3616SOL     OW11533   3.590   2.797   1.854
 3616SOL    HW111534   3.544   2.790   1.765
 3616SOL    HW211535   3.528   2.841   1.920
 3617SOL     OW11536   2.169   1.925   0.618
 3617SOL    HW111537   2.158   2.019   0.651
 3617SOL    HW211538   2.164   1.862   0.695
 3618SOL     OW11539   3.484   2.229   0.374
 3618SOL    HW111540   3.486   2.153   0.438
 3618SOL    HW211541   3.436   2.306   0.414
 3619SOL     OW11542   2.842   3.435   1.700
 3619SOL    HW111543   2.822   3.479   1.612
 3619SOL    HW211544   2.881   3.344   1.684
 3620SOL     OW11545   3.721   3.380   1.605
 3620SOL    HW111546   3.735   3.407   1.510
 3620SOL    HW211547   3.804   3.402   1.658
 3621SOL     OW11548   2.212   2.760   1.804
 3621SOL    HW111549   2.288   2.804   1.852
 3621SOL    HW211550   2.247   2.713   1.722
 3622SOL     OW11551   3.402   2.136   0.125
 3622SOL    HW111552   3.341   2.061   0.148
 3622SOL    HW211553   3.424   2.188   0.208
 3623SOL     OW11554   3.165   2.700   0.042
 3623SOL    HW111555   3.199   2.607   0.057
 3623SOL    HW211556   3.183   2.727  -0.053
 3624SOL     OW11557   2.930   3.195   0.849
 3624SOL    HW111558   2.937   3.111   0.794
 3624SOL    HW211559   2.992   3.264   0.813
 3625SOL     OW11560   2.181   2.672   0.949
 3625SOL    HW111561   2.274   2.708   0.954
 3625SOL    HW211562   2.175   2.587   1.001
 3626SOL     OW11563   2.201   2.371   1.006
 3626SOL    HW111564   2.149   2.288   0.989
 3626SOL    HW211565   2.278   2.376   0.942
 3627SOL     OW11566   3.000   2.242   1.678
 3627SOL    HW111567   2.955   2.305   1.742
 3627SOL    HW211568   3.093   2.273   1.661
 3628SOL     OW11569   3.022   2.069   1.477
 3628SOL    HW111570   3.022   2.133   1.554
 3628SOL    HW211571   3.050   2.117   1.394
 3629SOL     OW11572   1.870   3.188   0.200
 3629SOL    HW111573   1.777   3.209   0.169
 3629SOL    HW211574   1.880   3.089   0.213
 3630SOL     OW11575   1.950   3.663   0.927
 3630SOL    HW111576   1.908   3.577   0.900
 3630SOL    HW211577   2.044   3.666   0.893
 3631SOL     OW11578   2.366   3.430   0.910
 3631SOL    HW111579   2.432   3.504   0.919
 3631SOL    HW211580   2.410   3.351   0.868
 3632SOL     OW11581   1.902   2.406   1.114
 3632SOL    HW111582   1.987   2.373   1.073
 3632SOL    HW211583   1.915   2.421   1.212
 3633SOL     OW11584   2.051   2.382   1.722
 3633SOL    HW111585   2.110   2.342   1.652
 3633SOL    HW211586   1.993   2.453   1.681
 3634SOL     OW11587   3.231   2.812   1.660
 3634SOL    HW111588   3.270   2.901   1.680
 3634SOL    HW211589   3.241   2.792   1.563
 3635SOL     OW11590   3.519   2.466   1.206
 3635SOL    HW111591   3.481   2.397   1.268
 3635SOL    HW211592   3.601   2.430   1.162
 3636SOL     OW11593   2.114   3.426   1.744
 3636SOL    HW111594   2.084   3.483   1.820
 3636SOL    HW211595   2.107   3.329   1.770
 3637SOL     OW11596   2.533   2.326   1.269
 3637SOL    HW111597   2.499   2.237   1.239
 3637SOL    HW211598   2.559   2.380   1.189
 3638SOL     OW11599   2.792   3.540   1.465
 3638SOL    HW111600   2.768   3.522   1.370
 3638SOL    HW211601   2.822   3.634   1.475
 3639SOL     OW11602   2.335   2.362   0.191
 3639SOL    HW111603   2.396   2.442   0.195
 3639SOL    HW211604   2.240   2.393   0.198
 3640SOL     OW11605   2.021   2.999   1.466
 3640SOL    HW111606   2.043   2.938   1.542
 3640SOL    HW211607   2.031   2.950   1.380
 3641SOL     OW11608   3.209   2.921   1.234
 3641SOL    HW111609   3.233   2.858   1.160
 3641SOL    HW211610   3.119   2.961   1.216
 3642SOL     OW11611   3.164   2.717   0.309
 3642SOL    HW111612   3.078   2.686   0.351
 3642SOL    HW211613   3.160   2.703   0.210
 3643SOL     OW11614   3.621   3.609   1.154
 3643SOL    HW111615   3.682   3.639   1.081
 3643SOL    HW211616   3.583   3.520   1.132
 3644SOL     OW11617   3.114   3.593   1.128
 3644SOL    HW111618   3.198   3.598   1.074
 3644SOL    HW211619   3.091   3.497   1.146
 3645SOL     OW11620   1.945   3.120   1.022
 3645SOL    HW111621   1.940   3.119   1.122
 3645SOL    HW211622   1.862   3.079   0.984
 3646SOL     OW11623   2.550   3.524   1.716
 3646SOL    HW111624   2.494   3.605   1.725
 3646SOL    HW211625   2.602   3.528   1.630
 3647SOL     OW11626   2.765   1.948   0.133
 3647SOL    HW111627   2.816   1.949   0.047
 3647SOL    HW211628   2.821   1.906   0.204
 3648SOL     OW11629   3.588   1.997   0.523
 3648SOL    HW111630   3.661   1.980   0.456
 3648SOL    HW211631   3.557   1.910   0.561
 3649SOL     OW11632   3.250   3.435   0.477
 3649SOL    HW111633   3.317   3.447   0.403
 3649SOL    HW211634   3.210   3.524   0.500
 3650SOL     OW11635   1.992   3.656   1.851
 3650SOL    HW111636   1.951   3.582   1.904
 3650SOL    HW211637   2.056   3.707   1.909
 3651SOL     OW11638   3.142   2.789   0.672
 3651SOL    HW111639   3.202   2.708   0.674
 3651SOL    HW211640   3.182   2.858   0.612
 3652SOL     OW11641   2.692   3.135   1.422
 3652SOL    HW111642   2.687   3.168   1.517
 3652SOL    HW211643   2.606   3.154   1.376
 3653SOL     OW11644   2.534   3.478   0.154
 3653SOL    HW111645   2.543   3.488   0.055
 3653SOL    HW211646   2.494   3.389   0.175
 3654SOL     OW11647   3.512   3.582   1.394
 3654SOL    HW111648   3.565   3.592   1.310
 3654SOL    HW211649   3.485   3.672   1.428
 3655SOL     OW11650   3.703   2.037   0.963
 3655SOL    HW111651   3.742   1.952   0.927
 3655SOL    HW211652   3.605   2.039   0.944
 3656SOL     OW11653   2.125   2.188   0.720
 3656SOL    HW111654   2.046   2.239   0.686
 3656SOL    HW211655   2.116   2.173   0.818
 3657SOL     OW11656   3.056   3.474   0.031
 3657SOL    HW111657   3.062   3.381   0.068
 3657SOL    HW211658   2.997   3.474  -0.049
 3658SOL     OW11659   3.366   3.469   0.044
 3658SOL    HW111660   3.274   3.506   0.051
 3658SOL    HW211661   3.404   3.489  -0.046
 3659SOL     OW11662   2.234   3.150   1.490
 3659SOL    HW111663   2.221   3.243   1.456
 3659SOL    HW211664   2.150   3.098   1.477
 3660SOL     OW11665   3.476   3.154   1.289
 3660SOL    HW111666   3.536   3.157   1.369
 3660SOL    HW211667   3.401   3.218   1.302
 3661SOL     OW11668   2.901   2.960   0.696
 3661SOL    HW111669   2.831   2.913   0.750
 3661SOL    HW211670   2.960   2.892   0.653
 3662SOL     OW11671   2.876   2.098   0.971
 3662SOL    HW111672   2.868   2.062   0.878
 3662SOL    HW211673   2.874   2.022   1.036
 3663SOL     OW11674   2.452   3.349   0.491
 3663SOL    HW111675   2.494   3.291   0.421
 3663SOL    HW211676   2.408   3.428   0.447
 3664SOL     OW11677   3.571   2.247   1.381
 3664SOL    HW111678   3.644   2.316   1.385
 3664SOL    HW211679   3.599   2.172   1.322
 3665SOL     OW11680   2.117   3.210   0.290
 3665SOL    HW111681   2.021   3.211   0.263
 3665SOL    HW211682   2.129   3.263   0.374
 3666SOL     OW11683   1.967   2.875   1.726
 3666SOL    HW111684   1.890   2.842   1.780
 3666SOL    HW211685   2.052   2.845   1.768
 3667SOL     OW11686   2.534   2.065   1.489
 3667SOL    HW111687   2.624   2.049   1.449
 3667SOL    HW211688   2.542   2.070   1.588
 3668SOL     OW11689   1.937   2.207   0.033
 3668SOL    HW111690   1.845   2.179   0.004
 3668SOL    HW211691   1.968   2.284  -0.023
 3669SOL     OW11692   3.302   2.718   1.398
 3669SOL    HW111693   3.245   2.770   1.335
 3669SOL    HW211694   3.398   2.730   1.374
 3670SOL     OW11695   1.934   2.028   0.318
 3670SOL    HW111696   1.917   2.111   0.264
 3670SOL    HW211697   2.024   1.991   0.296
 3671SOL     OW11698   3.045   3.197   0.119
 3671SOL    HW111699   2.946   3.186   0.121
 3671SOL    HW211700   3.079   3.212   0.212
 3672SOL     OW11701   3.355   3.629   0.959
 3672SOL    HW111702   3.388   3.693   0.890
 3672SOL    HW211703   3.421   3.623   1.034
 3673SOL     OW11704   3.312   3.082   1.633
 3673SOL    HW111705   3.303   3.072   1.732
 3673SOL    HW211706   3.408   3.075   1.607
 3674SOL     OW11707   2.252   3.603   1.560
 3674SOL    HW111708   2.161   3.644   1.558
 3674SOL    HW211709   2.245   3.509   1.592
 3675SOL     OW11710   3.536   2.745   1.254
 3675SOL    HW111711   3.509   2.656   1.217
 3675SOL    HW211712   3.537   2.813   1.181
 3676SOL     OW11713   3.087   2.187   0.449
 3676SOL    HW111714   3.152   2.113   0.438
 3676SOL    HW211715   3.107   2.237   0.533
 3677SOL     OW11716   3.639   2.204   1.642
 3677SOL    HW111717   3.622   2.235   1.548
 3677SOL    HW211718   3.555   2.167   1.680
 3678SOL     OW11719   3.592   2.796   1.517
 3678SOL    HW111720   3.630   2.887   1.532
 3678SOL    HW211721   3.584   2.779   1.418
 3679SOL     OW11722   2.721   3.236   0.016
 3679SOL    HW111723   2.675   3.251   0.104
 3679SOL    HW211724   2.765   3.321  -0.014
 3680SOL     OW11725   2.523   3.652   0.953
 3680SOL    HW111726   2.477   3.740   0.940
 3680SOL    HW211727   2.622   3.664   0.946
 3681SOL     OW11728   2.945   2.846   0.087
 3681SOL    HW111729   2.922   2.899   0.005
 3681SOL    HW211730   3.026   2.790   0.068
 3682SOL     OW11731   3.723   3.431   0.851
 3682SOL    HW111732   3.652   3.419   0.781
 3682SOL    HW211733   3.724   3.352   0.911
 3683SOL     OW11734   2.083   3.176   1.844
 3683SOL    HW111735   2.018   3.103   1.823
 3683SOL    HW211736   2.087   3.190   1.942
 3684SOL     OW11737   1.941   3.102   0.653
 3684SOL    HW111738   1.940   3.055   0.741
 3684SOL    HW211739   2.023   3.074   0.602
 3685SOL     OW11740   2.534   3.253   1.624
 3685SOL    HW111741   2.456   3.203   1.662
 3685SOL    HW211742   2.531   3.348   1.655
 3686SOL     OW11743   3.686   2.054   1.227
 3686SOL    HW111744   3.682   1.964   1.271
 3686SOL    HW211745   3.689   2.043   1.128
 3687SOL     OW11746   2.290   2.286   0.520
 3687SOL    HW111747   2.320   2.214   0.458
 3687SOL    HW211748   2.251   2.246   0.603
 3688SOL     OW11749   3.567   3.349   1.104
 3688SOL    HW111750   3.474   3.324   1.077
 3688SOL    HW211751   3.593   3.299   1.186
 3689SOL     OW11752   2.179   2.409   1.280
 3689SOL    HW111753   2.217   2.350   1.352
 3689SOL    HW211754   2.219   2.383   1.192
 3690SOL     OW11755   2.674   3.448   0.687
 3690SOL    HW111756   2.706   3.458   0.593
 3690SOL    HW211757   2.595   3.386   0.689
 3691SOL     OW11758   3.286   2.076   1.112
 3691SOL    HW111759   3.338   2.011   1.167
 3691SOL    HW211760   3.237   2.139   1.173
 3692SOL     OW11761   2.863   1.896   1.154
 3692SOL    HW111762   2.800   1.824   1.123
 3692SOL    HW211763   2.956   1.860   1.154
 3693SOL     OW11764   2.632   3.192   0.301
 3693SOL    HW111765   2.586   3.105   0.318
 3693SOL    HW211766   2.723   3.189   0.342
 3694SOL     OW11767   2.480   3.429   1.284
 3694SOL    HW111768   2.475   3.511   1.341
 3694SOL    HW211769   2.569   3.426   1.239
 3695SOL     OW11770   3.214   1.914   0.168
 3695SOL    HW111771   3.249   1.873   0.084
 3695SOL    HW211772   3.124   1.876   0.188
 3696SOL     OW11773   3.162   2.315   0.691
 3696SOL    HW111774   3.103   2.395   0.695
 3696SOL    HW211775   3.177   2.280   0.784
 3697SOL     OW11776   3.455   2.083   0.882
 3697SOL    HW111777   3.371   2.082   0.936
 3697SOL    HW211778   3.457   2.166   0.826
 3698SOL     OW11779   1.901   2.939   0.300
 3698SOL    HW111780   2.000   2.928   0.291
 3698SOL    HW211781   1.861   2.853   0.332
 3699SOL     OW11782   2.737   3.508   0.337
 3699SOL    HW111783   2.660   3.473   0.283
 3699SOL    HW211784   2.705   3.579   0.399
 3700SOL     OW11785   2.092   2.490   1.975
 3700SOL    HW111786   1.999   2.488   2.012
 3700SOL    HW211787   2.093   2.451   1.883
 3701SOL     OW11788   1.881   2.230   2.509
 3701SOL    HW111789   1.799   2.273   2.548
 3701SOL    HW211790   1.853   2.157   2.446
 3702SOL     OW11791   3.417   3.373   2.565
 3702SOL    HW111792   3.360   3.357   2.646
 3702SOL    HW211793   3.358   3.383   2.485
 3703SOL     OW11794   2.997   2.565   2.579
 3703SOL    HW111795   3.054   2.643   2.554
 3703SOL    HW211796   2.937   2.591   2.655
 3704SOL     OW11797   3.617   2.469   2.093
 3704SOL    HW111798   3.605   2.456   1.994
 3704SOL    HW211799   3.587   2.388   2.142
 3705SOL     OW11800   2.630   3.006   2.885
 3705SOL    HW111801   2.552   3.023   2.945
 3705SOL    HW211802   2.664   3.093   2.849
 3706SOL     OW11803   2.197   3.297   2.923
 3706SOL    HW111804   2.119   3.266   2.870
 3706SOL    HW211805   2.255   3.355   2.866
 3707SOL     OW11806   3.465   2.309   2.599
 3707SOL    HW111807   3.391   2.355   2.549
 3707SOL    HW211808   3.516   2.377   2.652
 3708SOL     OW11809   2.093   3.575   2.345
 3708SOL    HW111810   2.127   3.652   2.399
 3708SOL    HW211811   2.137   3.575   2.255
 3709SOL     OW11812   2.092   3.296   2.400
 3709SOL    HW111813   2.066   3.392   2.400
 3709SOL    HW211814   2.021   3.242   2.445
 3710SOL     OW11815   2.102   2.953   2.748
 3710SOL    HW111816   2.116   2.869   2.800
 3710SOL    HW211817   2.047   3.017   2.803
 3711SOL     OW11818   2.482   3.648   3.301
 3711SOL    HW111819   2.390   3.631   3.336
 3711SOL    HW211820   2.510   3.740   3.327
 3712SOL     OW11821   2.468   2.826   1.985
 3712SOL    HW111822   2.475   2.910   1.931
 3712SOL    HW211823   2.514   2.839   2.073
 3713SOL     OW11824   1.984   2.505   2.425
 3713SOL    HW111825   1.939   2.417   2.442
 3713SOL    HW211826   1.983   2.559   2.509
 3714SOL     OW11827   3.704   3.629   2.221
 3714SOL    HW111828   3.758   3.600   2.301
 3714SOL    HW211829   3.734   3.719   2.192
 3715SOL     OW11830   1.889   3.458   1.979
 3715SOL    HW111831   1.870   3.362   2.000
 3715SOL    HW211832   1.856   3.516   2.054
 3716SOL     OW11833   3.551   2.784   2.474
 3716SOL    HW111834   3.646   2.755   2.482
 3716SOL    HW211835   3.543   2.849   2.399
 3717SOL     OW11836   3.503   2.970   2.294
 3717SOL    HW111837   3.589   2.972   2.242
 3717SOL    HW211838   3.517   3.017   2.382
 3718SOL     OW11839   2.475   3.227   2.588
 3718SOL    HW111840   2.426   3.140   2.597
 3718SOL    HW211841   2.452   3.270   2.501
 3719SOL     OW11842   2.671   1.866   2.364
 3719SOL    HW111843   2.711   1.957   2.355
 3719SOL    HW211844   2.571   1.874   2.370
 3720SOL     OW11845   2.059   2.838   3.126
 3720SOL    HW111846   2.148   2.793   3.112
 3720SOL    HW211847   1.986   2.773   3.107
 3721SOL     OW11848   3.387   2.861   2.052
 3721SOL    HW111849   3.324   2.785   2.065
 3721SOL    HW211850   3.435   2.879   2.138
 3722SOL     OW11851   3.049   3.654   3.478
 3722SOL    HW111852   3.073   3.714   3.402
 3722SOL    HW211853   3.056   3.559   3.448
 3723SOL     OW11854   3.328   3.279   2.815
 3723SOL    HW111855   3.269   3.285   2.895
 3723SOL    HW211856   3.313   3.191   2.769
 3724SOL     OW11857   3.529   3.576   2.434
 3724SOL    HW111858   3.488   3.553   2.346
 3724SOL    HW211859   3.511   3.502   2.499
 3725SOL     OW11860   3.143   2.207   2.806
 3725SOL    HW111861   3.057   2.157   2.793
 3725SOL    HW211862   3.205   2.153   2.862
 3726SOL     OW11863   3.438   3.524   2.169
 3726SOL    HW111864   3.527   3.570   2.172
 3726SOL    HW211865   3.417   3.500   2.074
 3727SOL     OW11866   2.853   2.272   3.104
 3727SOL    HW111867   2.776   2.306   3.158
 3727SOL    HW211868   2.819   2.221   3.025
 3728SOL     OW11869   1.938   2.673   2.651
 3728SOL    HW111870   2.037   2.661   2.660
 3728SOL    HW211871   1.914   2.768   2.672
 3729SOL     OW11872   1.992   3.683   3.433
 3729SOL    HW111873   1.982   3.668   3.532
 3729SOL    HW211874   1.906   3.719   3.397
 3730SOL     OW11875   2.727   2.210   2.057
 3730SOL    HW111876   2.786   2.273   2.008
 3730SOL    HW211877   2.746   2.116   2.028
 3731SOL     OW11878   3.224   3.006   2.407
 3731SOL    HW111879   3.307   2.977   2.359
 3731SOL    HW211880   3.175   3.073   2.351
 3732SOL     OW11881   2.412   2.058   2.747
 3732SOL    HW111882   2.407   2.053   2.847
 3732SOL    HW211883   2.414   2.154   2.718
 3733SOL     OW11884   2.870   3.318   2.339
 3733SOL    HW111885   2.824   3.390   2.287
 3733SOL    HW211886   2.866   3.338   2.437
 3734SOL     OW11887   2.213   3.663   2.715
 3734SOL    HW111888   2.263   3.577   2.721
 3734SOL    HW211889   2.278   3.740   2.712
 3735SOL     OW11890   3.657   2.928   2.735
 3735SOL    HW111891   3.595   2.913   2.659
 3735SOL    HW211892   3.605   2.939   2.820
 3736SOL     OW11893   2.183   2.805   2.104
 3736SOL    HW111894   2.265   2.844   2.062
 3736SOL    HW211895   2.156   2.723   2.055
 3737SOL     OW11896   3.320   2.597   2.590
 3737SOL    HW111897   3.315   2.532   2.665
 3737SOL    HW211898   3.400   2.656   2.603
 3738SOL     OW11899   2.973   3.638   2.099
 3738SOL    HW111900   2.913   3.576   2.149
 3738SOL    HW211901   3.004   3.594   2.014
 3739SOL     OW11902   3.494   3.239   1.943
 3739SOL    HW111903   3.462   3.333   1.933
 3739SOL    HW211904   3.418   3.176   1.931
 3740SOL     OW11905   2.326   3.605   2.185
 3740SOL    HW111906   2.359   3.644   2.271
 3740SOL    HW211907   2.402   3.598   2.120
 3741SOL     OW11908   3.262   1.969   2.288
 3741SOL    HW111909   3.238   1.932   2.198
 3741SOL    HW211910   3.361   1.985   2.292
 3742SOL     OW11911   2.111   3.647   3.103
 3742SOL    HW111912   2.168   3.582   3.153
 3742SOL    HW211913   2.095   3.614   3.010
 3743SOL     OW11914   2.802   3.560   2.766
 3743SOL    HW111915   2.882   3.503   2.787
 3743SOL    HW211916   2.753   3.520   2.689
 3744SOL     OW11917   2.244   2.562   2.342
 3744SOL    HW111918   2.289   2.472   2.339
 3744SOL    HW211919   2.150   2.551   2.375
 3745SOL     OW11920   2.476   1.984   1.979
 3745SOL    HW111921   2.574   1.962   1.986
 3745SOL    HW211922   2.445   1.967   1.886
 3746SOL     OW11923   2.665   3.264   2.786
 3746SOL    HW111924   2.755   3.278   2.744
 3746SOL    HW211925   2.594   3.266   2.715
 3747SOL     OW11926   2.784   2.365   2.761
 3747SOL    HW111927   2.759   2.356   2.665
 3747SOL    HW211928   2.832   2.283   2.792
 3748SOL     OW11929   2.401   1.926   2.374
 3748SOL    HW111930   2.320   1.927   2.432
 3748SOL    HW211931   2.404   2.009   2.319
 3749SOL     OW11932   3.296   3.050   1.903
 3749SOL    HW111933   3.328   2.974   1.960
 3749SOL    HW211934   3.204   3.077   1.933
 3750SOL     OW11935   2.159   1.897   2.033
 3750SOL    HW111936   2.208   1.981   2.012
 3750SOL    HW211937   2.221   1.832   2.078
 3751SOL     OW11938   2.797   2.098   2.342
 3751SOL    HW111939   2.749   2.139   2.264
 3751SOL    HW211940   2.896   2.096   2.323
 3752SOL     OW11941   2.938   2.545   3.326
 3752SOL    HW111942   2.858   2.484   3.329
 3752SOL    HW211943   3.019   2.492   3.302
 3753SOL     OW11944   3.089   3.432   2.655
 3753SOL    HW111945   3.110   3.506   2.590
 3753SOL    HW211946   3.157   3.432   2.728
 3754SOL     OW11947   2.321   3.014   2.603
 3754SOL    HW111948   2.250   2.987   2.668
 3754SOL    HW211949   2.295   2.986   2.510
 3755SOL     OW11950   3.133   3.659   2.453
 3755SOL    HW111951   3.177   3.723   2.389
 3755SOL    HW211952   3.083   3.711   2.523
 3756SOL     OW11953   2.894   2.411   1.878
 3756SOL    HW111954   2.853   2.493   1.839
 3756SOL    HW211955   2.958   2.437   1.951
 3757SOL     OW11956   2.728   2.316   2.504
 3757SOL    HW111957   2.696   2.388   2.442
 3757SOL    HW211958   2.752   2.235   2.451
 3758SOL     OW11959   2.879   1.901   2.615
 3758SOL    HW111960   2.807   1.906   2.546
 3758SOL    HW211961   2.855   1.832   2.684
 3759SOL     OW11962   3.291   3.035   2.729
 3759SOL    HW111963   3.236   2.951   2.722
 3759SOL    HW211964   3.317   3.064   2.637
 3760SOL     OW11965   3.328   2.452   2.854
 3760SOL    HW111966   3.298   2.357   2.861
 3760SOL    HW211967   3.401   2.468   2.920
 3761SOL     OW11968   3.719   2.695   2.239
 3761SOL    HW111969   3.761   2.631   2.303
 3761SOL    HW211970   3.681   2.644   2.161
 3762SOL     OW11971   2.350   3.247   2.036
 3762SOL    HW111972   2.263   3.232   2.083
 3762SOL    HW211973   2.333   3.273   1.941
 3763SOL     OW11974   3.526   3.142   2.519
 3763SOL    HW111975   3.625   3.150   2.533
 3763SOL    HW211976   3.481   3.226   2.550
 3764SOL     OW11977   3.252   2.437   1.940
 3764SOL    HW111978   3.198   2.416   2.021
 3764SOL    HW211979   3.343   2.396   1.949
 3765SOL     OW11980   2.389   2.118   2.190
 3765SOL    HW111981   2.416   2.059   2.115
 3765SOL    HW211982   2.389   2.213   2.159
 3766SOL     OW11983   3.616   3.085   3.450
 3766SOL    HW111984   3.707   3.046   3.437
 3766SOL    HW211985   3.624   3.181   3.474
 3767SOL     OW11986   3.454   3.491   3.487
 3767SOL    HW111987   3.481   3.525   3.397
 3767SOL    HW211988   3.533   3.453   3.533
 3768SOL     OW11989   3.500   2.961   2.941
 3768SOL    HW111990   3.505   3.042   3.000
 3768SOL    HW211991   3.414   2.963   2.890
 3769SOL     OW11992   2.272   2.675   3.113
 3769SOL    HW111993   2.358   2.687   3.163
 3769SOL    HW211994   2.230   2.588   3.140
 3770SOL     OW11995   3.136   2.248   3.124
 3770SOL    HW111996   3.157   2.322   3.188
 3770SOL    HW211997   3.047   2.265   3.081
 3771SOL     OW11998   1.926   3.426   3.193
 3771SOL    HW111999   1.880   3.508   3.159
 3771SOL    HW212000   2.024   3.445   3.202
 3772SOL     OW12001   2.229   2.962   2.363
 3772SOL    HW112002   2.222   3.045   2.307
 3772SOL    HW212003   2.233   2.882   2.303
 3773SOL     OW12004   2.428   2.399   2.727
 3773SOL    HW112005   2.440   2.465   2.653
 3773SOL    HW212006   2.474   2.433   2.810
 3774SOL     OW12007   3.114   3.210   2.250
 3774SOL    HW112008   3.164   3.287   2.290
 3774SOL    HW212009   3.019   3.212   2.282
 3775SOL     OW12010   3.134   3.307   3.004
 3775SOL    HW112011   3.181   3.320   3.091
 3775SOL    HW212012   3.068   3.233   3.013
 3776SOL     OW12013   3.444   2.501   2.334
 3776SOL    HW112014   3.413   2.562   2.407
 3776SOL    HW212015   3.494   2.553   2.265
 3777SOL     OW12016   2.264   2.613   3.460
 3777SOL    HW112017   2.332   2.668   3.413
 3777SOL    HW212018   2.304   2.525   3.487
 3778SOL     OW12019   3.222   2.724   2.907
 3778SOL    HW112020   3.147   2.724   2.841
 3778SOL    HW212021   3.259   2.632   2.916
 3779SOL     OW12022   3.071   2.387   2.137
 3779SOL    HW112023   3.084   2.303   2.191
 3779SOL    HW212024   3.042   2.461   2.197
 3780SOL     OW12025   3.590   2.797   3.716
 3780SOL    HW112026   3.544   2.790   3.627
 3780SOL    HW212027   3.528   2.841   3.782
 3781SOL     OW12028   2.169   1.925   2.480
 3781SOL    HW112029   2.158   2.019   2.513
 3781SOL    HW212030   2.164   1.862   2.557
 3782SOL     OW12031   3.484   2.229   2.236
 3782SOL    HW112032   3.486   2.153   2.300
 3782SOL    HW212033   3.436   2.306   2.276
 3783SOL     OW12034   3.721   3.380   3.467
 3783SOL    HW112035   3.735   3.407   3.372
 3783SOL    HW212036   3.804   3.402   3.520
 3784SOL     OW12037   3.402   2.136   1.987
 3784SOL    HW112038   3.341   2.061   2.010
 3784SOL    HW212039   3.424   2.188   2.070
 3785SOL     OW12040   3.165   2.700   1.904
 3785SOL    HW112041   3.199   2.607   1.919
 3785SOL    HW212042   3.183   2.727   1.809
 3786SOL     OW12043   2.930   3.195   2.711
 3786SOL    HW112044   2.937   3.111   2.656
 3786SOL    HW212045   2.992   3.264   2.675
 3787SOL     OW12046   2.181   2.672   2.811
 3787SOL    HW112047   2.274   2.708   2.816
 3787SOL    HW212048   2.175   2.587   2.863
 3788SOL     OW12049   2.201   2.371   2.868
 3788SOL    HW112050   2.149   2.288   2.851
 3788SOL    HW212051   2.278   2.376   2.804
 3789SOL     OW12052   1.870   3.188   2.062
 3789SOL    HW112053   1.777   3.209   2.031
 3789SOL    HW212054   1.880   3.089   2.075
 3790SOL     OW12055   1.950   3.663   2.789
 3790SOL    HW112056   1.908   3.577   2.762
 3790SOL    HW212057   2.044   3.666   2.755
 3791SOL     OW12058   2.366   3.430   2.772
 3791SOL    HW112059   2.432   3.504   2.781
 3791SOL    HW212060   2.410   3.351   2.730
 3792SOL     OW12061   1.902   2.406   2.976
 3792SOL    HW112062   1.987   2.373   2.935
 3792SOL    HW212063   1.915   2.421   3.074
 3793SOL     OW12064   2.677   2.434   2.187
 3793SOL    HW112065   2.684   2.345   2.141
 3793SOL    HW212066   2.583   2.468   2.179
 3794SOL     OW12067   3.519   2.466   3.068
 3794SOL    HW112068   3.481   2.397   3.130
 3794SOL    HW212069   3.601   2.430   3.024
 3795SOL     OW12070   2.792   3.540   3.327
 3795SOL    HW112071   2.768   3.522   3.232
 3795SOL    HW212072   2.822   3.634   3.337
 3796SOL     OW12073   2.335   2.362   2.053
 3796SOL    HW112074   2.396   2.442   2.057
 3796SOL    HW212075   2.240   2.393   2.060
 3797SOL     OW12076   3.164   2.717   2.171
 3797SOL    HW112077   3.078   2.686   2.213
 3797SOL    HW212078   3.160   2.703   2.072
 3798SOL     OW12079   3.621   3.609   3.016
 3798SOL    HW112080   3.682   3.639   2.943
 3798SOL    HW212081   3.583   3.520   2.994
 3799SOL     OW12082   3.114   3.593   2.990
 3799SOL    HW112083   3.198   3.598   2.936
 3799SOL    HW212084   3.091   3.497   3.008
 3800SOL     OW12085   1.945   3.120   2.884
 3800SOL    HW112086   1.940   3.119   2.984
 3800SOL    HW212087   1.862   3.079   2.846
 3801SOL     OW12088   2.550   3.524   3.578
 3801SOL    HW112089   2.494   3.605   3.587
 3801SOL    HW212090   2.602   3.528   3.492
 3802SOL     OW12091   3.588   1.997   2.385
 3802SOL    HW112092   3.661   1.980   2.318
 3802SOL    HW212093   3.557   1.910   2.423
 3803SOL     OW12094   3.250   3.435   2.339
 3803SOL    HW112095   3.317   3.447   2.265
 3803SOL    HW212096   3.210   3.524   2.362
 3804SOL     OW12097   1.992   3.656   3.713
 3804SOL    HW112098   1.951   3.582   3.766
 3804SOL    HW212099   2.056   3.707   3.771
 3805SOL     OW12100   3.142   2.789   2.534
 3805SOL    HW112101   3.202   2.708   2.536
 3805SOL    HW212102   3.182   2.858   2.474
 3806SOL     OW12103   2.534   3.478   2.016
 3806SOL    HW112104   2.543   3.488   1.917
 3806SOL    HW212105   2.494   3.389   2.037
 3807SOL     OW12106   3.512   3.582   3.256
 3807SOL    HW112107   3.565   3.592   3.172
 3807SOL    HW212108   3.485   3.672   3.290
 3808SOL     OW12109   3.703   2.037   2.825
 3808SOL    HW112110   3.742   1.952   2.789
 3808SOL    HW212111   3.605   2.039   2.806
 3809SOL     OW12112   2.125   2.188   2.582
 3809SOL    HW112113   2.046   2.239   2.548
 3809SOL    HW212114   2.116   2.173   2.680
 3810SOL     OW12115   3.056   3.474   1.893
 3810SOL    HW112116   3.062   3.381   1.930
 3810SOL    HW212117   2.997   3.474   1.813
 3811SOL     OW12118   3.366   3.469   1.906
 3811SOL    HW112119   3.274   3.506   1.913
 3811SOL    HW212120   3.404   3.489   1.816
 3812SOL     OW12121   2.901   2.960   2.558
 3812SOL    HW112122   2.831   2.913   2.612
 3812SOL    HW212123   2.960   2.892   2.515
 3813SOL     OW12124   2.876   2.098   2.833
 3813SOL    HW112125   2.868   2.062   2.740
 3813SOL    HW212126   2.874   2.022   2.898
 3814SOL     OW12127   2.452   3.349   2.353
 3814SOL    HW112128   2.494   3.291   2.283
 3814SOL    HW212129   2.408   3.428   2.309
 3815SOL     OW12130   3.571   2.247   3.243
 3815SOL    HW112131   3.644   2.316   3.247
 3815SOL    HW212132   3.599   2.172   3.184
 3816SOL     OW12133   2.117   3.210   2.152
 3816SOL    HW112134   2.021   3.211   2.125
 3816SOL    HW212135   2.129   3.263   2.236
 3817SOL     OW12136   1.937   2.207   1.895
 3817SOL    HW112137   1.845   2.179   1.866
 3817SOL    HW212138   1.968   2.284   1.839
 3818SOL     OW12139   1.934   2.028   2.180
 3818SOL    HW112140   1.917   2.111   2.126
 3818SOL    HW212141   2.024   1.991   2.158
 3819SOL     OW12142   3.045   3.197   1.981
 3819SOL    HW112143   2.946   3.186   1.983
 3819SOL    HW212144   3.079   3.212   2.074
 3820SOL     OW12145   3.355   3.629   2.821
 3820SOL    HW112146   3.388   3.693   2.752
 3820SOL    HW212147   3.421   3.623   2.896
 3821SOL     OW12148   2.252   3.603   3.422
 3821SOL    HW112149   2.161   3.644   3.420
 3821SOL    HW212150   2.245   3.509   3.454
 3822SOL     OW12151   3.087   2.187   2.311
 3822SOL    HW112152   3.152   2.113   2.300
 3822SOL    HW212153   3.107   2.237   2.395
 3823SOL     OW12154   3.639   2.204   3.504
 3823SOL    HW112155   3.622   2.235   3.410
 3823SOL    HW212156   3.555   2.167   3.542
 3824SOL     OW12157   2.721   3.236   1.878
 3824SOL    HW112158   2.675   3.251   1.966
 3824SOL    HW212159   2.765   3.321   1.848
 3825SOL     OW12160   2.523   3.652   2.815
 3825SOL    HW112161   2.477   3.740   2.802
 3825SOL    HW212162   2.622   3.664   2.808
 3826SOL     OW12163   2.945   2.846   1.949
 3826SOL    HW112164   2.922   2.899   1.867
 3826SOL    HW212165   3.026   2.790   1.930
 3827SOL     OW12166   3.723   3.431   2.713
 3827SOL    HW112167   3.652   3.419   2.643
 3827SOL    HW212168   3.724   3.352   2.773
 3828SOL     OW12169   1.941   3.102   2.515
 3828SOL    HW112170   1.940   3.055   2.603
 3828SOL    HW212171   2.023   3.074   2.464
 3829SOL     OW12172   3.686   2.054   3.089
 3829SOL    HW112173   3.682   1.964   3.133
 3829SOL    HW212174   3.689   2.043   2.990
 3830SOL     OW12175   2.290   2.286   2.382
 3830SOL    HW112176   2.320   2.214   2.320
 3830SOL    HW212177   2.251   2.246   2.465
 3831SOL     OW12178   3.567   3.349   2.966
 3831SOL    HW112179   3.474   3.324   2.939
 3831SOL    HW212180   3.593   3.299   3.048
 3832SOL     OW12181   2.674   3.448   2.549
 3832SOL    HW112182   2.706   3.458   2.455
 3832SOL    HW212183   2.595   3.386   2.551
 3833SOL     OW12184   3.286   2.076   2.974
 3833SOL    HW112185   3.338   2.011   3.029
 3833SOL    HW212186   3.237   2.139   3.035
 3834SOL     OW12187   2.863   1.896   3.016
 3834SOL    HW112188   2.800   1.824   2.985
 3834SOL    HW212189   2.956   1.860   3.016
 3835SOL     OW12190   2.632   3.192   2.163
 3835SOL    HW112191   2.586   3.105   2.180
 3835SOL    HW212192   2.723   3.189   2.204
 3836SOL     OW12193   3.214   1.914   2.030
 3836SOL    HW112194   3.249   1.873   1.946
 3836SOL    HW212195   3.124   1.876   2.050
 3837SOL     OW12196   3.162   2.315   2.553
 3837SOL    HW112197   3.103   2.395   2.557
 3837SOL    HW212198   3.177   2.280   2.646
 3838SOL     OW12199   3.455   2.083   2.744
 3838SOL    HW112200   3.371   2.082   2.798
 3838SOL    HW212201   3.457   2.166   2.688
 3839SOL     OW12202   1.901   2.939   2.162
 3839SOL    HW112203   2.000   2.928   2.153
 3839SOL    HW212204   1.861   2.853   2.194
 3840SOL     OW12205   2.737   3.508   2.199
 3840SOL    HW112206   2.660   3.473   2.145
 3840SOL    HW212207   2.705   3.579   2.261
 3841SOL     OW12208   1.881   2.230   4.371
 3841SOL    HW112209   1.799   2.273   4.410
 3841SOL    HW212210   1.853   2.157   4.308
 3842SOL     OW12211   3.617   2.469   3.955
 3842SOL    HW112212   3.605   2.456   3.856
 3842SOL    HW212213   3.587   2.388   4.004
 3843SOL     OW12214   2.548   3.023   5.527
 3843SOL    HW112215   2.608   3.102   5.541
 3843SOL    HW212216   2.462   3.054   5.486
 3844SOL     OW12217   3.322   3.367   5.063
 3844SOL    HW112218   3.346   3.461   5.089
 3844SOL    HW212219   3.306   3.313   5.145
 3845SOL     OW12220   2.300   2.254   5.223
 3845SOL    HW112221   2.382   2.198   5.232
 3845SOL    HW212222   2.219   2.196   5.227
 3846SOL     OW12223   2.093   3.575   4.207
 3846SOL    HW112224   2.127   3.652   4.261
 3846SOL    HW212225   2.137   3.575   4.117
 3847SOL     OW12226   2.989   3.203   5.414
 3847SOL    HW112227   3.036   3.203   5.502
 3847SOL    HW212228   2.941   3.116   5.403
 3848SOL     OW12229   2.482   3.648   5.163
 3848SOL    HW112230   2.390   3.631   5.198
 3848SOL    HW212231   2.510   3.740   5.189
 3849SOL     OW12232   3.456   1.976   5.204
 3849SOL    HW112233   3.438   2.043   5.132
 3849SOL    HW212234   3.453   2.022   5.293
 3850SOL     OW12235   3.704   3.629   4.083
 3850SOL    HW112236   3.758   3.600   4.163
 3850SOL    HW212237   3.734   3.719   4.054
 3851SOL     OW12238   1.889   3.458   3.841
 3851SOL    HW112239   1.870   3.362   3.862
 3851SOL    HW212240   1.856   3.516   3.916
 3852SOL     OW12241   3.503   2.970   4.156
 3852SOL    HW112242   3.589   2.972   4.104
 3852SOL    HW212243   3.517   3.017   4.244
 3853SOL     OW12244   1.975   2.599   5.321
 3853SOL    HW112245   2.063   2.586   5.366
 3853SOL    HW212246   1.962   2.696   5.299
 3854SOL     OW12247   3.155   3.090   5.147
 3854SOL    HW112248   3.192   3.017   5.089
 3854SOL    HW212249   3.207   3.095   5.232
 3855SOL     OW12250   2.671   1.866   4.226
 3855SOL    HW112251   2.711   1.957   4.217
 3855SOL    HW212252   2.571   1.874   4.232
 3856SOL     OW12253   3.049   3.654   5.340
 3856SOL    HW112254   3.073   3.714   5.264
 3856SOL    HW212255   3.056   3.559   5.310
 3857SOL     OW12256   2.179   2.113   5.525
 3857SOL    HW112257   2.250   2.184   5.531
 3857SOL    HW212258   2.091   2.152   5.553
 3858SOL     OW12259   3.529   3.576   4.296
 3858SOL    HW112260   3.488   3.553   4.208
 3858SOL    HW212261   3.511   3.502   4.361
 3859SOL     OW12262   3.438   3.524   4.031
 3859SOL    HW112263   3.527   3.570   4.034
 3859SOL    HW212264   3.417   3.500   3.936
 3860SOL     OW12265   3.256   2.331   5.398
 3860SOL    HW112266   3.236   2.374   5.486
 3860SOL    HW212267   3.334   2.269   5.407
 3861SOL     OW12268   2.903   2.563   4.153
 3861SOL    HW112269   2.929   2.559   4.249
 3861SOL    HW212270   2.818   2.512   4.139
 3862SOL     OW12271   1.992   3.683   5.295
 3862SOL    HW112272   1.982   3.668   5.394
 3862SOL    HW212273   1.906   3.719   5.259
 3863SOL     OW12274   3.581   2.447   5.555
 3863SOL    HW112275   3.555   2.536   5.519
 3863SOL    HW212276   3.579   2.379   5.482
 3864SOL     OW12277   2.870   3.318   4.201
 3864SOL    HW112278   2.824   3.390   4.149
 3864SOL    HW212279   2.866   3.338   4.299
 3865SOL     OW12280   2.213   3.663   4.577
 3865SOL    HW112281   2.263   3.577   4.583
 3865SOL    HW212282   2.278   3.740   4.574
 3866SOL     OW12283   3.657   2.928   4.597
 3866SOL    HW112284   3.595   2.913   4.521
 3866SOL    HW212285   3.605   2.939   4.682
 3867SOL     OW12286   3.089   3.412   5.230
 3867SOL    HW112287   3.095   3.335   5.294
 3867SOL    HW212288   3.037   3.386   5.150
 3868SOL     OW12289   2.323   3.128   5.451
 3868SOL    HW112290   2.273   3.129   5.365
 3868SOL    HW212291   2.260   3.110   5.527
 3869SOL     OW12292   2.973   3.638   3.961
 3869SOL    HW112293   2.913   3.576   4.011
 3869SOL    HW212294   3.004   3.594   3.876
 3870SOL     OW12295   2.064   2.147   5.222
 3870SOL    HW112296   1.984   2.207   5.209
 3870SOL    HW212297   2.054   2.098   5.308
 3871SOL     OW12298   3.494   3.239   3.805
 3871SOL    HW112299   3.462   3.333   3.795
 3871SOL    HW212300   3.418   3.176   3.793
 3872SOL     OW12301   2.326   3.605   4.047
 3872SOL    HW112302   2.359   3.644   4.133
 3872SOL    HW212303   2.402   3.598   3.982
 3873SOL     OW12304   3.262   1.969   4.150
 3873SOL    HW112305   3.238   1.932   4.060
 3873SOL    HW212306   3.361   1.985   4.154
 3874SOL     OW12307   2.111   3.647   4.965
 3874SOL    HW112308   2.168   3.582   5.015
 3874SOL    HW212309   2.095   3.614   4.872
 3875SOL     OW12310   3.409   2.084   5.453
 3875SOL    HW112311   3.404   2.121   5.545
 3875SOL    HW212312   3.337   2.015   5.441
 3876SOL     OW12313   2.643   2.126   5.473
 3876SOL    HW112314   2.710   2.065   5.516
 3876SOL    HW212315   2.570   2.145   5.538
 3877SOL     OW12316   3.213   2.452   5.157
 3877SOL    HW112317   3.241   2.409   5.242
 3877SOL    HW212318   3.238   2.548   5.158
 3878SOL     OW12319   2.401   1.926   4.236
 3878SOL    HW112320   2.320   1.927   4.294
 3878SOL    HW212321   2.404   2.009   4.181
 3879SOL     OW12322   2.938   2.545   5.188
 3879SOL    HW112323   2.858   2.484   5.191
 3879SOL    HW212324   3.019   2.492   5.164
 3880SOL     OW12325   3.089   3.432   4.517
 3880SOL    HW112326   3.110   3.506   4.452
 3880SOL    HW212327   3.157   3.432   4.590
 3881SOL     OW12328   3.133   3.659   4.315
 3881SOL    HW112329   3.177   3.723   4.251
 3881SOL    HW212330   3.083   3.711   4.385
 3882SOL     OW12331   1.940   2.418   5.110
 3882SOL    HW112332   2.032   2.417   5.069
 3882SOL    HW212333   1.934   2.492   5.177
 3883SOL     OW12334   3.719   2.695   4.101
 3883SOL    HW112335   3.761   2.631   4.165
 3883SOL    HW212336   3.681   2.644   4.023
 3884SOL     OW12337   2.350   3.247   3.898
 3884SOL    HW112338   2.263   3.232   3.945
 3884SOL    HW212339   2.333   3.273   3.803
 3885SOL     OW12340   3.526   3.142   4.381
 3885SOL    HW112341   3.625   3.150   4.395
 3885SOL    HW212342   3.481   3.226   4.412
 3886SOL     OW12343   3.616   3.085   5.312
 3886SOL    HW112344   3.707   3.046   5.299
 3886SOL    HW212345   3.624   3.181   5.336
 3887SOL     OW12346   3.454   3.491   5.349
 3887SOL    HW112347   3.481   3.525   5.259
 3887SOL    HW212348   3.533   3.453   5.395
 3888SOL     OW12349   2.842   2.978   5.443
 3888SOL    HW112350   2.743   2.984   5.453
 3888SOL    HW212351   2.865   2.898   5.387
 3889SOL     OW12352   2.272   2.675   4.975
 3889SOL    HW112353   2.358   2.687   5.025
 3889SOL    HW212354   2.230   2.588   5.002
 3890SOL     OW12355   1.926   3.426   5.055
 3890SOL    HW112356   1.880   3.508   5.021
 3890SOL    HW212357   2.024   3.445   5.064
 3891SOL     OW12358   2.428   2.399   4.589
 3891SOL    HW112359   2.440   2.465   4.515
 3891SOL    HW212360   2.474   2.433   4.672
 3892SOL     OW12361   3.114   3.210   4.112
 3892SOL    HW112362   3.164   3.287   4.152
 3892SOL    HW212363   3.019   3.212   4.144
 3893SOL     OW12364   2.216   3.372   5.053
 3893SOL    HW112365   2.195   3.328   4.966
 3893SOL    HW212366   2.313   3.398   5.056
 3894SOL     OW12367   2.264   2.613   5.322
 3894SOL    HW112368   2.332   2.668   5.275
 3894SOL    HW212369   2.304   2.525   5.349
 3895SOL     OW12370   3.449   2.641   5.394
 3895SOL    HW112371   3.357   2.679   5.389
 3895SOL    HW212372   3.509   2.688   5.329
 3896SOL     OW12373   2.875   1.967   5.494
 3896SOL    HW112374   2.881   2.052   5.442
 3896SOL    HW212375   2.907   1.891   5.437
 3897SOL     OW12376   2.366   1.912   5.464
 3897SOL    HW112377   2.324   1.855   5.394
 3897SOL    HW212378   2.300   1.981   5.496
 3898SOL     OW12379   2.169   2.075   4.955
 3898SOL    HW112380   2.146   2.112   5.045
 3898SOL    HW212381   2.139   1.980   4.949
 3899SOL     OW12382   3.590   2.797   5.578
 3899SOL    HW112383   3.544   2.790   5.489
 3899SOL    HW212384   3.528   2.841   5.644
 3900SOL     OW12385   2.842   3.435   5.424
 3900SOL    HW112386   2.822   3.479   5.336
 3900SOL    HW212387   2.881   3.344   5.408
 3901SOL     OW12388   3.721   3.380   5.329
 3901SOL    HW112389   3.735   3.407   5.234
 3901SOL    HW212390   3.804   3.402   5.382
 3902SOL     OW12391   2.212   2.760   5.528
 3902SOL    HW112392   2.288   2.804   5.576
 3902SOL    HW212393   2.247   2.713   5.446
 3903SOL     OW12394   3.402   2.136   3.849
 3903SOL    HW112395   3.341   2.061   3.872
 3903SOL    HW212396   3.424   2.188   3.932
 3904SOL     OW12397   2.181   2.672   4.673
 3904SOL    HW112398   2.274   2.708   4.678
 3904SOL    HW212399   2.175   2.587   4.725
 3905SOL     OW12400   3.000   2.242   5.402
 3905SOL    HW112401   2.955   2.305   5.466
 3905SOL    HW212402   3.093   2.273   5.385
 3906SOL     OW12403   3.022   2.069   5.201
 3906SOL    HW112404   3.022   2.133   5.278
 3906SOL    HW212405   3.050   2.117   5.118
 3907SOL     OW12406   1.870   3.188   3.924
 3907SOL    HW112407   1.777   3.209   3.893
 3907SOL    HW212408   1.880   3.089   3.937
 3908SOL     OW12409   1.950   3.663   4.651
 3908SOL    HW112410   1.908   3.577   4.624
 3908SOL    HW212411   2.044   3.666   4.617
 3909SOL     OW12412   2.051   2.382   5.446
 3909SOL    HW112413   2.110   2.342   5.376
 3909SOL    HW212414   1.993   2.453   5.405
 3910SOL     OW12415   3.231   2.812   5.384
 3910SOL    HW112416   3.270   2.901   5.404
 3910SOL    HW212417   3.241   2.792   5.287
 3911SOL     OW12418   3.519   2.466   4.930
 3911SOL    HW112419   3.481   2.397   4.992
 3911SOL    HW212420   3.601   2.430   4.886
 3912SOL     OW12421   2.114   3.426   5.468
 3912SOL    HW112422   2.084   3.483   5.544
 3912SOL    HW212423   2.107   3.329   5.494
 3913SOL     OW12424   2.533   2.326   4.993
 3913SOL    HW112425   2.499   2.237   4.963
 3913SOL    HW212426   2.559   2.380   4.913
 3914SOL     OW12427   2.792   3.540   5.189
 3914SOL    HW112428   2.768   3.522   5.094
 3914SOL    HW212429   2.822   3.634   5.199
 3915SOL     OW12430   2.021   2.999   5.190
 3915SOL    HW112431   2.043   2.938   5.266
 3915SOL    HW212432   2.031   2.950   5.104
 3916SOL     OW12433   3.209   2.921   4.958
 3916SOL    HW112434   3.233   2.858   4.884
 3916SOL    HW212435   3.119   2.961   4.940
 3917SOL     OW12436   3.621   3.609   4.878
 3917SOL    HW112437   3.682   3.639   4.805
 3917SOL    HW212438   3.583   3.520   4.856
 3918SOL     OW12439   3.114   3.593   4.852
 3918SOL    HW112440   3.198   3.598   4.798
 3918SOL    HW212441   3.091   3.497   4.870
 3919SOL     OW12442   2.550   3.524   5.440
 3919SOL    HW112443   2.494   3.605   5.449
 3919SOL    HW212444   2.602   3.528   5.354
 3920SOL     OW12445   3.588   1.997   4.247
 3920SOL    HW112446   3.661   1.980   4.180
 3920SOL    HW212447   3.557   1.910   4.285
 3921SOL     OW12448   3.250   3.435   4.201
 3921SOL    HW112449   3.317   3.447   4.127
 3921SOL    HW212450   3.210   3.524   4.224
 3922SOL     OW12451   1.992   3.656   5.575
 3922SOL    HW112452   1.951   3.582   5.628
 3922SOL    HW212453   2.056   3.707   5.633
 3923SOL     OW12454   2.534   3.478   3.878
 3923SOL    HW112455   2.543   3.488   3.779
 3923SOL    HW212456   2.494   3.389   3.899
 3924SOL     OW12457   3.512   3.582   5.118
 3924SOL    HW112458   3.565   3.592   5.034
 3924SOL    HW212459   3.485   3.672   5.152
 3925SOL     OW12460   3.703   2.037   4.687
 3925SOL    HW112461   3.742   1.952   4.651
 3925SOL    HW212462   3.605   2.039   4.668
 3926SOL     OW12463   3.366   3.469   3.768
 3926SOL    HW112464   3.274   3.506   3.775
 3926SOL    HW212465   3.404   3.489   3.678
 3927SOL     OW12466   2.234   3.150   5.214
 3927SOL    HW112467   2.221   3.243   5.180
 3927SOL    HW212468   2.150   3.098   5.201
 3928SOL     OW12469   3.476   3.154   5.013
 3928SOL    HW112470   3.536   3.157   5.093
 3928SOL    HW212471   3.401   3.218   5.026
 3929SOL     OW12472   3.571   2.247   5.105
 3929SOL    HW112473   3.644   2.316   5.109
 3929SOL    HW212474   3.599   2.172   5.046
 3930SOL     OW12475   2.117   3.210   4.014
 3930SOL    HW112476   2.021   3.211   3.987
 3930SOL    HW212477   2.129   3.263   4.098
 3931SOL     OW12478   1.967   2.875   5.450
 3931SOL    HW112479   1.890   2.842   5.504
 3931SOL    HW212480   2.052   2.845   5.492
 3932SOL     OW12481   2.534   2.065   5.213
 3932SOL    HW112482   2.624   2.049   5.173
 3932SOL    HW212483   2.542   2.070   5.312
 3933SOL     OW12484   3.302   2.718   5.122
 3933SOL    HW112485   3.245   2.770   5.059
 3933SOL    HW212486   3.398   2.730   5.098
 3934SOL     OW12487   1.934   2.028   4.042
 3934SOL    HW112488   1.917   2.111   3.988
 3934SOL    HW212489   2.024   1.991   4.020
 3935SOL     OW12490   3.355   3.629   4.683
 3935SOL    HW112491   3.388   3.693   4.614
 3935SOL    HW212492   3.421   3.623   4.758
 3936SOL     OW12493   3.312   3.082   5.357
 3936SOL    HW112494   3.303   3.072   5.456
 3936SOL    HW212495   3.408   3.075   5.331
 3937SOL     OW12496   2.252   3.603   5.284
 3937SOL    HW112497   2.161   3.644   5.282
 3937SOL    HW212498   2.245   3.509   5.316
 3938SOL     OW12499   3.639   2.204   5.366
 3938SOL    HW112500   3.622   2.235   5.272
 3938SOL    HW212501   3.555   2.167   5.404
 3939SOL     OW12502   3.592   2.796   5.241
 3939SOL    HW112503   3.630   2.887   5.256
 3939SOL    HW212504   3.584   2.779   5.142
 3940SOL     OW12505   2.523   3.652   4.677
 3940SOL    HW112506   2.477   3.740   4.664
 3940SOL    HW212507   2.622   3.664   4.670
 3941SOL     OW12508   3.723   3.431   4.575
 3941SOL    HW112509   3.652   3.419   4.505
 3941SOL    HW212510   3.724   3.352   4.635
 3942SOL     OW12511   2.083   3.176   5.568
 3942SOL    HW112512   2.018   3.103   5.547
 3942SOL    HW212513   2.087   3.190   5.666
 3943SOL     OW12514   1.941   3.102   4.377
 3943SOL    HW112515   1.940   3.055   4.465
 3943SOL    HW212516   2.023   3.074   4.326
 3944SOL     OW12517   2.534   3.253   5.348
 3944SOL    HW112518   2.456   3.203   5.386
 3944SOL    HW212519   2.531   3.348   5.379
 3945SOL     OW12520   3.686   2.054   4.951
 3945SOL    HW112521   3.682   1.964   4.995
 3945SOL    HW212522   3.689   2.043   4.852
 3946SOL     OW12523   3.567   3.349   4.828
 3946SOL    HW112524   3.474   3.324   4.801
 3946SOL    HW212525   3.593   3.299   4.910
 3947SOL     OW12526   2.179   2.409   5.004
 3947SOL    HW112527   2.217   2.350   5.076
 3947SOL    HW212528   2.219   2.383   4.916
 3948SOL     OW12529   2.674   3.448   4.411
 3948SOL    HW112530   2.706   3.458   4.317
 3948SOL    HW212531   2.595   3.386   4.413
 3949SOL     OW12532   3.214   1.914   3.892
 3949SOL    HW112533   3.249   1.873   3.808
 3949SOL    HW212534   3.124   1.876   3.912
 3950SOL     OW12535   3.455   2.083   4.606
 3950SOL    HW112536   3.371   2.082   4.660
 3950SOL    HW212537   3.457   2.166   4.550
 3951SOL     OW12538   2.737   3.508   4.061
 3951SOL    HW112539   2.660   3.473   4.007
 3951SOL    HW212540   2.705   3.579   4.123
 3952SOL     OW12541   2.092   2.490   5.699
 3952SOL    HW112542   1.999   2.488   5.736
 3952SOL    HW212543   2.093   2.451   5.607
 3953SOL     OW12544   2.087   2.137   6.582
 3953SOL    HW112545   2.122   2.120   6.674
 3953SOL    HW212546   1.999   2.092   6.570
 3954SOL     OW12547   1.881   2.230   6.233
 3954SOL    HW112548   1.799   2.273   6.272
 3954SOL    HW212549   1.853   2.157   6.170
 3955SOL     OW12550   2.431   3.137   6.751
 3955SOL    HW112551   2.338   3.130   6.714
 3955SOL    HW212552   2.442   3.226   6.795
 3956SOL     OW12553   3.417   3.373   6.289
 3956SOL    HW112554   3.360   3.357   6.370
 3956SOL    HW212555   3.358   3.383   6.209
 3957SOL     OW12556   2.997   2.565   6.303
 3957SOL    HW112557   3.054   2.643   6.278
 3957SOL    HW212558   2.937   2.591   6.379
 3958SOL     OW12559   3.617   2.469   5.817
 3958SOL    HW112560   3.605   2.456   5.718
 3958SOL    HW212561   3.587   2.388   5.866
 3959SOL     OW12562   2.630   3.006   6.609
 3959SOL    HW112563   2.552   3.023   6.669
 3959SOL    HW212564   2.664   3.093   6.573
 3960SOL     OW12565   2.548   3.023   7.389
 3960SOL    HW112566   2.608   3.102   7.403
 3960SOL    HW212567   2.462   3.054   7.348
 3961SOL     OW12568   2.197   3.297   6.647
 3961SOL    HW112569   2.119   3.266   6.594
 3961SOL    HW212570   2.255   3.355   6.590
 3962SOL     OW12571   3.322   3.367   6.925
 3962SOL    HW112572   3.346   3.461   6.951
 3962SOL    HW212573   3.306   3.313   7.007
 3963SOL     OW12574   2.300   2.254   7.085
 3963SOL    HW112575   2.382   2.198   7.094
 3963SOL    HW212576   2.219   2.196   7.089
 3964SOL     OW12577   3.465   2.309   6.323
 3964SOL    HW112578   3.391   2.355   6.273
 3964SOL    HW212579   3.516   2.377   6.376
 3965SOL     OW12580   2.093   3.575   6.069
 3965SOL    HW112581   2.127   3.652   6.123
 3965SOL    HW212582   2.137   3.575   5.979
 3966SOL     OW12583   2.989   3.203   7.276
 3966SOL    HW112584   3.036   3.203   7.364
 3966SOL    HW212585   2.941   3.116   7.265
 3967SOL     OW12586   2.092   3.296   6.124
 3967SOL    HW112587   2.066   3.392   6.124
 3967SOL    HW212588   2.021   3.242   6.169
 3968SOL     OW12589   2.102   2.953   6.472
 3968SOL    HW112590   2.116   2.869   6.524
 3968SOL    HW212591   2.047   3.017   6.527
 3969SOL     OW12592   2.482   3.648   7.025
 3969SOL    HW112593   2.390   3.631   7.060
 3969SOL    HW212594   2.510   3.740   7.051
 3970SOL     OW12595   2.468   2.826   5.709
 3970SOL    HW112596   2.475   2.910   5.655
 3970SOL    HW212597   2.514   2.839   5.797
 3971SOL     OW12598   3.456   1.976   7.066
 3971SOL    HW112599   3.438   2.043   6.994
 3971SOL    HW212600   3.453   2.022   7.155
 3972SOL     OW12601   1.984   2.505   6.149
 3972SOL    HW112602   1.939   2.417   6.166
 3972SOL    HW212603   1.983   2.559   6.233
 3973SOL     OW12604   3.704   3.629   5.945
 3973SOL    HW112605   3.758   3.600   6.025
 3973SOL    HW212606   3.734   3.719   5.916
 3974SOL     OW12607   1.889   3.458   5.703
 3974SOL    HW112608   1.870   3.362   5.724
 3974SOL    HW212609   1.856   3.516   5.778
 3975SOL     OW12610   3.551   2.784   6.198
 3975SOL    HW112611   3.646   2.755   6.206
 3975SOL    HW212612   3.543   2.849   6.123
 3976SOL     OW12613   3.503   2.970   6.018
 3976SOL    HW112614   3.589   2.972   5.966
 3976SOL    HW212615   3.517   3.017   6.106
 3977SOL     OW12616   1.975   2.599   7.183
 3977SOL    HW112617   2.063   2.586   7.228
 3977SOL    HW212618   1.962   2.696   7.161
 3978SOL     OW12619   2.475   3.227   6.312
 3978SOL    HW112620   2.426   3.140   6.321
 3978SOL    HW212621   2.452   3.270   6.225
 3979SOL     OW12622   3.155   3.090   7.009
 3979SOL    HW112623   3.192   3.017   6.951
 3979SOL    HW212624   3.207   3.095   7.094
 3980SOL     OW12625   2.671   1.866   6.088
 3980SOL    HW112626   2.711   1.957   6.079
 3980SOL    HW212627   2.571   1.874   6.094
 3981SOL     OW12628   2.059   2.838   6.850
 3981SOL    HW112629   2.148   2.793   6.836
 3981SOL    HW212630   1.986   2.773   6.831
 3982SOL     OW12631   3.387   2.861   5.776
 3982SOL    HW112632   3.324   2.785   5.789
 3982SOL    HW212633   3.435   2.879   5.862
 3983SOL     OW12634   3.049   3.654   7.202
 3983SOL    HW112635   3.073   3.714   7.126
 3983SOL    HW212636   3.056   3.559   7.172
 3984SOL     OW12637   2.179   2.113   7.387
 3984SOL    HW112638   2.250   2.184   7.393
 3984SOL    HW212639   2.091   2.152   7.415
 3985SOL     OW12640   3.328   3.279   6.539
 3985SOL    HW112641   3.269   3.285   6.619
 3985SOL    HW212642   3.313   3.191   6.493
 3986SOL     OW12643   3.529   3.576   6.158
 3986SOL    HW112644   3.488   3.553   6.070
 3986SOL    HW212645   3.511   3.502   6.223
 3987SOL     OW12646   3.143   2.207   6.530
 3987SOL    HW112647   3.057   2.157   6.517
 3987SOL    HW212648   3.205   2.153   6.586
 3988SOL     OW12649   3.438   3.524   5.893
 3988SOL    HW112650   3.527   3.570   5.896
 3988SOL    HW212651   3.417   3.500   5.798
 3989SOL     OW12652   3.256   2.331   7.260
 3989SOL    HW112653   3.236   2.374   7.348
 3989SOL    HW212654   3.334   2.269   7.269
 3990SOL     OW12655   2.853   2.272   6.828
 3990SOL    HW112656   2.776   2.306   6.882
 3990SOL    HW212657   2.819   2.221   6.749
 3991SOL     OW12658   1.938   2.673   6.375
 3991SOL    HW112659   2.037   2.661   6.384
 3991SOL    HW212660   1.914   2.768   6.396
 3992SOL     OW12661   1.992   3.683   7.157
 3992SOL    HW112662   1.982   3.668   7.256
 3992SOL    HW212663   1.906   3.719   7.121
 3993SOL     OW12664   2.727   2.210   5.781
 3993SOL    HW112665   2.786   2.273   5.732
 3993SOL    HW212666   2.746   2.116   5.752
 3994SOL     OW12667   3.581   2.447   7.417
 3994SOL    HW112668   3.555   2.536   7.381
 3994SOL    HW212669   3.579   2.379   7.344
 3995SOL     OW12670   3.224   3.006   6.131
 3995SOL    HW112671   3.307   2.977   6.083
 3995SOL    HW212672   3.175   3.073   6.075
 3996SOL     OW12673   2.412   2.058   6.471
 3996SOL    HW112674   2.407   2.053   6.571
 3996SOL    HW212675   2.414   2.154   6.442
 3997SOL     OW12676   2.870   3.318   6.063
 3997SOL    HW112677   2.824   3.390   6.011
 3997SOL    HW212678   2.866   3.338   6.161
 3998SOL     OW12679   2.213   3.663   6.439
 3998SOL    HW112680   2.263   3.577   6.445
 3998SOL    HW212681   2.278   3.740   6.436
 3999SOL     OW12682   3.657   2.928   6.459
 3999SOL    HW112683   3.595   2.913   6.383
 3999SOL    HW212684   3.605   2.939   6.544
 4000SOL     OW12685   3.089   3.412   7.092
 4000SOL    HW112686   3.095   3.335   7.156
 4000SOL    HW212687   3.037   3.386   7.012
 4001SOL     OW12688   2.183   2.805   5.828
 4001SOL    HW112689   2.265   2.844   5.786
 4001SOL    HW212690   2.156   2.723   5.779
 4002SOL     OW12691   3.320   2.597   6.314
 4002SOL    HW112692   3.315   2.532   6.389
 4002SOL    HW212693   3.400   2.656   6.327
 4003SOL     OW12694   2.323   3.128   7.313
 4003SOL    HW112695   2.273   3.129   7.227
 4003SOL    HW212696   2.260   3.110   7.389
 4004SOL     OW12697   2.973   3.638   5.823
 4004SOL    HW112698   2.913   3.576   5.873
 4004SOL    HW212699   3.004   3.594   5.738
 4005SOL     OW12700   2.064   2.147   7.084
 4005SOL    HW112701   1.984   2.207   7.071
 4005SOL    HW212702   2.054   2.098   7.170
 4006SOL     OW12703   3.494   3.239   5.667
 4006SOL    HW112704   3.462   3.333   5.657
 4006SOL    HW212705   3.418   3.176   5.655
 4007SOL     OW12706   2.326   3.605   5.909
 4007SOL    HW112707   2.359   3.644   5.995
 4007SOL    HW212708   2.402   3.598   5.844
 4008SOL     OW12709   3.262   1.969   6.012
 4008SOL    HW112710   3.238   1.932   5.922
 4008SOL    HW212711   3.361   1.985   6.016
 4009SOL     OW12712   2.111   3.647   6.827
 4009SOL    HW112713   2.168   3.582   6.877
 4009SOL    HW212714   2.095   3.614   6.734
 4010SOL     OW12715   2.802   3.560   6.490
 4010SOL    HW112716   2.882   3.503   6.511
 4010SOL    HW212717   2.753   3.520   6.413
 4011SOL     OW12718   2.244   2.562   6.066
 4011SOL    HW112719   2.289   2.472   6.063
 4011SOL    HW212720   2.150   2.551   6.099
 4012SOL     OW12721   3.409   2.084   7.315
 4012SOL    HW112722   3.404   2.121   7.407
 4012SOL    HW212723   3.337   2.015   7.303
 4013SOL     OW12724   2.476   1.984   5.703
 4013SOL    HW112725   2.574   1.962   5.710
 4013SOL    HW212726   2.445   1.967   5.610
 4014SOL     OW12727   2.643   2.126   7.335
 4014SOL    HW112728   2.710   2.065   7.378
 4014SOL    HW212729   2.570   2.145   7.400
 4015SOL     OW12730   2.750   3.376   6.781
 4015SOL    HW112731   2.727   3.351   6.687
 4015SOL    HW212732   2.811   3.307   6.820
 4016SOL     OW12733   3.213   2.452   7.019
 4016SOL    HW112734   3.241   2.409   7.104
 4016SOL    HW212735   3.238   2.548   7.020
 4017SOL     OW12736   2.665   3.264   6.510
 4017SOL    HW112737   2.755   3.278   6.468
 4017SOL    HW212738   2.594   3.266   6.439
 4018SOL     OW12739   2.784   2.365   6.485
 4018SOL    HW112740   2.759   2.356   6.389
 4018SOL    HW212741   2.832   2.283   6.516
 4019SOL     OW12742   2.401   1.926   6.098
 4019SOL    HW112743   2.320   1.927   6.156
 4019SOL    HW212744   2.404   2.009   6.043
 4020SOL     OW12745   3.296   3.050   5.627
 4020SOL    HW112746   3.328   2.974   5.684
 4020SOL    HW212747   3.204   3.077   5.657
 4021SOL     OW12748   2.159   1.897   5.757
 4021SOL    HW112749   2.208   1.981   5.736
 4021SOL    HW212750   2.221   1.832   5.802
 4022SOL     OW12751   2.797   2.098   6.066
 4022SOL    HW112752   2.749   2.139   5.988
 4022SOL    HW212753   2.896   2.096   6.047
 4023SOL     OW12754   2.938   2.545   7.050
 4023SOL    HW112755   2.858   2.484   7.053
 4023SOL    HW212756   3.019   2.492   7.026
 4024SOL     OW12757   3.089   3.432   6.379
 4024SOL    HW112758   3.110   3.506   6.314
 4024SOL    HW212759   3.157   3.432   6.452
 4025SOL     OW12760   2.321   3.014   6.327
 4025SOL    HW112761   2.250   2.987   6.392
 4025SOL    HW212762   2.295   2.986   6.234
 4026SOL     OW12763   3.133   3.659   6.177
 4026SOL    HW112764   3.177   3.723   6.113
 4026SOL    HW212765   3.083   3.711   6.247
 4027SOL     OW12766   2.894   2.411   5.602
 4027SOL    HW112767   2.853   2.493   5.563
 4027SOL    HW212768   2.958   2.437   5.675
 4028SOL     OW12769   1.940   2.418   6.972
 4028SOL    HW112770   2.032   2.417   6.931
 4028SOL    HW212771   1.934   2.492   7.039
 4029SOL     OW12772   2.423   2.084   6.733
 4029SOL    HW112773   2.461   2.000   6.770
 4029SOL    HW212774   2.335   2.103   6.777
 4030SOL     OW12775   2.728   2.316   6.228
 4030SOL    HW112776   2.696   2.388   6.166
 4030SOL    HW212777   2.752   2.235   6.175
 4031SOL     OW12778   2.879   1.901   6.339
 4031SOL    HW112779   2.807   1.906   6.270
 4031SOL    HW212780   2.855   1.832   6.408
 4032SOL     OW12781   3.291   3.035   6.453
 4032SOL    HW112782   3.236   2.951   6.446
 4032SOL    HW212783   3.317   3.064   6.361
 4033SOL     OW12784   3.328   2.452   6.578
 4033SOL    HW112785   3.298   2.357   6.585
 4033SOL    HW212786   3.401   2.468   6.644
 4034SOL     OW12787   3.719   2.695   5.963
 4034SOL    HW112788   3.761   2.631   6.027
 4034SOL    HW212789   3.681   2.644   5.885
 4035SOL     OW12790   2.350   3.247   5.760
 4035SOL    HW112791   2.263   3.232   5.807
 4035SOL    HW212792   2.333   3.273   5.665
 4036SOL     OW12793   3.526   3.142   6.243
 4036SOL    HW112794   3.625   3.150   6.257
 4036SOL    HW212795   3.481   3.226   6.274
 4037SOL     OW12796   3.252   2.437   5.664
 4037SOL    HW112797   3.198   2.416   5.745
 4037SOL    HW212798   3.343   2.396   5.673
 4038SOL     OW12799   2.389   2.118   5.914
 4038SOL    HW112800   2.416   2.059   5.839
 4038SOL    HW212801   2.389   2.213   5.883
 4039SOL     OW12802   3.616   3.085   7.174
 4039SOL    HW112803   3.707   3.046   7.161
 4039SOL    HW212804   3.624   3.181   7.198
 4040SOL     OW12805   2.926   3.209   6.926
 4040SOL    HW112806   2.846   3.186   6.981
 4040SOL    HW212807   3.009   3.183   6.975
 4041SOL     OW12808   3.454   3.491   7.211
 4041SOL    HW112809   3.481   3.525   7.121
 4041SOL    HW212810   3.533   3.453   7.257
 4042SOL     OW12811   2.973   3.057   6.686
 4042SOL    HW112812   2.933   3.101   6.767
 4042SOL    HW212813   2.932   3.094   6.603
 4043SOL     OW12814   3.500   2.961   6.665
 4043SOL    HW112815   3.505   3.042   6.724
 4043SOL    HW212816   3.414   2.963   6.614
 4044SOL     OW12817   2.777   1.951   6.988
 4044SOL    HW112818   2.802   1.931   6.893
 4044SOL    HW212819   2.849   2.007   7.030
 4045SOL     OW12820   2.842   2.978   7.305
 4045SOL    HW112821   2.743   2.984   7.315
 4045SOL    HW212822   2.865   2.898   7.249
 4046SOL     OW12823   2.272   2.675   6.837
 4046SOL    HW112824   2.358   2.687   6.887
 4046SOL    HW212825   2.230   2.588   6.864
 4047SOL     OW12826   3.136   2.248   6.848
 4047SOL    HW112827   3.157   2.322   6.912
 4047SOL    HW212828   3.047   2.265   6.805
 4048SOL     OW12829   1.926   3.426   6.917
 4048SOL    HW112830   1.880   3.508   6.883
 4048SOL    HW212831   2.024   3.445   6.926
 4049SOL     OW12832   2.229   2.962   6.087
 4049SOL    HW112833   2.222   3.045   6.031
 4049SOL    HW212834   2.233   2.882   6.027
 4050SOL     OW12835   2.428   2.399   6.451
 4050SOL    HW112836   2.440   2.465   6.377
 4050SOL    HW212837   2.474   2.433   6.534
 4051SOL     OW12838   3.114   3.210   5.974
 4051SOL    HW112839   3.164   3.287   6.014
 4051SOL    HW212840   3.019   3.212   6.006
 4052SOL     OW12841   3.134   3.307   6.728
 4052SOL    HW112842   3.181   3.320   6.815
 4052SOL    HW212843   3.068   3.233   6.737
 4053SOL     OW12844   3.444   2.501   6.058
 4053SOL    HW112845   3.413   2.562   6.131
 4053SOL    HW212846   3.494   2.553   5.989
 4054SOL     OW12847   2.216   3.372   6.915
 4054SOL    HW112848   2.195   3.328   6.828
 4054SOL    HW212849   2.313   3.398   6.918
 4055SOL     OW12850   2.264   2.613   7.184
 4055SOL    HW112851   2.332   2.668   7.137
 4055SOL    HW212852   2.304   2.525   7.211
 4056SOL     OW12853   3.449   2.641   7.256
 4056SOL    HW112854   3.357   2.679   7.251
 4056SOL    HW212855   3.509   2.688   7.191
 4057SOL     OW12856   2.875   1.967   7.356
 4057SOL    HW112857   2.881   2.052   7.304
 4057SOL    HW212858   2.907   1.891   7.299
 4058SOL     OW12859   2.366   1.912   7.326
 4058SOL    HW112860   2.324   1.855   7.256
 4058SOL    HW212861   2.300   1.981   7.358
 4059SOL     OW12862   3.222   2.724   6.631
 4059SOL    HW112863   3.147   2.724   6.565
 4059SOL    HW212864   3.259   2.632   6.640
 4060SOL     OW12865   3.071   2.387   5.861
 4060SOL    HW112866   3.084   2.303   5.915
 4060SOL    HW212867   3.042   2.461   5.921
 4061SOL     OW12868   2.169   2.075   6.817
 4061SOL    HW112869   2.146   2.112   6.907
 4061SOL    HW212870   2.139   1.980   6.811
 4062SOL     OW12871   1.899   3.172   6.868
 4062SOL    HW112872   1.952   3.123   6.936
 4062SOL    HW212873   1.921   3.270   6.873
 4063SOL     OW12874   3.590   2.797   7.440
 4063SOL    HW112875   3.544   2.790   7.351
 4063SOL    HW212876   3.528   2.841   7.506
 4064SOL     OW12877   2.169   1.925   6.204
 4064SOL    HW112878   2.158   2.019   6.237
 4064SOL    HW212879   2.164   1.862   6.281
 4065SOL     OW12880   3.484   2.229   5.960
 4065SOL    HW112881   3.486   2.153   6.024
 4065SOL    HW212882   3.436   2.306   6.000
 4066SOL     OW12883   2.842   3.435   7.286
 4066SOL    HW112884   2.822   3.479   7.198
 4066SOL    HW212885   2.881   3.344   7.270
 4067SOL     OW12886   3.721   3.380   7.191
 4067SOL    HW112887   3.735   3.407   7.096
 4067SOL    HW212888   3.804   3.402   7.244
 4068SOL     OW12889   2.212   2.760   7.390
 4068SOL    HW112890   2.288   2.804   7.438
 4068SOL    HW212891   2.247   2.713   7.308
 4069SOL     OW12892   3.402   2.136   5.711
 4069SOL    HW112893   3.341   2.061   5.734
 4069SOL    HW212894   3.424   2.188   5.794
 4070SOL     OW12895   3.165   2.700   5.628
 4070SOL    HW112896   3.199   2.607   5.643
 4070SOL    HW212897   3.183   2.727   5.533
 4071SOL     OW12898   2.930   3.195   6.435
 4071SOL    HW112899   2.937   3.111   6.380
 4071SOL    HW212900   2.992   3.264   6.399
 4072SOL     OW12901   2.181   2.672   6.535
 4072SOL    HW112902   2.274   2.708   6.540
 4072SOL    HW212903   2.175   2.587   6.587
 4073SOL     OW12904   2.201   2.371   6.592
 4073SOL    HW112905   2.149   2.288   6.575
 4073SOL    HW212906   2.278   2.376   6.528
 4074SOL     OW12907   3.000   2.242   7.264
 4074SOL    HW112908   2.955   2.305   7.328
 4074SOL    HW212909   3.093   2.273   7.247
 4075SOL     OW12910   3.022   2.069   7.063
 4075SOL    HW112911   3.022   2.133   7.140
 4075SOL    HW212912   3.050   2.117   6.980
 4076SOL     OW12913   1.870   3.188   5.786
 4076SOL    HW112914   1.777   3.209   5.755
 4076SOL    HW212915   1.880   3.089   5.799
 4077SOL     OW12916   1.950   3.663   6.513
 4077SOL    HW112917   1.908   3.577   6.486
 4077SOL    HW212918   2.044   3.666   6.479
 4078SOL     OW12919   2.366   3.430   6.496
 4078SOL    HW112920   2.432   3.504   6.505
 4078SOL    HW212921   2.410   3.351   6.454
 4079SOL     OW12922   1.902   2.406   6.700
 4079SOL    HW112923   1.987   2.373   6.659
 4079SOL    HW212924   1.915   2.421   6.798
 4080SOL     OW12925   2.051   2.382   7.308
 4080SOL    HW112926   2.110   2.342   7.238
 4080SOL    HW212927   1.993   2.453   7.267
 4081SOL     OW12928   3.231   2.812   7.246
 4081SOL    HW112929   3.270   2.901   7.266
 4081SOL    HW212930   3.241   2.792   7.149
 4082SOL     OW12931   2.677   2.434   5.911
 4082SOL    HW112932   2.684   2.345   5.865
 4082SOL    HW212933   2.583   2.468   5.903
 4083SOL     OW12934   3.519   2.466   6.792
 4083SOL    HW112935   3.481   2.397   6.854
 4083SOL    HW212936   3.601   2.430   6.748
 4084SOL     OW12937   2.114   3.426   7.330
 4084SOL    HW112938   2.084   3.483   7.406
 4084SOL    HW212939   2.107   3.329   7.356
 4085SOL     OW12940   2.533   2.326   6.855
 4085SOL    HW112941   2.499   2.237   6.825
 4085SOL    HW212942   2.559   2.380   6.775
 4086SOL     OW12943   2.792   3.540   7.051
 4086SOL    HW112944   2.768   3.522   6.956
 4086SOL    HW212945   2.822   3.634   7.061
 4087SOL     OW12946   2.335   2.362   5.777
 4087SOL    HW112947   2.396   2.442   5.781
 4087SOL    HW212948   2.240   2.393   5.784
 4088SOL     OW12949   2.021   2.999   7.052
 4088SOL    HW112950   2.043   2.938   7.128
 4088SOL    HW212951   2.031   2.950   6.966
 4089SOL     OW12952   3.209   2.921   6.820
 4089SOL    HW112953   3.233   2.858   6.746
 4089SOL    HW212954   3.119   2.961   6.802
 4090SOL     OW12955   3.164   2.717   5.895
 4090SOL    HW112956   3.078   2.686   5.937
 4090SOL    HW212957   3.160   2.703   5.796
 4091SOL     OW12958   3.621   3.609   6.740
 4091SOL    HW112959   3.682   3.639   6.667
 4091SOL    HW212960   3.583   3.520   6.718
 4092SOL     OW12961   3.114   3.593   6.714
 4092SOL    HW112962   3.198   3.598   6.660
 4092SOL    HW212963   3.091   3.497   6.732
 4093SOL     OW12964   1.945   3.120   6.608
 4093SOL    HW112965   1.940   3.119   6.708
 4093SOL    HW212966   1.862   3.079   6.570
 4094SOL     OW12967   2.550   3.524   7.302
 4094SOL    HW112968   2.494   3.605   7.311
 4094SOL    HW212969   2.602   3.528   7.216
 4095SOL     OW12970   3.588   1.997   6.109
 4095SOL    HW112971   3.661   1.980   6.042
 4095SOL    HW212972   3.557   1.910   6.147
 4096SOL     OW12973   3.250   3.435   6.063
 4096SOL    HW112974   3.317   3.447   5.989
 4096SOL    HW212975   3.210   3.524   6.086
 4097SOL     OW12976   1.992   3.656   7.437
 4097SOL    HW112977   1.951   3.582   7.490
 4097SOL    HW212978   2.056   3.707   7.495
 4098SOL     OW12979   3.142   2.789   6.258
 4098SOL    HW112980   3.202   2.708   6.260
 4098SOL    HW212981   3.182   2.858   6.198
 4099SOL     OW12982   2.692   3.135   7.008
 4099SOL    HW112983   2.687   3.168   7.103
 4099SOL    HW212984   2.606   3.154   6.962
 4100SOL     OW12985   2.534   3.478   5.740
 4100SOL    HW112986   2.543   3.488   5.641
 4100SOL    HW212987   2.494   3.389   5.761
 4101SOL     OW12988   3.512   3.582   6.980
 4101SOL    HW112989   3.565   3.592   6.896
 4101SOL    HW212990   3.485   3.672   7.014
 4102SOL     OW12991   3.703   2.037   6.549
 4102SOL    HW112992   3.742   1.952   6.513
 4102SOL    HW212993   3.605   2.039   6.530
 4103SOL     OW12994   2.125   2.188   6.306
 4103SOL    HW112995   2.046   2.239   6.272
 4103SOL    HW212996   2.116   2.173   6.404
 4104SOL     OW12997   3.056   3.474   5.617
 4104SOL    HW112998   3.062   3.381   5.654
 4104SOL    HW212999   2.997   3.474   5.537
 4105SOL     OW13000   3.366   3.469   5.630
 4105SOL    HW113001   3.274   3.506   5.637
 4105SOL    HW213002   3.404   3.489   5.540
 4106SOL     OW13003   2.234   3.150   7.076
 4106SOL    HW113004   2.221   3.243   7.042
 4106SOL    HW213005   2.150   3.098   7.063
 4107SOL     OW13006   3.476   3.154   6.875
 4107SOL    HW113007   3.536   3.157   6.955
 4107SOL    HW213008   3.401   3.218   6.888
 4108SOL     OW13009   2.901   2.960   6.282
 4108SOL    HW113010   2.831   2.913   6.336
 4108SOL    HW213011   2.960   2.892   6.239
 4109SOL     OW13012   2.876   2.098   6.557
 4109SOL    HW113013   2.868   2.062   6.464
 4109SOL    HW213014   2.874   2.022   6.622
 4110SOL     OW13015   2.452   3.349   6.077
 4110SOL    HW113016   2.494   3.291   6.007
 4110SOL    HW213017   2.408   3.428   6.033
 4111SOL     OW13018   3.571   2.247   6.967
 4111SOL    HW113019   3.644   2.316   6.971
 4111SOL    HW213020   3.599   2.172   6.908
 4112SOL     OW13021   2.117   3.210   5.876
 4112SOL    HW113022   2.021   3.211   5.849
 4112SOL    HW213023   2.129   3.263   5.960
 4113SOL     OW13024   1.967   2.875   7.312
 4113SOL    HW113025   1.890   2.842   7.366
 4113SOL    HW213026   2.052   2.845   7.354
 4114SOL     OW13027   2.534   2.065   7.075
 4114SOL    HW113028   2.624   2.049   7.035
 4114SOL    HW213029   2.542   2.070   7.174
 4115SOL     OW13030   1.937   2.207   5.619
 4115SOL    HW113031   1.845   2.179   5.590
 4115SOL    HW213032   1.968   2.284   5.563
 4116SOL     OW13033   3.302   2.718   6.984
 4116SOL    HW113034   3.245   2.770   6.921
 4116SOL    HW213035   3.398   2.730   6.960
 4117SOL     OW13036   1.934   2.028   5.904
 4117SOL    HW113037   1.917   2.111   5.850
 4117SOL    HW213038   2.024   1.991   5.882
 4118SOL     OW13039   3.045   3.197   5.705
 4118SOL    HW113040   2.946   3.186   5.707
 4118SOL    HW213041   3.079   3.212   5.798
 4119SOL     OW13042   3.355   3.629   6.545
 4119SOL    HW113043   3.388   3.693   6.476
 4119SOL    HW213044   3.421   3.623   6.620
 4120SOL     OW13045   3.312   3.082   7.219
 4120SOL    HW113046   3.303   3.072   7.318
 4120SOL    HW213047   3.408   3.075   7.193
 4121SOL     OW13048   2.252   3.603   7.146
 4121SOL    HW113049   2.161   3.644   7.144
 4121SOL    HW213050   2.245   3.509   7.178
 4122SOL     OW13051   3.536   2.745   6.840
 4122SOL    HW113052   3.509   2.656   6.803
 4122SOL    HW213053   3.537   2.813   6.767
 4123SOL     OW13054   3.087   2.187   6.035
 4123SOL    HW113055   3.152   2.113   6.024
 4123SOL    HW213056   3.107   2.237   6.119
 4124SOL     OW13057   3.639   2.204   7.228
 4124SOL    HW113058   3.622   2.235   7.134
 4124SOL    HW213059   3.555   2.167   7.266
 4125SOL     OW13060   3.592   2.796   7.103
 4125SOL    HW113061   3.630   2.887   7.118
 4125SOL    HW213062   3.584   2.779   7.004
 4126SOL     OW13063   2.721   3.236   5.602
 4126SOL    HW113064   2.675   3.251   5.690
 4126SOL    HW213065   2.765   3.321   5.572
 4127SOL     OW13066   2.523   3.652   6.539
 4127SOL    HW113067   2.477   3.740   6.526
 4127SOL    HW213068   2.622   3.664   6.532
 4128SOL     OW13069   2.945   2.846   5.673
 4128SOL    HW113070   2.922   2.899   5.591
 4128SOL    HW213071   3.026   2.790   5.654
 4129SOL     OW13072   3.723   3.431   6.437
 4129SOL    HW113073   3.652   3.419   6.367
 4129SOL    HW213074   3.724   3.352   6.497
 4130SOL     OW13075   2.083   3.176   7.430
 4130SOL    HW113076   2.018   3.103   7.409
 4130SOL    HW213077   2.087   3.190   7.528
 4131SOL     OW13078   1.941   3.102   6.239
 4131SOL    HW113079   1.940   3.055   6.327
 4131SOL    HW213080   2.023   3.074   6.188
 4132SOL     OW13081   2.534   3.253   7.210
 4132SOL    HW113082   2.456   3.203   7.248
 4132SOL    HW213083   2.531   3.348   7.241
 4133SOL     OW13084   3.686   2.054   6.813
 4133SOL    HW113085   3.682   1.964   6.857
 4133SOL    HW213086   3.689   2.043   6.714
 4134SOL     OW13087   2.290   2.286   6.106
 4134SOL    HW113088   2.320   2.214   6.044
 4134SOL    HW213089   2.251   2.246   6.189
 4135SOL     OW13090   3.567   3.349   6.690
 4135SOL    HW113091   3.474   3.324   6.663
 4135SOL    HW213092   3.593   3.299   6.772
 4136SOL     OW13093   2.179   2.409   6.866
 4136SOL    HW113094   2.217   2.350   6.938
 4136SOL    HW213095   2.219   2.383   6.778
 4137SOL     OW13096   2.674   3.448   6.273
 4137SOL    HW113097   2.706   3.458   6.179
 4137SOL    HW213098   2.595   3.386   6.275
 4138SOL     OW13099   3.286   2.076   6.698
 4138SOL    HW113100   3.338   2.011   6.753
 4138SOL    HW213101   3.237   2.139   6.759
 4139SOL     OW13102   2.863   1.896   6.740
 4139SOL    HW113103   2.800   1.824   6.709
 4139SOL    HW213104   2.956   1.860   6.740
 4140SOL     OW13105   2.632   3.192   5.887
 4140SOL    HW113106   2.586   3.105   5.904
 4140SOL    HW213107   2.723   3.189   5.928
 4141SOL     OW13108   2.480   3.429   6.870
 4141SOL    HW113109   2.475   3.511   6.927
 4141SOL    HW213110   2.569   3.426   6.825
 4142SOL     OW13111   3.214   1.914   5.754
 4142SOL    HW113112   3.249   1.873   5.670
 4142SOL    HW213113   3.124   1.876   5.774
 4143SOL     OW13114   3.162   2.315   6.277
 4143SOL    HW113115   3.103   2.395   6.281
 4143SOL    HW213116   3.177   2.280   6.370
 4144SOL     OW13117   3.455   2.083   6.468
 4144SOL    HW113118   3.371   2.082   6.522
 4144SOL    HW213119   3.457   2.166   6.412
 4145SOL     OW13120   1.901   2.939   5.886
 4145SOL    HW113121   2.000   2.928   5.877
 4145SOL    HW213122   1.861   2.853   5.918
 4146SOL     OW13123   2.737   3.508   5.923
 4146SOL    HW113124   2.660   3.473   5.869
 4146SOL    HW213125   2.705   3.579   5.985
 4147SOL     OW13126   2.092   2.490   7.561
 4147SOL    HW113127   1.999   2.488   7.598
 4147SOL    HW213128   2.093   2.451   7.469
 4148SOL     OW13129   3.617   2.469   7.679
 4148SOL    HW113130   3.605   2.456   7.580
 4148SOL    HW213131   3.587   2.388   7.728
 4149SOL     OW13132   2.093   3.575   7.931
 4149SOL    HW113133   2.127   3.652   7.985
 4149SOL    HW213134   2.137   3.575   7.841
 4150SOL     OW13135   2.092   3.296   7.986
 4150SOL    HW113136   2.066   3.392   7.986
 4150SOL    HW213137   2.021   3.242   8.031
 4151SOL     OW13138   2.468   2.826   7.571
 4151SOL    HW113139   2.475   2.910   7.517
 4151SOL    HW213140   2.514   2.839   7.659
 4152SOL     OW13141   3.704   3.629   7.807
 4152SOL    HW113142   3.758   3.600   7.887
 4152SOL    HW213143   3.734   3.719   7.778
 4153SOL     OW13144   1.889   3.458   7.565
 4153SOL    HW113145   1.870   3.362   7.586
 4153SOL    HW213146   1.856   3.516   7.640
 4154SOL     OW13147   3.551   2.784   8.060
 4154SOL    HW113148   3.646   2.755   8.068
 4154SOL    HW213149   3.543   2.849   7.985
 4155SOL     OW13150   3.503   2.970   7.880
 4155SOL    HW113151   3.589   2.972   7.828
 4155SOL    HW213152   3.517   3.017   7.968
 4156SOL     OW13153   2.671   1.866   7.950
 4156SOL    HW113154   2.711   1.957   7.941
 4156SOL    HW213155   2.571   1.874   7.956
 4157SOL     OW13156   3.387   2.861   7.638
 4157SOL    HW113157   3.324   2.785   7.651
 4157SOL    HW213158   3.435   2.879   7.724
 4158SOL     OW13159   3.438   3.524   7.755
 4158SOL    HW113160   3.527   3.570   7.758
 4158SOL    HW213161   3.417   3.500   7.660
 4159SOL     OW13162   1.938   2.673   8.237
 4159SOL    HW113163   2.037   2.661   8.246
 4159SOL    HW213164   1.914   2.768   8.258
 4160SOL     OW13165   2.727   2.210   7.643
 4160SOL    HW113166   2.786   2.273   7.594
 4160SOL    HW213167   2.746   2.116   7.614
 4161SOL     OW13168   2.183   2.805   7.690
 4161SOL    HW113169   2.265   2.844   7.648
 4161SOL    HW213170   2.156   2.723   7.641
 4162SOL     OW13171   2.973   3.638   7.685
 4162SOL    HW113172   2.913   3.576   7.735
 4162SOL    HW213173   3.004   3.594   7.600
 4163SOL     OW13174   3.494   3.239   7.529
 4163SOL    HW113175   3.462   3.333   7.519
 4163SOL    HW213176   3.418   3.176   7.517
 4164SOL     OW13177   2.326   3.605   7.771
 4164SOL    HW113178   2.359   3.644   7.857
 4164SOL    HW213179   2.402   3.598   7.706
 4165SOL     OW13180   3.262   1.969   7.874
 4165SOL    HW113181   3.238   1.932   7.784
 4165SOL    HW213182   3.361   1.985   7.878
 4166SOL     OW13183   2.244   2.562   7.928
 4166SOL    HW113184   2.289   2.472   7.925
 4166SOL    HW213185   2.150   2.551   7.961
 4167SOL     OW13186   2.476   1.984   7.565
 4167SOL    HW113187   2.574   1.962   7.572
 4167SOL    HW213188   2.445   1.967   7.472
 4168SOL     OW13189   2.401   1.926   7.960
 4168SOL    HW113190   2.320   1.927   8.018
 4168SOL    HW213191   2.404   2.009   7.905
 4169SOL     OW13192   3.296   3.050   7.489
 4169SOL    HW113193   3.328   2.974   7.546
 4169SOL    HW213194   3.204   3.077   7.519
 4170SOL     OW13195   2.159   1.897   7.619
 4170SOL    HW113196   2.208   1.981   7.598
 4170SOL    HW213197   2.221   1.832   7.664
 4171SOL     OW13198   2.797   2.098   7.928
 4171SOL    HW113199   2.749   2.139   7.850
 4171SOL    HW213200   2.896   2.096   7.909
 4172SOL     OW13201   2.321   3.014   8.189
 4172SOL    HW113202   2.250   2.987   8.254
 4172SOL    HW213203   2.295   2.986   8.096
 4173SOL     OW13204   3.133   3.659   8.039
 4173SOL    HW113205   3.177   3.723   7.975
 4173SOL    HW213206   3.083   3.711   8.109
 4174SOL     OW13207   2.894   2.411   7.464
 4174SOL    HW113208   2.853   2.493   7.425
 4174SOL    HW213209   2.958   2.437   7.537
 4175SOL     OW13210   3.719   2.695   7.825
 4175SOL    HW113211   3.761   2.631   7.889
 4175SOL    HW213212   3.681   2.644   7.747
 4176SOL     OW13213   2.350   3.247   7.622
 4176SOL    HW113214   2.263   3.232   7.669
 4176SOL    HW213215   2.333   3.273   7.527
 4177SOL     OW13216   3.252   2.437   7.526
 4177SOL    HW113217   3.198   2.416   7.607
 4177SOL    HW213218   3.343   2.396   7.535
 4178SOL     OW13219   2.389   2.118   7.776
 4178SOL    HW113220   2.416   2.059   7.701
 4178SOL    HW213221   2.389   2.213   7.745
 4179SOL     OW13222   2.567   2.912   7.816
 4179SOL    HW113223   2.553   2.919   7.915
 4179SOL    HW213224   2.651   2.861   7.798
 4180SOL     OW13225   2.229   2.962   7.949
 4180SOL    HW113226   2.222   3.045   7.893
 4180SOL    HW213227   2.233   2.882   7.889
 4181SOL     OW13228   3.114   3.210   7.836
 4181SOL    HW113229   3.164   3.287   7.876
 4181SOL    HW213230   3.019   3.212   7.868
 4182SOL     OW13231   3.444   2.501   7.920
 4182SOL    HW113232   3.413   2.562   7.993
 4182SOL    HW213233   3.494   2.553   7.851
 4183SOL     OW13234   3.071   2.387   7.723
 4183SOL    HW113235   3.084   2.303   7.777
 4183SOL    HW213236   3.042   2.461   7.783
 4184SOL     OW13237   3.484   2.229   7.822
 4184SOL    HW113238   3.486   2.153   7.886
 4184SOL    HW213239   3.436   2.306   7.862
 4185SOL     OW13240   3.402   2.136   7.573
 4185SOL    HW113241   3.341   2.061   7.596
 4185SOL    HW213242   3.424   2.188   7.656
 4186SOL     OW13243   3.165   2.700   7.490
 4186SOL    HW113244   3.199   2.607   7.505
 4186SOL    HW213245   3.183   2.727   7.395
 4187SOL     OW13246   1.870   3.188   7.648
 4187SOL    HW113247   1.777   3.209   7.617
 4187SOL    HW213248   1.880   3.089   7.661
 4188SOL     OW13249   2.335   2.362   7.639
 4188SOL    HW113250   2.396   2.442   7.643
 4188SOL    HW213251   2.240   2.393   7.646
 4189SOL     OW13252   3.164   2.717   7.757
 4189SOL    HW113253   3.078   2.686   7.799
 4189SOL    HW213254   3.160   2.703   7.658
 4190SOL     OW13255   3.588   1.997   7.971
 4190SOL    HW113256   3.661   1.980   7.904
 4190SOL    HW213257   3.557   1.910   8.009
 4191SOL     OW13258   3.250   3.435   7.925
 4191SOL    HW113259   3.317   3.447   7.851
 4191SOL    HW213260   3.210   3.524   7.948
 4192SOL     OW13261   2.534   3.478   7.602
 4192SOL    HW113262   2.543   3.488   7.503
 4192SOL    HW213263   2.494   3.389   7.623
 4193SOL     OW13264   3.056   3.474   7.479
 4193SOL    HW113265   3.062   3.381   7.516
 4193SOL    HW213266   2.997   3.474   7.399
 4194SOL     OW13267   3.366   3.469   7.492
 4194SOL    HW113268   3.274   3.506   7.499
 4194SOL    HW213269   3.404   3.489   7.402
 4195SOL     OW13270   2.452   3.349   7.939
 4195SOL    HW113271   2.494   3.291   7.869
 4195SOL    HW213272   2.408   3.428   7.895
 4196SOL     OW13273   2.117   3.210   7.738
 4196SOL    HW113274   2.021   3.211   7.711
 4196SOL    HW213275   2.129   3.263   7.822
 4197SOL     OW13276   1.937   2.207   7.481
 4197SOL    HW113277   1.845   2.179   7.452
 4197SOL    HW213278   1.968   2.284   7.425
 4198SOL     OW13279   1.934   2.028   7.766
 4198SOL    HW113280   1.917   2.111   7.712
 4198SOL    HW213281   2.024   1.991   7.744
 4199SOL     OW13282   3.045   3.197   7.567
 4199SOL    HW113283   2.946   3.186   7.569
 4199SOL    HW213284   3.079   3.212   7.660
 4200SOL     OW13285   3.087   2.187   7.897
 4200SOL    HW113286   3.152   2.113   7.886
 4200SOL    HW213287   3.107   2.237   7.981
 4201SOL     OW13288   2.721   3.236   7.464
 4201SOL    HW113289   2.675   3.251   7.552
 4201SOL    HW213290   2.765   3.321   7.434
 4202SOL     OW13291   2.945   2.846   7.535
 4202SOL    HW113292   2.922   2.899   7.453
 4202SOL    HW213293   3.026   2.790   7.516
 4203SOL     OW13294   2.290   2.286   7.968
 4203SOL    HW113295   2.320   2.214   7.906
 4203SOL    HW213296   2.251   2.246   8.051
 4204SOL     OW13297   2.632   3.192   7.749
 4204SOL    HW113298   2.586   3.105   7.766
 4204SOL    HW213299   2.723   3.189   7.790
 4205SOL     OW13300   3.214   1.914   7.616
 4205SOL    HW113301   3.249   1.873   7.532
 4205SOL    HW213302   3.124   1.876   7.636
 4206SOL     OW13303   1.901   2.939   7.748
 4206SOL    HW113304   2.000   2.928   7.739
 4206SOL    HW213305   1.861   2.853   7.780
 4207SOL     OW13306   2.737   3.508   7.785
 4207SOL    HW113307   2.660   3.473   7.731
 4207SOL    HW213308   2.705   3.579   7.847
 4208SOL     OW13309   2.092   4.352   0.113
 4208SOL    HW113310   1.999   4.350   0.150
 4208SOL    HW213311   2.093   4.313   0.021
 4209SOL     OW13312   2.087   3.999   0.996
 4209SOL    HW113313   2.122   3.982   1.088
 4209SOL    HW213314   1.999   3.954   0.984
 4210SOL     OW13315   1.881   4.092   0.647
 4210SOL    HW113316   1.799   4.135   0.686
 4210SOL    HW213317   1.853   4.019   0.584
 4211SOL     OW13318   2.431   4.999   1.165
 4211SOL    HW113319   2.338   4.992   1.128
 4211SOL    HW213320   2.442   5.088   1.209
 4212SOL     OW13321   3.417   5.235   0.703
 4212SOL    HW113322   3.360   5.219   0.784
 4212SOL    HW213323   3.358   5.245   0.623
 4213SOL     OW13324   2.997   4.427   0.717
 4213SOL    HW113325   3.054   4.505   0.692
 4213SOL    HW213326   2.937   4.453   0.793
 4214SOL     OW13327   3.617   4.331   0.231
 4214SOL    HW113328   3.605   4.318   0.132
 4214SOL    HW213329   3.587   4.250   0.280
 4215SOL     OW13330   2.630   4.868   1.023
 4215SOL    HW113331   2.552   4.885   1.083
 4215SOL    HW213332   2.664   4.955   0.987
 4216SOL     OW13333   2.712   4.522   1.823
 4216SOL    HW113334   2.708   4.598   1.888
 4216SOL    HW213335   2.734   4.558   1.732
 4217SOL     OW13336   2.547   4.736   0.665
 4217SOL    HW113337   2.616   4.720   0.735
 4217SOL    HW213338   2.474   4.793   0.703
 4218SOL     OW13339   2.548   4.885   1.803
 4218SOL    HW113340   2.608   4.964   1.817
 4218SOL    HW213341   2.462   4.916   1.762
 4219SOL     OW13342   2.197   5.159   1.061
 4219SOL    HW113343   2.119   5.128   1.008
 4219SOL    HW213344   2.255   5.217   1.004
 4220SOL     OW13345   3.322   5.229   1.339
 4220SOL    HW113346   3.346   5.323   1.365
 4220SOL    HW213347   3.306   5.175   1.421
 4221SOL     OW13348   2.300   4.116   1.499
 4221SOL    HW113349   2.382   4.060   1.508
 4221SOL    HW213350   2.219   4.058   1.503
 4222SOL     OW13351   3.465   4.171   0.737
 4222SOL    HW113352   3.391   4.217   0.687
 4222SOL    HW213353   3.516   4.239   0.790
 4223SOL     OW13354   2.989   5.065   1.690
 4223SOL    HW113355   3.036   5.065   1.778
 4223SOL    HW213356   2.941   4.978   1.679
 4224SOL     OW13357   2.092   5.158   0.538
 4224SOL    HW113358   2.066   5.254   0.538
 4224SOL    HW213359   2.021   5.104   0.583
 4225SOL     OW13360   2.102   4.815   0.886
 4225SOL    HW113361   2.116   4.731   0.938
 4225SOL    HW213362   2.047   4.879   0.941
 4226SOL     OW13363   2.468   4.688   0.123
 4226SOL    HW113364   2.475   4.772   0.069
 4226SOL    HW213365   2.514   4.701   0.211
 4227SOL     OW13366   3.456   3.838   1.480
 4227SOL    HW113367   3.438   3.905   1.408
 4227SOL    HW213368   3.453   3.884   1.569
 4228SOL     OW13369   1.984   4.367   0.563
 4228SOL    HW113370   1.939   4.279   0.580
 4228SOL    HW213371   1.983   4.421   0.647
 4229SOL     OW13372   1.889   5.320   0.117
 4229SOL    HW113373   1.870   5.224   0.138
 4229SOL    HW213374   1.856   5.378   0.192
 4230SOL     OW13375   3.551   4.646   0.612
 4230SOL    HW113376   3.646   4.617   0.620
 4230SOL    HW213377   3.543   4.711   0.537
 4231SOL     OW13378   3.503   4.832   0.432
 4231SOL    HW113379   3.589   4.834   0.380
 4231SOL    HW213380   3.517   4.879   0.520
 4232SOL     OW13381   1.975   4.461   1.597
 4232SOL    HW113382   2.063   4.448   1.642
 4232SOL    HW213383   1.962   4.558   1.575
 4233SOL     OW13384   2.475   5.089   0.726
 4233SOL    HW113385   2.426   5.002   0.735
 4233SOL    HW213386   2.452   5.132   0.639
 4234SOL     OW13387   3.155   4.952   1.423
 4234SOL    HW113388   3.192   4.879   1.365
 4234SOL    HW213389   3.207   4.957   1.508
 4235SOL     OW13390   2.671   3.728   0.502
 4235SOL    HW113391   2.711   3.819   0.493
 4235SOL    HW213392   2.571   3.736   0.508
 4236SOL     OW13393   2.059   4.700   1.264
 4236SOL    HW113394   2.148   4.655   1.250
 4236SOL    HW213395   1.986   4.635   1.245
 4237SOL     OW13396   3.387   4.723   0.190
 4237SOL    HW113397   3.324   4.647   0.203
 4237SOL    HW213398   3.435   4.741   0.276
 4238SOL     OW13399   2.179   3.975   1.801
 4238SOL    HW113400   2.250   4.046   1.807
 4238SOL    HW213401   2.091   4.014   1.829
 4239SOL     OW13402   3.328   5.141   0.953
 4239SOL    HW113403   3.269   5.147   1.033
 4239SOL    HW213404   3.313   5.053   0.907
 4240SOL     OW13405   2.460   4.453   0.270
 4240SOL    HW113406   2.484   4.522   0.202
 4240SOL    HW213407   2.382   4.486   0.324
 4241SOL     OW13408   3.143   4.069   0.944
 4241SOL    HW113409   3.057   4.019   0.931
 4241SOL    HW213410   3.205   4.015   1.000
 4242SOL     OW13411   2.669   4.329   1.465
 4242SOL    HW113412   2.622   4.326   1.554
 4242SOL    HW213413   2.618   4.274   1.399
 4243SOL     OW13414   3.256   4.193   1.674
 4243SOL    HW113415   3.236   4.236   1.762
 4243SOL    HW213416   3.334   4.131   1.683
 4244SOL     OW13417   2.835   4.614   1.572
 4244SOL    HW113418   2.881   4.530   1.543
 4244SOL    HW213419   2.779   4.648   1.497
 4245SOL     OW13420   2.853   4.134   1.242
 4245SOL    HW113421   2.776   4.168   1.296
 4245SOL    HW213422   2.819   4.083   1.163
 4246SOL     OW13423   2.903   4.425   0.429
 4246SOL    HW113424   2.929   4.421   0.525
 4246SOL    HW213425   2.818   4.374   0.415
 4247SOL     OW13426   1.938   4.535   0.789
 4247SOL    HW113427   2.037   4.523   0.798
 4247SOL    HW213428   1.914   4.630   0.810
 4248SOL     OW13429   2.727   4.072   0.195
 4248SOL    HW113430   2.786   4.135   0.146
 4248SOL    HW213431   2.746   3.978   0.166
 4249SOL     OW13432   3.581   4.309   1.831
 4249SOL    HW113433   3.555   4.398   1.795
 4249SOL    HW213434   3.579   4.241   1.758
 4250SOL     OW13435   3.224   4.868   0.545
 4250SOL    HW113436   3.307   4.839   0.497
 4250SOL    HW213437   3.175   4.935   0.489
 4251SOL     OW13438   2.412   3.920   0.885
 4251SOL    HW113439   2.407   3.915   0.985
 4251SOL    HW213440   2.414   4.016   0.856
 4252SOL     OW13441   2.870   5.180   0.477
 4252SOL    HW113442   2.824   5.252   0.425
 4252SOL    HW213443   2.866   5.200   0.575
 4253SOL     OW13444   3.657   4.790   0.873
 4253SOL    HW113445   3.595   4.775   0.797
 4253SOL    HW213446   3.605   4.801   0.958
 4254SOL     OW13447   3.089   5.274   1.506
 4254SOL    HW113448   3.095   5.197   1.570
 4254SOL    HW213449   3.037   5.248   1.426
 4255SOL     OW13450   2.183   4.667   0.242
 4255SOL    HW113451   2.265   4.706   0.200
 4255SOL    HW213452   2.156   4.585   0.193
 4256SOL     OW13453   3.320   4.459   0.728
 4256SOL    HW113454   3.315   4.394   0.803
 4256SOL    HW213455   3.400   4.518   0.741
 4257SOL     OW13456   2.323   4.990   1.727
 4257SOL    HW113457   2.273   4.991   1.641
 4257SOL    HW213458   2.260   4.972   1.803
 4258SOL     OW13459   2.973   5.500   0.237
 4258SOL    HW113460   2.913   5.438   0.287
 4258SOL    HW213461   3.004   5.456   0.152
 4259SOL     OW13462   2.064   4.009   1.498
 4259SOL    HW113463   1.984   4.069   1.485
 4259SOL    HW213464   2.054   3.960   1.584
 4260SOL     OW13465   3.494   5.101   0.081
 4260SOL    HW113466   3.462   5.195   0.071
 4260SOL    HW213467   3.418   5.038   0.069
 4261SOL     OW13468   3.262   3.831   0.426
 4261SOL    HW113469   3.238   3.794   0.336
 4261SOL    HW213470   3.361   3.847   0.430
 4262SOL     OW13471   2.244   4.424   0.480
 4262SOL    HW113472   2.289   4.334   0.477
 4262SOL    HW213473   2.150   4.413   0.513
 4263SOL     OW13474   3.409   3.946   1.729
 4263SOL    HW113475   3.404   3.983   1.821
 4263SOL    HW213476   3.337   3.877   1.717
 4264SOL     OW13477   2.476   3.846   0.117
 4264SOL    HW113478   2.574   3.824   0.124
 4264SOL    HW213479   2.445   3.829   0.024
 4265SOL     OW13480   2.643   3.988   1.749
 4265SOL    HW113481   2.710   3.927   1.792
 4265SOL    HW213482   2.570   4.007   1.814
 4266SOL     OW13483   3.213   4.314   1.433
 4266SOL    HW113484   3.241   4.271   1.518
 4266SOL    HW213485   3.238   4.410   1.434
 4267SOL     OW13486   2.665   5.126   0.924
 4267SOL    HW113487   2.755   5.140   0.882
 4267SOL    HW213488   2.594   5.128   0.853
 4268SOL     OW13489   2.784   4.227   0.899
 4268SOL    HW113490   2.759   4.218   0.803
 4268SOL    HW213491   2.832   4.145   0.930
 4269SOL     OW13492   2.401   3.788   0.512
 4269SOL    HW113493   2.320   3.789   0.570
 4269SOL    HW213494   2.404   3.871   0.457
 4270SOL     OW13495   3.296   4.912   0.041
 4270SOL    HW113496   3.328   4.836   0.098
 4270SOL    HW213497   3.204   4.939   0.071
 4271SOL     OW13498   2.159   3.759   0.171
 4271SOL    HW113499   2.208   3.843   0.150
 4271SOL    HW213500   2.221   3.694   0.216
 4272SOL     OW13501   2.797   3.960   0.480
 4272SOL    HW113502   2.749   4.001   0.402
 4272SOL    HW213503   2.896   3.958   0.461
 4273SOL     OW13504   2.938   4.407   1.464
 4273SOL    HW113505   2.858   4.346   1.467
 4273SOL    HW213506   3.019   4.354   1.440
 4274SOL     OW13507   3.089   5.294   0.793
 4274SOL    HW113508   3.110   5.368   0.728
 4274SOL    HW213509   3.157   5.294   0.866
 4275SOL     OW13510   2.321   4.876   0.741
 4275SOL    HW113511   2.250   4.849   0.806
 4275SOL    HW213512   2.295   4.848   0.648
 4276SOL     OW13513   2.894   4.273   0.016
 4276SOL    HW113514   2.853   4.355  -0.023
 4276SOL    HW213515   2.958   4.299   0.089
 4277SOL     OW13516   1.940   4.280   1.386
 4277SOL    HW113517   2.032   4.279   1.345
 4277SOL    HW213518   1.934   4.354   1.453
 4278SOL     OW13519   2.423   3.946   1.147
 4278SOL    HW113520   2.461   3.862   1.184
 4278SOL    HW213521   2.335   3.965   1.191
 4279SOL     OW13522   2.728   4.178   0.642
 4279SOL    HW113523   2.696   4.250   0.580
 4279SOL    HW213524   2.752   4.097   0.589
 4280SOL     OW13525   2.879   3.763   0.753
 4280SOL    HW113526   2.807   3.768   0.684
 4280SOL    HW213527   2.855   3.694   0.822
 4281SOL     OW13528   3.291   4.897   0.867
 4281SOL    HW113529   3.236   4.813   0.860
 4281SOL    HW213530   3.317   4.926   0.775
 4282SOL     OW13531   3.328   4.314   0.992
 4282SOL    HW113532   3.298   4.219   0.999
 4282SOL    HW213533   3.401   4.330   1.058
 4283SOL     OW13534   3.719   4.557   0.377
 4283SOL    HW113535   3.761   4.493   0.441
 4283SOL    HW213536   3.681   4.506   0.299
 4284SOL     OW13537   2.350   5.109   0.174
 4284SOL    HW113538   2.263   5.094   0.221
 4284SOL    HW213539   2.333   5.135   0.079
 4285SOL     OW13540   3.526   5.004   0.657
 4285SOL    HW113541   3.625   5.012   0.671
 4285SOL    HW213542   3.481   5.088   0.688
 4286SOL     OW13543   3.252   4.299   0.078
 4286SOL    HW113544   3.198   4.278   0.159
 4286SOL    HW213545   3.343   4.258   0.087
 4287SOL     OW13546   2.389   3.980   0.328
 4287SOL    HW113547   2.416   3.921   0.253
 4287SOL    HW213548   2.389   4.075   0.297
 4288SOL     OW13549   3.616   4.947   1.588
 4288SOL    HW113550   3.707   4.908   1.575
 4288SOL    HW213551   3.624   5.043   1.612
 4289SOL     OW13552   2.926   5.071   1.340
 4289SOL    HW113553   2.846   5.048   1.395
 4289SOL    HW213554   3.009   5.045   1.389
 4290SOL     OW13555   2.973   4.919   1.100
 4290SOL    HW113556   2.933   4.963   1.181
 4290SOL    HW213557   2.932   4.956   1.017
 4291SOL     OW13558   3.500   4.823   1.079
 4291SOL    HW113559   3.505   4.904   1.138
 4291SOL    HW213560   3.414   4.825   1.028
 4292SOL     OW13561   2.777   3.813   1.402
 4292SOL    HW113562   2.802   3.793   1.307
 4292SOL    HW213563   2.849   3.869   1.444
 4293SOL     OW13564   2.842   4.840   1.719
 4293SOL    HW113565   2.743   4.846   1.729
 4293SOL    HW213566   2.865   4.760   1.663
 4294SOL     OW13567   2.567   4.774   0.368
 4294SOL    HW113568   2.553   4.781   0.467
 4294SOL    HW213569   2.651   4.723   0.350
 4295SOL     OW13570   2.272   4.537   1.251
 4295SOL    HW113571   2.358   4.549   1.301
 4295SOL    HW213572   2.230   4.450   1.278
 4296SOL     OW13573   3.136   4.110   1.262
 4296SOL    HW113574   3.157   4.184   1.326
 4296SOL    HW213575   3.047   4.127   1.219
 4297SOL     OW13576   2.229   4.824   0.501
 4297SOL    HW113577   2.222   4.907   0.445
 4297SOL    HW213578   2.233   4.744   0.441
 4298SOL     OW13579   2.428   4.261   0.865
 4298SOL    HW113580   2.440   4.327   0.791
 4298SOL    HW213581   2.474   4.295   0.948
 4299SOL     OW13582   3.114   5.072   0.388
 4299SOL    HW113583   3.164   5.149   0.428
 4299SOL    HW213584   3.019   5.074   0.420
 4300SOL     OW13585   3.134   5.169   1.142
 4300SOL    HW113586   3.181   5.182   1.229
 4300SOL    HW213587   3.068   5.095   1.151
 4301SOL     OW13588   3.444   4.363   0.472
 4301SOL    HW113589   3.413   4.424   0.545
 4301SOL    HW213590   3.494   4.415   0.403
 4302SOL     OW13591   2.216   5.234   1.329
 4302SOL    HW113592   2.195   5.190   1.242
 4302SOL    HW213593   2.313   5.260   1.332
 4303SOL     OW13594   2.264   4.475   1.598
 4303SOL    HW113595   2.332   4.530   1.551
 4303SOL    HW213596   2.304   4.387   1.625
 4304SOL     OW13597   3.449   4.503   1.670
 4304SOL    HW113598   3.357   4.541   1.665
 4304SOL    HW213599   3.509   4.550   1.605
 4305SOL     OW13600   2.875   3.829   1.770
 4305SOL    HW113601   2.881   3.914   1.718
 4305SOL    HW213602   2.907   3.753   1.713
 4306SOL     OW13603   2.366   3.774   1.740
 4306SOL    HW113604   2.324   3.717   1.670
 4306SOL    HW213605   2.300   3.843   1.772
 4307SOL     OW13606   2.435   4.594   1.029
 4307SOL    HW113607   2.479   4.683   1.020
 4307SOL    HW213608   2.372   4.594   1.106
 4308SOL     OW13609   3.222   4.586   1.045
 4308SOL    HW113610   3.147   4.586   0.979
 4308SOL    HW213611   3.259   4.494   1.054
 4309SOL     OW13612   3.071   4.249   0.275
 4309SOL    HW113613   3.084   4.165   0.329
 4309SOL    HW213614   3.042   4.323   0.335
 4310SOL     OW13615   2.169   3.937   1.231
 4310SOL    HW113616   2.146   3.974   1.321
 4310SOL    HW213617   2.139   3.842   1.225
 4311SOL     OW13618   1.899   5.034   1.282
 4311SOL    HW113619   1.952   4.985   1.350
 4311SOL    HW213620   1.921   5.132   1.287
 4312SOL     OW13621   2.594   4.358   1.064
 4312SOL    HW113622   2.653   4.332   0.988
 4312SOL    HW213623   2.566   4.454   1.053
 4313SOL     OW13624   3.590   4.659   1.854
 4313SOL    HW113625   3.544   4.652   1.765
 4313SOL    HW213626   3.528   4.703   1.920
 4314SOL     OW13627   2.169   3.787   0.618
 4314SOL    HW113628   2.158   3.881   0.651
 4314SOL    HW213629   2.164   3.724   0.695
 4315SOL     OW13630   3.484   4.091   0.374
 4315SOL    HW113631   3.486   4.015   0.438
 4315SOL    HW213632   3.436   4.168   0.414
 4316SOL     OW13633   2.885   4.490   0.966
 4316SOL    HW113634   2.900   4.511   1.062
 4316SOL    HW213635   2.855   4.395   0.957
 4317SOL     OW13636   3.721   5.242   1.605
 4317SOL    HW113637   3.735   5.269   1.510
 4317SOL    HW213638   3.804   5.264   1.658
 4318SOL     OW13639   2.212   4.622   1.804
 4318SOL    HW113640   2.288   4.666   1.852
 4318SOL    HW213641   2.247   4.575   1.722
 4319SOL     OW13642   3.402   3.998   0.125
 4319SOL    HW113643   3.341   3.923   0.148
 4319SOL    HW213644   3.424   4.050   0.208
 4320SOL     OW13645   3.165   4.562   0.042
 4320SOL    HW113646   3.199   4.469   0.057
 4320SOL    HW213647   3.183   4.589  -0.053
 4321SOL     OW13648   2.930   5.057   0.849
 4321SOL    HW113649   2.937   4.973   0.794
 4321SOL    HW213650   2.992   5.126   0.813
 4322SOL     OW13651   2.181   4.534   0.949
 4322SOL    HW113652   2.274   4.570   0.954
 4322SOL    HW213653   2.175   4.449   1.001
 4323SOL     OW13654   2.201   4.233   1.006
 4323SOL    HW113655   2.149   4.150   0.989
 4323SOL    HW213656   2.278   4.238   0.942
 4324SOL     OW13657   3.000   4.104   1.678
 4324SOL    HW113658   2.955   4.167   1.742
 4324SOL    HW213659   3.093   4.135   1.661
 4325SOL     OW13660   3.022   3.931   1.477
 4325SOL    HW113661   3.022   3.995   1.554
 4325SOL    HW213662   3.050   3.979   1.394
 4326SOL     OW13663   1.870   5.050   0.200
 4326SOL    HW113664   1.777   5.071   0.169
 4326SOL    HW213665   1.880   4.951   0.213
 4327SOL     OW13666   2.864   4.520   1.238
 4327SOL    HW113667   2.905   4.488   1.324
 4327SOL    HW213668   2.768   4.493   1.235
 4328SOL     OW13669   1.902   4.268   1.114
 4328SOL    HW113670   1.987   4.235   1.073
 4328SOL    HW213671   1.915   4.283   1.212
 4329SOL     OW13672   2.051   4.244   1.722
 4329SOL    HW113673   2.110   4.204   1.652
 4329SOL    HW213674   1.993   4.315   1.681
 4330SOL     OW13675   3.231   4.674   1.660
 4330SOL    HW113676   3.270   4.763   1.680
 4330SOL    HW213677   3.241   4.654   1.563
 4331SOL     OW13678   2.677   4.296   0.325
 4331SOL    HW113679   2.684   4.207   0.279
 4331SOL    HW213680   2.583   4.330   0.317
 4332SOL     OW13681   3.519   4.328   1.206
 4332SOL    HW113682   3.481   4.259   1.268
 4332SOL    HW213683   3.601   4.292   1.162
 4333SOL     OW13684   2.114   5.288   1.744
 4333SOL    HW113685   2.084   5.345   1.820
 4333SOL    HW213686   2.107   5.191   1.770
 4334SOL     OW13687   2.533   4.188   1.269
 4334SOL    HW113688   2.499   4.099   1.239
 4334SOL    HW213689   2.559   4.242   1.189
 4335SOL     OW13690   2.335   4.224   0.191
 4335SOL    HW113691   2.396   4.304   0.195
 4335SOL    HW213692   2.240   4.255   0.198
 4336SOL     OW13693   2.021   4.861   1.466
 4336SOL    HW113694   2.043   4.800   1.542
 4336SOL    HW213695   2.031   4.812   1.380
 4337SOL     OW13696   3.209   4.783   1.234
 4337SOL    HW113697   3.233   4.720   1.160
 4337SOL    HW213698   3.119   4.823   1.216
 4338SOL     OW13699   3.164   4.579   0.309
 4338SOL    HW113700   3.078   4.548   0.351
 4338SOL    HW213701   3.160   4.565   0.210
 4339SOL     OW13702   1.945   4.982   1.022
 4339SOL    HW113703   1.940   4.981   1.122
 4339SOL    HW213704   1.862   4.941   0.984
 4340SOL     OW13705   2.550   5.386   1.716
 4340SOL    HW113706   2.494   5.467   1.725
 4340SOL    HW213707   2.602   5.390   1.630
 4341SOL     OW13708   2.765   3.810   0.133
 4341SOL    HW113709   2.816   3.811   0.047
 4341SOL    HW213710   2.821   3.768   0.204
 4342SOL     OW13711   3.588   3.859   0.523
 4342SOL    HW113712   3.661   3.842   0.456
 4342SOL    HW213713   3.557   3.772   0.561
 4343SOL     OW13714   3.142   4.651   0.672
 4343SOL    HW113715   3.202   4.570   0.674
 4343SOL    HW213716   3.182   4.720   0.612
 4344SOL     OW13717   2.692   4.997   1.422
 4344SOL    HW113718   2.687   5.030   1.517
 4344SOL    HW213719   2.606   5.016   1.376
 4345SOL     OW13720   3.703   3.899   0.963
 4345SOL    HW113721   3.742   3.814   0.927
 4345SOL    HW213722   3.605   3.901   0.944
 4346SOL     OW13723   2.125   4.050   0.720
 4346SOL    HW113724   2.046   4.101   0.686
 4346SOL    HW213725   2.116   4.035   0.818
 4347SOL     OW13726   3.056   5.336   0.031
 4347SOL    HW113727   3.062   5.243   0.068
 4347SOL    HW213728   2.997   5.336  -0.049
 4348SOL     OW13729   2.684   4.726   1.372
 4348SOL    HW113730   2.724   4.725   1.280
 4348SOL    HW213731   2.694   4.818   1.412
 4349SOL     OW13732   2.778   4.634   0.291
 4349SOL    HW113733   2.841   4.672   0.223
 4349SOL    HW213734   2.818   4.551   0.330
 4350SOL     OW13735   2.234   5.012   1.490
 4350SOL    HW113736   2.221   5.105   1.456
 4350SOL    HW213737   2.150   4.960   1.477
 4351SOL     OW13738   3.476   5.016   1.289
 4351SOL    HW113739   3.536   5.019   1.369
 4351SOL    HW213740   3.401   5.080   1.302
 4352SOL     OW13741   2.901   4.822   0.696
 4352SOL    HW113742   2.831   4.775   0.750
 4352SOL    HW213743   2.960   4.754   0.653
 4353SOL     OW13744   2.876   3.960   0.971
 4353SOL    HW113745   2.868   3.924   0.878
 4353SOL    HW213746   2.874   3.884   1.036
 4354SOL     OW13747   3.571   4.109   1.381
 4354SOL    HW113748   3.644   4.178   1.385
 4354SOL    HW213749   3.599   4.034   1.322
 4355SOL     OW13750   2.117   5.072   0.290
 4355SOL    HW113751   2.021   5.073   0.263
 4355SOL    HW213752   2.129   5.125   0.374
 4356SOL     OW13753   1.967   4.737   1.726
 4356SOL    HW113754   1.890   4.704   1.780
 4356SOL    HW213755   2.052   4.707   1.768
 4357SOL     OW13756   2.534   3.927   1.489
 4357SOL    HW113757   2.624   3.911   1.449
 4357SOL    HW213758   2.542   3.932   1.588
 4358SOL     OW13759   1.937   4.069   0.033
 4358SOL    HW113760   1.845   4.041   0.004
 4358SOL    HW213761   1.968   4.146  -0.023
 4359SOL     OW13762   3.302   4.580   1.398
 4359SOL    HW113763   3.245   4.632   1.335
 4359SOL    HW213764   3.398   4.592   1.374
 4360SOL     OW13765   1.934   3.890   0.318
 4360SOL    HW113766   1.917   3.973   0.264
 4360SOL    HW213767   2.024   3.853   0.296
 4361SOL     OW13768   3.045   5.059   0.119
 4361SOL    HW113769   2.946   5.048   0.121
 4361SOL    HW213770   3.079   5.074   0.212
 4362SOL     OW13771   2.475   4.566   1.431
 4362SOL    HW113772   2.531   4.647   1.414
 4362SOL    HW213773   2.534   4.486   1.434
 4363SOL     OW13774   2.578   4.289   1.708
 4363SOL    HW113775   2.597   4.354   1.782
 4363SOL    HW213776   2.638   4.209   1.717
 4364SOL     OW13777   3.312   4.944   1.633
 4364SOL    HW113778   3.303   4.934   1.732
 4364SOL    HW213779   3.408   4.937   1.607
 4365SOL     OW13780   3.536   4.607   1.254
 4365SOL    HW113781   3.509   4.518   1.217
 4365SOL    HW213782   3.537   4.675   1.181
 4366SOL     OW13783   3.087   4.049   0.449
 4366SOL    HW113784   3.152   3.975   0.438
 4366SOL    HW213785   3.107   4.099   0.533
 4367SOL     OW13786   2.456   4.469   0.652
 4367SOL    HW113787   2.506   4.554   0.633
 4367SOL    HW213788   2.368   4.471   0.604
 4368SOL     OW13789   3.639   4.066   1.642
 4368SOL    HW113790   3.622   4.097   1.548
 4368SOL    HW213791   3.555   4.029   1.680
 4369SOL     OW13792   3.592   4.658   1.517
 4369SOL    HW113793   3.630   4.749   1.532
 4369SOL    HW213794   3.584   4.641   1.418
 4370SOL     OW13795   2.721   5.098   0.016
 4370SOL    HW113796   2.675   5.113   0.104
 4370SOL    HW213797   2.765   5.183  -0.014
 4371SOL     OW13798   2.721   4.680   0.861
 4371SOL    HW113799   2.775   4.611   0.909
 4371SOL    HW213800   2.689   4.749   0.927
 4372SOL     OW13801   2.945   4.708   0.087
 4372SOL    HW113802   2.922   4.761   0.005
 4372SOL    HW213803   3.026   4.652   0.068
 4373SOL     OW13804   2.083   5.038   1.844
 4373SOL    HW113805   2.018   4.965   1.823
 4373SOL    HW213806   2.087   5.052   1.942
 4374SOL     OW13807   1.941   4.964   0.653
 4374SOL    HW113808   1.940   4.917   0.741
 4374SOL    HW213809   2.023   4.936   0.602
 4375SOL     OW13810   2.534   5.115   1.624
 4375SOL    HW113811   2.456   5.065   1.662
 4375SOL    HW213812   2.531   5.210   1.655
 4376SOL     OW13813   3.686   3.916   1.227
 4376SOL    HW113814   3.682   3.826   1.271
 4376SOL    HW213815   3.689   3.905   1.128
 4377SOL     OW13816   2.290   4.148   0.520
 4377SOL    HW113817   2.320   4.076   0.458
 4377SOL    HW213818   2.251   4.108   0.603
 4378SOL     OW13819   3.567   5.211   1.104
 4378SOL    HW113820   3.474   5.186   1.077
 4378SOL    HW213821   3.593   5.161   1.186
 4379SOL     OW13822   2.179   4.271   1.280
 4379SOL    HW113823   2.217   4.212   1.352
 4379SOL    HW213824   2.219   4.245   1.192
 4380SOL     OW13825   3.286   3.938   1.112
 4380SOL    HW113826   3.338   3.873   1.167
 4380SOL    HW213827   3.237   4.001   1.173
 4381SOL     OW13828   2.863   3.758   1.154
 4381SOL    HW113829   2.800   3.686   1.123
 4381SOL    HW213830   2.956   3.722   1.154
 4382SOL     OW13831   2.632   5.054   0.301
 4382SOL    HW113832   2.586   4.967   0.318
 4382SOL    HW213833   2.723   5.051   0.342
 4383SOL     OW13834   2.480   5.291   1.284
 4383SOL    HW113835   2.475   5.373   1.341
 4383SOL    HW213836   2.569   5.288   1.239
 4384SOL     OW13837   3.214   3.776   0.168
 4384SOL    HW113838   3.249   3.735   0.084
 4384SOL    HW213839   3.124   3.738   0.188
 4385SOL     OW13840   3.162   4.177   0.691
 4385SOL    HW113841   3.103   4.257   0.695
 4385SOL    HW213842   3.177   4.142   0.784
 4386SOL     OW13843   3.455   3.945   0.882
 4386SOL    HW113844   3.371   3.944   0.936
 4386SOL    HW213845   3.457   4.028   0.826
 4387SOL     OW13846   1.901   4.801   0.300
 4387SOL    HW113847   2.000   4.790   0.291
 4387SOL    HW213848   1.861   4.715   0.332
 4388SOL     OW13849   2.092   4.352   1.975
 4388SOL    HW113850   1.999   4.350   2.012
 4388SOL    HW213851   2.093   4.313   1.883
 4389SOL     OW13852   2.087   3.999   2.858
 4389SOL    HW113853   2.122   3.982   2.950
 4389SOL    HW213854   1.999   3.954   2.846
 4390SOL     OW13855   1.881   4.092   2.509
 4390SOL    HW113856   1.799   4.135   2.548
 4390SOL    HW213857   1.853   4.019   2.446
 4391SOL     OW13858   2.431   4.999   3.027
 4391SOL    HW113859   2.338   4.992   2.990
 4391SOL    HW213860   2.442   5.088   3.071
 4392SOL     OW13861   3.417   5.235   2.565
 4392SOL    HW113862   3.360   5.219   2.646
 4392SOL    HW213863   3.358   5.245   2.485
 4393SOL     OW13864   2.997   4.427   2.579
 4393SOL    HW113865   3.054   4.505   2.554
 4393SOL    HW213866   2.937   4.453   2.655
 4394SOL     OW13867   3.617   4.331   2.093
 4394SOL    HW113868   3.605   4.318   1.994
 4394SOL    HW213869   3.587   4.250   2.142
 4395SOL     OW13870   2.630   4.868   2.885
 4395SOL    HW113871   2.552   4.885   2.945
 4395SOL    HW213872   2.664   4.955   2.849
 4396SOL     OW13873   2.712   4.522   3.685
 4396SOL    HW113874   2.708   4.598   3.750
 4396SOL    HW213875   2.734   4.558   3.594
 4397SOL     OW13876   2.547   4.736   2.527
 4397SOL    HW113877   2.616   4.720   2.597
 4397SOL    HW213878   2.474   4.793   2.565
 4398SOL     OW13879   2.548   4.885   3.665
 4398SOL    HW113880   2.608   4.964   3.679
 4398SOL    HW213881   2.462   4.916   3.624
 4399SOL     OW13882   2.197   5.159   2.923
 4399SOL    HW113883   2.119   5.128   2.870
 4399SOL    HW213884   2.255   5.217   2.866
 4400SOL     OW13885   3.322   5.229   3.201
 4400SOL    HW113886   3.346   5.323   3.227
 4400SOL    HW213887   3.306   5.175   3.283
 4401SOL     OW13888   2.300   4.116   3.361
 4401SOL    HW113889   2.382   4.060   3.370
 4401SOL    HW213890   2.219   4.058   3.365
 4402SOL     OW13891   3.465   4.171   2.599
 4402SOL    HW113892   3.391   4.217   2.549
 4402SOL    HW213893   3.516   4.239   2.652
 4403SOL     OW13894   2.989   5.065   3.552
 4403SOL    HW113895   3.036   5.065   3.640
 4403SOL    HW213896   2.941   4.978   3.541
 4404SOL     OW13897   2.092   5.158   2.400
 4404SOL    HW113898   2.066   5.254   2.400
 4404SOL    HW213899   2.021   5.104   2.445
 4405SOL     OW13900   2.102   4.815   2.748
 4405SOL    HW113901   2.116   4.731   2.800
 4405SOL    HW213902   2.047   4.879   2.803
 4406SOL     OW13903   2.468   4.688   1.985
 4406SOL    HW113904   2.475   4.772   1.931
 4406SOL    HW213905   2.514   4.701   2.073
 4407SOL     OW13906   3.456   3.838   3.342
 4407SOL    HW113907   3.438   3.905   3.270
 4407SOL    HW213908   3.453   3.884   3.431
 4408SOL     OW13909   1.984   4.367   2.425
 4408SOL    HW113910   1.939   4.279   2.442
 4408SOL    HW213911   1.983   4.421   2.509
 4409SOL     OW13912   1.889   5.320   1.979
 4409SOL    HW113913   1.870   5.224   2.000
 4409SOL    HW213914   1.856   5.378   2.054
 4410SOL     OW13915   3.551   4.646   2.474
 4410SOL    HW113916   3.646   4.617   2.482
 4410SOL    HW213917   3.543   4.711   2.399
 4411SOL     OW13918   3.503   4.832   2.294
 4411SOL    HW113919   3.589   4.834   2.242
 4411SOL    HW213920   3.517   4.879   2.382
 4412SOL     OW13921   1.975   4.461   3.459
 4412SOL    HW113922   2.063   4.448   3.504
 4412SOL    HW213923   1.962   4.558   3.437
 4413SOL     OW13924   2.475   5.089   2.588
 4413SOL    HW113925   2.426   5.002   2.597
 4413SOL    HW213926   2.452   5.132   2.501
 4414SOL     OW13927   3.155   4.952   3.285
 4414SOL    HW113928   3.192   4.879   3.227
 4414SOL    HW213929   3.207   4.957   3.370
 4415SOL     OW13930   2.671   3.728   2.364
 4415SOL    HW113931   2.711   3.819   2.355
 4415SOL    HW213932   2.571   3.736   2.370
 4416SOL     OW13933   2.059   4.700   3.126
 4416SOL    HW113934   2.148   4.655   3.112
 4416SOL    HW213935   1.986   4.635   3.107
 4417SOL     OW13936   3.387   4.723   2.052
 4417SOL    HW113937   3.324   4.647   2.065
 4417SOL    HW213938   3.435   4.741   2.138
 4418SOL     OW13939   2.179   3.975   3.663
 4418SOL    HW113940   2.250   4.046   3.669
 4418SOL    HW213941   2.091   4.014   3.691
 4419SOL     OW13942   3.328   5.141   2.815
 4419SOL    HW113943   3.269   5.147   2.895
 4419SOL    HW213944   3.313   5.053   2.769
 4420SOL     OW13945   2.460   4.453   2.132
 4420SOL    HW113946   2.484   4.522   2.064
 4420SOL    HW213947   2.382   4.486   2.186
 4421SOL     OW13948   3.143   4.069   2.806
 4421SOL    HW113949   3.057   4.019   2.793
 4421SOL    HW213950   3.205   4.015   2.862
 4422SOL     OW13951   2.669   4.329   3.327
 4422SOL    HW113952   2.622   4.326   3.416
 4422SOL    HW213953   2.618   4.274   3.261
 4423SOL     OW13954   3.256   4.193   3.536
 4423SOL    HW113955   3.236   4.236   3.624
 4423SOL    HW213956   3.334   4.131   3.545
 4424SOL     OW13957   2.835   4.614   3.434
 4424SOL    HW113958   2.881   4.530   3.405
 4424SOL    HW213959   2.779   4.648   3.359
 4425SOL     OW13960   2.853   4.134   3.104
 4425SOL    HW113961   2.776   4.168   3.158
 4425SOL    HW213962   2.819   4.083   3.025
 4426SOL     OW13963   2.903   4.425   2.291
 4426SOL    HW113964   2.929   4.421   2.387
 4426SOL    HW213965   2.818   4.374   2.277
 4427SOL     OW13966   1.938   4.535   2.651
 4427SOL    HW113967   2.037   4.523   2.660
 4427SOL    HW213968   1.914   4.630   2.672
 4428SOL     OW13969   2.727   4.072   2.057
 4428SOL    HW113970   2.786   4.135   2.008
 4428SOL    HW213971   2.746   3.978   2.028
 4429SOL     OW13972   3.581   4.309   3.693
 4429SOL    HW113973   3.555   4.398   3.657
 4429SOL    HW213974   3.579   4.241   3.620
 4430SOL     OW13975   3.224   4.868   2.407
 4430SOL    HW113976   3.307   4.839   2.359
 4430SOL    HW213977   3.175   4.935   2.351
 4431SOL     OW13978   2.412   3.920   2.747
 4431SOL    HW113979   2.407   3.915   2.847
 4431SOL    HW213980   2.414   4.016   2.718
 4432SOL     OW13981   2.870   5.180   2.339
 4432SOL    HW113982   2.824   5.252   2.287
 4432SOL    HW213983   2.866   5.200   2.437
 4433SOL     OW13984   3.657   4.790   2.735
 4433SOL    HW113985   3.595   4.775   2.659
 4433SOL    HW213986   3.605   4.801   2.820
 4434SOL     OW13987   3.089   5.274   3.368
 4434SOL    HW113988   3.095   5.197   3.432
 4434SOL    HW213989   3.037   5.248   3.288
 4435SOL     OW13990   2.183   4.667   2.104
 4435SOL    HW113991   2.265   4.706   2.062
 4435SOL    HW213992   2.156   4.585   2.055
 4436SOL     OW13993   3.320   4.459   2.590
 4436SOL    HW113994   3.315   4.394   2.665
 4436SOL    HW213995   3.400   4.518   2.603
 4437SOL     OW13996   2.323   4.990   3.589
 4437SOL    HW113997   2.273   4.991   3.503
 4437SOL    HW213998   2.260   4.972   3.665
 4438SOL     OW13999   2.973   5.500   2.099
 4438SOL    HW114000   2.913   5.438   2.149
 4438SOL    HW214001   3.004   5.456   2.014
 4439SOL     OW14002   2.064   4.009   3.360
 4439SOL    HW114003   1.984   4.069   3.347
 4439SOL    HW214004   2.054   3.960   3.446
 4440SOL     OW14005   3.494   5.101   1.943
 4440SOL    HW114006   3.462   5.195   1.933
 4440SOL    HW214007   3.418   5.038   1.931
 4441SOL     OW14008   3.262   3.831   2.288
 4441SOL    HW114009   3.238   3.794   2.198
 4441SOL    HW214010   3.361   3.847   2.292
 4442SOL     OW14011   2.244   4.424   2.342
 4442SOL    HW114012   2.289   4.334   2.339
 4442SOL    HW214013   2.150   4.413   2.375
 4443SOL     OW14014   3.409   3.946   3.591
 4443SOL    HW114015   3.404   3.983   3.683
 4443SOL    HW214016   3.337   3.877   3.579
 4444SOL     OW14017   2.476   3.846   1.979
 4444SOL    HW114018   2.574   3.824   1.986
 4444SOL    HW214019   2.445   3.829   1.886
 4445SOL     OW14020   2.643   3.988   3.611
 4445SOL    HW114021   2.710   3.927   3.654
 4445SOL    HW214022   2.570   4.007   3.676
 4446SOL     OW14023   3.213   4.314   3.295
 4446SOL    HW114024   3.241   4.271   3.380
 4446SOL    HW214025   3.238   4.410   3.296
 4447SOL     OW14026   2.665   5.126   2.786
 4447SOL    HW114027   2.755   5.140   2.744
 4447SOL    HW214028   2.594   5.128   2.715
 4448SOL     OW14029   2.784   4.227   2.761
 4448SOL    HW114030   2.759   4.218   2.665
 4448SOL    HW214031   2.832   4.145   2.792
 4449SOL     OW14032   2.401   3.788   2.374
 4449SOL    HW114033   2.320   3.789   2.432
 4449SOL    HW214034   2.404   3.871   2.319
 4450SOL     OW14035   3.296   4.912   1.903
 4450SOL    HW114036   3.328   4.836   1.960
 4450SOL    HW214037   3.204   4.939   1.933
 4451SOL     OW14038   2.159   3.759   2.033
 4451SOL    HW114039   2.208   3.843   2.012
 4451SOL    HW214040   2.221   3.694   2.078
 4452SOL     OW14041   2.797   3.960   2.342
 4452SOL    HW114042   2.749   4.001   2.264
 4452SOL    HW214043   2.896   3.958   2.323
 4453SOL     OW14044   2.938   4.407   3.326
 4453SOL    HW114045   2.858   4.346   3.329
 4453SOL    HW214046   3.019   4.354   3.302
 4454SOL     OW14047   3.089   5.294   2.655
 4454SOL    HW114048   3.110   5.368   2.590
 4454SOL    HW214049   3.157   5.294   2.728
 4455SOL     OW14050   2.321   4.876   2.603
 4455SOL    HW114051   2.250   4.849   2.668
 4455SOL    HW214052   2.295   4.848   2.510
 4456SOL     OW14053   2.894   4.273   1.878
 4456SOL    HW114054   2.853   4.355   1.839
 4456SOL    HW214055   2.958   4.299   1.951
 4457SOL     OW14056   1.940   4.280   3.248
 4457SOL    HW114057   2.032   4.279   3.207
 4457SOL    HW214058   1.934   4.354   3.315
 4458SOL     OW14059   2.423   3.946   3.009
 4458SOL    HW114060   2.461   3.862   3.046
 4458SOL    HW214061   2.335   3.965   3.053
 4459SOL     OW14062   2.728   4.178   2.504
 4459SOL    HW114063   2.696   4.250   2.442
 4459SOL    HW214064   2.752   4.097   2.451
 4460SOL     OW14065   2.879   3.763   2.615
 4460SOL    HW114066   2.807   3.768   2.546
 4460SOL    HW214067   2.855   3.694   2.684
 4461SOL     OW14068   3.291   4.897   2.729
 4461SOL    HW114069   3.236   4.813   2.722
 4461SOL    HW214070   3.317   4.926   2.637
 4462SOL     OW14071   3.328   4.314   2.854
 4462SOL    HW114072   3.298   4.219   2.861
 4462SOL    HW214073   3.401   4.330   2.920
 4463SOL     OW14074   3.719   4.557   2.239
 4463SOL    HW114075   3.761   4.493   2.303
 4463SOL    HW214076   3.681   4.506   2.161
 4464SOL     OW14077   2.350   5.109   2.036
 4464SOL    HW114078   2.263   5.094   2.083
 4464SOL    HW214079   2.333   5.135   1.941
 4465SOL     OW14080   3.526   5.004   2.519
 4465SOL    HW114081   3.625   5.012   2.533
 4465SOL    HW214082   3.481   5.088   2.550
 4466SOL     OW14083   3.252   4.299   1.940
 4466SOL    HW114084   3.198   4.278   2.021
 4466SOL    HW214085   3.343   4.258   1.949
 4467SOL     OW14086   2.389   3.980   2.190
 4467SOL    HW114087   2.416   3.921   2.115
 4467SOL    HW214088   2.389   4.075   2.159
 4468SOL     OW14089   3.616   4.947   3.450
 4468SOL    HW114090   3.707   4.908   3.437
 4468SOL    HW214091   3.624   5.043   3.474
 4469SOL     OW14092   2.926   5.071   3.202
 4469SOL    HW114093   2.846   5.048   3.257
 4469SOL    HW214094   3.009   5.045   3.251
 4470SOL     OW14095   2.973   4.919   2.962
 4470SOL    HW114096   2.933   4.963   3.043
 4470SOL    HW214097   2.932   4.956   2.879
 4471SOL     OW14098   3.500   4.823   2.941
 4471SOL    HW114099   3.505   4.904   3.000
 4471SOL    HW214100   3.414   4.825   2.890
 4472SOL     OW14101   2.777   3.813   3.264
 4472SOL    HW114102   2.802   3.793   3.169
 4472SOL    HW214103   2.849   3.869   3.306
 4473SOL     OW14104   2.842   4.840   3.581
 4473SOL    HW114105   2.743   4.846   3.591
 4473SOL    HW214106   2.865   4.760   3.525
 4474SOL     OW14107   2.567   4.774   2.230
 4474SOL    HW114108   2.553   4.781   2.329
 4474SOL    HW214109   2.651   4.723   2.212
 4475SOL     OW14110   2.272   4.537   3.113
 4475SOL    HW114111   2.358   4.549   3.163
 4475SOL    HW214112   2.230   4.450   3.140
 4476SOL     OW14113   3.136   4.110   3.124
 4476SOL    HW114114   3.157   4.184   3.188
 4476SOL    HW214115   3.047   4.127   3.081
 4477SOL     OW14116   2.229   4.824   2.363
 4477SOL    HW114117   2.222   4.907   2.307
 4477SOL    HW214118   2.233   4.744   2.303
 4478SOL     OW14119   2.428   4.261   2.727
 4478SOL    HW114120   2.440   4.327   2.653
 4478SOL    HW214121   2.474   4.295   2.810
 4479SOL     OW14122   3.114   5.072   2.250
 4479SOL    HW114123   3.164   5.149   2.290
 4479SOL    HW214124   3.019   5.074   2.282
 4480SOL     OW14125   3.134   5.169   3.004
 4480SOL    HW114126   3.181   5.182   3.091
 4480SOL    HW214127   3.068   5.095   3.013
 4481SOL     OW14128   3.444   4.363   2.334
 4481SOL    HW114129   3.413   4.424   2.407
 4481SOL    HW214130   3.494   4.415   2.265
 4482SOL     OW14131   2.216   5.234   3.191
 4482SOL    HW114132   2.195   5.190   3.104
 4482SOL    HW214133   2.313   5.260   3.194
 4483SOL     OW14134   2.264   4.475   3.460
 4483SOL    HW114135   2.332   4.530   3.413
 4483SOL    HW214136   2.304   4.387   3.487
 4484SOL     OW14137   3.449   4.503   3.532
 4484SOL    HW114138   3.357   4.541   3.527
 4484SOL    HW214139   3.509   4.550   3.467
 4485SOL     OW14140   2.875   3.829   3.632
 4485SOL    HW114141   2.881   3.914   3.580
 4485SOL    HW214142   2.907   3.753   3.575
 4486SOL     OW14143   2.366   3.774   3.602
 4486SOL    HW114144   2.324   3.717   3.532
 4486SOL    HW214145   2.300   3.843   3.634
 4487SOL     OW14146   2.435   4.594   2.891
 4487SOL    HW114147   2.479   4.683   2.882
 4487SOL    HW214148   2.372   4.594   2.968
 4488SOL     OW14149   3.222   4.586   2.907
 4488SOL    HW114150   3.147   4.586   2.841
 4488SOL    HW214151   3.259   4.494   2.916
 4489SOL     OW14152   3.071   4.249   2.137
 4489SOL    HW114153   3.084   4.165   2.191
 4489SOL    HW214154   3.042   4.323   2.197
 4490SOL     OW14155   2.169   3.937   3.093
 4490SOL    HW114156   2.146   3.974   3.183
 4490SOL    HW214157   2.139   3.842   3.087
 4491SOL     OW14158   1.899   5.034   3.144
 4491SOL    HW114159   1.952   4.985   3.212
 4491SOL    HW214160   1.921   5.132   3.149
 4492SOL     OW14161   2.594   4.358   2.926
 4492SOL    HW114162   2.653   4.332   2.850
 4492SOL    HW214163   2.566   4.454   2.915
 4493SOL     OW14164   3.590   4.659   3.716
 4493SOL    HW114165   3.544   4.652   3.627
 4493SOL    HW214166   3.528   4.703   3.782
 4494SOL     OW14167   2.169   3.787   2.480
 4494SOL    HW114168   2.158   3.881   2.513
 4494SOL    HW214169   2.164   3.724   2.557
 4495SOL     OW14170   3.484   4.091   2.236
 4495SOL    HW114171   3.486   4.015   2.300
 4495SOL    HW214172   3.436   4.168   2.276
 4496SOL     OW14173   2.885   4.490   2.828
 4496SOL    HW114174   2.900   4.511   2.924
 4496SOL    HW214175   2.855   4.395   2.819
 4497SOL     OW14176   3.721   5.242   3.467
 4497SOL    HW114177   3.735   5.269   3.372
 4497SOL    HW214178   3.804   5.264   3.520
 4498SOL     OW14179   2.212   4.622   3.666
 4498SOL    HW114180   2.288   4.666   3.714
 4498SOL    HW214181   2.247   4.575   3.584
 4499SOL     OW14182   3.402   3.998   1.987
 4499SOL    HW114183   3.341   3.923   2.010
 4499SOL    HW214184   3.424   4.050   2.070
 4500SOL     OW14185   3.165   4.562   1.904
 4500SOL    HW114186   3.199   4.469   1.919
 4500SOL    HW214187   3.183   4.589   1.809
 4501SOL     OW14188   2.930   5.057   2.711
 4501SOL    HW114189   2.937   4.973   2.656
 4501SOL    HW214190   2.992   5.126   2.675
 4502SOL     OW14191   2.181   4.534   2.811
 4502SOL    HW114192   2.274   4.570   2.816
 4502SOL    HW214193   2.175   4.449   2.863
 4503SOL     OW14194   2.201   4.233   2.868
 4503SOL    HW114195   2.149   4.150   2.851
 4503SOL    HW214196   2.278   4.238   2.804
 4504SOL     OW14197   3.000   4.104   3.540
 4504SOL    HW114198   2.955   4.167   3.604
 4504SOL    HW214199   3.093   4.135   3.523
 4505SOL     OW14200   3.022   3.931   3.339
 4505SOL    HW114201   3.022   3.995   3.416
 4505SOL    HW214202   3.050   3.979   3.256
 4506SOL     OW14203   1.870   5.050   2.062
 4506SOL    HW114204   1.777   5.071   2.031
 4506SOL    HW214205   1.880   4.951   2.075
 4507SOL     OW14206   2.864   4.520   3.100
 4507SOL    HW114207   2.905   4.488   3.186
 4507SOL    HW214208   2.768   4.493   3.097
 4508SOL     OW14209   1.902   4.268   2.976
 4508SOL    HW114210   1.987   4.235   2.935
 4508SOL    HW214211   1.915   4.283   3.074
 4509SOL     OW14212   2.051   4.244   3.584
 4509SOL    HW114213   2.110   4.204   3.514
 4509SOL    HW214214   1.993   4.315   3.543
 4510SOL     OW14215   3.231   4.674   3.522
 4510SOL    HW114216   3.270   4.763   3.542
 4510SOL    HW214217   3.241   4.654   3.425
 4511SOL     OW14218   2.677   4.296   2.187
 4511SOL    HW114219   2.684   4.207   2.141
 4511SOL    HW214220   2.583   4.330   2.179
 4512SOL     OW14221   3.519   4.328   3.068
 4512SOL    HW114222   3.481   4.259   3.130
 4512SOL    HW214223   3.601   4.292   3.024
 4513SOL     OW14224   2.114   5.288   3.606
 4513SOL    HW114225   2.084   5.345   3.682
 4513SOL    HW214226   2.107   5.191   3.632
 4514SOL     OW14227   2.533   4.188   3.131
 4514SOL    HW114228   2.499   4.099   3.101
 4514SOL    HW214229   2.559   4.242   3.051
 4515SOL     OW14230   2.335   4.224   2.053
 4515SOL    HW114231   2.396   4.304   2.057
 4515SOL    HW214232   2.240   4.255   2.060
 4516SOL     OW14233   2.021   4.861   3.328
 4516SOL    HW114234   2.043   4.800   3.404
 4516SOL    HW214235   2.031   4.812   3.242
 4517SOL     OW14236   3.209   4.783   3.096
 4517SOL    HW114237   3.233   4.720   3.022
 4517SOL    HW214238   3.119   4.823   3.078
 4518SOL     OW14239   3.164   4.579   2.171
 4518SOL    HW114240   3.078   4.548   2.213
 4518SOL    HW214241   3.160   4.565   2.072
 4519SOL     OW14242   1.945   4.982   2.884
 4519SOL    HW114243   1.940   4.981   2.984
 4519SOL    HW214244   1.862   4.941   2.846
 4520SOL     OW14245   2.550   5.386   3.578
 4520SOL    HW114246   2.494   5.467   3.587
 4520SOL    HW214247   2.602   5.390   3.492
 4521SOL     OW14248   3.588   3.859   2.385
 4521SOL    HW114249   3.661   3.842   2.318
 4521SOL    HW214250   3.557   3.772   2.423
 4522SOL     OW14251   3.142   4.651   2.534
 4522SOL    HW114252   3.202   4.570   2.536
 4522SOL    HW214253   3.182   4.720   2.474
 4523SOL     OW14254   2.692   4.997   3.284
 4523SOL    HW114255   2.687   5.030   3.379
 4523SOL    HW214256   2.606   5.016   3.238
 4524SOL     OW14257   3.703   3.899   2.825
 4524SOL    HW114258   3.742   3.814   2.789
 4524SOL    HW214259   3.605   3.901   2.806
 4525SOL     OW14260   2.125   4.050   2.582
 4525SOL    HW114261   2.046   4.101   2.548
 4525SOL    HW214262   2.116   4.035   2.680
 4526SOL     OW14263   2.684   4.726   3.234
 4526SOL    HW114264   2.724   4.725   3.142
 4526SOL    HW214265   2.694   4.818   3.274
 4527SOL     OW14266   2.778   4.634   2.153
 4527SOL    HW114267   2.841   4.672   2.085
 4527SOL    HW214268   2.818   4.551   2.192
 4528SOL     OW14269   2.234   5.012   3.352
 4528SOL    HW114270   2.221   5.105   3.318
 4528SOL    HW214271   2.150   4.960   3.339
 4529SOL     OW14272   3.476   5.016   3.151
 4529SOL    HW114273   3.536   5.019   3.231
 4529SOL    HW214274   3.401   5.080   3.164
 4530SOL     OW14275   2.901   4.822   2.558
 4530SOL    HW114276   2.831   4.775   2.612
 4530SOL    HW214277   2.960   4.754   2.515
 4531SOL     OW14278   2.876   3.960   2.833
 4531SOL    HW114279   2.868   3.924   2.740
 4531SOL    HW214280   2.874   3.884   2.898
 4532SOL     OW14281   3.571   4.109   3.243
 4532SOL    HW114282   3.644   4.178   3.247
 4532SOL    HW214283   3.599   4.034   3.184
 4533SOL     OW14284   2.117   5.072   2.152
 4533SOL    HW114285   2.021   5.073   2.125
 4533SOL    HW214286   2.129   5.125   2.236
 4534SOL     OW14287   1.967   4.737   3.588
 4534SOL    HW114288   1.890   4.704   3.642
 4534SOL    HW214289   2.052   4.707   3.630
 4535SOL     OW14290   2.534   3.927   3.351
 4535SOL    HW114291   2.624   3.911   3.311
 4535SOL    HW214292   2.542   3.932   3.450
 4536SOL     OW14293   1.937   4.069   1.895
 4536SOL    HW114294   1.845   4.041   1.866
 4536SOL    HW214295   1.968   4.146   1.839
 4537SOL     OW14296   3.302   4.580   3.260
 4537SOL    HW114297   3.245   4.632   3.197
 4537SOL    HW214298   3.398   4.592   3.236
 4538SOL     OW14299   1.934   3.890   2.180
 4538SOL    HW114300   1.917   3.973   2.126
 4538SOL    HW214301   2.024   3.853   2.158
 4539SOL     OW14302   3.045   5.059   1.981
 4539SOL    HW114303   2.946   5.048   1.983
 4539SOL    HW214304   3.079   5.074   2.074
 4540SOL     OW14305   2.475   4.566   3.293
 4540SOL    HW114306   2.531   4.647   3.276
 4540SOL    HW214307   2.534   4.486   3.296
 4541SOL     OW14308   2.578   4.289   3.570
 4541SOL    HW114309   2.597   4.354   3.644
 4541SOL    HW214310   2.638   4.209   3.579
 4542SOL     OW14311   3.312   4.944   3.495
 4542SOL    HW114312   3.303   4.934   3.594
 4542SOL    HW214313   3.408   4.937   3.469
 4543SOL     OW14314   3.536   4.607   3.116
 4543SOL    HW114315   3.509   4.518   3.079
 4543SOL    HW214316   3.537   4.675   3.043
 4544SOL     OW14317   3.087   4.049   2.311
 4544SOL    HW114318   3.152   3.975   2.300
 4544SOL    HW214319   3.107   4.099   2.395
 4545SOL     OW14320   2.456   4.469   2.514
 4545SOL    HW114321   2.506   4.554   2.495
 4545SOL    HW214322   2.368   4.471   2.466
 4546SOL     OW14323   3.639   4.066   3.504
 4546SOL    HW114324   3.622   4.097   3.410
 4546SOL    HW214325   3.555   4.029   3.542
 4547SOL     OW14326   3.592   4.658   3.379
 4547SOL    HW114327   3.630   4.749   3.394
 4547SOL    HW214328   3.584   4.641   3.280
 4548SOL     OW14329   2.721   5.098   1.878
 4548SOL    HW114330   2.675   5.113   1.966
 4548SOL    HW214331   2.765   5.183   1.848
 4549SOL     OW14332   2.721   4.680   2.723
 4549SOL    HW114333   2.775   4.611   2.771
 4549SOL    HW214334   2.689   4.749   2.789
 4550SOL     OW14335   2.945   4.708   1.949
 4550SOL    HW114336   2.922   4.761   1.867
 4550SOL    HW214337   3.026   4.652   1.930
 4551SOL     OW14338   2.083   5.038   3.706
 4551SOL    HW114339   2.018   4.965   3.685
 4551SOL    HW214340   2.087   5.052   3.804
 4552SOL     OW14341   1.941   4.964   2.515
 4552SOL    HW114342   1.940   4.917   2.603
 4552SOL    HW214343   2.023   4.936   2.464
 4553SOL     OW14344   2.534   5.115   3.486
 4553SOL    HW114345   2.456   5.065   3.524
 4553SOL    HW214346   2.531   5.210   3.517
 4554SOL     OW14347   3.686   3.916   3.089
 4554SOL    HW114348   3.682   3.826   3.133
 4554SOL    HW214349   3.689   3.905   2.990
 4555SOL     OW14350   2.290   4.148   2.382
 4555SOL    HW114351   2.320   4.076   2.320
 4555SOL    HW214352   2.251   4.108   2.465
 4556SOL     OW14353   3.567   5.211   2.966
 4556SOL    HW114354   3.474   5.186   2.939
 4556SOL    HW214355   3.593   5.161   3.048
 4557SOL     OW14356   2.179   4.271   3.142
 4557SOL    HW114357   2.217   4.212   3.214
 4557SOL    HW214358   2.219   4.245   3.054
 4558SOL     OW14359   3.286   3.938   2.974
 4558SOL    HW114360   3.338   3.873   3.029
 4558SOL    HW214361   3.237   4.001   3.035
 4559SOL     OW14362   2.863   3.758   3.016
 4559SOL    HW114363   2.800   3.686   2.985
 4559SOL    HW214364   2.956   3.722   3.016
 4560SOL     OW14365   2.632   5.054   2.163
 4560SOL    HW114366   2.586   4.967   2.180
 4560SOL    HW214367   2.723   5.051   2.204
 4561SOL     OW14368   2.480   5.291   3.146
 4561SOL    HW114369   2.475   5.373   3.203
 4561SOL    HW214370   2.569   5.288   3.101
 4562SOL     OW14371   3.214   3.776   2.030
 4562SOL    HW114372   3.249   3.735   1.946
 4562SOL    HW214373   3.124   3.738   2.050
 4563SOL     OW14374   3.162   4.177   2.553
 4563SOL    HW114375   3.103   4.257   2.557
 4563SOL    HW214376   3.177   4.142   2.646
 4564SOL     OW14377   3.455   3.945   2.744
 4564SOL    HW114378   3.371   3.944   2.798
 4564SOL    HW214379   3.457   4.028   2.688
 4565SOL     OW14380   1.901   4.801   2.162
 4565SOL    HW114381   2.000   4.790   2.153
 4565SOL    HW214382   1.861   4.715   2.194
 4566SOL     OW14383   2.092   4.352   3.837
 4566SOL    HW114384   1.999   4.350   3.874
 4566SOL    HW214385   2.093   4.313   3.745
 4567SOL     OW14386   2.087   3.999   4.720
 4567SOL    HW114387   2.122   3.982   4.812
 4567SOL    HW214388   1.999   3.954   4.708
 4568SOL     OW14389   1.881   4.092   4.371
 4568SOL    HW114390   1.799   4.135   4.410
 4568SOL    HW214391   1.853   4.019   4.308
 4569SOL     OW14392   2.431   4.999   4.889
 4569SOL    HW114393   2.338   4.992   4.852
 4569SOL    HW214394   2.442   5.088   4.933
 4570SOL     OW14395   3.417   5.235   4.427
 4570SOL    HW114396   3.360   5.219   4.508
 4570SOL    HW214397   3.358   5.245   4.347
 4571SOL     OW14398   2.997   4.427   4.441
 4571SOL    HW114399   3.054   4.505   4.416
 4571SOL    HW214400   2.937   4.453   4.517
 4572SOL     OW14401   3.617   4.331   3.955
 4572SOL    HW114402   3.605   4.318   3.856
 4572SOL    HW214403   3.587   4.250   4.004
 4573SOL     OW14404   2.630   4.868   4.747
 4573SOL    HW114405   2.552   4.885   4.807
 4573SOL    HW214406   2.664   4.955   4.711
 4574SOL     OW14407   2.712   4.522   5.547
 4574SOL    HW114408   2.708   4.598   5.612
 4574SOL    HW214409   2.734   4.558   5.456
 4575SOL     OW14410   2.547   4.736   4.389
 4575SOL    HW114411   2.616   4.720   4.459
 4575SOL    HW214412   2.474   4.793   4.427
 4576SOL     OW14413   2.548   4.885   5.527
 4576SOL    HW114414   2.608   4.964   5.541
 4576SOL    HW214415   2.462   4.916   5.486
 4577SOL     OW14416   2.197   5.159   4.785
 4577SOL    HW114417   2.119   5.128   4.732
 4577SOL    HW214418   2.255   5.217   4.728
 4578SOL     OW14419   3.322   5.229   5.063
 4578SOL    HW114420   3.346   5.323   5.089
 4578SOL    HW214421   3.306   5.175   5.145
 4579SOL     OW14422   2.300   4.116   5.223
 4579SOL    HW114423   2.382   4.060   5.232
 4579SOL    HW214424   2.219   4.058   5.227
 4580SOL     OW14425   3.465   4.171   4.461
 4580SOL    HW114426   3.391   4.217   4.411
 4580SOL    HW214427   3.516   4.239   4.514
 4581SOL     OW14428   2.989   5.065   5.414
 4581SOL    HW114429   3.036   5.065   5.502
 4581SOL    HW214430   2.941   4.978   5.403
 4582SOL     OW14431   2.092   5.158   4.262
 4582SOL    HW114432   2.066   5.254   4.262
 4582SOL    HW214433   2.021   5.104   4.307
 4583SOL     OW14434   2.102   4.815   4.610
 4583SOL    HW114435   2.116   4.731   4.662
 4583SOL    HW214436   2.047   4.879   4.665
 4584SOL     OW14437   2.468   4.688   3.847
 4584SOL    HW114438   2.475   4.772   3.793
 4584SOL    HW214439   2.514   4.701   3.935
 4585SOL     OW14440   3.456   3.838   5.204
 4585SOL    HW114441   3.438   3.905   5.132
 4585SOL    HW214442   3.453   3.884   5.293
 4586SOL     OW14443   1.984   4.367   4.287
 4586SOL    HW114444   1.939   4.279   4.304
 4586SOL    HW214445   1.983   4.421   4.371
 4587SOL     OW14446   1.889   5.320   3.841
 4587SOL    HW114447   1.870   5.224   3.862
 4587SOL    HW214448   1.856   5.378   3.916
 4588SOL     OW14449   3.551   4.646   4.336
 4588SOL    HW114450   3.646   4.617   4.344
 4588SOL    HW214451   3.543   4.711   4.261
 4589SOL     OW14452   3.503   4.832   4.156
 4589SOL    HW114453   3.589   4.834   4.104
 4589SOL    HW214454   3.517   4.879   4.244
 4590SOL     OW14455   1.975   4.461   5.321
 4590SOL    HW114456   2.063   4.448   5.366
 4590SOL    HW214457   1.962   4.558   5.299
 4591SOL     OW14458   2.475   5.089   4.450
 4591SOL    HW114459   2.426   5.002   4.459
 4591SOL    HW214460   2.452   5.132   4.363
 4592SOL     OW14461   3.155   4.952   5.147
 4592SOL    HW114462   3.192   4.879   5.089
 4592SOL    HW214463   3.207   4.957   5.232
 4593SOL     OW14464   2.671   3.728   4.226
 4593SOL    HW114465   2.711   3.819   4.217
 4593SOL    HW214466   2.571   3.736   4.232
 4594SOL     OW14467   2.059   4.700   4.988
 4594SOL    HW114468   2.148   4.655   4.974
 4594SOL    HW214469   1.986   4.635   4.969
 4595SOL     OW14470   3.387   4.723   3.914
 4595SOL    HW114471   3.324   4.647   3.927
 4595SOL    HW214472   3.435   4.741   4.000
 4596SOL     OW14473   2.179   3.975   5.525
 4596SOL    HW114474   2.250   4.046   5.531
 4596SOL    HW214475   2.091   4.014   5.553
 4597SOL     OW14476   3.328   5.141   4.677
 4597SOL    HW114477   3.269   5.147   4.757
 4597SOL    HW214478   3.313   5.053   4.631
 4598SOL     OW14479   2.460   4.453   3.994
 4598SOL    HW114480   2.484   4.522   3.926
 4598SOL    HW214481   2.382   4.486   4.048
 4599SOL     OW14482   3.143   4.069   4.668
 4599SOL    HW114483   3.057   4.019   4.655
 4599SOL    HW214484   3.205   4.015   4.724
 4600SOL     OW14485   2.669   4.329   5.189
 4600SOL    HW114486   2.622   4.326   5.278
 4600SOL    HW214487   2.618   4.274   5.123
 4601SOL     OW14488   3.256   4.193   5.398
 4601SOL    HW114489   3.236   4.236   5.486
 4601SOL    HW214490   3.334   4.131   5.407
 4602SOL     OW14491   2.835   4.614   5.296
 4602SOL    HW114492   2.881   4.530   5.267
 4602SOL    HW214493   2.779   4.648   5.221
 4603SOL     OW14494   2.853   4.134   4.966
 4603SOL    HW114495   2.776   4.168   5.020
 4603SOL    HW214496   2.819   4.083   4.887
 4604SOL     OW14497   2.903   4.425   4.153
 4604SOL    HW114498   2.929   4.421   4.249
 4604SOL    HW214499   2.818   4.374   4.139
 4605SOL     OW14500   1.938   4.535   4.513
 4605SOL    HW114501   2.037   4.523   4.522
 4605SOL    HW214502   1.914   4.630   4.534
 4606SOL     OW14503   2.727   4.072   3.919
 4606SOL    HW114504   2.786   4.135   3.870
 4606SOL    HW214505   2.746   3.978   3.890
 4607SOL     OW14506   3.581   4.309   5.555
 4607SOL    HW114507   3.555   4.398   5.519
 4607SOL    HW214508   3.579   4.241   5.482
 4608SOL     OW14509   3.224   4.868   4.269
 4608SOL    HW114510   3.307   4.839   4.221
 4608SOL    HW214511   3.175   4.935   4.213
 4609SOL     OW14512   2.412   3.920   4.609
 4609SOL    HW114513   2.407   3.915   4.709
 4609SOL    HW214514   2.414   4.016   4.580
 4610SOL     OW14515   2.870   5.180   4.201
 4610SOL    HW114516   2.824   5.252   4.149
 4610SOL    HW214517   2.866   5.200   4.299
 4611SOL     OW14518   3.657   4.790   4.597
 4611SOL    HW114519   3.595   4.775   4.521
 4611SOL    HW214520   3.605   4.801   4.682
 4612SOL     OW14521   3.089   5.274   5.230
 4612SOL    HW114522   3.095   5.197   5.294
 4612SOL    HW214523   3.037   5.248   5.150
 4613SOL     OW14524   2.183   4.667   3.966
 4613SOL    HW114525   2.265   4.706   3.924
 4613SOL    HW214526   2.156   4.585   3.917
 4614SOL     OW14527   3.320   4.459   4.452
 4614SOL    HW114528   3.315   4.394   4.527
 4614SOL    HW214529   3.400   4.518   4.465
 4615SOL     OW14530   2.323   4.990   5.451
 4615SOL    HW114531   2.273   4.991   5.365
 4615SOL    HW214532   2.260   4.972   5.527
 4616SOL     OW14533   2.973   5.500   3.961
 4616SOL    HW114534   2.913   5.438   4.011
 4616SOL    HW214535   3.004   5.456   3.876
 4617SOL     OW14536   2.064   4.009   5.222
 4617SOL    HW114537   1.984   4.069   5.209
 4617SOL    HW214538   2.054   3.960   5.308
 4618SOL     OW14539   3.494   5.101   3.805
 4618SOL    HW114540   3.462   5.195   3.795
 4618SOL    HW214541   3.418   5.038   3.793
 4619SOL     OW14542   3.262   3.831   4.150
 4619SOL    HW114543   3.238   3.794   4.060
 4619SOL    HW214544   3.361   3.847   4.154
 4620SOL     OW14545   2.244   4.424   4.204
 4620SOL    HW114546   2.289   4.334   4.201
 4620SOL    HW214547   2.150   4.413   4.237
 4621SOL     OW14548   3.409   3.946   5.453
 4621SOL    HW114549   3.404   3.983   5.545
 4621SOL    HW214550   3.337   3.877   5.441
 4622SOL     OW14551   2.476   3.846   3.841
 4622SOL    HW114552   2.574   3.824   3.848
 4622SOL    HW214553   2.445   3.829   3.748
 4623SOL     OW14554   2.643   3.988   5.473
 4623SOL    HW114555   2.710   3.927   5.516
 4623SOL    HW214556   2.570   4.007   5.538
 4624SOL     OW14557   3.213   4.314   5.157
 4624SOL    HW114558   3.241   4.271   5.242
 4624SOL    HW214559   3.238   4.410   5.158
 4625SOL     OW14560   2.665   5.126   4.648
 4625SOL    HW114561   2.755   5.140   4.606
 4625SOL    HW214562   2.594   5.128   4.577
 4626SOL     OW14563   2.784   4.227   4.623
 4626SOL    HW114564   2.759   4.218   4.527
 4626SOL    HW214565   2.832   4.145   4.654
 4627SOL     OW14566   2.401   3.788   4.236
 4627SOL    HW114567   2.320   3.789   4.294
 4627SOL    HW214568   2.404   3.871   4.181
 4628SOL     OW14569   3.296   4.912   3.765
 4628SOL    HW114570   3.328   4.836   3.822
 4628SOL    HW214571   3.204   4.939   3.795
 4629SOL     OW14572   2.159   3.759   3.895
 4629SOL    HW114573   2.208   3.843   3.874
 4629SOL    HW214574   2.221   3.694   3.940
 4630SOL     OW14575   2.797   3.960   4.204
 4630SOL    HW114576   2.749   4.001   4.126
 4630SOL    HW214577   2.896   3.958   4.185
 4631SOL     OW14578   2.938   4.407   5.188
 4631SOL    HW114579   2.858   4.346   5.191
 4631SOL    HW214580   3.019   4.354   5.164
 4632SOL     OW14581   3.089   5.294   4.517
 4632SOL    HW114582   3.110   5.368   4.452
 4632SOL    HW214583   3.157   5.294   4.590
 4633SOL     OW14584   2.321   4.876   4.465
 4633SOL    HW114585   2.250   4.849   4.530
 4633SOL    HW214586   2.295   4.848   4.372
 4634SOL     OW14587   2.894   4.273   3.740
 4634SOL    HW114588   2.853   4.355   3.701
 4634SOL    HW214589   2.958   4.299   3.813
 4635SOL     OW14590   1.940   4.280   5.110
 4635SOL    HW114591   2.032   4.279   5.069
 4635SOL    HW214592   1.934   4.354   5.177
 4636SOL     OW14593   2.423   3.946   4.871
 4636SOL    HW114594   2.461   3.862   4.908
 4636SOL    HW214595   2.335   3.965   4.915
 4637SOL     OW14596   2.728   4.178   4.366
 4637SOL    HW114597   2.696   4.250   4.304
 4637SOL    HW214598   2.752   4.097   4.313
 4638SOL     OW14599   2.879   3.763   4.477
 4638SOL    HW114600   2.807   3.768   4.408
 4638SOL    HW214601   2.855   3.694   4.546
 4639SOL     OW14602   3.291   4.897   4.591
 4639SOL    HW114603   3.236   4.813   4.584
 4639SOL    HW214604   3.317   4.926   4.499
 4640SOL     OW14605   3.328   4.314   4.716
 4640SOL    HW114606   3.298   4.219   4.723
 4640SOL    HW214607   3.401   4.330   4.782
 4641SOL     OW14608   3.719   4.557   4.101
 4641SOL    HW114609   3.761   4.493   4.165
 4641SOL    HW214610   3.681   4.506   4.023
 4642SOL     OW14611   2.350   5.109   3.898
 4642SOL    HW114612   2.263   5.094   3.945
 4642SOL    HW214613   2.333   5.135   3.803
 4643SOL     OW14614   3.526   5.004   4.381
 4643SOL    HW114615   3.625   5.012   4.395
 4643SOL    HW214616   3.481   5.088   4.412
 4644SOL     OW14617   3.252   4.299   3.802
 4644SOL    HW114618   3.198   4.278   3.883
 4644SOL    HW214619   3.343   4.258   3.811
 4645SOL     OW14620   2.389   3.980   4.052
 4645SOL    HW114621   2.416   3.921   3.977
 4645SOL    HW214622   2.389   4.075   4.021
 4646SOL     OW14623   3.616   4.947   5.312
 4646SOL    HW114624   3.707   4.908   5.299
 4646SOL    HW214625   3.624   5.043   5.336
 4647SOL     OW14626   2.926   5.071   5.064
 4647SOL    HW114627   2.846   5.048   5.119
 4647SOL    HW214628   3.009   5.045   5.113
 4648SOL     OW14629   2.973   4.919   4.824
 4648SOL    HW114630   2.933   4.963   4.905
 4648SOL    HW214631   2.932   4.956   4.741
 4649SOL     OW14632   3.500   4.823   4.803
 4649SOL    HW114633   3.505   4.904   4.862
 4649SOL    HW214634   3.414   4.825   4.752
 4650SOL     OW14635   2.777   3.813   5.126
 4650SOL    HW114636   2.802   3.793   5.031
 4650SOL    HW214637   2.849   3.869   5.168
 4651SOL     OW14638   2.842   4.840   5.443
 4651SOL    HW114639   2.743   4.846   5.453
 4651SOL    HW214640   2.865   4.760   5.387
 4652SOL     OW14641   2.567   4.774   4.092
 4652SOL    HW114642   2.553   4.781   4.191
 4652SOL    HW214643   2.651   4.723   4.074
 4653SOL     OW14644   2.272   4.537   4.975
 4653SOL    HW114645   2.358   4.549   5.025
 4653SOL    HW214646   2.230   4.450   5.002
 4654SOL     OW14647   3.136   4.110   4.986
 4654SOL    HW114648   3.157   4.184   5.050
 4654SOL    HW214649   3.047   4.127   4.943
 4655SOL     OW14650   2.229   4.824   4.225
 4655SOL    HW114651   2.222   4.907   4.169
 4655SOL    HW214652   2.233   4.744   4.165
 4656SOL     OW14653   2.428   4.261   4.589
 4656SOL    HW114654   2.440   4.327   4.515
 4656SOL    HW214655   2.474   4.295   4.672
 4657SOL     OW14656   3.114   5.072   4.112
 4657SOL    HW114657   3.164   5.149   4.152
 4657SOL    HW214658   3.019   5.074   4.144
 4658SOL     OW14659   3.134   5.169   4.866
 4658SOL    HW114660   3.181   5.182   4.953
 4658SOL    HW214661   3.068   5.095   4.875
 4659SOL     OW14662   3.444   4.363   4.196
 4659SOL    HW114663   3.413   4.424   4.269
 4659SOL    HW214664   3.494   4.415   4.127
 4660SOL     OW14665   2.216   5.234   5.053
 4660SOL    HW114666   2.195   5.190   4.966
 4660SOL    HW214667   2.313   5.260   5.056
 4661SOL     OW14668   2.264   4.475   5.322
 4661SOL    HW114669   2.332   4.530   5.275
 4661SOL    HW214670   2.304   4.387   5.349
 4662SOL     OW14671   3.449   4.503   5.394
 4662SOL    HW114672   3.357   4.541   5.389
 4662SOL    HW214673   3.509   4.550   5.329
 4663SOL     OW14674   2.875   3.829   5.494
 4663SOL    HW114675   2.881   3.914   5.442
 4663SOL    HW214676   2.907   3.753   5.437
 4664SOL     OW14677   2.366   3.774   5.464
 4664SOL    HW114678   2.324   3.717   5.394
 4664SOL    HW214679   2.300   3.843   5.496
 4665SOL     OW14680   2.435   4.594   4.753
 4665SOL    HW114681   2.479   4.683   4.744
 4665SOL    HW214682   2.372   4.594   4.830
 4666SOL     OW14683   3.222   4.586   4.769
 4666SOL    HW114684   3.147   4.586   4.703
 4666SOL    HW214685   3.259   4.494   4.778
 4667SOL     OW14686   3.071   4.249   3.999
 4667SOL    HW114687   3.084   4.165   4.053
 4667SOL    HW214688   3.042   4.323   4.059
 4668SOL     OW14689   2.169   3.937   4.955
 4668SOL    HW114690   2.146   3.974   5.045
 4668SOL    HW214691   2.139   3.842   4.949
 4669SOL     OW14692   1.899   5.034   5.006
 4669SOL    HW114693   1.952   4.985   5.074
 4669SOL    HW214694   1.921   5.132   5.011
 4670SOL     OW14695   2.594   4.358   4.788
 4670SOL    HW114696   2.653   4.332   4.712
 4670SOL    HW214697   2.566   4.454   4.777
 4671SOL     OW14698   3.590   4.659   5.578
 4671SOL    HW114699   3.544   4.652   5.489
 4671SOL    HW214700   3.528   4.703   5.644
 4672SOL     OW14701   2.169   3.787   4.342
 4672SOL    HW114702   2.158   3.881   4.375
 4672SOL    HW214703   2.164   3.724   4.419
 4673SOL     OW14704   3.484   4.091   4.098
 4673SOL    HW114705   3.486   4.015   4.162
 4673SOL    HW214706   3.436   4.168   4.138
 4674SOL     OW14707   2.885   4.490   4.690
 4674SOL    HW114708   2.900   4.511   4.786
 4674SOL    HW214709   2.855   4.395   4.681
 4675SOL     OW14710   3.721   5.242   5.329
 4675SOL    HW114711   3.735   5.269   5.234
 4675SOL    HW214712   3.804   5.264   5.382
 4676SOL     OW14713   2.212   4.622   5.528
 4676SOL    HW114714   2.288   4.666   5.576
 4676SOL    HW214715   2.247   4.575   5.446
 4677SOL     OW14716   3.402   3.998   3.849
 4677SOL    HW114717   3.341   3.923   3.872
 4677SOL    HW214718   3.424   4.050   3.932
 4678SOL     OW14719   3.165   4.562   3.766
 4678SOL    HW114720   3.199   4.469   3.781
 4678SOL    HW214721   3.183   4.589   3.671
 4679SOL     OW14722   2.930   5.057   4.573
 4679SOL    HW114723   2.937   4.973   4.518
 4679SOL    HW214724   2.992   5.126   4.537
 4680SOL     OW14725   2.181   4.534   4.673
 4680SOL    HW114726   2.274   4.570   4.678
 4680SOL    HW214727   2.175   4.449   4.725
 4681SOL     OW14728   2.201   4.233   4.730
 4681SOL    HW114729   2.149   4.150   4.713
 4681SOL    HW214730   2.278   4.238   4.666
 4682SOL     OW14731   3.000   4.104   5.402
 4682SOL    HW114732   2.955   4.167   5.466
 4682SOL    HW214733   3.093   4.135   5.385
 4683SOL     OW14734   3.022   3.931   5.201
 4683SOL    HW114735   3.022   3.995   5.278
 4683SOL    HW214736   3.050   3.979   5.118
 4684SOL     OW14737   1.870   5.050   3.924
 4684SOL    HW114738   1.777   5.071   3.893
 4684SOL    HW214739   1.880   4.951   3.937
 4685SOL     OW14740   2.864   4.520   4.962
 4685SOL    HW114741   2.905   4.488   5.048
 4685SOL    HW214742   2.768   4.493   4.959
 4686SOL     OW14743   1.902   4.268   4.838
 4686SOL    HW114744   1.987   4.235   4.797
 4686SOL    HW214745   1.915   4.283   4.936
 4687SOL     OW14746   2.051   4.244   5.446
 4687SOL    HW114747   2.110   4.204   5.376
 4687SOL    HW214748   1.993   4.315   5.405
 4688SOL     OW14749   3.231   4.674   5.384
 4688SOL    HW114750   3.270   4.763   5.404
 4688SOL    HW214751   3.241   4.654   5.287
 4689SOL     OW14752   2.677   4.296   4.049
 4689SOL    HW114753   2.684   4.207   4.003
 4689SOL    HW214754   2.583   4.330   4.041
 4690SOL     OW14755   3.519   4.328   4.930
 4690SOL    HW114756   3.481   4.259   4.992
 4690SOL    HW214757   3.601   4.292   4.886
 4691SOL     OW14758   2.114   5.288   5.468
 4691SOL    HW114759   2.084   5.345   5.544
 4691SOL    HW214760   2.107   5.191   5.494
 4692SOL     OW14761   2.533   4.188   4.993
 4692SOL    HW114762   2.499   4.099   4.963
 4692SOL    HW214763   2.559   4.242   4.913
 4693SOL     OW14764   2.335   4.224   3.915
 4693SOL    HW114765   2.396   4.304   3.919
 4693SOL    HW214766   2.240   4.255   3.922
 4694SOL     OW14767   2.021   4.861   5.190
 4694SOL    HW114768   2.043   4.800   5.266
 4694SOL    HW214769   2.031   4.812   5.104
 4695SOL     OW14770   3.209   4.783   4.958
 4695SOL    HW114771   3.233   4.720   4.884
 4695SOL    HW214772   3.119   4.823   4.940
 4696SOL     OW14773   3.164   4.579   4.033
 4696SOL    HW114774   3.078   4.548   4.075
 4696SOL    HW214775   3.160   4.565   3.934
 4697SOL     OW14776   1.945   4.982   4.746
 4697SOL    HW114777   1.940   4.981   4.846
 4697SOL    HW214778   1.862   4.941   4.708
 4698SOL     OW14779   2.550   5.386   5.440
 4698SOL    HW114780   2.494   5.467   5.449
 4698SOL    HW214781   2.602   5.390   5.354
 4699SOL     OW14782   3.588   3.859   4.247
 4699SOL    HW114783   3.661   3.842   4.180
 4699SOL    HW214784   3.557   3.772   4.285
 4700SOL     OW14785   3.142   4.651   4.396
 4700SOL    HW114786   3.202   4.570   4.398
 4700SOL    HW214787   3.182   4.720   4.336
 4701SOL     OW14788   2.692   4.997   5.146
 4701SOL    HW114789   2.687   5.030   5.241
 4701SOL    HW214790   2.606   5.016   5.100
 4702SOL     OW14791   3.703   3.899   4.687
 4702SOL    HW114792   3.742   3.814   4.651
 4702SOL    HW214793   3.605   3.901   4.668
 4703SOL     OW14794   2.125   4.050   4.444
 4703SOL    HW114795   2.046   4.101   4.410
 4703SOL    HW214796   2.116   4.035   4.542
 4704SOL     OW14797   2.684   4.726   5.096
 4704SOL    HW114798   2.724   4.725   5.004
 4704SOL    HW214799   2.694   4.818   5.136
 4705SOL     OW14800   2.778   4.634   4.015
 4705SOL    HW114801   2.841   4.672   3.947
 4705SOL    HW214802   2.818   4.551   4.054
 4706SOL     OW14803   2.234   5.012   5.214
 4706SOL    HW114804   2.221   5.105   5.180
 4706SOL    HW214805   2.150   4.960   5.201
 4707SOL     OW14806   3.476   5.016   5.013
 4707SOL    HW114807   3.536   5.019   5.093
 4707SOL    HW214808   3.401   5.080   5.026
 4708SOL     OW14809   2.901   4.822   4.420
 4708SOL    HW114810   2.831   4.775   4.474
 4708SOL    HW214811   2.960   4.754   4.377
 4709SOL     OW14812   2.876   3.960   4.695
 4709SOL    HW114813   2.868   3.924   4.602
 4709SOL    HW214814   2.874   3.884   4.760
 4710SOL     OW14815   3.571   4.109   5.105
 4710SOL    HW114816   3.644   4.178   5.109
 4710SOL    HW214817   3.599   4.034   5.046
 4711SOL     OW14818   2.117   5.072   4.014
 4711SOL    HW114819   2.021   5.073   3.987
 4711SOL    HW214820   2.129   5.125   4.098
 4712SOL     OW14821   1.967   4.737   5.450
 4712SOL    HW114822   1.890   4.704   5.504
 4712SOL    HW214823   2.052   4.707   5.492
 4713SOL     OW14824   2.534   3.927   5.213
 4713SOL    HW114825   2.624   3.911   5.173
 4713SOL    HW214826   2.542   3.932   5.312
 4714SOL     OW14827   1.937   4.069   3.757
 4714SOL    HW114828   1.845   4.041   3.728
 4714SOL    HW214829   1.968   4.146   3.701
 4715SOL     OW14830   3.302   4.580   5.122
 4715SOL    HW114831   3.245   4.632   5.059
 4715SOL    HW214832   3.398   4.592   5.098
 4716SOL     OW14833   1.934   3.890   4.042
 4716SOL    HW114834   1.917   3.973   3.988
 4716SOL    HW214835   2.024   3.853   4.020
 4717SOL     OW14836   3.045   5.059   3.843
 4717SOL    HW114837   2.946   5.048   3.845
 4717SOL    HW214838   3.079   5.074   3.936
 4718SOL     OW14839   2.475   4.566   5.155
 4718SOL    HW114840   2.531   4.647   5.138
 4718SOL    HW214841   2.534   4.486   5.158
 4719SOL     OW14842   2.578   4.289   5.432
 4719SOL    HW114843   2.597   4.354   5.506
 4719SOL    HW214844   2.638   4.209   5.441
 4720SOL     OW14845   3.312   4.944   5.357
 4720SOL    HW114846   3.303   4.934   5.456
 4720SOL    HW214847   3.408   4.937   5.331
 4721SOL     OW14848   3.536   4.607   4.978
 4721SOL    HW114849   3.509   4.518   4.941
 4721SOL    HW214850   3.537   4.675   4.905
 4722SOL     OW14851   3.087   4.049   4.173
 4722SOL    HW114852   3.152   3.975   4.162
 4722SOL    HW214853   3.107   4.099   4.257
 4723SOL     OW14854   2.456   4.469   4.376
 4723SOL    HW114855   2.506   4.554   4.357
 4723SOL    HW214856   2.368   4.471   4.328
 4724SOL     OW14857   3.639   4.066   5.366
 4724SOL    HW114858   3.622   4.097   5.272
 4724SOL    HW214859   3.555   4.029   5.404
 4725SOL     OW14860   3.592   4.658   5.241
 4725SOL    HW114861   3.630   4.749   5.256
 4725SOL    HW214862   3.584   4.641   5.142
 4726SOL     OW14863   2.721   5.098   3.740
 4726SOL    HW114864   2.675   5.113   3.828
 4726SOL    HW214865   2.765   5.183   3.710
 4727SOL     OW14866   2.721   4.680   4.585
 4727SOL    HW114867   2.775   4.611   4.633
 4727SOL    HW214868   2.689   4.749   4.651
 4728SOL     OW14869   2.945   4.708   3.811
 4728SOL    HW114870   2.922   4.761   3.729
 4728SOL    HW214871   3.026   4.652   3.792
 4729SOL     OW14872   2.083   5.038   5.568
 4729SOL    HW114873   2.018   4.965   5.547
 4729SOL    HW214874   2.087   5.052   5.666
 4730SOL     OW14875   1.941   4.964   4.377
 4730SOL    HW114876   1.940   4.917   4.465
 4730SOL    HW214877   2.023   4.936   4.326
 4731SOL     OW14878   2.534   5.115   5.348
 4731SOL    HW114879   2.456   5.065   5.386
 4731SOL    HW214880   2.531   5.210   5.379
 4732SOL     OW14881   3.686   3.916   4.951
 4732SOL    HW114882   3.682   3.826   4.995
 4732SOL    HW214883   3.689   3.905   4.852
 4733SOL     OW14884   2.290   4.148   4.244
 4733SOL    HW114885   2.320   4.076   4.182
 4733SOL    HW214886   2.251   4.108   4.327
 4734SOL     OW14887   3.567   5.211   4.828
 4734SOL    HW114888   3.474   5.186   4.801
 4734SOL    HW214889   3.593   5.161   4.910
 4735SOL     OW14890   2.179   4.271   5.004
 4735SOL    HW114891   2.217   4.212   5.076
 4735SOL    HW214892   2.219   4.245   4.916
 4736SOL     OW14893   3.286   3.938   4.836
 4736SOL    HW114894   3.338   3.873   4.891
 4736SOL    HW214895   3.237   4.001   4.897
 4737SOL     OW14896   2.863   3.758   4.878
 4737SOL    HW114897   2.800   3.686   4.847
 4737SOL    HW214898   2.956   3.722   4.878
 4738SOL     OW14899   2.632   5.054   4.025
 4738SOL    HW114900   2.586   4.967   4.042
 4738SOL    HW214901   2.723   5.051   4.066
 4739SOL     OW14902   2.480   5.291   5.008
 4739SOL    HW114903   2.475   5.373   5.065
 4739SOL    HW214904   2.569   5.288   4.963
 4740SOL     OW14905   3.214   3.776   3.892
 4740SOL    HW114906   3.249   3.735   3.808
 4740SOL    HW214907   3.124   3.738   3.912
 4741SOL     OW14908   3.162   4.177   4.415
 4741SOL    HW114909   3.103   4.257   4.419
 4741SOL    HW214910   3.177   4.142   4.508
 4742SOL     OW14911   3.455   3.945   4.606
 4742SOL    HW114912   3.371   3.944   4.660
 4742SOL    HW214913   3.457   4.028   4.550
 4743SOL     OW14914   1.901   4.801   4.024
 4743SOL    HW114915   2.000   4.790   4.015
 4743SOL    HW214916   1.861   4.715   4.056
 4744SOL     OW14917   2.092   4.352   5.699
 4744SOL    HW114918   1.999   4.350   5.736
 4744SOL    HW214919   2.093   4.313   5.607
 4745SOL     OW14920   2.087   3.999   6.582
 4745SOL    HW114921   2.122   3.982   6.674
 4745SOL    HW214922   1.999   3.954   6.570
 4746SOL     OW14923   1.881   4.092   6.233
 4746SOL    HW114924   1.799   4.135   6.272
 4746SOL    HW214925   1.853   4.019   6.170
 4747SOL     OW14926   2.431   4.999   6.751
 4747SOL    HW114927   2.338   4.992   6.714
 4747SOL    HW214928   2.442   5.088   6.795
 4748SOL     OW14929   3.417   5.235   6.289
 4748SOL    HW114930   3.360   5.219   6.370
 4748SOL    HW214931   3.358   5.245   6.209
 4749SOL     OW14932   2.997   4.427   6.303
 4749SOL    HW114933   3.054   4.505   6.278
 4749SOL    HW214934   2.937   4.453   6.379
 4750SOL     OW14935   3.617   4.331   5.817
 4750SOL    HW114936   3.605   4.318   5.718
 4750SOL    HW214937   3.587   4.250   5.866
 4751SOL     OW14938   2.630   4.868   6.609
 4751SOL    HW114939   2.552   4.885   6.669
 4751SOL    HW214940   2.664   4.955   6.573
 4752SOL     OW14941   2.712   4.522   7.409
 4752SOL    HW114942   2.708   4.598   7.474
 4752SOL    HW214943   2.734   4.558   7.318
 4753SOL     OW14944   2.547   4.736   6.251
 4753SOL    HW114945   2.616   4.720   6.321
 4753SOL    HW214946   2.474   4.793   6.289
 4754SOL     OW14947   2.548   4.885   7.389
 4754SOL    HW114948   2.608   4.964   7.403
 4754SOL    HW214949   2.462   4.916   7.348
 4755SOL     OW14950   2.197   5.159   6.647
 4755SOL    HW114951   2.119   5.128   6.594
 4755SOL    HW214952   2.255   5.217   6.590
 4756SOL     OW14953   3.322   5.229   6.925
 4756SOL    HW114954   3.346   5.323   6.951
 4756SOL    HW214955   3.306   5.175   7.007
 4757SOL     OW14956   2.300   4.116   7.085
 4757SOL    HW114957   2.382   4.060   7.094
 4757SOL    HW214958   2.219   4.058   7.089
 4758SOL     OW14959   3.465   4.171   6.323
 4758SOL    HW114960   3.391   4.217   6.273
 4758SOL    HW214961   3.516   4.239   6.376
 4759SOL     OW14962   2.989   5.065   7.276
 4759SOL    HW114963   3.036   5.065   7.364
 4759SOL    HW214964   2.941   4.978   7.265
 4760SOL     OW14965   2.092   5.158   6.124
 4760SOL    HW114966   2.066   5.254   6.124
 4760SOL    HW214967   2.021   5.104   6.169
 4761SOL     OW14968   2.102   4.815   6.472
 4761SOL    HW114969   2.116   4.731   6.524
 4761SOL    HW214970   2.047   4.879   6.527
 4762SOL     OW14971   2.468   4.688   5.709
 4762SOL    HW114972   2.475   4.772   5.655
 4762SOL    HW214973   2.514   4.701   5.797
 4763SOL     OW14974   3.456   3.838   7.066
 4763SOL    HW114975   3.438   3.905   6.994
 4763SOL    HW214976   3.453   3.884   7.155
 4764SOL     OW14977   1.984   4.367   6.149
 4764SOL    HW114978   1.939   4.279   6.166
 4764SOL    HW214979   1.983   4.421   6.233
 4765SOL     OW14980   1.889   5.320   5.703
 4765SOL    HW114981   1.870   5.224   5.724
 4765SOL    HW214982   1.856   5.378   5.778
 4766SOL     OW14983   3.551   4.646   6.198
 4766SOL    HW114984   3.646   4.617   6.206
 4766SOL    HW214985   3.543   4.711   6.123
 4767SOL     OW14986   3.503   4.832   6.018
 4767SOL    HW114987   3.589   4.834   5.966
 4767SOL    HW214988   3.517   4.879   6.106
 4768SOL     OW14989   1.975   4.461   7.183
 4768SOL    HW114990   2.063   4.448   7.228
 4768SOL    HW214991   1.962   4.558   7.161
 4769SOL     OW14992   2.475   5.089   6.312
 4769SOL    HW114993   2.426   5.002   6.321
 4769SOL    HW214994   2.452   5.132   6.225
 4770SOL     OW14995   3.155   4.952   7.009
 4770SOL    HW114996   3.192   4.879   6.951
 4770SOL    HW214997   3.207   4.957   7.094
 4771SOL     OW14998   2.671   3.728   6.088
 4771SOL    HW114999   2.711   3.819   6.079
 4771SOL    HW215000   2.571   3.736   6.094
 4772SOL     OW15001   2.059   4.700   6.850
 4772SOL    HW115002   2.148   4.655   6.836
 4772SOL    HW215003   1.986   4.635   6.831
 4773SOL     OW15004   3.387   4.723   5.776
 4773SOL    HW115005   3.324   4.647   5.789
 4773SOL    HW215006   3.435   4.741   5.862
 4774SOL     OW15007   2.179   3.975   7.387
 4774SOL    HW115008   2.250   4.046   7.393
 4774SOL    HW215009   2.091   4.014   7.415
 4775SOL     OW15010   3.328   5.141   6.539
 4775SOL    HW115011   3.269   5.147   6.619
 4775SOL    HW215012   3.313   5.053   6.493
 4776SOL     OW15013   2.460   4.453   5.856
 4776SOL    HW115014   2.484   4.522   5.788
 4776SOL    HW215015   2.382   4.486   5.910
 4777SOL     OW15016   3.143   4.069   6.530
 4777SOL    HW115017   3.057   4.019   6.517
 4777SOL    HW215018   3.205   4.015   6.586
 4778SOL     OW15019   2.669   4.329   7.051
 4778SOL    HW115020   2.622   4.326   7.140
 4778SOL    HW215021   2.618   4.274   6.985
 4779SOL     OW15022   3.256   4.193   7.260
 4779SOL    HW115023   3.236   4.236   7.348
 4779SOL    HW215024   3.334   4.131   7.269
 4780SOL     OW15025   2.835   4.614   7.158
 4780SOL    HW115026   2.881   4.530   7.129
 4780SOL    HW215027   2.779   4.648   7.083
 4781SOL     OW15028   2.853   4.134   6.828
 4781SOL    HW115029   2.776   4.168   6.882
 4781SOL    HW215030   2.819   4.083   6.749
 4782SOL     OW15031   2.903   4.425   6.015
 4782SOL    HW115032   2.929   4.421   6.111
 4782SOL    HW215033   2.818   4.374   6.001
 4783SOL     OW15034   1.938   4.535   6.375
 4783SOL    HW115035   2.037   4.523   6.384
 4783SOL    HW215036   1.914   4.630   6.396
 4784SOL     OW15037   2.727   4.072   5.781
 4784SOL    HW115038   2.786   4.135   5.732
 4784SOL    HW215039   2.746   3.978   5.752
 4785SOL     OW15040   3.581   4.309   7.417
 4785SOL    HW115041   3.555   4.398   7.381
 4785SOL    HW215042   3.579   4.241   7.344
 4786SOL     OW15043   3.224   4.868   6.131
 4786SOL    HW115044   3.307   4.839   6.083
 4786SOL    HW215045   3.175   4.935   6.075
 4787SOL     OW15046   2.412   3.920   6.471
 4787SOL    HW115047   2.407   3.915   6.571
 4787SOL    HW215048   2.414   4.016   6.442
 4788SOL     OW15049   2.870   5.180   6.063
 4788SOL    HW115050   2.824   5.252   6.011
 4788SOL    HW215051   2.866   5.200   6.161
 4789SOL     OW15052   3.657   4.790   6.459
 4789SOL    HW115053   3.595   4.775   6.383
 4789SOL    HW215054   3.605   4.801   6.544
 4790SOL     OW15055   3.089   5.274   7.092
 4790SOL    HW115056   3.095   5.197   7.156
 4790SOL    HW215057   3.037   5.248   7.012
 4791SOL     OW15058   2.183   4.667   5.828
 4791SOL    HW115059   2.265   4.706   5.786
 4791SOL    HW215060   2.156   4.585   5.779
 4792SOL     OW15061   3.320   4.459   6.314
 4792SOL    HW115062   3.315   4.394   6.389
 4792SOL    HW215063   3.400   4.518   6.327
 4793SOL     OW15064   2.323   4.990   7.313
 4793SOL    HW115065   2.273   4.991   7.227
 4793SOL    HW215066   2.260   4.972   7.389
 4794SOL     OW15067   2.973   5.500   5.823
 4794SOL    HW115068   2.913   5.438   5.873
 4794SOL    HW215069   3.004   5.456   5.738
 4795SOL     OW15070   2.064   4.009   7.084
 4795SOL    HW115071   1.984   4.069   7.071
 4795SOL    HW215072   2.054   3.960   7.170
 4796SOL     OW15073   3.494   5.101   5.667
 4796SOL    HW115074   3.462   5.195   5.657
 4796SOL    HW215075   3.418   5.038   5.655
 4797SOL     OW15076   3.262   3.831   6.012
 4797SOL    HW115077   3.238   3.794   5.922
 4797SOL    HW215078   3.361   3.847   6.016
 4798SOL     OW15079   2.244   4.424   6.066
 4798SOL    HW115080   2.289   4.334   6.063
 4798SOL    HW215081   2.150   4.413   6.099
 4799SOL     OW15082   3.409   3.946   7.315
 4799SOL    HW115083   3.404   3.983   7.407
 4799SOL    HW215084   3.337   3.877   7.303
 4800SOL     OW15085   2.476   3.846   5.703
 4800SOL    HW115086   2.574   3.824   5.710
 4800SOL    HW215087   2.445   3.829   5.610
 4801SOL     OW15088   2.643   3.988   7.335
 4801SOL    HW115089   2.710   3.927   7.378
 4801SOL    HW215090   2.570   4.007   7.400
 4802SOL     OW15091   3.213   4.314   7.019
 4802SOL    HW115092   3.241   4.271   7.104
 4802SOL    HW215093   3.238   4.410   7.020
 4803SOL     OW15094   2.665   5.126   6.510
 4803SOL    HW115095   2.755   5.140   6.468
 4803SOL    HW215096   2.594   5.128   6.439
 4804SOL     OW15097   2.784   4.227   6.485
 4804SOL    HW115098   2.759   4.218   6.389
 4804SOL    HW215099   2.832   4.145   6.516
 4805SOL     OW15100   2.401   3.788   6.098
 4805SOL    HW115101   2.320   3.789   6.156
 4805SOL    HW215102   2.404   3.871   6.043
 4806SOL     OW15103   3.296   4.912   5.627
 4806SOL    HW115104   3.328   4.836   5.684
 4806SOL    HW215105   3.204   4.939   5.657
 4807SOL     OW15106   2.159   3.759   5.757
 4807SOL    HW115107   2.208   3.843   5.736
 4807SOL    HW215108   2.221   3.694   5.802
 4808SOL     OW15109   2.797   3.960   6.066
 4808SOL    HW115110   2.749   4.001   5.988
 4808SOL    HW215111   2.896   3.958   6.047
 4809SOL     OW15112   2.938   4.407   7.050
 4809SOL    HW115113   2.858   4.346   7.053
 4809SOL    HW215114   3.019   4.354   7.026
 4810SOL     OW15115   3.089   5.294   6.379
 4810SOL    HW115116   3.110   5.368   6.314
 4810SOL    HW215117   3.157   5.294   6.452
 4811SOL     OW15118   2.321   4.876   6.327
 4811SOL    HW115119   2.250   4.849   6.392
 4811SOL    HW215120   2.295   4.848   6.234
 4812SOL     OW15121   2.894   4.273   5.602
 4812SOL    HW115122   2.853   4.355   5.563
 4812SOL    HW215123   2.958   4.299   5.675
 4813SOL     OW15124   1.940   4.280   6.972
 4813SOL    HW115125   2.032   4.279   6.931
 4813SOL    HW215126   1.934   4.354   7.039
 4814SOL     OW15127   2.423   3.946   6.733
 4814SOL    HW115128   2.461   3.862   6.770
 4814SOL    HW215129   2.335   3.965   6.777
 4815SOL     OW15130   2.728   4.178   6.228
 4815SOL    HW115131   2.696   4.250   6.166
 4815SOL    HW215132   2.752   4.097   6.175
 4816SOL     OW15133   2.879   3.763   6.339
 4816SOL    HW115134   2.807   3.768   6.270
 4816SOL    HW215135   2.855   3.694   6.408
 4817SOL     OW15136   3.291   4.897   6.453
 4817SOL    HW115137   3.236   4.813   6.446
 4817SOL    HW215138   3.317   4.926   6.361
 4818SOL     OW15139   3.328   4.314   6.578
 4818SOL    HW115140   3.298   4.219   6.585
 4818SOL    HW215141   3.401   4.330   6.644
 4819SOL     OW15142   3.719   4.557   5.963
 4819SOL    HW115143   3.761   4.493   6.027
 4819SOL    HW215144   3.681   4.506   5.885
 4820SOL     OW15145   2.350   5.109   5.760
 4820SOL    HW115146   2.263   5.094   5.807
 4820SOL    HW215147   2.333   5.135   5.665
 4821SOL     OW15148   3.526   5.004   6.243
 4821SOL    HW115149   3.625   5.012   6.257
 4821SOL    HW215150   3.481   5.088   6.274
 4822SOL     OW15151   3.252   4.299   5.664
 4822SOL    HW115152   3.198   4.278   5.745
 4822SOL    HW215153   3.343   4.258   5.673
 4823SOL     OW15154   2.389   3.980   5.914
 4823SOL    HW115155   2.416   3.921   5.839
 4823SOL    HW215156   2.389   4.075   5.883
 4824SOL     OW15157   3.616   4.947   7.174
 4824SOL    HW115158   3.707   4.908   7.161
 4824SOL    HW215159   3.624   5.043   7.198
 4825SOL     OW15160   2.926   5.071   6.926
 4825SOL    HW115161   2.846   5.048   6.981
 4825SOL    HW215162   3.009   5.045   6.975
 4826SOL     OW15163   2.973   4.919   6.686
 4826SOL    HW115164   2.933   4.963   6.767
 4826SOL    HW215165   2.932   4.956   6.603
 4827SOL     OW15166   3.500   4.823   6.665
 4827SOL    HW115167   3.505   4.904   6.724
 4827SOL    HW215168   3.414   4.825   6.614
 4828SOL     OW15169   2.777   3.813   6.988
 4828SOL    HW115170   2.802   3.793   6.893
 4828SOL    HW215171   2.849   3.869   7.030
 4829SOL     OW15172   2.842   4.840   7.305
 4829SOL    HW115173   2.743   4.846   7.315
 4829SOL    HW215174   2.865   4.760   7.249
 4830SOL     OW15175   2.567   4.774   5.954
 4830SOL    HW115176   2.553   4.781   6.053
 4830SOL    HW215177   2.651   4.723   5.936
 4831SOL     OW15178   2.272   4.537   6.837
 4831SOL    HW115179   2.358   4.549   6.887
 4831SOL    HW215180   2.230   4.450   6.864
 4832SOL     OW15181   3.136   4.110   6.848
 4832SOL    HW115182   3.157   4.184   6.912
 4832SOL    HW215183   3.047   4.127   6.805
 4833SOL     OW15184   2.229   4.824   6.087
 4833SOL    HW115185   2.222   4.907   6.031
 4833SOL    HW215186   2.233   4.744   6.027
 4834SOL     OW15187   2.428   4.261   6.451
 4834SOL    HW115188   2.440   4.327   6.377
 4834SOL    HW215189   2.474   4.295   6.534
 4835SOL     OW15190   3.114   5.072   5.974
 4835SOL    HW115191   3.164   5.149   6.014
 4835SOL    HW215192   3.019   5.074   6.006
 4836SOL     OW15193   3.134   5.169   6.728
 4836SOL    HW115194   3.181   5.182   6.815
 4836SOL    HW215195   3.068   5.095   6.737
 4837SOL     OW15196   3.444   4.363   6.058
 4837SOL    HW115197   3.413   4.424   6.131
 4837SOL    HW215198   3.494   4.415   5.989
 4838SOL     OW15199   2.216   5.234   6.915
 4838SOL    HW115200   2.195   5.190   6.828
 4838SOL    HW215201   2.313   5.260   6.918
 4839SOL     OW15202   2.264   4.475   7.184
 4839SOL    HW115203   2.332   4.530   7.137
 4839SOL    HW215204   2.304   4.387   7.211
 4840SOL     OW15205   3.449   4.503   7.256
 4840SOL    HW115206   3.357   4.541   7.251
 4840SOL    HW215207   3.509   4.550   7.191
 4841SOL     OW15208   2.875   3.829   7.356
 4841SOL    HW115209   2.881   3.914   7.304
 4841SOL    HW215210   2.907   3.753   7.299
 4842SOL     OW15211   2.366   3.774   7.326
 4842SOL    HW115212   2.324   3.717   7.256
 4842SOL    HW215213   2.300   3.843   7.358
 4843SOL     OW15214   2.435   4.594   6.615
 4843SOL    HW115215   2.479   4.683   6.606
 4843SOL    HW215216   2.372   4.594   6.692
 4844SOL     OW15217   3.222   4.586   6.631
 4844SOL    HW115218   3.147   4.586   6.565
 4844SOL    HW215219   3.259   4.494   6.640
 4845SOL     OW15220   3.071   4.249   5.861
 4845SOL    HW115221   3.084   4.165   5.915
 4845SOL    HW215222   3.042   4.323   5.921
 4846SOL     OW15223   2.169   3.937   6.817
 4846SOL    HW115224   2.146   3.974   6.907
 4846SOL    HW215225   2.139   3.842   6.811
 4847SOL     OW15226   1.899   5.034   6.868
 4847SOL    HW115227   1.952   4.985   6.936
 4847SOL    HW215228   1.921   5.132   6.873
 4848SOL     OW15229   2.594   4.358   6.650
 4848SOL    HW115230   2.653   4.332   6.574
 4848SOL    HW215231   2.566   4.454   6.639
 4849SOL     OW15232   3.590   4.659   7.440
 4849SOL    HW115233   3.544   4.652   7.351
 4849SOL    HW215234   3.528   4.703   7.506
 4850SOL     OW15235   2.169   3.787   6.204
 4850SOL    HW115236   2.158   3.881   6.237
 4850SOL    HW215237   2.164   3.724   6.281
 4851SOL     OW15238   3.484   4.091   5.960
 4851SOL    HW115239   3.486   4.015   6.024
 4851SOL    HW215240   3.436   4.168   6.000
 4852SOL     OW15241   2.885   4.490   6.552
 4852SOL    HW115242   2.900   4.511   6.648
 4852SOL    HW215243   2.855   4.395   6.543
 4853SOL     OW15244   3.721   5.242   7.191
 4853SOL    HW115245   3.735   5.269   7.096
 4853SOL    HW215246   3.804   5.264   7.244
 4854SOL     OW15247   2.212   4.622   7.390
 4854SOL    HW115248   2.288   4.666   7.438
 4854SOL    HW215249   2.247   4.575   7.308
 4855SOL     OW15250   3.402   3.998   5.711
 4855SOL    HW115251   3.341   3.923   5.734
 4855SOL    HW215252   3.424   4.050   5.794
 4856SOL     OW15253   3.165   4.562   5.628
 4856SOL    HW115254   3.199   4.469   5.643
 4856SOL    HW215255   3.183   4.589   5.533
 4857SOL     OW15256   2.930   5.057   6.435
 4857SOL    HW115257   2.937   4.973   6.380
 4857SOL    HW215258   2.992   5.126   6.399
 4858SOL     OW15259   2.181   4.534   6.535
 4858SOL    HW115260   2.274   4.570   6.540
 4858SOL    HW215261   2.175   4.449   6.587
 4859SOL     OW15262   2.201   4.233   6.592
 4859SOL    HW115263   2.149   4.150   6.575
 4859SOL    HW215264   2.278   4.238   6.528
 4860SOL     OW15265   3.000   4.104   7.264
 4860SOL    HW115266   2.955   4.167   7.328
 4860SOL    HW215267   3.093   4.135   7.247
 4861SOL     OW15268   3.022   3.931   7.063
 4861SOL    HW115269   3.022   3.995   7.140
 4861SOL    HW215270   3.050   3.979   6.980
 4862SOL     OW15271   1.870   5.050   5.786
 4862SOL    HW115272   1.777   5.071   5.755
 4862SOL    HW215273   1.880   4.951   5.799
 4863SOL     OW15274   2.864   4.520   6.824
 4863SOL    HW115275   2.905   4.488   6.910
 4863SOL    HW215276   2.768   4.493   6.821
 4864SOL     OW15277   1.902   4.268   6.700
 4864SOL    HW115278   1.987   4.235   6.659
 4864SOL    HW215279   1.915   4.283   6.798
 4865SOL     OW15280   2.051   4.244   7.308
 4865SOL    HW115281   2.110   4.204   7.238
 4865SOL    HW215282   1.993   4.315   7.267
 4866SOL     OW15283   3.231   4.674   7.246
 4866SOL    HW115284   3.270   4.763   7.266
 4866SOL    HW215285   3.241   4.654   7.149
 4867SOL     OW15286   2.677   4.296   5.911
 4867SOL    HW115287   2.684   4.207   5.865
 4867SOL    HW215288   2.583   4.330   5.903
 4868SOL     OW15289   3.519   4.328   6.792
 4868SOL    HW115290   3.481   4.259   6.854
 4868SOL    HW215291   3.601   4.292   6.748
 4869SOL     OW15292   2.114   5.288   7.330
 4869SOL    HW115293   2.084   5.345   7.406
 4869SOL    HW215294   2.107   5.191   7.356
 4870SOL     OW15295   2.533   4.188   6.855
 4870SOL    HW115296   2.499   4.099   6.825
 4870SOL    HW215297   2.559   4.242   6.775
 4871SOL     OW15298   2.335   4.224   5.777
 4871SOL    HW115299   2.396   4.304   5.781
 4871SOL    HW215300   2.240   4.255   5.784
 4872SOL     OW15301   2.021   4.861   7.052
 4872SOL    HW115302   2.043   4.800   7.128
 4872SOL    HW215303   2.031   4.812   6.966
 4873SOL     OW15304   3.209   4.783   6.820
 4873SOL    HW115305   3.233   4.720   6.746
 4873SOL    HW215306   3.119   4.823   6.802
 4874SOL     OW15307   3.164   4.579   5.895
 4874SOL    HW115308   3.078   4.548   5.937
 4874SOL    HW215309   3.160   4.565   5.796
 4875SOL     OW15310   1.945   4.982   6.608
 4875SOL    HW115311   1.940   4.981   6.708
 4875SOL    HW215312   1.862   4.941   6.570
 4876SOL     OW15313   2.550   5.386   7.302
 4876SOL    HW115314   2.494   5.467   7.311
 4876SOL    HW215315   2.602   5.390   7.216
 4877SOL     OW15316   3.588   3.859   6.109
 4877SOL    HW115317   3.661   3.842   6.042
 4877SOL    HW215318   3.557   3.772   6.147
 4878SOL     OW15319   3.142   4.651   6.258
 4878SOL    HW115320   3.202   4.570   6.260
 4878SOL    HW215321   3.182   4.720   6.198
 4879SOL     OW15322   2.692   4.997   7.008
 4879SOL    HW115323   2.687   5.030   7.103
 4879SOL    HW215324   2.606   5.016   6.962
 4880SOL     OW15325   3.703   3.899   6.549
 4880SOL    HW115326   3.742   3.814   6.513
 4880SOL    HW215327   3.605   3.901   6.530
 4881SOL     OW15328   2.125   4.050   6.306
 4881SOL    HW115329   2.046   4.101   6.272
 4881SOL    HW215330   2.116   4.035   6.404
 4882SOL     OW15331   2.684   4.726   6.958
 4882SOL    HW115332   2.724   4.725   6.866
 4882SOL    HW215333   2.694   4.818   6.998
 4883SOL     OW15334   2.778   4.634   5.877
 4883SOL    HW115335   2.841   4.672   5.809
 4883SOL    HW215336   2.818   4.551   5.916
 4884SOL     OW15337   2.234   5.012   7.076
 4884SOL    HW115338   2.221   5.105   7.042
 4884SOL    HW215339   2.150   4.960   7.063
 4885SOL     OW15340   3.476   5.016   6.875
 4885SOL    HW115341   3.536   5.019   6.955
 4885SOL    HW215342   3.401   5.080   6.888
 4886SOL     OW15343   2.901   4.822   6.282
 4886SOL    HW115344   2.831   4.775   6.336
 4886SOL    HW215345   2.960   4.754   6.239
 4887SOL     OW15346   2.876   3.960   6.557
 4887SOL    HW115347   2.868   3.924   6.464
 4887SOL    HW215348   2.874   3.884   6.622
 4888SOL     OW15349   3.571   4.109   6.967
 4888SOL    HW115350   3.644   4.178   6.971
 4888SOL    HW215351   3.599   4.034   6.908
 4889SOL     OW15352   2.117   5.072   5.876
 4889SOL    HW115353   2.021   5.073   5.849
 4889SOL    HW215354   2.129   5.125   5.960
 4890SOL     OW15355   1.967   4.737   7.312
 4890SOL    HW115356   1.890   4.704   7.366
 4890SOL    HW215357   2.052   4.707   7.354
 4891SOL     OW15358   2.534   3.927   7.075
 4891SOL    HW115359   2.624   3.911   7.035
 4891SOL    HW215360   2.542   3.932   7.174
 4892SOL     OW15361   1.937   4.069   5.619
 4892SOL    HW115362   1.845   4.041   5.590
 4892SOL    HW215363   1.968   4.146   5.563
 4893SOL     OW15364   3.302   4.580   6.984
 4893SOL    HW115365   3.245   4.632   6.921
 4893SOL    HW215366   3.398   4.592   6.960
 4894SOL     OW15367   1.934   3.890   5.904
 4894SOL    HW115368   1.917   3.973   5.850
 4894SOL    HW215369   2.024   3.853   5.882
 4895SOL     OW15370   3.045   5.059   5.705
 4895SOL    HW115371   2.946   5.048   5.707
 4895SOL    HW215372   3.079   5.074   5.798
 4896SOL     OW15373   2.475   4.566   7.017
 4896SOL    HW115374   2.531   4.647   7.000
 4896SOL    HW215375   2.534   4.486   7.020
 4897SOL     OW15376   2.578   4.289   7.294
 4897SOL    HW115377   2.597   4.354   7.368
 4897SOL    HW215378   2.638   4.209   7.303
 4898SOL     OW15379   3.312   4.944   7.219
 4898SOL    HW115380   3.303   4.934   7.318
 4898SOL    HW215381   3.408   4.937   7.193
 4899SOL     OW15382   3.536   4.607   6.840
 4899SOL    HW115383   3.509   4.518   6.803
 4899SOL    HW215384   3.537   4.675   6.767
 4900SOL     OW15385   3.087   4.049   6.035
 4900SOL    HW115386   3.152   3.975   6.024
 4900SOL    HW215387   3.107   4.099   6.119
 4901SOL     OW15388   2.456   4.469   6.238
 4901SOL    HW115389   2.506   4.554   6.219
 4901SOL    HW215390   2.368   4.471   6.190
 4902SOL     OW15391   3.639   4.066   7.228
 4902SOL    HW115392   3.622   4.097   7.134
 4902SOL    HW215393   3.555   4.029   7.266
 4903SOL     OW15394   3.592   4.658   7.103
 4903SOL    HW115395   3.630   4.749   7.118
 4903SOL    HW215396   3.584   4.641   7.004
 4904SOL     OW15397   2.721   5.098   5.602
 4904SOL    HW115398   2.675   5.113   5.690
 4904SOL    HW215399   2.765   5.183   5.572
 4905SOL     OW15400   2.721   4.680   6.447
 4905SOL    HW115401   2.775   4.611   6.495
 4905SOL    HW215402   2.689   4.749   6.513
 4906SOL     OW15403   2.945   4.708   5.673
 4906SOL    HW115404   2.922   4.761   5.591
 4906SOL    HW215405   3.026   4.652   5.654
 4907SOL     OW15406   2.083   5.038   7.430
 4907SOL    HW115407   2.018   4.965   7.409
 4907SOL    HW215408   2.087   5.052   7.528
 4908SOL     OW15409   1.941   4.964   6.239
 4908SOL    HW115410   1.940   4.917   6.327
 4908SOL    HW215411   2.023   4.936   6.188
 4909SOL     OW15412   2.534   5.115   7.210
 4909SOL    HW115413   2.456   5.065   7.248
 4909SOL    HW215414   2.531   5.210   7.241
 4910SOL     OW15415   3.686   3.916   6.813
 4910SOL    HW115416   3.682   3.826   6.857
 4910SOL    HW215417   3.689   3.905   6.714
 4911SOL     OW15418   2.290   4.148   6.106
 4911SOL    HW115419   2.320   4.076   6.044
 4911SOL    HW215420   2.251   4.108   6.189
 4912SOL     OW15421   3.567   5.211   6.690
 4912SOL    HW115422   3.474   5.186   6.663
 4912SOL    HW215423   3.593   5.161   6.772
 4913SOL     OW15424   2.179   4.271   6.866
 4913SOL    HW115425   2.217   4.212   6.938
 4913SOL    HW215426   2.219   4.245   6.778
 4914SOL     OW15427   3.286   3.938   6.698
 4914SOL    HW115428   3.338   3.873   6.753
 4914SOL    HW215429   3.237   4.001   6.759
 4915SOL     OW15430   2.863   3.758   6.740
 4915SOL    HW115431   2.800   3.686   6.709
 4915SOL    HW215432   2.956   3.722   6.740
 4916SOL     OW15433   2.632   5.054   5.887
 4916SOL    HW115434   2.586   4.967   5.904
 4916SOL    HW215435   2.723   5.051   5.928
 4917SOL     OW15436   2.480   5.291   6.870
 4917SOL    HW115437   2.475   5.373   6.927
 4917SOL    HW215438   2.569   5.288   6.825
 4918SOL     OW15439   3.214   3.776   5.754
 4918SOL    HW115440   3.249   3.735   5.670
 4918SOL    HW215441   3.124   3.738   5.774
 4919SOL     OW15442   3.162   4.177   6.277
 4919SOL    HW115443   3.103   4.257   6.281
 4919SOL    HW215444   3.177   4.142   6.370
 4920SOL     OW15445   3.455   3.945   6.468
 4920SOL    HW115446   3.371   3.944   6.522
 4920SOL    HW215447   3.457   4.028   6.412
 4921SOL     OW15448   1.901   4.801   5.886
 4921SOL    HW115449   2.000   4.790   5.877
 4921SOL    HW215450   1.861   4.715   5.918
 4922SOL     OW15451   2.092   4.352   7.561
 4922SOL    HW115452   1.999   4.350   7.598
 4922SOL    HW215453   2.093   4.313   7.469
 4923SOL     OW15454   3.617   4.331   7.679
 4923SOL    HW115455   3.605   4.318   7.580
 4923SOL    HW215456   3.587   4.250   7.728
 4924SOL     OW15457   2.093   5.437   7.931
 4924SOL    HW115458   2.127   5.514   7.985
 4924SOL    HW215459   2.137   5.437   7.841
 4925SOL     OW15460   2.092   5.158   7.986
 4925SOL    HW115461   2.066   5.254   7.986
 4925SOL    HW215462   2.021   5.104   8.031
 4926SOL     OW15463   2.468   4.688   7.571
 4926SOL    HW115464   2.475   4.772   7.517
 4926SOL    HW215465   2.514   4.701   7.659
 4927SOL     OW15466   1.889   5.320   7.565
 4927SOL    HW115467   1.870   5.224   7.586
 4927SOL    HW215468   1.856   5.378   7.640
 4928SOL     OW15469   3.551   4.646   8.060
 4928SOL    HW115470   3.646   4.617   8.068
 4928SOL    HW215471   3.543   4.711   7.985
 4929SOL     OW15472   3.503   4.832   7.880
 4929SOL    HW115473   3.589   4.834   7.828
 4929SOL    HW215474   3.517   4.879   7.968
 4930SOL     OW15475   2.671   3.728   7.950
 4930SOL    HW115476   2.711   3.819   7.941
 4930SOL    HW215477   2.571   3.736   7.956
 4931SOL     OW15478   3.387   4.723   7.638
 4931SOL    HW115479   3.324   4.647   7.651
 4931SOL    HW215480   3.435   4.741   7.724
 4932SOL     OW15481   2.460   4.453   7.718
 4932SOL    HW115482   2.484   4.522   7.650
 4932SOL    HW215483   2.382   4.486   7.772
 4933SOL     OW15484   1.938   4.535   8.237
 4933SOL    HW115485   2.037   4.523   8.246
 4933SOL    HW215486   1.914   4.630   8.258
 4934SOL     OW15487   2.727   4.072   7.643
 4934SOL    HW115488   2.786   4.135   7.594
 4934SOL    HW215489   2.746   3.978   7.614
 4935SOL     OW15490   2.183   4.667   7.690
 4935SOL    HW115491   2.265   4.706   7.648
 4935SOL    HW215492   2.156   4.585   7.641
 4936SOL     OW15493   2.973   5.500   7.685
 4936SOL    HW115494   2.913   5.438   7.735
 4936SOL    HW215495   3.004   5.456   7.600
 4937SOL     OW15496   3.494   5.101   7.529
 4937SOL    HW115497   3.462   5.195   7.519
 4937SOL    HW215498   3.418   5.038   7.517
 4938SOL     OW15499   3.262   3.831   7.874
 4938SOL    HW115500   3.238   3.794   7.784
 4938SOL    HW215501   3.361   3.847   7.878
 4939SOL     OW15502   2.244   4.424   7.928
 4939SOL    HW115503   2.289   4.334   7.925
 4939SOL    HW215504   2.150   4.413   7.961
 4940SOL     OW15505   2.476   3.846   7.565
 4940SOL    HW115506   2.574   3.824   7.572
 4940SOL    HW215507   2.445   3.829   7.472
 4941SOL     OW15508   2.401   3.788   7.960
 4941SOL    HW115509   2.320   3.789   8.018
 4941SOL    HW215510   2.404   3.871   7.905
 4942SOL     OW15511   3.296   4.912   7.489
 4942SOL    HW115512   3.328   4.836   7.546
 4942SOL    HW215513   3.204   4.939   7.519
 4943SOL     OW15514   2.159   3.759   7.619
 4943SOL    HW115515   2.208   3.843   7.598
 4943SOL    HW215516   2.221   3.694   7.664
 4944SOL     OW15517   2.797   3.960   7.928
 4944SOL    HW115518   2.749   4.001   7.850
 4944SOL    HW215519   2.896   3.958   7.909
 4945SOL     OW15520   2.321   4.876   8.189
 4945SOL    HW115521   2.250   4.849   8.254
 4945SOL    HW215522   2.295   4.848   8.096
 4946SOL     OW15523   2.894   4.273   7.464
 4946SOL    HW115524   2.853   4.355   7.425
 4946SOL    HW215525   2.958   4.299   7.537
 4947SOL     OW15526   3.719   4.557   7.825
 4947SOL    HW115527   3.761   4.493   7.889
 4947SOL    HW215528   3.681   4.506   7.747
 4948SOL     OW15529   2.350   5.109   7.622
 4948SOL    HW115530   2.263   5.094   7.669
 4948SOL    HW215531   2.333   5.135   7.527
 4949SOL     OW15532   3.252   4.299   7.526
 4949SOL    HW115533   3.198   4.278   7.607
 4949SOL    HW215534   3.343   4.258   7.535
 4950SOL     OW15535   2.389   3.980   7.776
 4950SOL    HW115536   2.416   3.921   7.701
 4950SOL    HW215537   2.389   4.075   7.745
 4951SOL     OW15538   2.567   4.774   7.816
 4951SOL    HW115539   2.553   4.781   7.915
 4951SOL    HW215540   2.651   4.723   7.798
 4952SOL     OW15541   2.229   4.824   7.949
 4952SOL    HW115542   2.222   4.907   7.893
 4952SOL    HW215543   2.233   4.744   7.889
 4953SOL     OW15544   3.114   5.072   7.836
 4953SOL    HW115545   3.164   5.149   7.876
 4953SOL    HW215546   3.019   5.074   7.868
 4954SOL     OW15547   3.444   4.363   7.920
 4954SOL    HW115548   3.413   4.424   7.993
 4954SOL    HW215549   3.494   4.415   7.851
 4955SOL     OW15550   3.071   4.249   7.723
 4955SOL    HW115551   3.084   4.165   7.777
 4955SOL    HW215552   3.042   4.323   7.783
 4956SOL     OW15553   3.484   4.091   7.822
 4956SOL    HW115554   3.486   4.015   7.886
 4956SOL    HW215555   3.436   4.168   7.862
 4957SOL     OW15556   3.402   3.998   7.573
 4957SOL    HW115557   3.341   3.923   7.596
 4957SOL    HW215558   3.424   4.050   7.656
 4958SOL     OW15559   3.165   4.562   7.490
 4958SOL    HW115560   3.199   4.469   7.505
 4958SOL    HW215561   3.183   4.589   7.395
 4959SOL     OW15562   1.870   5.050   7.648
 4959SOL    HW115563   1.777   5.071   7.617
 4959SOL    HW215564   1.880   4.951   7.661
 4960SOL     OW15565   2.677   4.296   7.773
 4960SOL    HW115566   2.684   4.207   7.727
 4960SOL    HW215567   2.583   4.330   7.765
 4961SOL     OW15568   2.335   4.224   7.639
 4961SOL    HW115569   2.396   4.304   7.643
 4961SOL    HW215570   2.240   4.255   7.646
 4962SOL     OW15571   3.164   4.579   7.757
 4962SOL    HW115572   3.078   4.548   7.799
 4962SOL    HW215573   3.160   4.565   7.658
 4963SOL     OW15574   3.588   3.859   7.971
 4963SOL    HW115575   3.661   3.842   7.904
 4963SOL    HW215576   3.557   3.772   8.009
 4964SOL     OW15577   2.778   4.634   7.739
 4964SOL    HW115578   2.841   4.672   7.671
 4964SOL    HW215579   2.818   4.551   7.778
 4965SOL     OW15580   2.117   5.072   7.738
 4965SOL    HW115581   2.021   5.073   7.711
 4965SOL    HW215582   2.129   5.125   7.822
 4966SOL     OW15583   1.937   4.069   7.481
 4966SOL    HW115584   1.845   4.041   7.452
 4966SOL    HW215585   1.968   4.146   7.425
 4967SOL     OW15586   1.934   3.890   7.766
 4967SOL    HW115587   1.917   3.973   7.712
 4967SOL    HW215588   2.024   3.853   7.744
 4968SOL     OW15589   3.045   5.059   7.567
 4968SOL    HW115590   2.946   5.048   7.569
 4968SOL    HW215591   3.079   5.074   7.660
 4969SOL     OW15592   3.087   4.049   7.897
 4969SOL    HW115593   3.152   3.975   7.886
 4969SOL    HW215594   3.107   4.099   7.981
 4970SOL     OW15595   2.456   4.469   8.100
 4970SOL    HW115596   2.506   4.554   8.081
 4970SOL    HW215597   2.368   4.471   8.052
 4971SOL     OW15598   2.721   5.098   7.464
 4971SOL    HW115599   2.675   5.113   7.552
 4971SOL    HW215600   2.765   5.183   7.434
 4972SOL     OW15601   2.945   4.708   7.535
 4972SOL    HW115602   2.922   4.761   7.453
 4972SOL    HW215603   3.026   4.652   7.516
 4973SOL     OW15604   2.290   4.148   7.968
 4973SOL    HW115605   2.320   4.076   7.906
 4973SOL    HW215606   2.251   4.108   8.051
 4974SOL     OW15607   2.632   5.054   7.749
 4974SOL    HW115608   2.586   4.967   7.766
 4974SOL    HW215609   2.723   5.051   7.790
 4975SOL     OW15610   3.214   3.776   7.616
 4975SOL    HW115611   3.249   3.735   7.532
 4975SOL    HW215612   3.124   3.738   7.636
 4976SOL     OW15613   1.901   4.801   7.748
 4976SOL    HW115614   2.000   4.790   7.739
 4976SOL    HW215615   1.861   4.715   7.780
 4977SOL     OW15616   3.954   0.628   0.113
 4977SOL    HW115617   3.861   0.626   0.150
 4977SOL    HW215618   3.955   0.589   0.021
 4978SOL     OW15619   3.949   0.275   0.996
 4978SOL    HW115620   3.984   0.258   1.088
 4978SOL    HW215621   3.861   0.230   0.984
 4979SOL     OW15622   3.743   0.368   0.647
 4979SOL    HW115623   3.661   0.411   0.686
 4979SOL    HW215624   3.715   0.295   0.584
 4980SOL     OW15625   4.293   1.275   1.165
 4980SOL    HW115626   4.200   1.268   1.128
 4980SOL    HW215627   4.304   1.364   1.209
 4981SOL     OW15628   5.279   1.511   0.703
 4981SOL    HW115629   5.222   1.495   0.784
 4981SOL    HW215630   5.220   1.521   0.623
 4982SOL     OW15631   4.859   0.703   0.717
 4982SOL    HW115632   4.916   0.781   0.692
 4982SOL    HW215633   4.799   0.729   0.793
 4983SOL     OW15634   4.492   1.144   1.023
 4983SOL    HW115635   4.414   1.161   1.083
 4983SOL    HW215636   4.526   1.231   0.987
 4984SOL     OW15637   4.574   0.798   1.823
 4984SOL    HW115638   4.570   0.874   1.888
 4984SOL    HW215639   4.596   0.834   1.732
 4985SOL     OW15640   4.409   1.012   0.665
 4985SOL    HW115641   4.478   0.996   0.735
 4985SOL    HW215642   4.336   1.069   0.703
 4986SOL     OW15643   4.410   1.161   1.803
 4986SOL    HW115644   4.470   1.240   1.817
 4986SOL    HW215645   4.324   1.192   1.762
 4987SOL     OW15646   4.059   1.435   1.061
 4987SOL    HW115647   3.981   1.404   1.008
 4987SOL    HW215648   4.117   1.493   1.004
 4988SOL     OW15649   5.184   1.505   1.339
 4988SOL    HW115650   5.208   1.599   1.365
 4988SOL    HW215651   5.168   1.451   1.421
 4989SOL     OW15652   4.162   0.392   1.499
 4989SOL    HW115653   4.244   0.336   1.508
 4989SOL    HW215654   4.081   0.334   1.503
 4990SOL     OW15655   3.955   1.713   0.483
 4990SOL    HW115656   3.989   1.790   0.537
 4990SOL    HW215657   3.999   1.713   0.393
 4991SOL     OW15658   4.851   1.341   1.690
 4991SOL    HW115659   4.898   1.341   1.778
 4991SOL    HW215660   4.803   1.254   1.679
 4992SOL     OW15661   3.954   1.434   0.538
 4992SOL    HW115662   3.928   1.530   0.538
 4992SOL    HW215663   3.883   1.380   0.583
 4993SOL     OW15664   3.964   1.091   0.886
 4993SOL    HW115665   3.978   1.007   0.938
 4993SOL    HW215666   3.909   1.155   0.941
 4994SOL     OW15667   4.344   1.786   1.439
 4994SOL    HW115668   4.252   1.769   1.474
 4994SOL    HW215669   4.372   1.878   1.465
 4995SOL     OW15670   4.330   0.964   0.123
 4995SOL    HW115671   4.337   1.048   0.069
 4995SOL    HW215672   4.376   0.977   0.211
 4996SOL     OW15673   5.318   0.114   1.480
 4996SOL    HW115674   5.300   0.181   1.408
 4996SOL    HW215675   5.315   0.160   1.569
 4997SOL     OW15676   3.846   0.643   0.563
 4997SOL    HW115677   3.801   0.555   0.580
 4997SOL    HW215678   3.845   0.697   0.647
 4998SOL     OW15679   3.751   1.596   0.117
 4998SOL    HW115680   3.732   1.500   0.138
 4998SOL    HW215681   3.718   1.654   0.192
 4999SOL     OW15682   5.413   0.922   0.612
 4999SOL    HW115683   5.508   0.893   0.620
 4999SOL    HW215684   5.405   0.987   0.537
 5000SOL     OW15685   3.837   0.737   1.597
 5000SOL    HW115686   3.925   0.724   1.642
 5000SOL    HW215687   3.824   0.834   1.575
 5001SOL     OW15688   4.337   1.365   0.726
 5001SOL    HW115689   4.288   1.278   0.735
 5001SOL    HW215690   4.314   1.408   0.639
 5002SOL     OW15691   5.017   1.228   1.423
 5002SOL    HW115692   5.054   1.155   1.365
 5002SOL    HW215693   5.069   1.233   1.508
 5003SOL     OW15694   4.533   0.004   0.502
 5003SOL    HW115695   4.573   0.095   0.493
 5003SOL    HW215696   4.433   0.012   0.508
 5004SOL     OW15697   3.921   0.976   1.264
 5004SOL    HW115698   4.010   0.931   1.250
 5004SOL    HW215699   3.848   0.911   1.245
 5005SOL     OW15700   4.911   1.792   1.616
 5005SOL    HW115701   4.935   1.852   1.540
 5005SOL    HW215702   4.918   1.697   1.586
 5006SOL     OW15703   4.041   0.251   1.801
 5006SOL    HW115704   4.112   0.322   1.807
 5006SOL    HW215705   3.953   0.290   1.829
 5007SOL     OW15706   5.190   1.417   0.953
 5007SOL    HW115707   5.131   1.423   1.033
 5007SOL    HW215708   5.175   1.329   0.907
 5008SOL     OW15709   4.322   0.729   0.270
 5008SOL    HW115710   4.346   0.798   0.202
 5008SOL    HW215711   4.244   0.762   0.324
 5009SOL     OW15712   5.005   0.345   0.944
 5009SOL    HW115713   4.919   0.295   0.931
 5009SOL    HW215714   5.067   0.291   1.000
 5010SOL     OW15715   4.531   0.605   1.465
 5010SOL    HW115716   4.484   0.602   1.554
 5010SOL    HW215717   4.480   0.550   1.399
 5011SOL     OW15718   5.118   0.469   1.674
 5011SOL    HW115719   5.098   0.512   1.762
 5011SOL    HW215720   5.196   0.407   1.683
 5012SOL     OW15721   4.697   0.890   1.572
 5012SOL    HW115722   4.743   0.806   1.543
 5012SOL    HW215723   4.641   0.924   1.497
 5013SOL     OW15724   4.715   0.410   1.242
 5013SOL    HW115725   4.638   0.444   1.296
 5013SOL    HW215726   4.681   0.359   1.163
 5014SOL     OW15727   4.765   0.701   0.429
 5014SOL    HW115728   4.791   0.697   0.525
 5014SOL    HW215729   4.680   0.650   0.415
 5015SOL     OW15730   3.800   0.811   0.789
 5015SOL    HW115731   3.899   0.799   0.798
 5015SOL    HW215732   3.776   0.906   0.810
 5016SOL     OW15733   3.854   1.821   1.571
 5016SOL    HW115734   3.844   1.806   1.670
 5016SOL    HW215735   3.768   1.857   1.535
 5017SOL     OW15736   4.589   0.348   0.195
 5017SOL    HW115737   4.648   0.411   0.146
 5017SOL    HW215738   4.608   0.254   0.166
 5018SOL     OW15739   5.086   1.144   0.545
 5018SOL    HW115740   5.169   1.115   0.497
 5018SOL    HW215741   5.037   1.211   0.489
 5019SOL     OW15742   4.274   0.196   0.885
 5019SOL    HW115743   4.269   0.191   0.985
 5019SOL    HW215744   4.276   0.292   0.856
 5020SOL     OW15745   4.732   1.456   0.477
 5020SOL    HW115746   4.686   1.528   0.425
 5020SOL    HW215747   4.728   1.476   0.575
 5021SOL     OW15748   4.075   1.801   0.853
 5021SOL    HW115749   4.125   1.715   0.859
 5021SOL    HW215750   4.140   1.878   0.850
 5022SOL     OW15751   4.951   1.550   1.506
 5022SOL    HW115752   4.957   1.473   1.570
 5022SOL    HW215753   4.899   1.524   1.426
 5023SOL     OW15754   4.045   0.943   0.242
 5023SOL    HW115755   4.127   0.982   0.200
 5023SOL    HW215756   4.018   0.861   0.193
 5024SOL     OW15757   4.185   1.266   1.727
 5024SOL    HW115758   4.135   1.267   1.641
 5024SOL    HW215759   4.122   1.248   1.803
 5025SOL     OW15760   4.835   1.776   0.237
 5025SOL    HW115761   4.775   1.714   0.287
 5025SOL    HW215762   4.866   1.732   0.152
 5026SOL     OW15763   3.926   0.285   1.498
 5026SOL    HW115764   3.846   0.345   1.485
 5026SOL    HW215765   3.916   0.236   1.584
 5027SOL     OW15766   4.188   1.743   0.323
 5027SOL    HW115767   4.221   1.782   0.409
 5027SOL    HW215768   4.264   1.736   0.258
 5028SOL     OW15769   5.124   0.107   0.426
 5028SOL    HW115770   5.100   0.070   0.336
 5028SOL    HW215771   5.223   0.123   0.430
 5029SOL     OW15772   3.973   1.785   1.241
 5029SOL    HW115773   4.030   1.720   1.291
 5029SOL    HW215774   3.957   1.752   1.148
 5030SOL     OW15775   4.664   1.698   0.904
 5030SOL    HW115776   4.744   1.641   0.925
 5030SOL    HW215777   4.615   1.658   0.827
 5031SOL     OW15778   4.106   0.700   0.480
 5031SOL    HW115779   4.151   0.610   0.477
 5031SOL    HW215780   4.012   0.689   0.513
 5032SOL     OW15781   4.338   0.122   0.117
 5032SOL    HW115782   4.436   0.100   0.124
 5032SOL    HW215783   4.307   0.105   0.024
 5033SOL     OW15784   4.505   0.264   1.749
 5033SOL    HW115785   4.572   0.203   1.792
 5033SOL    HW215786   4.432   0.283   1.814
 5034SOL     OW15787   4.612   1.514   1.195
 5034SOL    HW115788   4.589   1.489   1.101
 5034SOL    HW215789   4.673   1.445   1.234
 5035SOL     OW15790   5.075   0.590   1.433
 5035SOL    HW115791   5.103   0.547   1.518
 5035SOL    HW215792   5.100   0.686   1.434
 5036SOL     OW15793   4.527   1.402   0.924
 5036SOL    HW115794   4.617   1.416   0.882
 5036SOL    HW215795   4.456   1.404   0.853
 5037SOL     OW15796   4.646   0.503   0.899
 5037SOL    HW115797   4.621   0.494   0.803
 5037SOL    HW215798   4.694   0.421   0.930
 5038SOL     OW15799   4.263   0.064   0.512
 5038SOL    HW115800   4.182   0.065   0.570
 5038SOL    HW215801   4.266   0.147   0.457
 5039SOL     OW15802   5.158   1.188   0.041
 5039SOL    HW115803   5.190   1.112   0.098
 5039SOL    HW215804   5.066   1.215   0.071
 5040SOL     OW15805   4.021   0.035   0.171
 5040SOL    HW115806   4.070   0.119   0.150
 5040SOL    HW215807   4.083  -0.030   0.216
 5041SOL     OW15808   4.659   0.236   0.480
 5041SOL    HW115809   4.611   0.277   0.402
 5041SOL    HW215810   4.758   0.234   0.461
 5042SOL     OW15811   4.800   0.683   1.464
 5042SOL    HW115812   4.720   0.622   1.467
 5042SOL    HW215813   4.881   0.630   1.440
 5043SOL     OW15814   4.951   1.570   0.793
 5043SOL    HW115815   4.972   1.644   0.728
 5043SOL    HW215816   5.019   1.570   0.866
 5044SOL     OW15817   4.183   1.152   0.741
 5044SOL    HW115818   4.112   1.125   0.806
 5044SOL    HW215819   4.157   1.124   0.648
 5045SOL     OW15820   4.995   1.797   0.591
 5045SOL    HW115821   5.039   1.861   0.527
 5045SOL    HW215822   4.945   1.849   0.661
 5046SOL     OW15823   4.756   0.549   0.016
 5046SOL    HW115824   4.715   0.631  -0.023
 5046SOL    HW215825   4.820   0.575   0.089
 5047SOL     OW15826   3.802   0.556   1.386
 5047SOL    HW115827   3.894   0.555   1.345
 5047SOL    HW215828   3.796   0.630   1.453
 5048SOL     OW15829   4.285   0.222   1.147
 5048SOL    HW115830   4.323   0.138   1.184
 5048SOL    HW215831   4.197   0.241   1.191
 5049SOL     OW15832   4.590   0.454   0.642
 5049SOL    HW115833   4.558   0.526   0.580
 5049SOL    HW215834   4.614   0.373   0.589
 5050SOL     OW15835   4.741   0.039   0.753
 5050SOL    HW115836   4.669   0.044   0.684
 5050SOL    HW215837   4.717  -0.030   0.822
 5051SOL     OW15838   5.153   1.173   0.867
 5051SOL    HW115839   5.098   1.089   0.860
 5051SOL    HW215840   5.179   1.202   0.775
 5052SOL     OW15841   4.212   1.385   0.174
 5052SOL    HW115842   4.125   1.370   0.221
 5052SOL    HW215843   4.195   1.411   0.079
 5053SOL     OW15844   5.114   0.575   0.078
 5053SOL    HW115845   5.060   0.554   0.159
 5053SOL    HW215846   5.205   0.534   0.087
 5054SOL     OW15847   4.251   0.256   0.328
 5054SOL    HW115848   4.278   0.197   0.253
 5054SOL    HW215849   4.251   0.351   0.297
 5055SOL     OW15850   4.788   1.347   1.340
 5055SOL    HW115851   4.708   1.324   1.395
 5055SOL    HW215852   4.871   1.321   1.389
 5056SOL     OW15853   5.316   1.629   1.625
 5056SOL    HW115854   5.343   1.663   1.535
 5056SOL    HW215855   5.395   1.591   1.671
 5057SOL     OW15856   4.835   1.195   1.100
 5057SOL    HW115857   4.795   1.239   1.181
 5057SOL    HW215858   4.794   1.232   1.017
 5058SOL     OW15859   4.639   0.089   1.402
 5058SOL    HW115860   4.664   0.069   1.307
 5058SOL    HW215861   4.711   0.145   1.444
 5059SOL     OW15862   4.704   1.116   1.719
 5059SOL    HW115863   4.605   1.122   1.729
 5059SOL    HW215864   4.727   1.036   1.663
 5060SOL     OW15865   4.429   1.050   0.368
 5060SOL    HW115866   4.415   1.057   0.467
 5060SOL    HW215867   4.513   0.999   0.350
 5061SOL     OW15868   4.134   0.813   1.251
 5061SOL    HW115869   4.220   0.825   1.301
 5061SOL    HW215870   4.092   0.726   1.278
 5062SOL     OW15871   4.998   0.386   1.262
 5062SOL    HW115872   5.019   0.460   1.326
 5062SOL    HW215873   4.909   0.403   1.219
 5063SOL     OW15874   3.788   1.564   1.331
 5063SOL    HW115875   3.742   1.646   1.297
 5063SOL    HW215876   3.886   1.583   1.340
 5064SOL     OW15877   4.091   1.100   0.501
 5064SOL    HW115878   4.084   1.183   0.445
 5064SOL    HW215879   4.095   1.020   0.441
 5065SOL     OW15880   4.290   0.537   0.865
 5065SOL    HW115881   4.302   0.603   0.791
 5065SOL    HW215882   4.336   0.571   0.948
 5066SOL     OW15883   4.976   1.348   0.388
 5066SOL    HW115884   5.026   1.425   0.428
 5066SOL    HW215885   4.881   1.350   0.420
 5067SOL     OW15886   4.996   1.445   1.142
 5067SOL    HW115887   5.043   1.458   1.229
 5067SOL    HW215888   4.930   1.371   1.151
 5068SOL     OW15889   4.078   1.510   1.329
 5068SOL    HW115890   4.057   1.466   1.242
 5068SOL    HW215891   4.175   1.536   1.332
 5069SOL     OW15892   4.126   0.751   1.598
 5069SOL    HW115893   4.194   0.806   1.551
 5069SOL    HW215894   4.166   0.663   1.625
 5070SOL     OW15895   4.737   0.105   1.770
 5070SOL    HW115896   4.743   0.190   1.718
 5070SOL    HW215897   4.769   0.029   1.713
 5071SOL     OW15898   4.228   0.050   1.740
 5071SOL    HW115899   4.186  -0.007   1.670
 5071SOL    HW215900   4.162   0.119   1.772
 5072SOL     OW15901   4.297   0.870   1.029
 5072SOL    HW115902   4.341   0.959   1.020
 5072SOL    HW215903   4.234   0.870   1.106
 5073SOL     OW15904   5.084   0.862   1.045
 5073SOL    HW115905   5.009   0.862   0.979
 5073SOL    HW215906   5.121   0.770   1.054
 5074SOL     OW15907   4.933   0.525   0.275
 5074SOL    HW115908   4.946   0.441   0.329
 5074SOL    HW215909   4.904   0.599   0.335
 5075SOL     OW15910   4.031   0.213   1.231
 5075SOL    HW115911   4.008   0.250   1.321
 5075SOL    HW215912   4.001   0.118   1.225
 5076SOL     OW15913   3.761   1.310   1.282
 5076SOL    HW115914   3.814   1.261   1.350
 5076SOL    HW215915   3.783   1.408   1.287
 5077SOL     OW15916   4.456   0.634   1.064
 5077SOL    HW115917   4.515   0.608   0.988
 5077SOL    HW215918   4.428   0.730   1.053
 5078SOL     OW15919   4.031   0.063   0.618
 5078SOL    HW115920   4.020   0.157   0.651
 5078SOL    HW215921   4.026   0.000   0.695
 5079SOL     OW15922   5.346   0.367   0.374
 5079SOL    HW115923   5.348   0.291   0.438
 5079SOL    HW215924   5.298   0.444   0.414
 5080SOL     OW15925   4.747   0.766   0.966
 5080SOL    HW115926   4.762   0.787   1.062
 5080SOL    HW215927   4.717   0.671   0.957
 5081SOL     OW15928   4.704   1.573   1.700
 5081SOL    HW115929   4.684   1.617   1.612
 5081SOL    HW215930   4.743   1.482   1.684
 5082SOL     OW15931   4.074   0.898   1.804
 5082SOL    HW115932   4.150   0.942   1.852
 5082SOL    HW215933   4.109   0.851   1.722
 5083SOL     OW15934   5.027   0.838   0.042
 5083SOL    HW115935   5.061   0.745   0.057
 5083SOL    HW215936   5.045   0.865  -0.053
 5084SOL     OW15937   4.792   1.333   0.849
 5084SOL    HW115938   4.799   1.249   0.794
 5084SOL    HW215939   4.854   1.402   0.813
 5085SOL     OW15940   4.043   0.810   0.949
 5085SOL    HW115941   4.136   0.846   0.954
 5085SOL    HW215942   4.037   0.725   1.001
 5086SOL     OW15943   4.063   0.509   1.006
 5086SOL    HW115944   4.011   0.426   0.989
 5086SOL    HW215945   4.140   0.514   0.942
 5087SOL     OW15946   4.862   0.380   1.678
 5087SOL    HW115947   4.817   0.443   1.742
 5087SOL    HW215948   4.955   0.411   1.661
 5088SOL     OW15949   4.884   0.207   1.477
 5088SOL    HW115950   4.884   0.271   1.554
 5088SOL    HW215951   4.912   0.255   1.394
 5089SOL     OW15952   3.732   1.326   0.200
 5089SOL    HW115953   3.639   1.347   0.169
 5089SOL    HW215954   3.742   1.227   0.213
 5090SOL     OW15955   3.812   1.801   0.927
 5090SOL    HW115956   3.770   1.715   0.900
 5090SOL    HW215957   3.906   1.804   0.893
 5091SOL     OW15958   4.228   1.568   0.910
 5091SOL    HW115959   4.294   1.642   0.919
 5091SOL    HW215960   4.272   1.489   0.868
 5092SOL     OW15961   4.726   0.796   1.238
 5092SOL    HW115962   4.767   0.764   1.324
 5092SOL    HW215963   4.630   0.769   1.235
 5093SOL     OW15964   3.764   0.544   1.114
 5093SOL    HW115965   3.849   0.511   1.073
 5093SOL    HW215966   3.777   0.559   1.212
 5094SOL     OW15967   3.913   0.520   1.722
 5094SOL    HW115968   3.972   0.480   1.652
 5094SOL    HW215969   3.855   0.591   1.681
 5095SOL     OW15970   5.093   0.950   1.660
 5095SOL    HW115971   5.132   1.039   1.680
 5095SOL    HW215972   5.103   0.930   1.563
 5096SOL     OW15973   4.539   0.572   0.325
 5096SOL    HW115974   4.546   0.483   0.279
 5096SOL    HW215975   4.445   0.606   0.317
 5097SOL     OW15976   3.976   1.564   1.744
 5097SOL    HW115977   3.946   1.621   1.820
 5097SOL    HW215978   3.969   1.467   1.770
 5098SOL     OW15979   4.395   0.464   1.269
 5098SOL    HW115980   4.361   0.375   1.239
 5098SOL    HW215981   4.421   0.518   1.189
 5099SOL     OW15982   4.654   1.678   1.465
 5099SOL    HW115983   4.630   1.660   1.370
 5099SOL    HW215984   4.684   1.772   1.475
 5100SOL     OW15985   4.197   0.500   0.191
 5100SOL    HW115986   4.258   0.580   0.195
 5100SOL    HW215987   4.102   0.531   0.198
 5101SOL     OW15988   3.883   1.137   1.466
 5101SOL    HW115989   3.905   1.076   1.542
 5101SOL    HW215990   3.893   1.088   1.380
 5102SOL     OW15991   5.071   1.059   1.234
 5102SOL    HW115992   5.095   0.996   1.160
 5102SOL    HW215993   4.981   1.099   1.216
 5103SOL     OW15994   5.026   0.855   0.309
 5103SOL    HW115995   4.940   0.824   0.351
 5103SOL    HW215996   5.022   0.841   0.210
 5104SOL     OW15997   4.976   1.731   1.128
 5104SOL    HW115998   5.060   1.736   1.074
 5104SOL    HW215999   4.953   1.635   1.146
 5105SOL     OW16000   3.807   1.258   1.022
 5105SOL    HW116001   3.802   1.257   1.122
 5105SOL    HW216002   3.724   1.217   0.984
 5106SOL     OW16003   4.412   1.662   1.716
 5106SOL    HW116004   4.356   1.743   1.725
 5106SOL    HW216005   4.464   1.666   1.630
 5107SOL     OW16006   4.627   0.086   0.133
 5107SOL    HW116007   4.678   0.087   0.047
 5107SOL    HW216008   4.683   0.044   0.204
 5108SOL     OW16009   5.112   1.573   0.477
 5108SOL    HW116010   5.179   1.585   0.403
 5108SOL    HW216011   5.072   1.662   0.500
 5109SOL     OW16012   3.854   1.794   1.851
 5109SOL    HW116013   3.813   1.720   1.904
 5109SOL    HW216014   3.918   1.845   1.909
 5110SOL     OW16015   5.004   0.927   0.672
 5110SOL    HW116016   5.064   0.846   0.674
 5110SOL    HW216017   5.044   0.996   0.612
 5111SOL     OW16018   4.554   1.273   1.422
 5111SOL    HW116019   4.549   1.306   1.517
 5111SOL    HW216020   4.468   1.292   1.376
 5112SOL     OW16021   4.396   1.616   0.154
 5112SOL    HW116022   4.405   1.626   0.055
 5112SOL    HW216023   4.356   1.527   0.175
 5113SOL     OW16024   3.987   0.326   0.720
 5113SOL    HW116025   3.908   0.377   0.686
 5113SOL    HW216026   3.978   0.311   0.818
 5114SOL     OW16027   4.918   1.612   0.031
 5114SOL    HW116028   4.924   1.519   0.068
 5114SOL    HW216029   4.859   1.612  -0.049
 5115SOL     OW16030   4.546   1.002   1.372
 5115SOL    HW116031   4.586   1.001   1.280
 5115SOL    HW216032   4.556   1.094   1.412
 5116SOL     OW16033   4.640   0.910   0.291
 5116SOL    HW116034   4.703   0.948   0.223
 5116SOL    HW216035   4.680   0.827   0.330
 5117SOL     OW16036   4.096   1.288   1.490
 5117SOL    HW116037   4.083   1.381   1.456
 5117SOL    HW216038   4.012   1.236   1.477
 5118SOL     OW16039   4.763   1.098   0.696
 5118SOL    HW116040   4.693   1.051   0.750
 5118SOL    HW216041   4.822   1.030   0.653
 5119SOL     OW16042   4.738   0.236   0.971
 5119SOL    HW116043   4.730   0.200   0.878
 5119SOL    HW216044   4.736   0.160   1.036
 5120SOL     OW16045   4.314   1.487   0.491
 5120SOL    HW116046   4.356   1.429   0.421
 5120SOL    HW216047   4.270   1.566   0.447
 5121SOL     OW16048   3.979   1.348   0.290
 5121SOL    HW116049   3.883   1.349   0.263
 5121SOL    HW216050   3.991   1.401   0.374
 5122SOL     OW16051   3.829   1.013   1.726
 5122SOL    HW116052   3.752   0.980   1.780
 5122SOL    HW216053   3.914   0.983   1.768
 5123SOL     OW16054   4.396   0.203   1.489
 5123SOL    HW116055   4.486   0.187   1.449
 5123SOL    HW216056   4.404   0.208   1.588
 5124SOL     OW16057   3.799   0.345   0.033
 5124SOL    HW116058   3.707   0.317   0.004
 5124SOL    HW216059   3.830   0.422  -0.023
 5125SOL     OW16060   5.164   0.856   1.398
 5125SOL    HW116061   5.107   0.908   1.335
 5125SOL    HW216062   5.260   0.868   1.374
 5126SOL     OW16063   3.796   0.166   0.318
 5126SOL    HW116064   3.779   0.249   0.264
 5126SOL    HW216065   3.886   0.129   0.296
 5127SOL     OW16066   4.907   1.335   0.119
 5127SOL    HW116067   4.808   1.324   0.121
 5127SOL    HW216068   4.941   1.350   0.212
 5128SOL     OW16069   4.337   0.842   1.431
 5128SOL    HW116070   4.393   0.923   1.414
 5128SOL    HW216071   4.396   0.762   1.434
 5129SOL     OW16072   4.440   0.565   1.708
 5129SOL    HW116073   4.459   0.630   1.782
 5129SOL    HW216074   4.500   0.485   1.717
 5130SOL     OW16075   5.174   1.220   1.633
 5130SOL    HW116076   5.165   1.210   1.732
 5130SOL    HW216077   5.270   1.213   1.607
 5131SOL     OW16078   4.114   1.741   1.560
 5131SOL    HW116079   4.023   1.782   1.558
 5131SOL    HW216080   4.107   1.647   1.592
 5132SOL     OW16081   4.949   0.325   0.449
 5132SOL    HW116082   5.014   0.251   0.438
 5132SOL    HW216083   4.969   0.375   0.533
 5133SOL     OW16084   4.318   0.745   0.652
 5133SOL    HW116085   4.368   0.830   0.633
 5133SOL    HW216086   4.230   0.747   0.604
 5134SOL     OW16087   4.583   1.374   0.016
 5134SOL    HW116088   4.537   1.389   0.104
 5134SOL    HW216089   4.627   1.459  -0.014
 5135SOL     OW16090   4.385   1.790   0.953
 5135SOL    HW116091   4.339   1.878   0.940
 5135SOL    HW216092   4.484   1.802   0.946
 5136SOL     OW16093   4.583   0.956   0.861
 5136SOL    HW116094   4.637   0.887   0.909
 5136SOL    HW216095   4.551   1.025   0.927
 5137SOL     OW16096   4.807   0.984   0.087
 5137SOL    HW116097   4.784   1.037   0.005
 5137SOL    HW216098   4.888   0.928   0.068
 5138SOL     OW16099   3.945   1.314   1.844
 5138SOL    HW116100   3.880   1.241   1.823
 5138SOL    HW216101   3.949   1.328   1.942
 5139SOL     OW16102   3.803   1.240   0.653
 5139SOL    HW116103   3.802   1.193   0.741
 5139SOL    HW216104   3.885   1.212   0.602
 5140SOL     OW16105   4.396   1.391   1.624
 5140SOL    HW116106   4.318   1.341   1.662
 5140SOL    HW216107   4.393   1.486   1.655
 5141SOL     OW16108   4.152   0.424   0.520
 5141SOL    HW116109   4.182   0.352   0.458
 5141SOL    HW216110   4.113   0.384   0.603
 5142SOL     OW16111   5.429   1.487   1.104
 5142SOL    HW116112   5.336   1.462   1.077
 5142SOL    HW216113   5.455   1.437   1.186
 5143SOL     OW16114   4.041   0.547   1.280
 5143SOL    HW116115   4.079   0.488   1.352
 5143SOL    HW216116   4.081   0.521   1.192
 5144SOL     OW16117   4.536   1.586   0.687
 5144SOL    HW116118   4.568   1.596   0.593
 5144SOL    HW216119   4.457   1.524   0.689
 5145SOL     OW16120   5.148   0.214   1.112
 5145SOL    HW116121   5.200   0.149   1.167
 5145SOL    HW216122   5.099   0.277   1.173
 5146SOL     OW16123   4.725   0.034   1.154
 5146SOL    HW116124   4.662  -0.038   1.123
 5146SOL    HW216125   4.818  -0.002   1.154
 5147SOL     OW16126   4.494   1.330   0.301
 5147SOL    HW116127   4.448   1.243   0.318
 5147SOL    HW216128   4.585   1.327   0.342
 5148SOL     OW16129   4.342   1.567   1.284
 5148SOL    HW116130   4.337   1.649   1.341
 5148SOL    HW216131   4.431   1.564   1.239
 5149SOL     OW16132   5.076   0.052   0.168
 5149SOL    HW116133   5.111   0.011   0.084
 5149SOL    HW216134   4.986   0.014   0.188
 5150SOL     OW16135   5.024   0.453   0.691
 5150SOL    HW116136   4.965   0.533   0.695
 5150SOL    HW216137   5.039   0.418   0.784
 5151SOL     OW16138   5.317   0.221   0.882
 5151SOL    HW116139   5.233   0.220   0.936
 5151SOL    HW216140   5.319   0.304   0.826
 5152SOL     OW16141   3.763   1.077   0.300
 5152SOL    HW116142   3.862   1.066   0.291
 5152SOL    HW216143   3.723   0.991   0.332
 5153SOL     OW16144   4.599   1.646   0.337
 5153SOL    HW116145   4.522   1.611   0.283
 5153SOL    HW216146   4.567   1.717   0.399
 5154SOL     OW16147   3.954   0.628   1.975
 5154SOL    HW116148   3.861   0.626   2.012
 5154SOL    HW216149   3.955   0.589   1.883
 5155SOL     OW16150   3.949   0.275   2.858
 5155SOL    HW116151   3.984   0.258   2.950
 5155SOL    HW216152   3.861   0.230   2.846
 5156SOL     OW16153   3.743   0.368   2.509
 5156SOL    HW116154   3.661   0.411   2.548
 5156SOL    HW216155   3.715   0.295   2.446
 5157SOL     OW16156   4.293   1.275   3.027
 5157SOL    HW116157   4.200   1.268   2.990
 5157SOL    HW216158   4.304   1.364   3.071
 5158SOL     OW16159   5.279   1.511   2.565
 5158SOL    HW116160   5.222   1.495   2.646
 5158SOL    HW216161   5.220   1.521   2.485
 5159SOL     OW16162   4.859   0.703   2.579
 5159SOL    HW116163   4.916   0.781   2.554
 5159SOL    HW216164   4.799   0.729   2.655
 5160SOL     OW16165   4.492   1.144   2.885
 5160SOL    HW116166   4.414   1.161   2.945
 5160SOL    HW216167   4.526   1.231   2.849
 5161SOL     OW16168   4.574   0.798   3.685
 5161SOL    HW116169   4.570   0.874   3.750
 5161SOL    HW216170   4.596   0.834   3.594
 5162SOL     OW16171   4.409   1.012   2.527
 5162SOL    HW116172   4.478   0.996   2.597
 5162SOL    HW216173   4.336   1.069   2.565
 5163SOL     OW16174   4.410   1.161   3.665
 5163SOL    HW116175   4.470   1.240   3.679
 5163SOL    HW216176   4.324   1.192   3.624
 5164SOL     OW16177   4.059   1.435   2.923
 5164SOL    HW116178   3.981   1.404   2.870
 5164SOL    HW216179   4.117   1.493   2.866
 5165SOL     OW16180   5.184   1.505   3.201
 5165SOL    HW116181   5.208   1.599   3.227
 5165SOL    HW216182   5.168   1.451   3.283
 5166SOL     OW16183   4.162   0.392   3.361
 5166SOL    HW116184   4.244   0.336   3.370
 5166SOL    HW216185   4.081   0.334   3.365
 5167SOL     OW16186   3.955   1.713   2.345
 5167SOL    HW116187   3.989   1.790   2.399
 5167SOL    HW216188   3.999   1.713   2.255
 5168SOL     OW16189   4.851   1.341   3.552
 5168SOL    HW116190   4.898   1.341   3.640
 5168SOL    HW216191   4.803   1.254   3.541
 5169SOL     OW16192   3.954   1.434   2.400
 5169SOL    HW116193   3.928   1.530   2.400
 5169SOL    HW216194   3.883   1.380   2.445
 5170SOL     OW16195   3.964   1.091   2.748
 5170SOL    HW116196   3.978   1.007   2.800
 5170SOL    HW216197   3.909   1.155   2.803
 5171SOL     OW16198   4.344   1.786   3.301
 5171SOL    HW116199   4.252   1.769   3.336
 5171SOL    HW216200   4.372   1.878   3.327
 5172SOL     OW16201   4.330   0.964   1.985
 5172SOL    HW116202   4.337   1.048   1.931
 5172SOL    HW216203   4.376   0.977   2.073
 5173SOL     OW16204   5.318   0.114   3.342
 5173SOL    HW116205   5.300   0.181   3.270
 5173SOL    HW216206   5.315   0.160   3.431
 5174SOL     OW16207   3.846   0.643   2.425
 5174SOL    HW116208   3.801   0.555   2.442
 5174SOL    HW216209   3.845   0.697   2.509
 5175SOL     OW16210   3.751   1.596   1.979
 5175SOL    HW116211   3.732   1.500   2.000
 5175SOL    HW216212   3.718   1.654   2.054
 5176SOL     OW16213   5.413   0.922   2.474
 5176SOL    HW116214   5.508   0.893   2.482
 5176SOL    HW216215   5.405   0.987   2.399
 5177SOL     OW16216   3.837   0.737   3.459
 5177SOL    HW116217   3.925   0.724   3.504
 5177SOL    HW216218   3.824   0.834   3.437
 5178SOL     OW16219   4.337   1.365   2.588
 5178SOL    HW116220   4.288   1.278   2.597
 5178SOL    HW216221   4.314   1.408   2.501
 5179SOL     OW16222   5.017   1.228   3.285
 5179SOL    HW116223   5.054   1.155   3.227
 5179SOL    HW216224   5.069   1.233   3.370
 5180SOL     OW16225   4.533   0.004   2.364
 5180SOL    HW116226   4.573   0.095   2.355
 5180SOL    HW216227   4.433   0.012   2.370
 5181SOL     OW16228   3.921   0.976   3.126
 5181SOL    HW116229   4.010   0.931   3.112
 5181SOL    HW216230   3.848   0.911   3.107
 5182SOL     OW16231   4.911   1.792   3.478
 5182SOL    HW116232   4.935   1.852   3.402
 5182SOL    HW216233   4.918   1.697   3.448
 5183SOL     OW16234   4.041   0.251   3.663
 5183SOL    HW116235   4.112   0.322   3.669
 5183SOL    HW216236   3.953   0.290   3.691
 5184SOL     OW16237   5.190   1.417   2.815
 5184SOL    HW116238   5.131   1.423   2.895
 5184SOL    HW216239   5.175   1.329   2.769
 5185SOL     OW16240   4.322   0.729   2.132
 5185SOL    HW116241   4.346   0.798   2.064
 5185SOL    HW216242   4.244   0.762   2.186
 5186SOL     OW16243   5.005   0.345   2.806
 5186SOL    HW116244   4.919   0.295   2.793
 5186SOL    HW216245   5.067   0.291   2.862
 5187SOL     OW16246   4.531   0.605   3.327
 5187SOL    HW116247   4.484   0.602   3.416
 5187SOL    HW216248   4.480   0.550   3.261
 5188SOL     OW16249   5.118   0.469   3.536
 5188SOL    HW116250   5.098   0.512   3.624
 5188SOL    HW216251   5.196   0.407   3.545
 5189SOL     OW16252   4.697   0.890   3.434
 5189SOL    HW116253   4.743   0.806   3.405
 5189SOL    HW216254   4.641   0.924   3.359
 5190SOL     OW16255   4.715   0.410   3.104
 5190SOL    HW116256   4.638   0.444   3.158
 5190SOL    HW216257   4.681   0.359   3.025
 5191SOL     OW16258   4.765   0.701   2.291
 5191SOL    HW116259   4.791   0.697   2.387
 5191SOL    HW216260   4.680   0.650   2.277
 5192SOL     OW16261   3.800   0.811   2.651
 5192SOL    HW116262   3.899   0.799   2.660
 5192SOL    HW216263   3.776   0.906   2.672
 5193SOL     OW16264   3.854   1.821   3.433
 5193SOL    HW116265   3.844   1.806   3.532
 5193SOL    HW216266   3.768   1.857   3.397
 5194SOL     OW16267   4.589   0.348   2.057
 5194SOL    HW116268   4.648   0.411   2.008
 5194SOL    HW216269   4.608   0.254   2.028
 5195SOL     OW16270   5.086   1.144   2.407
 5195SOL    HW116271   5.169   1.115   2.359
 5195SOL    HW216272   5.037   1.211   2.351
 5196SOL     OW16273   4.274   0.196   2.747
 5196SOL    HW116274   4.269   0.191   2.847
 5196SOL    HW216275   4.276   0.292   2.718
 5197SOL     OW16276   4.732   1.456   2.339
 5197SOL    HW116277   4.686   1.528   2.287
 5197SOL    HW216278   4.728   1.476   2.437
 5198SOL     OW16279   4.075   1.801   2.715
 5198SOL    HW116280   4.125   1.715   2.721
 5198SOL    HW216281   4.140   1.878   2.712
 5199SOL     OW16282   4.951   1.550   3.368
 5199SOL    HW116283   4.957   1.473   3.432
 5199SOL    HW216284   4.899   1.524   3.288
 5200SOL     OW16285   4.045   0.943   2.104
 5200SOL    HW116286   4.127   0.982   2.062
 5200SOL    HW216287   4.018   0.861   2.055
 5201SOL     OW16288   4.185   1.266   3.589
 5201SOL    HW116289   4.135   1.267   3.503
 5201SOL    HW216290   4.122   1.248   3.665
 5202SOL     OW16291   4.835   1.776   2.099
 5202SOL    HW116292   4.775   1.714   2.149
 5202SOL    HW216293   4.866   1.732   2.014
 5203SOL     OW16294   3.926   0.285   3.360
 5203SOL    HW116295   3.846   0.345   3.347
 5203SOL    HW216296   3.916   0.236   3.446
 5204SOL     OW16297   4.188   1.743   2.185
 5204SOL    HW116298   4.221   1.782   2.271
 5204SOL    HW216299   4.264   1.736   2.120
 5205SOL     OW16300   5.124   0.107   2.288
 5205SOL    HW116301   5.100   0.070   2.198
 5205SOL    HW216302   5.223   0.123   2.292
 5206SOL     OW16303   3.973   1.785   3.103
 5206SOL    HW116304   4.030   1.720   3.153
 5206SOL    HW216305   3.957   1.752   3.010
 5207SOL     OW16306   4.664   1.698   2.766
 5207SOL    HW116307   4.744   1.641   2.787
 5207SOL    HW216308   4.615   1.658   2.689
 5208SOL     OW16309   4.106   0.700   2.342
 5208SOL    HW116310   4.151   0.610   2.339
 5208SOL    HW216311   4.012   0.689   2.375
 5209SOL     OW16312   4.338   0.122   1.979
 5209SOL    HW116313   4.436   0.100   1.986
 5209SOL    HW216314   4.307   0.105   1.886
 5210SOL     OW16315   4.505   0.264   3.611
 5210SOL    HW116316   4.572   0.203   3.654
 5210SOL    HW216317   4.432   0.283   3.676
 5211SOL     OW16318   4.612   1.514   3.057
 5211SOL    HW116319   4.589   1.489   2.963
 5211SOL    HW216320   4.673   1.445   3.096
 5212SOL     OW16321   5.075   0.590   3.295
 5212SOL    HW116322   5.103   0.547   3.380
 5212SOL    HW216323   5.100   0.686   3.296
 5213SOL     OW16324   4.527   1.402   2.786
 5213SOL    HW116325   4.617   1.416   2.744
 5213SOL    HW216326   4.456   1.404   2.715
 5214SOL     OW16327   4.646   0.503   2.761
 5214SOL    HW116328   4.621   0.494   2.665
 5214SOL    HW216329   4.694   0.421   2.792
 5215SOL     OW16330   4.263   0.064   2.374
 5215SOL    HW116331   4.182   0.065   2.432
 5215SOL    HW216332   4.266   0.147   2.319
 5216SOL     OW16333   5.158   1.188   1.903
 5216SOL    HW116334   5.190   1.112   1.960
 5216SOL    HW216335   5.066   1.215   1.933
 5217SOL     OW16336   4.021   0.035   2.033
 5217SOL    HW116337   4.070   0.119   2.012
 5217SOL    HW216338   4.083  -0.030   2.078
 5218SOL     OW16339   4.659   0.236   2.342
 5218SOL    HW116340   4.611   0.277   2.264
 5218SOL    HW216341   4.758   0.234   2.323
 5219SOL     OW16342   4.800   0.683   3.326
 5219SOL    HW116343   4.720   0.622   3.329
 5219SOL    HW216344   4.881   0.630   3.302
 5220SOL     OW16345   4.951   1.570   2.655
 5220SOL    HW116346   4.972   1.644   2.590
 5220SOL    HW216347   5.019   1.570   2.728
 5221SOL     OW16348   4.183   1.152   2.603
 5221SOL    HW116349   4.112   1.125   2.668
 5221SOL    HW216350   4.157   1.124   2.510
 5222SOL     OW16351   4.995   1.797   2.453
 5222SOL    HW116352   5.039   1.861   2.389
 5222SOL    HW216353   4.945   1.849   2.523
 5223SOL     OW16354   4.756   0.549   1.878
 5223SOL    HW116355   4.715   0.631   1.839
 5223SOL    HW216356   4.820   0.575   1.951
 5224SOL     OW16357   3.802   0.556   3.248
 5224SOL    HW116358   3.894   0.555   3.207
 5224SOL    HW216359   3.796   0.630   3.315
 5225SOL     OW16360   4.285   0.222   3.009
 5225SOL    HW116361   4.323   0.138   3.046
 5225SOL    HW216362   4.197   0.241   3.053
 5226SOL     OW16363   4.590   0.454   2.504
 5226SOL    HW116364   4.558   0.526   2.442
 5226SOL    HW216365   4.614   0.373   2.451
 5227SOL     OW16366   4.741   0.039   2.615
 5227SOL    HW116367   4.669   0.044   2.546
 5227SOL    HW216368   4.717  -0.030   2.684
 5228SOL     OW16369   5.153   1.173   2.729
 5228SOL    HW116370   5.098   1.089   2.722
 5228SOL    HW216371   5.179   1.202   2.637
 5229SOL     OW16372   4.212   1.385   2.036
 5229SOL    HW116373   4.125   1.370   2.083
 5229SOL    HW216374   4.195   1.411   1.941
 5230SOL     OW16375   5.114   0.575   1.940
 5230SOL    HW116376   5.060   0.554   2.021
 5230SOL    HW216377   5.205   0.534   1.949
 5231SOL     OW16378   4.251   0.256   2.190
 5231SOL    HW116379   4.278   0.197   2.115
 5231SOL    HW216380   4.251   0.351   2.159
 5232SOL     OW16381   4.788   1.347   3.202
 5232SOL    HW116382   4.708   1.324   3.257
 5232SOL    HW216383   4.871   1.321   3.251
 5233SOL     OW16384   5.316   1.629   3.487
 5233SOL    HW116385   5.343   1.663   3.397
 5233SOL    HW216386   5.395   1.591   3.533
 5234SOL     OW16387   4.835   1.195   2.962
 5234SOL    HW116388   4.795   1.239   3.043
 5234SOL    HW216389   4.794   1.232   2.879
 5235SOL     OW16390   4.639   0.089   3.264
 5235SOL    HW116391   4.664   0.069   3.169
 5235SOL    HW216392   4.711   0.145   3.306
 5236SOL     OW16393   4.704   1.116   3.581
 5236SOL    HW116394   4.605   1.122   3.591
 5236SOL    HW216395   4.727   1.036   3.525
 5237SOL     OW16396   4.429   1.050   2.230
 5237SOL    HW116397   4.415   1.057   2.329
 5237SOL    HW216398   4.513   0.999   2.212
 5238SOL     OW16399   4.134   0.813   3.113
 5238SOL    HW116400   4.220   0.825   3.163
 5238SOL    HW216401   4.092   0.726   3.140
 5239SOL     OW16402   4.998   0.386   3.124
 5239SOL    HW116403   5.019   0.460   3.188
 5239SOL    HW216404   4.909   0.403   3.081
 5240SOL     OW16405   3.788   1.564   3.193
 5240SOL    HW116406   3.742   1.646   3.159
 5240SOL    HW216407   3.886   1.583   3.202
 5241SOL     OW16408   4.091   1.100   2.363
 5241SOL    HW116409   4.084   1.183   2.307
 5241SOL    HW216410   4.095   1.020   2.303
 5242SOL     OW16411   4.290   0.537   2.727
 5242SOL    HW116412   4.302   0.603   2.653
 5242SOL    HW216413   4.336   0.571   2.810
 5243SOL     OW16414   4.976   1.348   2.250
 5243SOL    HW116415   5.026   1.425   2.290
 5243SOL    HW216416   4.881   1.350   2.282
 5244SOL     OW16417   4.996   1.445   3.004
 5244SOL    HW116418   5.043   1.458   3.091
 5244SOL    HW216419   4.930   1.371   3.013
 5245SOL     OW16420   4.078   1.510   3.191
 5245SOL    HW116421   4.057   1.466   3.104
 5245SOL    HW216422   4.175   1.536   3.194
 5246SOL     OW16423   4.126   0.751   3.460
 5246SOL    HW116424   4.194   0.806   3.413
 5246SOL    HW216425   4.166   0.663   3.487
 5247SOL     OW16426   4.737   0.105   3.632
 5247SOL    HW116427   4.743   0.190   3.580
 5247SOL    HW216428   4.769   0.029   3.575
 5248SOL     OW16429   4.228   0.050   3.602
 5248SOL    HW116430   4.186  -0.007   3.532
 5248SOL    HW216431   4.162   0.119   3.634
 5249SOL     OW16432   4.297   0.870   2.891
 5249SOL    HW116433   4.341   0.959   2.882
 5249SOL    HW216434   4.234   0.870   2.968
 5250SOL     OW16435   5.084   0.862   2.907
 5250SOL    HW116436   5.009   0.862   2.841
 5250SOL    HW216437   5.121   0.770   2.916
 5251SOL     OW16438   4.933   0.525   2.137
 5251SOL    HW116439   4.946   0.441   2.191
 5251SOL    HW216440   4.904   0.599   2.197
 5252SOL     OW16441   4.031   0.213   3.093
 5252SOL    HW116442   4.008   0.250   3.183
 5252SOL    HW216443   4.001   0.118   3.087
 5253SOL     OW16444   3.761   1.310   3.144
 5253SOL    HW116445   3.814   1.261   3.212
 5253SOL    HW216446   3.783   1.408   3.149
 5254SOL     OW16447   4.456   0.634   2.926
 5254SOL    HW116448   4.515   0.608   2.850
 5254SOL    HW216449   4.428   0.730   2.915
 5255SOL     OW16450   4.031   0.063   2.480
 5255SOL    HW116451   4.020   0.157   2.513
 5255SOL    HW216452   4.026   0.000   2.557
 5256SOL     OW16453   5.346   0.367   2.236
 5256SOL    HW116454   5.348   0.291   2.300
 5256SOL    HW216455   5.298   0.444   2.276
 5257SOL     OW16456   4.747   0.766   2.828
 5257SOL    HW116457   4.762   0.787   2.924
 5257SOL    HW216458   4.717   0.671   2.819
 5258SOL     OW16459   4.704   1.573   3.562
 5258SOL    HW116460   4.684   1.617   3.474
 5258SOL    HW216461   4.743   1.482   3.546
 5259SOL     OW16462   4.074   0.898   3.666
 5259SOL    HW116463   4.150   0.942   3.714
 5259SOL    HW216464   4.109   0.851   3.584
 5260SOL     OW16465   5.027   0.838   1.904
 5260SOL    HW116466   5.061   0.745   1.919
 5260SOL    HW216467   5.045   0.865   1.809
 5261SOL     OW16468   4.792   1.333   2.711
 5261SOL    HW116469   4.799   1.249   2.656
 5261SOL    HW216470   4.854   1.402   2.675
 5262SOL     OW16471   4.043   0.810   2.811
 5262SOL    HW116472   4.136   0.846   2.816
 5262SOL    HW216473   4.037   0.725   2.863
 5263SOL     OW16474   4.063   0.509   2.868
 5263SOL    HW116475   4.011   0.426   2.851
 5263SOL    HW216476   4.140   0.514   2.804
 5264SOL     OW16477   4.862   0.380   3.540
 5264SOL    HW116478   4.817   0.443   3.604
 5264SOL    HW216479   4.955   0.411   3.523
 5265SOL     OW16480   4.884   0.207   3.339
 5265SOL    HW116481   4.884   0.271   3.416
 5265SOL    HW216482   4.912   0.255   3.256
 5266SOL     OW16483   3.732   1.326   2.062
 5266SOL    HW116484   3.639   1.347   2.031
 5266SOL    HW216485   3.742   1.227   2.075
 5267SOL     OW16486   3.812   1.801   2.789
 5267SOL    HW116487   3.770   1.715   2.762
 5267SOL    HW216488   3.906   1.804   2.755
 5268SOL     OW16489   4.228   1.568   2.772
 5268SOL    HW116490   4.294   1.642   2.781
 5268SOL    HW216491   4.272   1.489   2.730
 5269SOL     OW16492   4.726   0.796   3.100
 5269SOL    HW116493   4.767   0.764   3.186
 5269SOL    HW216494   4.630   0.769   3.097
 5270SOL     OW16495   3.764   0.544   2.976
 5270SOL    HW116496   3.849   0.511   2.935
 5270SOL    HW216497   3.777   0.559   3.074
 5271SOL     OW16498   3.913   0.520   3.584
 5271SOL    HW116499   3.972   0.480   3.514
 5271SOL    HW216500   3.855   0.591   3.543
 5272SOL     OW16501   5.093   0.950   3.522
 5272SOL    HW116502   5.132   1.039   3.542
 5272SOL    HW216503   5.103   0.930   3.425
 5273SOL     OW16504   4.539   0.572   2.187
 5273SOL    HW116505   4.546   0.483   2.141
 5273SOL    HW216506   4.445   0.606   2.179
 5274SOL     OW16507   3.976   1.564   3.606
 5274SOL    HW116508   3.946   1.621   3.682
 5274SOL    HW216509   3.969   1.467   3.632
 5275SOL     OW16510   4.395   0.464   3.131
 5275SOL    HW116511   4.361   0.375   3.101
 5275SOL    HW216512   4.421   0.518   3.051
 5276SOL     OW16513   4.654   1.678   3.327
 5276SOL    HW116514   4.630   1.660   3.232
 5276SOL    HW216515   4.684   1.772   3.337
 5277SOL     OW16516   4.197   0.500   2.053
 5277SOL    HW116517   4.258   0.580   2.057
 5277SOL    HW216518   4.102   0.531   2.060
 5278SOL     OW16519   3.883   1.137   3.328
 5278SOL    HW116520   3.905   1.076   3.404
 5278SOL    HW216521   3.893   1.088   3.242
 5279SOL     OW16522   5.071   1.059   3.096
 5279SOL    HW116523   5.095   0.996   3.022
 5279SOL    HW216524   4.981   1.099   3.078
 5280SOL     OW16525   5.026   0.855   2.171
 5280SOL    HW116526   4.940   0.824   2.213
 5280SOL    HW216527   5.022   0.841   2.072
 5281SOL     OW16528   4.976   1.731   2.990
 5281SOL    HW116529   5.060   1.736   2.936
 5281SOL    HW216530   4.953   1.635   3.008
 5282SOL     OW16531   3.807   1.258   2.884
 5282SOL    HW116532   3.802   1.257   2.984
 5282SOL    HW216533   3.724   1.217   2.846
 5283SOL     OW16534   4.412   1.662   3.578
 5283SOL    HW116535   4.356   1.743   3.587
 5283SOL    HW216536   4.464   1.666   3.492
 5284SOL     OW16537   5.112   1.573   2.339
 5284SOL    HW116538   5.179   1.585   2.265
 5284SOL    HW216539   5.072   1.662   2.362
 5285SOL     OW16540   3.854   1.794   3.713
 5285SOL    HW116541   3.813   1.720   3.766
 5285SOL    HW216542   3.918   1.845   3.771
 5286SOL     OW16543   5.004   0.927   2.534
 5286SOL    HW116544   5.064   0.846   2.536
 5286SOL    HW216545   5.044   0.996   2.474
 5287SOL     OW16546   4.554   1.273   3.284
 5287SOL    HW116547   4.549   1.306   3.379
 5287SOL    HW216548   4.468   1.292   3.238
 5288SOL     OW16549   4.396   1.616   2.016
 5288SOL    HW116550   4.405   1.626   1.917
 5288SOL    HW216551   4.356   1.527   2.037
 5289SOL     OW16552   3.987   0.326   2.582
 5289SOL    HW116553   3.908   0.377   2.548
 5289SOL    HW216554   3.978   0.311   2.680
 5290SOL     OW16555   4.918   1.612   1.893
 5290SOL    HW116556   4.924   1.519   1.930
 5290SOL    HW216557   4.859   1.612   1.813
 5291SOL     OW16558   4.546   1.002   3.234
 5291SOL    HW116559   4.586   1.001   3.142
 5291SOL    HW216560   4.556   1.094   3.274
 5292SOL     OW16561   4.640   0.910   2.153
 5292SOL    HW116562   4.703   0.948   2.085
 5292SOL    HW216563   4.680   0.827   2.192
 5293SOL     OW16564   4.096   1.288   3.352
 5293SOL    HW116565   4.083   1.381   3.318
 5293SOL    HW216566   4.012   1.236   3.339
 5294SOL     OW16567   4.763   1.098   2.558
 5294SOL    HW116568   4.693   1.051   2.612
 5294SOL    HW216569   4.822   1.030   2.515
 5295SOL     OW16570   4.738   0.236   2.833
 5295SOL    HW116571   4.730   0.200   2.740
 5295SOL    HW216572   4.736   0.160   2.898
 5296SOL     OW16573   4.314   1.487   2.353
 5296SOL    HW116574   4.356   1.429   2.283
 5296SOL    HW216575   4.270   1.566   2.309
 5297SOL     OW16576   3.979   1.348   2.152
 5297SOL    HW116577   3.883   1.349   2.125
 5297SOL    HW216578   3.991   1.401   2.236
 5298SOL     OW16579   3.829   1.013   3.588
 5298SOL    HW116580   3.752   0.980   3.642
 5298SOL    HW216581   3.914   0.983   3.630
 5299SOL     OW16582   4.396   0.203   3.351
 5299SOL    HW116583   4.486   0.187   3.311
 5299SOL    HW216584   4.404   0.208   3.450
 5300SOL     OW16585   3.799   0.345   1.895
 5300SOL    HW116586   3.707   0.317   1.866
 5300SOL    HW216587   3.830   0.422   1.839
 5301SOL     OW16588   5.164   0.856   3.260
 5301SOL    HW116589   5.107   0.908   3.197
 5301SOL    HW216590   5.260   0.868   3.236
 5302SOL     OW16591   3.796   0.166   2.180
 5302SOL    HW116592   3.779   0.249   2.126
 5302SOL    HW216593   3.886   0.129   2.158
 5303SOL     OW16594   4.907   1.335   1.981
 5303SOL    HW116595   4.808   1.324   1.983
 5303SOL    HW216596   4.941   1.350   2.074
 5304SOL     OW16597   4.337   0.842   3.293
 5304SOL    HW116598   4.393   0.923   3.276
 5304SOL    HW216599   4.396   0.762   3.296
 5305SOL     OW16600   4.440   0.565   3.570
 5305SOL    HW116601   4.459   0.630   3.644
 5305SOL    HW216602   4.500   0.485   3.579
 5306SOL     OW16603   5.174   1.220   3.495
 5306SOL    HW116604   5.165   1.210   3.594
 5306SOL    HW216605   5.270   1.213   3.469
 5307SOL     OW16606   4.114   1.741   3.422
 5307SOL    HW116607   4.023   1.782   3.420
 5307SOL    HW216608   4.107   1.647   3.454
 5308SOL     OW16609   4.949   0.325   2.311
 5308SOL    HW116610   5.014   0.251   2.300
 5308SOL    HW216611   4.969   0.375   2.395
 5309SOL     OW16612   4.318   0.745   2.514
 5309SOL    HW116613   4.368   0.830   2.495
 5309SOL    HW216614   4.230   0.747   2.466
 5310SOL     OW16615   4.583   1.374   1.878
 5310SOL    HW116616   4.537   1.389   1.966
 5310SOL    HW216617   4.627   1.459   1.848
 5311SOL     OW16618   4.385   1.790   2.815
 5311SOL    HW116619   4.339   1.878   2.802
 5311SOL    HW216620   4.484   1.802   2.808
 5312SOL     OW16621   4.583   0.956   2.723
 5312SOL    HW116622   4.637   0.887   2.771
 5312SOL    HW216623   4.551   1.025   2.789
 5313SOL     OW16624   4.807   0.984   1.949
 5313SOL    HW116625   4.784   1.037   1.867
 5313SOL    HW216626   4.888   0.928   1.930
 5314SOL     OW16627   3.945   1.314   3.706
 5314SOL    HW116628   3.880   1.241   3.685
 5314SOL    HW216629   3.949   1.328   3.804
 5315SOL     OW16630   3.803   1.240   2.515
 5315SOL    HW116631   3.802   1.193   2.603
 5315SOL    HW216632   3.885   1.212   2.464
 5316SOL     OW16633   4.396   1.391   3.486
 5316SOL    HW116634   4.318   1.341   3.524
 5316SOL    HW216635   4.393   1.486   3.517
 5317SOL     OW16636   4.152   0.424   2.382
 5317SOL    HW116637   4.182   0.352   2.320
 5317SOL    HW216638   4.113   0.384   2.465
 5318SOL     OW16639   5.429   1.487   2.966
 5318SOL    HW116640   5.336   1.462   2.939
 5318SOL    HW216641   5.455   1.437   3.048
 5319SOL     OW16642   4.041   0.547   3.142
 5319SOL    HW116643   4.079   0.488   3.214
 5319SOL    HW216644   4.081   0.521   3.054
 5320SOL     OW16645   4.536   1.586   2.549
 5320SOL    HW116646   4.568   1.596   2.455
 5320SOL    HW216647   4.457   1.524   2.551
 5321SOL     OW16648   5.148   0.214   2.974
 5321SOL    HW116649   5.200   0.149   3.029
 5321SOL    HW216650   5.099   0.277   3.035
 5322SOL     OW16651   4.725   0.034   3.016
 5322SOL    HW116652   4.662  -0.038   2.985
 5322SOL    HW216653   4.818  -0.002   3.016
 5323SOL     OW16654   4.494   1.330   2.163
 5323SOL    HW116655   4.448   1.243   2.180
 5323SOL    HW216656   4.585   1.327   2.204
 5324SOL     OW16657   4.342   1.567   3.146
 5324SOL    HW116658   4.337   1.649   3.203
 5324SOL    HW216659   4.431   1.564   3.101
 5325SOL     OW16660   5.076   0.052   2.030
 5325SOL    HW116661   5.111   0.011   1.946
 5325SOL    HW216662   4.986   0.014   2.050
 5326SOL     OW16663   5.024   0.453   2.553
 5326SOL    HW116664   4.965   0.533   2.557
 5326SOL    HW216665   5.039   0.418   2.646
 5327SOL     OW16666   5.317   0.221   2.744
 5327SOL    HW116667   5.233   0.220   2.798
 5327SOL    HW216668   5.319   0.304   2.688
 5328SOL     OW16669   3.763   1.077   2.162
 5328SOL    HW116670   3.862   1.066   2.153
 5328SOL    HW216671   3.723   0.991   2.194
 5329SOL     OW16672   4.599   1.646   2.199
 5329SOL    HW116673   4.522   1.611   2.145
 5329SOL    HW216674   4.567   1.717   2.261
 5330SOL     OW16675   3.954   0.628   3.837
 5330SOL    HW116676   3.861   0.626   3.874
 5330SOL    HW216677   3.955   0.589   3.745
 5331SOL     OW16678   3.949   0.275   4.720
 5331SOL    HW116679   3.984   0.258   4.812
 5331SOL    HW216680   3.861   0.230   4.708
 5332SOL     OW16681   3.743   0.368   4.371
 5332SOL    HW116682   3.661   0.411   4.410
 5332SOL    HW216683   3.715   0.295   4.308
 5333SOL     OW16684   4.293   1.275   4.889
 5333SOL    HW116685   4.200   1.268   4.852
 5333SOL    HW216686   4.304   1.364   4.933
 5334SOL     OW16687   5.279   1.511   4.427
 5334SOL    HW116688   5.222   1.495   4.508
 5334SOL    HW216689   5.220   1.521   4.347
 5335SOL     OW16690   4.859   0.703   4.441
 5335SOL    HW116691   4.916   0.781   4.416
 5335SOL    HW216692   4.799   0.729   4.517
 5336SOL     OW16693   4.492   1.144   4.747
 5336SOL    HW116694   4.414   1.161   4.807
 5336SOL    HW216695   4.526   1.231   4.711
 5337SOL     OW16696   4.574   0.798   5.547
 5337SOL    HW116697   4.570   0.874   5.612
 5337SOL    HW216698   4.596   0.834   5.456
 5338SOL     OW16699   4.409   1.012   4.389
 5338SOL    HW116700   4.478   0.996   4.459
 5338SOL    HW216701   4.336   1.069   4.427
 5339SOL     OW16702   4.410   1.161   5.527
 5339SOL    HW116703   4.470   1.240   5.541
 5339SOL    HW216704   4.324   1.192   5.486
 5340SOL     OW16705   4.059   1.435   4.785
 5340SOL    HW116706   3.981   1.404   4.732
 5340SOL    HW216707   4.117   1.493   4.728
 5341SOL     OW16708   5.184   1.505   5.063
 5341SOL    HW116709   5.208   1.599   5.089
 5341SOL    HW216710   5.168   1.451   5.145
 5342SOL     OW16711   4.162   0.392   5.223
 5342SOL    HW116712   4.244   0.336   5.232
 5342SOL    HW216713   4.081   0.334   5.227
 5343SOL     OW16714   3.955   1.713   4.207
 5343SOL    HW116715   3.989   1.790   4.261
 5343SOL    HW216716   3.999   1.713   4.117
 5344SOL     OW16717   4.851   1.341   5.414
 5344SOL    HW116718   4.898   1.341   5.502
 5344SOL    HW216719   4.803   1.254   5.403
 5345SOL     OW16720   3.954   1.434   4.262
 5345SOL    HW116721   3.928   1.530   4.262
 5345SOL    HW216722   3.883   1.380   4.307
 5346SOL     OW16723   3.964   1.091   4.610
 5346SOL    HW116724   3.978   1.007   4.662
 5346SOL    HW216725   3.909   1.155   4.665
 5347SOL     OW16726   4.344   1.786   5.163
 5347SOL    HW116727   4.252   1.769   5.198
 5347SOL    HW216728   4.372   1.878   5.189
 5348SOL     OW16729   4.330   0.964   3.847
 5348SOL    HW116730   4.337   1.048   3.793
 5348SOL    HW216731   4.376   0.977   3.935
 5349SOL     OW16732   5.318   0.114   5.204
 5349SOL    HW116733   5.300   0.181   5.132
 5349SOL    HW216734   5.315   0.160   5.293
 5350SOL     OW16735   3.846   0.643   4.287
 5350SOL    HW116736   3.801   0.555   4.304
 5350SOL    HW216737   3.845   0.697   4.371
 5351SOL     OW16738   3.751   1.596   3.841
 5351SOL    HW116739   3.732   1.500   3.862
 5351SOL    HW216740   3.718   1.654   3.916
 5352SOL     OW16741   5.413   0.922   4.336
 5352SOL    HW116742   5.508   0.893   4.344
 5352SOL    HW216743   5.405   0.987   4.261
 5353SOL     OW16744   3.837   0.737   5.321
 5353SOL    HW116745   3.925   0.724   5.366
 5353SOL    HW216746   3.824   0.834   5.299
 5354SOL     OW16747   4.337   1.365   4.450
 5354SOL    HW116748   4.288   1.278   4.459
 5354SOL    HW216749   4.314   1.408   4.363
 5355SOL     OW16750   5.017   1.228   5.147
 5355SOL    HW116751   5.054   1.155   5.089
 5355SOL    HW216752   5.069   1.233   5.232
 5356SOL     OW16753   4.533   0.004   4.226
 5356SOL    HW116754   4.573   0.095   4.217
 5356SOL    HW216755   4.433   0.012   4.232
 5357SOL     OW16756   3.921   0.976   4.988
 5357SOL    HW116757   4.010   0.931   4.974
 5357SOL    HW216758   3.848   0.911   4.969
 5358SOL     OW16759   4.911   1.792   5.340
 5358SOL    HW116760   4.935   1.852   5.264
 5358SOL    HW216761   4.918   1.697   5.310
 5359SOL     OW16762   4.041   0.251   5.525
 5359SOL    HW116763   4.112   0.322   5.531
 5359SOL    HW216764   3.953   0.290   5.553
 5360SOL     OW16765   5.190   1.417   4.677
 5360SOL    HW116766   5.131   1.423   4.757
 5360SOL    HW216767   5.175   1.329   4.631
 5361SOL     OW16768   4.322   0.729   3.994
 5361SOL    HW116769   4.346   0.798   3.926
 5361SOL    HW216770   4.244   0.762   4.048
 5362SOL     OW16771   5.005   0.345   4.668
 5362SOL    HW116772   4.919   0.295   4.655
 5362SOL    HW216773   5.067   0.291   4.724
 5363SOL     OW16774   4.531   0.605   5.189
 5363SOL    HW116775   4.484   0.602   5.278
 5363SOL    HW216776   4.480   0.550   5.123
 5364SOL     OW16777   5.118   0.469   5.398
 5364SOL    HW116778   5.098   0.512   5.486
 5364SOL    HW216779   5.196   0.407   5.407
 5365SOL     OW16780   4.697   0.890   5.296
 5365SOL    HW116781   4.743   0.806   5.267
 5365SOL    HW216782   4.641   0.924   5.221
 5366SOL     OW16783   4.715   0.410   4.966
 5366SOL    HW116784   4.638   0.444   5.020
 5366SOL    HW216785   4.681   0.359   4.887
 5367SOL     OW16786   4.765   0.701   4.153
 5367SOL    HW116787   4.791   0.697   4.249
 5367SOL    HW216788   4.680   0.650   4.139
 5368SOL     OW16789   3.800   0.811   4.513
 5368SOL    HW116790   3.899   0.799   4.522
 5368SOL    HW216791   3.776   0.906   4.534
 5369SOL     OW16792   3.854   1.821   5.295
 5369SOL    HW116793   3.844   1.806   5.394
 5369SOL    HW216794   3.768   1.857   5.259
 5370SOL     OW16795   4.589   0.348   3.919
 5370SOL    HW116796   4.648   0.411   3.870
 5370SOL    HW216797   4.608   0.254   3.890
 5371SOL     OW16798   5.086   1.144   4.269
 5371SOL    HW116799   5.169   1.115   4.221
 5371SOL    HW216800   5.037   1.211   4.213
 5372SOL     OW16801   4.274   0.196   4.609
 5372SOL    HW116802   4.269   0.191   4.709
 5372SOL    HW216803   4.276   0.292   4.580
 5373SOL     OW16804   4.732   1.456   4.201
 5373SOL    HW116805   4.686   1.528   4.149
 5373SOL    HW216806   4.728   1.476   4.299
 5374SOL     OW16807   4.075   1.801   4.577
 5374SOL    HW116808   4.125   1.715   4.583
 5374SOL    HW216809   4.140   1.878   4.574
 5375SOL     OW16810   4.951   1.550   5.230
 5375SOL    HW116811   4.957   1.473   5.294
 5375SOL    HW216812   4.899   1.524   5.150
 5376SOL     OW16813   4.045   0.943   3.966
 5376SOL    HW116814   4.127   0.982   3.924
 5376SOL    HW216815   4.018   0.861   3.917
 5377SOL     OW16816   4.185   1.266   5.451
 5377SOL    HW116817   4.135   1.267   5.365
 5377SOL    HW216818   4.122   1.248   5.527
 5378SOL     OW16819   4.835   1.776   3.961
 5378SOL    HW116820   4.775   1.714   4.011
 5378SOL    HW216821   4.866   1.732   3.876
 5379SOL     OW16822   3.926   0.285   5.222
 5379SOL    HW116823   3.846   0.345   5.209
 5379SOL    HW216824   3.916   0.236   5.308
 5380SOL     OW16825   4.188   1.743   4.047
 5380SOL    HW116826   4.221   1.782   4.133
 5380SOL    HW216827   4.264   1.736   3.982
 5381SOL     OW16828   5.124   0.107   4.150
 5381SOL    HW116829   5.100   0.070   4.060
 5381SOL    HW216830   5.223   0.123   4.154
 5382SOL     OW16831   3.973   1.785   4.965
 5382SOL    HW116832   4.030   1.720   5.015
 5382SOL    HW216833   3.957   1.752   4.872
 5383SOL     OW16834   4.664   1.698   4.628
 5383SOL    HW116835   4.744   1.641   4.649
 5383SOL    HW216836   4.615   1.658   4.551
 5384SOL     OW16837   4.106   0.700   4.204
 5384SOL    HW116838   4.151   0.610   4.201
 5384SOL    HW216839   4.012   0.689   4.237
 5385SOL     OW16840   4.338   0.122   3.841
 5385SOL    HW116841   4.436   0.100   3.848
 5385SOL    HW216842   4.307   0.105   3.748
 5386SOL     OW16843   4.505   0.264   5.473
 5386SOL    HW116844   4.572   0.203   5.516
 5386SOL    HW216845   4.432   0.283   5.538
 5387SOL     OW16846   4.612   1.514   4.919
 5387SOL    HW116847   4.589   1.489   4.825
 5387SOL    HW216848   4.673   1.445   4.958
 5388SOL     OW16849   5.075   0.590   5.157
 5388SOL    HW116850   5.103   0.547   5.242
 5388SOL    HW216851   5.100   0.686   5.158
 5389SOL     OW16852   4.527   1.402   4.648
 5389SOL    HW116853   4.617   1.416   4.606
 5389SOL    HW216854   4.456   1.404   4.577
 5390SOL     OW16855   4.646   0.503   4.623
 5390SOL    HW116856   4.621   0.494   4.527
 5390SOL    HW216857   4.694   0.421   4.654
 5391SOL     OW16858   4.263   0.064   4.236
 5391SOL    HW116859   4.182   0.065   4.294
 5391SOL    HW216860   4.266   0.147   4.181
 5392SOL     OW16861   5.158   1.188   3.765
 5392SOL    HW116862   5.190   1.112   3.822
 5392SOL    HW216863   5.066   1.215   3.795
 5393SOL     OW16864   4.021   0.035   3.895
 5393SOL    HW116865   4.070   0.119   3.874
 5393SOL    HW216866   4.083  -0.030   3.940
 5394SOL     OW16867   4.659   0.236   4.204
 5394SOL    HW116868   4.611   0.277   4.126
 5394SOL    HW216869   4.758   0.234   4.185
 5395SOL     OW16870   4.800   0.683   5.188
 5395SOL    HW116871   4.720   0.622   5.191
 5395SOL    HW216872   4.881   0.630   5.164
 5396SOL     OW16873   4.951   1.570   4.517
 5396SOL    HW116874   4.972   1.644   4.452
 5396SOL    HW216875   5.019   1.570   4.590
 5397SOL     OW16876   4.183   1.152   4.465
 5397SOL    HW116877   4.112   1.125   4.530
 5397SOL    HW216878   4.157   1.124   4.372
 5398SOL     OW16879   4.995   1.797   4.315
 5398SOL    HW116880   5.039   1.861   4.251
 5398SOL    HW216881   4.945   1.849   4.385
 5399SOL     OW16882   4.756   0.549   3.740
 5399SOL    HW116883   4.715   0.631   3.701
 5399SOL    HW216884   4.820   0.575   3.813
 5400SOL     OW16885   3.802   0.556   5.110
 5400SOL    HW116886   3.894   0.555   5.069
 5400SOL    HW216887   3.796   0.630   5.177
 5401SOL     OW16888   4.285   0.222   4.871
 5401SOL    HW116889   4.323   0.138   4.908
 5401SOL    HW216890   4.197   0.241   4.915
 5402SOL     OW16891   4.590   0.454   4.366
 5402SOL    HW116892   4.558   0.526   4.304
 5402SOL    HW216893   4.614   0.373   4.313
 5403SOL     OW16894   4.741   0.039   4.477
 5403SOL    HW116895   4.669   0.044   4.408
 5403SOL    HW216896   4.717  -0.030   4.546
 5404SOL     OW16897   5.153   1.173   4.591
 5404SOL    HW116898   5.098   1.089   4.584
 5404SOL    HW216899   5.179   1.202   4.499
 5405SOL     OW16900   4.212   1.385   3.898
 5405SOL    HW116901   4.125   1.370   3.945
 5405SOL    HW216902   4.195   1.411   3.803
 5406SOL     OW16903   5.114   0.575   3.802
 5406SOL    HW116904   5.060   0.554   3.883
 5406SOL    HW216905   5.205   0.534   3.811
 5407SOL     OW16906   4.251   0.256   4.052
 5407SOL    HW116907   4.278   0.197   3.977
 5407SOL    HW216908   4.251   0.351   4.021
 5408SOL     OW16909   4.788   1.347   5.064
 5408SOL    HW116910   4.708   1.324   5.119
 5408SOL    HW216911   4.871   1.321   5.113
 5409SOL     OW16912   5.316   1.629   5.349
 5409SOL    HW116913   5.343   1.663   5.259
 5409SOL    HW216914   5.395   1.591   5.395
 5410SOL     OW16915   4.835   1.195   4.824
 5410SOL    HW116916   4.795   1.239   4.905
 5410SOL    HW216917   4.794   1.232   4.741
 5411SOL     OW16918   4.639   0.089   5.126
 5411SOL    HW116919   4.664   0.069   5.031
 5411SOL    HW216920   4.711   0.145   5.168
 5412SOL     OW16921   4.704   1.116   5.443
 5412SOL    HW116922   4.605   1.122   5.453
 5412SOL    HW216923   4.727   1.036   5.387
 5413SOL     OW16924   4.429   1.050   4.092
 5413SOL    HW116925   4.415   1.057   4.191
 5413SOL    HW216926   4.513   0.999   4.074
 5414SOL     OW16927   4.134   0.813   4.975
 5414SOL    HW116928   4.220   0.825   5.025
 5414SOL    HW216929   4.092   0.726   5.002
 5415SOL     OW16930   4.998   0.386   4.986
 5415SOL    HW116931   5.019   0.460   5.050
 5415SOL    HW216932   4.909   0.403   4.943
 5416SOL     OW16933   3.788   1.564   5.055
 5416SOL    HW116934   3.742   1.646   5.021
 5416SOL    HW216935   3.886   1.583   5.064
 5417SOL     OW16936   4.091   1.100   4.225
 5417SOL    HW116937   4.084   1.183   4.169
 5417SOL    HW216938   4.095   1.020   4.165
 5418SOL     OW16939   4.290   0.537   4.589
 5418SOL    HW116940   4.302   0.603   4.515
 5418SOL    HW216941   4.336   0.571   4.672
 5419SOL     OW16942   4.976   1.348   4.112
 5419SOL    HW116943   5.026   1.425   4.152
 5419SOL    HW216944   4.881   1.350   4.144
 5420SOL     OW16945   4.996   1.445   4.866
 5420SOL    HW116946   5.043   1.458   4.953
 5420SOL    HW216947   4.930   1.371   4.875
 5421SOL     OW16948   4.078   1.510   5.053
 5421SOL    HW116949   4.057   1.466   4.966
 5421SOL    HW216950   4.175   1.536   5.056
 5422SOL     OW16951   4.126   0.751   5.322
 5422SOL    HW116952   4.194   0.806   5.275
 5422SOL    HW216953   4.166   0.663   5.349
 5423SOL     OW16954   4.737   0.105   5.494
 5423SOL    HW116955   4.743   0.190   5.442
 5423SOL    HW216956   4.769   0.029   5.437
 5424SOL     OW16957   4.228   0.050   5.464
 5424SOL    HW116958   4.186  -0.007   5.394
 5424SOL    HW216959   4.162   0.119   5.496
 5425SOL     OW16960   4.297   0.870   4.753
 5425SOL    HW116961   4.341   0.959   4.744
 5425SOL    HW216962   4.234   0.870   4.830
 5426SOL     OW16963   5.084   0.862   4.769
 5426SOL    HW116964   5.009   0.862   4.703
 5426SOL    HW216965   5.121   0.770   4.778
 5427SOL     OW16966   4.933   0.525   3.999
 5427SOL    HW116967   4.946   0.441   4.053
 5427SOL    HW216968   4.904   0.599   4.059
 5428SOL     OW16969   4.031   0.213   4.955
 5428SOL    HW116970   4.008   0.250   5.045
 5428SOL    HW216971   4.001   0.118   4.949
 5429SOL     OW16972   3.761   1.310   5.006
 5429SOL    HW116973   3.814   1.261   5.074
 5429SOL    HW216974   3.783   1.408   5.011
 5430SOL     OW16975   4.456   0.634   4.788
 5430SOL    HW116976   4.515   0.608   4.712
 5430SOL    HW216977   4.428   0.730   4.777
 5431SOL     OW16978   4.031   0.063   4.342
 5431SOL    HW116979   4.020   0.157   4.375
 5431SOL    HW216980   4.026   0.000   4.419
 5432SOL     OW16981   5.346   0.367   4.098
 5432SOL    HW116982   5.348   0.291   4.162
 5432SOL    HW216983   5.298   0.444   4.138
 5433SOL     OW16984   4.747   0.766   4.690
 5433SOL    HW116985   4.762   0.787   4.786
 5433SOL    HW216986   4.717   0.671   4.681
 5434SOL     OW16987   4.704   1.573   5.424
 5434SOL    HW116988   4.684   1.617   5.336
 5434SOL    HW216989   4.743   1.482   5.408
 5435SOL     OW16990   4.074   0.898   5.528
 5435SOL    HW116991   4.150   0.942   5.576
 5435SOL    HW216992   4.109   0.851   5.446
 5436SOL     OW16993   5.027   0.838   3.766
 5436SOL    HW116994   5.061   0.745   3.781
 5436SOL    HW216995   5.045   0.865   3.671
 5437SOL     OW16996   4.792   1.333   4.573
 5437SOL    HW116997   4.799   1.249   4.518
 5437SOL    HW216998   4.854   1.402   4.537
 5438SOL     OW16999   4.043   0.810   4.673
 5438SOL    HW117000   4.136   0.846   4.678
 5438SOL    HW217001   4.037   0.725   4.725
 5439SOL     OW17002   4.063   0.509   4.730
 5439SOL    HW117003   4.011   0.426   4.713
 5439SOL    HW217004   4.140   0.514   4.666
 5440SOL     OW17005   4.862   0.380   5.402
 5440SOL    HW117006   4.817   0.443   5.466
 5440SOL    HW217007   4.955   0.411   5.385
 5441SOL     OW17008   4.884   0.207   5.201
 5441SOL    HW117009   4.884   0.271   5.278
 5441SOL    HW217010   4.912   0.255   5.118
 5442SOL     OW17011   3.732   1.326   3.924
 5442SOL    HW117012   3.639   1.347   3.893
 5442SOL    HW217013   3.742   1.227   3.937
 5443SOL     OW17014   3.812   1.801   4.651
 5443SOL    HW117015   3.770   1.715   4.624
 5443SOL    HW217016   3.906   1.804   4.617
 5444SOL     OW17017   4.228   1.568   4.634
 5444SOL    HW117018   4.294   1.642   4.643
 5444SOL    HW217019   4.272   1.489   4.592
 5445SOL     OW17020   4.726   0.796   4.962
 5445SOL    HW117021   4.767   0.764   5.048
 5445SOL    HW217022   4.630   0.769   4.959
 5446SOL     OW17023   3.764   0.544   4.838
 5446SOL    HW117024   3.849   0.511   4.797
 5446SOL    HW217025   3.777   0.559   4.936
 5447SOL     OW17026   3.913   0.520   5.446
 5447SOL    HW117027   3.972   0.480   5.376
 5447SOL    HW217028   3.855   0.591   5.405
 5448SOL     OW17029   5.093   0.950   5.384
 5448SOL    HW117030   5.132   1.039   5.404
 5448SOL    HW217031   5.103   0.930   5.287
 5449SOL     OW17032   4.539   0.572   4.049
 5449SOL    HW117033   4.546   0.483   4.003
 5449SOL    HW217034   4.445   0.606   4.041
 5450SOL     OW17035   3.976   1.564   5.468
 5450SOL    HW117036   3.946   1.621   5.544
 5450SOL    HW217037   3.969   1.467   5.494
 5451SOL     OW17038   4.395   0.464   4.993
 5451SOL    HW117039   4.361   0.375   4.963
 5451SOL    HW217040   4.421   0.518   4.913
 5452SOL     OW17041   4.654   1.678   5.189
 5452SOL    HW117042   4.630   1.660   5.094
 5452SOL    HW217043   4.684   1.772   5.199
 5453SOL     OW17044   4.197   0.500   3.915
 5453SOL    HW117045   4.258   0.580   3.919
 5453SOL    HW217046   4.102   0.531   3.922
 5454SOL     OW17047   3.883   1.137   5.190
 5454SOL    HW117048   3.905   1.076   5.266
 5454SOL    HW217049   3.893   1.088   5.104
 5455SOL     OW17050   5.071   1.059   4.958
 5455SOL    HW117051   5.095   0.996   4.884
 5455SOL    HW217052   4.981   1.099   4.940
 5456SOL     OW17053   5.026   0.855   4.033
 5456SOL    HW117054   4.940   0.824   4.075
 5456SOL    HW217055   5.022   0.841   3.934
 5457SOL     OW17056   4.976   1.731   4.852
 5457SOL    HW117057   5.060   1.736   4.798
 5457SOL    HW217058   4.953   1.635   4.870
 5458SOL     OW17059   3.807   1.258   4.746
 5458SOL    HW117060   3.802   1.257   4.846
 5458SOL    HW217061   3.724   1.217   4.708
 5459SOL     OW17062   4.412   1.662   5.440
 5459SOL    HW117063   4.356   1.743   5.449
 5459SOL    HW217064   4.464   1.666   5.354
 5460SOL     OW17065   5.112   1.573   4.201
 5460SOL    HW117066   5.179   1.585   4.127
 5460SOL    HW217067   5.072   1.662   4.224
 5461SOL     OW17068   3.854   1.794   5.575
 5461SOL    HW117069   3.813   1.720   5.628
 5461SOL    HW217070   3.918   1.845   5.633
 5462SOL     OW17071   5.004   0.927   4.396
 5462SOL    HW117072   5.064   0.846   4.398
 5462SOL    HW217073   5.044   0.996   4.336
 5463SOL     OW17074   4.554   1.273   5.146
 5463SOL    HW117075   4.549   1.306   5.241
 5463SOL    HW217076   4.468   1.292   5.100
 5464SOL     OW17077   4.396   1.616   3.878
 5464SOL    HW117078   4.405   1.626   3.779
 5464SOL    HW217079   4.356   1.527   3.899
 5465SOL     OW17080   3.987   0.326   4.444
 5465SOL    HW117081   3.908   0.377   4.410
 5465SOL    HW217082   3.978   0.311   4.542
 5466SOL     OW17083   4.918   1.612   3.755
 5466SOL    HW117084   4.924   1.519   3.792
 5466SOL    HW217085   4.859   1.612   3.675
 5467SOL     OW17086   4.546   1.002   5.096
 5467SOL    HW117087   4.586   1.001   5.004
 5467SOL    HW217088   4.556   1.094   5.136
 5468SOL     OW17089   4.640   0.910   4.015
 5468SOL    HW117090   4.703   0.948   3.947
 5468SOL    HW217091   4.680   0.827   4.054
 5469SOL     OW17092   4.096   1.288   5.214
 5469SOL    HW117093   4.083   1.381   5.180
 5469SOL    HW217094   4.012   1.236   5.201
 5470SOL     OW17095   4.763   1.098   4.420
 5470SOL    HW117096   4.693   1.051   4.474
 5470SOL    HW217097   4.822   1.030   4.377
 5471SOL     OW17098   4.738   0.236   4.695
 5471SOL    HW117099   4.730   0.200   4.602
 5471SOL    HW217100   4.736   0.160   4.760
 5472SOL     OW17101   4.314   1.487   4.215
 5472SOL    HW117102   4.356   1.429   4.145
 5472SOL    HW217103   4.270   1.566   4.171
 5473SOL     OW17104   3.979   1.348   4.014
 5473SOL    HW117105   3.883   1.349   3.987
 5473SOL    HW217106   3.991   1.401   4.098
 5474SOL     OW17107   3.829   1.013   5.450
 5474SOL    HW117108   3.752   0.980   5.504
 5474SOL    HW217109   3.914   0.983   5.492
 5475SOL     OW17110   4.396   0.203   5.213
 5475SOL    HW117111   4.486   0.187   5.173
 5475SOL    HW217112   4.404   0.208   5.312
 5476SOL     OW17113   3.799   0.345   3.757
 5476SOL    HW117114   3.707   0.317   3.728
 5476SOL    HW217115   3.830   0.422   3.701
 5477SOL     OW17116   5.164   0.856   5.122
 5477SOL    HW117117   5.107   0.908   5.059
 5477SOL    HW217118   5.260   0.868   5.098
 5478SOL     OW17119   3.796   0.166   4.042
 5478SOL    HW117120   3.779   0.249   3.988
 5478SOL    HW217121   3.886   0.129   4.020
 5479SOL     OW17122   4.907   1.335   3.843
 5479SOL    HW117123   4.808   1.324   3.845
 5479SOL    HW217124   4.941   1.350   3.936
 5480SOL     OW17125   4.337   0.842   5.155
 5480SOL    HW117126   4.393   0.923   5.138
 5480SOL    HW217127   4.396   0.762   5.158
 5481SOL     OW17128   4.440   0.565   5.432
 5481SOL    HW117129   4.459   0.630   5.506
 5481SOL    HW217130   4.500   0.485   5.441
 5482SOL     OW17131   5.174   1.220   5.357
 5482SOL    HW117132   5.165   1.210   5.456
 5482SOL    HW217133   5.270   1.213   5.331
 5483SOL     OW17134   4.114   1.741   5.284
 5483SOL    HW117135   4.023   1.782   5.282
 5483SOL    HW217136   4.107   1.647   5.316
 5484SOL     OW17137   4.949   0.325   4.173
 5484SOL    HW117138   5.014   0.251   4.162
 5484SOL    HW217139   4.969   0.375   4.257
 5485SOL     OW17140   4.318   0.745   4.376
 5485SOL    HW117141   4.368   0.830   4.357
 5485SOL    HW217142   4.230   0.747   4.328
 5486SOL     OW17143   4.583   1.374   3.740
 5486SOL    HW117144   4.537   1.389   3.828
 5486SOL    HW217145   4.627   1.459   3.710
 5487SOL     OW17146   4.385   1.790   4.677
 5487SOL    HW117147   4.339   1.878   4.664
 5487SOL    HW217148   4.484   1.802   4.670
 5488SOL     OW17149   4.583   0.956   4.585
 5488SOL    HW117150   4.637   0.887   4.633
 5488SOL    HW217151   4.551   1.025   4.651
 5489SOL     OW17152   4.807   0.984   3.811
 5489SOL    HW117153   4.784   1.037   3.729
 5489SOL    HW217154   4.888   0.928   3.792
 5490SOL     OW17155   3.945   1.314   5.568
 5490SOL    HW117156   3.880   1.241   5.547
 5490SOL    HW217157   3.949   1.328   5.666
 5491SOL     OW17158   3.803   1.240   4.377
 5491SOL    HW117159   3.802   1.193   4.465
 5491SOL    HW217160   3.885   1.212   4.326
 5492SOL     OW17161   4.396   1.391   5.348
 5492SOL    HW117162   4.318   1.341   5.386
 5492SOL    HW217163   4.393   1.486   5.379
 5493SOL     OW17164   4.152   0.424   4.244
 5493SOL    HW117165   4.182   0.352   4.182
 5493SOL    HW217166   4.113   0.384   4.327
 5494SOL     OW17167   5.429   1.487   4.828
 5494SOL    HW117168   5.336   1.462   4.801
 5494SOL    HW217169   5.455   1.437   4.910
 5495SOL     OW17170   4.041   0.547   5.004
 5495SOL    HW117171   4.079   0.488   5.076
 5495SOL    HW217172   4.081   0.521   4.916
 5496SOL     OW17173   4.536   1.586   4.411
 5496SOL    HW117174   4.568   1.596   4.317
 5496SOL    HW217175   4.457   1.524   4.413
 5497SOL     OW17176   5.148   0.214   4.836
 5497SOL    HW117177   5.200   0.149   4.891
 5497SOL    HW217178   5.099   0.277   4.897
 5498SOL     OW17179   4.725   0.034   4.878
 5498SOL    HW117180   4.662  -0.038   4.847
 5498SOL    HW217181   4.818  -0.002   4.878
 5499SOL     OW17182   4.494   1.330   4.025
 5499SOL    HW117183   4.448   1.243   4.042
 5499SOL    HW217184   4.585   1.327   4.066
 5500SOL     OW17185   4.342   1.567   5.008
 5500SOL    HW117186   4.337   1.649   5.065
 5500SOL    HW217187   4.431   1.564   4.963
 5501SOL     OW17188   5.076   0.052   3.892
 5501SOL    HW117189   5.111   0.011   3.808
 5501SOL    HW217190   4.986   0.014   3.912
 5502SOL     OW17191   5.024   0.453   4.415
 5502SOL    HW117192   4.965   0.533   4.419
 5502SOL    HW217193   5.039   0.418   4.508
 5503SOL     OW17194   5.317   0.221   4.606
 5503SOL    HW117195   5.233   0.220   4.660
 5503SOL    HW217196   5.319   0.304   4.550
 5504SOL     OW17197   3.763   1.077   4.024
 5504SOL    HW117198   3.862   1.066   4.015
 5504SOL    HW217199   3.723   0.991   4.056
 5505SOL     OW17200   4.599   1.646   4.061
 5505SOL    HW117201   4.522   1.611   4.007
 5505SOL    HW217202   4.567   1.717   4.123
 5506SOL     OW17203   3.954   0.628   5.699
 5506SOL    HW117204   3.861   0.626   5.736
 5506SOL    HW217205   3.955   0.589   5.607
 5507SOL     OW17206   3.949   0.275   6.582
 5507SOL    HW117207   3.984   0.258   6.674
 5507SOL    HW217208   3.861   0.230   6.570
 5508SOL     OW17209   3.743   0.368   6.233
 5508SOL    HW117210   3.661   0.411   6.272
 5508SOL    HW217211   3.715   0.295   6.170
 5509SOL     OW17212   4.293   1.275   6.751
 5509SOL    HW117213   4.200   1.268   6.714
 5509SOL    HW217214   4.304   1.364   6.795
 5510SOL     OW17215   5.279   1.511   6.289
 5510SOL    HW117216   5.222   1.495   6.370
 5510SOL    HW217217   5.220   1.521   6.209
 5511SOL     OW17218   4.859   0.703   6.303
 5511SOL    HW117219   4.916   0.781   6.278
 5511SOL    HW217220   4.799   0.729   6.379
 5512SOL     OW17221   4.492   1.144   6.609
 5512SOL    HW117222   4.414   1.161   6.669
 5512SOL    HW217223   4.526   1.231   6.573
 5513SOL     OW17224   4.574   0.798   7.409
 5513SOL    HW117225   4.570   0.874   7.474
 5513SOL    HW217226   4.596   0.834   7.318
 5514SOL     OW17227   4.409   1.012   6.251
 5514SOL    HW117228   4.478   0.996   6.321
 5514SOL    HW217229   4.336   1.069   6.289
 5515SOL     OW17230   4.410   1.161   7.389
 5515SOL    HW117231   4.470   1.240   7.403
 5515SOL    HW217232   4.324   1.192   7.348
 5516SOL     OW17233   4.059   1.435   6.647
 5516SOL    HW117234   3.981   1.404   6.594
 5516SOL    HW217235   4.117   1.493   6.590
 5517SOL     OW17236   5.184   1.505   6.925
 5517SOL    HW117237   5.208   1.599   6.951
 5517SOL    HW217238   5.168   1.451   7.007
 5518SOL     OW17239   4.162   0.392   7.085
 5518SOL    HW117240   4.244   0.336   7.094
 5518SOL    HW217241   4.081   0.334   7.089
 5519SOL     OW17242   3.955   1.713   6.069
 5519SOL    HW117243   3.989   1.790   6.123
 5519SOL    HW217244   3.999   1.713   5.979
 5520SOL     OW17245   4.851   1.341   7.276
 5520SOL    HW117246   4.898   1.341   7.364
 5520SOL    HW217247   4.803   1.254   7.265
 5521SOL     OW17248   3.954   1.434   6.124
 5521SOL    HW117249   3.928   1.530   6.124
 5521SOL    HW217250   3.883   1.380   6.169
 5522SOL     OW17251   3.964   1.091   6.472
 5522SOL    HW117252   3.978   1.007   6.524
 5522SOL    HW217253   3.909   1.155   6.527
 5523SOL     OW17254   4.344   1.786   7.025
 5523SOL    HW117255   4.252   1.769   7.060
 5523SOL    HW217256   4.372   1.878   7.051
 5524SOL     OW17257   4.330   0.964   5.709
 5524SOL    HW117258   4.337   1.048   5.655
 5524SOL    HW217259   4.376   0.977   5.797
 5525SOL     OW17260   5.318   0.114   7.066
 5525SOL    HW117261   5.300   0.181   6.994
 5525SOL    HW217262   5.315   0.160   7.155
 5526SOL     OW17263   3.846   0.643   6.149
 5526SOL    HW117264   3.801   0.555   6.166
 5526SOL    HW217265   3.845   0.697   6.233
 5527SOL     OW17266   3.751   1.596   5.703
 5527SOL    HW117267   3.732   1.500   5.724
 5527SOL    HW217268   3.718   1.654   5.778
 5528SOL     OW17269   5.413   0.922   6.198
 5528SOL    HW117270   5.508   0.893   6.206
 5528SOL    HW217271   5.405   0.987   6.123
 5529SOL     OW17272   3.837   0.737   7.183
 5529SOL    HW117273   3.925   0.724   7.228
 5529SOL    HW217274   3.824   0.834   7.161
 5530SOL     OW17275   4.337   1.365   6.312
 5530SOL    HW117276   4.288   1.278   6.321
 5530SOL    HW217277   4.314   1.408   6.225
 5531SOL     OW17278   5.017   1.228   7.009
 5531SOL    HW117279   5.054   1.155   6.951
 5531SOL    HW217280   5.069   1.233   7.094
 5532SOL     OW17281   4.533   0.004   6.088
 5532SOL    HW117282   4.573   0.095   6.079
 5532SOL    HW217283   4.433   0.012   6.094
 5533SOL     OW17284   3.921   0.976   6.850
 5533SOL    HW117285   4.010   0.931   6.836
 5533SOL    HW217286   3.848   0.911   6.831
 5534SOL     OW17287   4.911   1.792   7.202
 5534SOL    HW117288   4.935   1.852   7.126
 5534SOL    HW217289   4.918   1.697   7.172
 5535SOL     OW17290   4.041   0.251   7.387
 5535SOL    HW117291   4.112   0.322   7.393
 5535SOL    HW217292   3.953   0.290   7.415
 5536SOL     OW17293   5.190   1.417   6.539
 5536SOL    HW117294   5.131   1.423   6.619
 5536SOL    HW217295   5.175   1.329   6.493
 5537SOL     OW17296   4.322   0.729   5.856
 5537SOL    HW117297   4.346   0.798   5.788
 5537SOL    HW217298   4.244   0.762   5.910
 5538SOL     OW17299   5.005   0.345   6.530
 5538SOL    HW117300   4.919   0.295   6.517
 5538SOL    HW217301   5.067   0.291   6.586
 5539SOL     OW17302   4.531   0.605   7.051
 5539SOL    HW117303   4.484   0.602   7.140
 5539SOL    HW217304   4.480   0.550   6.985
 5540SOL     OW17305   5.118   0.469   7.260
 5540SOL    HW117306   5.098   0.512   7.348
 5540SOL    HW217307   5.196   0.407   7.269
 5541SOL     OW17308   4.697   0.890   7.158
 5541SOL    HW117309   4.743   0.806   7.129
 5541SOL    HW217310   4.641   0.924   7.083
 5542SOL     OW17311   4.715   0.410   6.828
 5542SOL    HW117312   4.638   0.444   6.882
 5542SOL    HW217313   4.681   0.359   6.749
 5543SOL     OW17314   4.765   0.701   6.015
 5543SOL    HW117315   4.791   0.697   6.111
 5543SOL    HW217316   4.680   0.650   6.001
 5544SOL     OW17317   3.800   0.811   6.375
 5544SOL    HW117318   3.899   0.799   6.384
 5544SOL    HW217319   3.776   0.906   6.396
 5545SOL     OW17320   3.854   1.821   7.157
 5545SOL    HW117321   3.844   1.806   7.256
 5545SOL    HW217322   3.768   1.857   7.121
 5546SOL     OW17323   4.589   0.348   5.781
 5546SOL    HW117324   4.648   0.411   5.732
 5546SOL    HW217325   4.608   0.254   5.752
 5547SOL     OW17326   5.086   1.144   6.131
 5547SOL    HW117327   5.169   1.115   6.083
 5547SOL    HW217328   5.037   1.211   6.075
 5548SOL     OW17329   4.274   0.196   6.471
 5548SOL    HW117330   4.269   0.191   6.571
 5548SOL    HW217331   4.276   0.292   6.442
 5549SOL     OW17332   4.732   1.456   6.063
 5549SOL    HW117333   4.686   1.528   6.011
 5549SOL    HW217334   4.728   1.476   6.161
 5550SOL     OW17335   4.075   1.801   6.439
 5550SOL    HW117336   4.125   1.715   6.445
 5550SOL    HW217337   4.140   1.878   6.436
 5551SOL     OW17338   4.951   1.550   7.092
 5551SOL    HW117339   4.957   1.473   7.156
 5551SOL    HW217340   4.899   1.524   7.012
 5552SOL     OW17341   4.045   0.943   5.828
 5552SOL    HW117342   4.127   0.982   5.786
 5552SOL    HW217343   4.018   0.861   5.779
 5553SOL     OW17344   4.185   1.266   7.313
 5553SOL    HW117345   4.135   1.267   7.227
 5553SOL    HW217346   4.122   1.248   7.389
 5554SOL     OW17347   4.835   1.776   5.823
 5554SOL    HW117348   4.775   1.714   5.873
 5554SOL    HW217349   4.866   1.732   5.738
 5555SOL     OW17350   3.926   0.285   7.084
 5555SOL    HW117351   3.846   0.345   7.071
 5555SOL    HW217352   3.916   0.236   7.170
 5556SOL     OW17353   4.188   1.743   5.909
 5556SOL    HW117354   4.221   1.782   5.995
 5556SOL    HW217355   4.264   1.736   5.844
 5557SOL     OW17356   5.124   0.107   6.012
 5557SOL    HW117357   5.100   0.070   5.922
 5557SOL    HW217358   5.223   0.123   6.016
 5558SOL     OW17359   3.973   1.785   6.827
 5558SOL    HW117360   4.030   1.720   6.877
 5558SOL    HW217361   3.957   1.752   6.734
 5559SOL     OW17362   4.664   1.698   6.490
 5559SOL    HW117363   4.744   1.641   6.511
 5559SOL    HW217364   4.615   1.658   6.413
 5560SOL     OW17365   4.106   0.700   6.066
 5560SOL    HW117366   4.151   0.610   6.063
 5560SOL    HW217367   4.012   0.689   6.099
 5561SOL     OW17368   4.338   0.122   5.703
 5561SOL    HW117369   4.436   0.100   5.710
 5561SOL    HW217370   4.307   0.105   5.610
 5562SOL     OW17371   4.505   0.264   7.335
 5562SOL    HW117372   4.572   0.203   7.378
 5562SOL    HW217373   4.432   0.283   7.400
 5563SOL     OW17374   4.612   1.514   6.781
 5563SOL    HW117375   4.589   1.489   6.687
 5563SOL    HW217376   4.673   1.445   6.820
 5564SOL     OW17377   5.075   0.590   7.019
 5564SOL    HW117378   5.103   0.547   7.104
 5564SOL    HW217379   5.100   0.686   7.020
 5565SOL     OW17380   4.527   1.402   6.510
 5565SOL    HW117381   4.617   1.416   6.468
 5565SOL    HW217382   4.456   1.404   6.439
 5566SOL     OW17383   4.646   0.503   6.485
 5566SOL    HW117384   4.621   0.494   6.389
 5566SOL    HW217385   4.694   0.421   6.516
 5567SOL     OW17386   4.263   0.064   6.098
 5567SOL    HW117387   4.182   0.065   6.156
 5567SOL    HW217388   4.266   0.147   6.043
 5568SOL     OW17389   5.158   1.188   5.627
 5568SOL    HW117390   5.190   1.112   5.684
 5568SOL    HW217391   5.066   1.215   5.657
 5569SOL     OW17392   4.021   0.035   5.757
 5569SOL    HW117393   4.070   0.119   5.736
 5569SOL    HW217394   4.083  -0.030   5.802
 5570SOL     OW17395   4.659   0.236   6.066
 5570SOL    HW117396   4.611   0.277   5.988
 5570SOL    HW217397   4.758   0.234   6.047
 5571SOL     OW17398   4.800   0.683   7.050
 5571SOL    HW117399   4.720   0.622   7.053
 5571SOL    HW217400   4.881   0.630   7.026
 5572SOL     OW17401   4.951   1.570   6.379
 5572SOL    HW117402   4.972   1.644   6.314
 5572SOL    HW217403   5.019   1.570   6.452
 5573SOL     OW17404   4.183   1.152   6.327
 5573SOL    HW117405   4.112   1.125   6.392
 5573SOL    HW217406   4.157   1.124   6.234
 5574SOL     OW17407   4.995   1.797   6.177
 5574SOL    HW117408   5.039   1.861   6.113
 5574SOL    HW217409   4.945   1.849   6.247
 5575SOL     OW17410   4.756   0.549   5.602
 5575SOL    HW117411   4.715   0.631   5.563
 5575SOL    HW217412   4.820   0.575   5.675
 5576SOL     OW17413   3.802   0.556   6.972
 5576SOL    HW117414   3.894   0.555   6.931
 5576SOL    HW217415   3.796   0.630   7.039
 5577SOL     OW17416   4.285   0.222   6.733
 5577SOL    HW117417   4.323   0.138   6.770
 5577SOL    HW217418   4.197   0.241   6.777
 5578SOL     OW17419   4.590   0.454   6.228
 5578SOL    HW117420   4.558   0.526   6.166
 5578SOL    HW217421   4.614   0.373   6.175
 5579SOL     OW17422   4.741   0.039   6.339
 5579SOL    HW117423   4.669   0.044   6.270
 5579SOL    HW217424   4.717  -0.030   6.408
 5580SOL     OW17425   5.153   1.173   6.453
 5580SOL    HW117426   5.098   1.089   6.446
 5580SOL    HW217427   5.179   1.202   6.361
 5581SOL     OW17428   4.212   1.385   5.760
 5581SOL    HW117429   4.125   1.370   5.807
 5581SOL    HW217430   4.195   1.411   5.665
 5582SOL     OW17431   5.114   0.575   5.664
 5582SOL    HW117432   5.060   0.554   5.745
 5582SOL    HW217433   5.205   0.534   5.673
 5583SOL     OW17434   4.251   0.256   5.914
 5583SOL    HW117435   4.278   0.197   5.839
 5583SOL    HW217436   4.251   0.351   5.883
 5584SOL     OW17437   4.788   1.347   6.926
 5584SOL    HW117438   4.708   1.324   6.981
 5584SOL    HW217439   4.871   1.321   6.975
 5585SOL     OW17440   5.316   1.629   7.211
 5585SOL    HW117441   5.343   1.663   7.121
 5585SOL    HW217442   5.395   1.591   7.257
 5586SOL     OW17443   4.835   1.195   6.686
 5586SOL    HW117444   4.795   1.239   6.767
 5586SOL    HW217445   4.794   1.232   6.603
 5587SOL     OW17446   4.639   0.089   6.988
 5587SOL    HW117447   4.664   0.069   6.893
 5587SOL    HW217448   4.711   0.145   7.030
 5588SOL     OW17449   4.704   1.116   7.305
 5588SOL    HW117450   4.605   1.122   7.315
 5588SOL    HW217451   4.727   1.036   7.249
 5589SOL     OW17452   4.429   1.050   5.954
 5589SOL    HW117453   4.415   1.057   6.053
 5589SOL    HW217454   4.513   0.999   5.936
 5590SOL     OW17455   4.134   0.813   6.837
 5590SOL    HW117456   4.220   0.825   6.887
 5590SOL    HW217457   4.092   0.726   6.864
 5591SOL     OW17458   4.998   0.386   6.848
 5591SOL    HW117459   5.019   0.460   6.912
 5591SOL    HW217460   4.909   0.403   6.805
 5592SOL     OW17461   3.788   1.564   6.917
 5592SOL    HW117462   3.742   1.646   6.883
 5592SOL    HW217463   3.886   1.583   6.926
 5593SOL     OW17464   4.091   1.100   6.087
 5593SOL    HW117465   4.084   1.183   6.031
 5593SOL    HW217466   4.095   1.020   6.027
 5594SOL     OW17467   4.290   0.537   6.451
 5594SOL    HW117468   4.302   0.603   6.377
 5594SOL    HW217469   4.336   0.571   6.534
 5595SOL     OW17470   4.976   1.348   5.974
 5595SOL    HW117471   5.026   1.425   6.014
 5595SOL    HW217472   4.881   1.350   6.006
 5596SOL     OW17473   4.996   1.445   6.728
 5596SOL    HW117474   5.043   1.458   6.815
 5596SOL    HW217475   4.930   1.371   6.737
 5597SOL     OW17476   4.078   1.510   6.915
 5597SOL    HW117477   4.057   1.466   6.828
 5597SOL    HW217478   4.175   1.536   6.918
 5598SOL     OW17479   4.126   0.751   7.184
 5598SOL    HW117480   4.194   0.806   7.137
 5598SOL    HW217481   4.166   0.663   7.211
 5599SOL     OW17482   4.737   0.105   7.356
 5599SOL    HW117483   4.743   0.190   7.304
 5599SOL    HW217484   4.769   0.029   7.299
 5600SOL     OW17485   4.228   0.050   7.326
 5600SOL    HW117486   4.186  -0.007   7.256
 5600SOL    HW217487   4.162   0.119   7.358
 5601SOL     OW17488   4.297   0.870   6.615
 5601SOL    HW117489   4.341   0.959   6.606
 5601SOL    HW217490   4.234   0.870   6.692
 5602SOL     OW17491   5.084   0.862   6.631
 5602SOL    HW117492   5.009   0.862   6.565
 5602SOL    HW217493   5.121   0.770   6.640
 5603SOL     OW17494   4.933   0.525   5.861
 5603SOL    HW117495   4.946   0.441   5.915
 5603SOL    HW217496   4.904   0.599   5.921
 5604SOL     OW17497   4.031   0.213   6.817
 5604SOL    HW117498   4.008   0.250   6.907
 5604SOL    HW217499   4.001   0.118   6.811
 5605SOL     OW17500   3.761   1.310   6.868
 5605SOL    HW117501   3.814   1.261   6.936
 5605SOL    HW217502   3.783   1.408   6.873
 5606SOL     OW17503   4.456   0.634   6.650
 5606SOL    HW117504   4.515   0.608   6.574
 5606SOL    HW217505   4.428   0.730   6.639
 5607SOL     OW17506   4.031   0.063   6.204
 5607SOL    HW117507   4.020   0.157   6.237
 5607SOL    HW217508   4.026   0.000   6.281
 5608SOL     OW17509   5.346   0.367   5.960
 5608SOL    HW117510   5.348   0.291   6.024
 5608SOL    HW217511   5.298   0.444   6.000
 5609SOL     OW17512   4.747   0.766   6.552
 5609SOL    HW117513   4.762   0.787   6.648
 5609SOL    HW217514   4.717   0.671   6.543
 5610SOL     OW17515   4.704   1.573   7.286
 5610SOL    HW117516   4.684   1.617   7.198
 5610SOL    HW217517   4.743   1.482   7.270
 5611SOL     OW17518   4.074   0.898   7.390
 5611SOL    HW117519   4.150   0.942   7.438
 5611SOL    HW217520   4.109   0.851   7.308
 5612SOL     OW17521   5.027   0.838   5.628
 5612SOL    HW117522   5.061   0.745   5.643
 5612SOL    HW217523   5.045   0.865   5.533
 5613SOL     OW17524   4.792   1.333   6.435
 5613SOL    HW117525   4.799   1.249   6.380
 5613SOL    HW217526   4.854   1.402   6.399
 5614SOL     OW17527   4.043   0.810   6.535
 5614SOL    HW117528   4.136   0.846   6.540
 5614SOL    HW217529   4.037   0.725   6.587
 5615SOL     OW17530   4.063   0.509   6.592
 5615SOL    HW117531   4.011   0.426   6.575
 5615SOL    HW217532   4.140   0.514   6.528
 5616SOL     OW17533   4.862   0.380   7.264
 5616SOL    HW117534   4.817   0.443   7.328
 5616SOL    HW217535   4.955   0.411   7.247
 5617SOL     OW17536   4.884   0.207   7.063
 5617SOL    HW117537   4.884   0.271   7.140
 5617SOL    HW217538   4.912   0.255   6.980
 5618SOL     OW17539   3.732   1.326   5.786
 5618SOL    HW117540   3.639   1.347   5.755
 5618SOL    HW217541   3.742   1.227   5.799
 5619SOL     OW17542   3.812   1.801   6.513
 5619SOL    HW117543   3.770   1.715   6.486
 5619SOL    HW217544   3.906   1.804   6.479
 5620SOL     OW17545   4.228   1.568   6.496
 5620SOL    HW117546   4.294   1.642   6.505
 5620SOL    HW217547   4.272   1.489   6.454
 5621SOL     OW17548   4.726   0.796   6.824
 5621SOL    HW117549   4.767   0.764   6.910
 5621SOL    HW217550   4.630   0.769   6.821
 5622SOL     OW17551   3.764   0.544   6.700
 5622SOL    HW117552   3.849   0.511   6.659
 5622SOL    HW217553   3.777   0.559   6.798
 5623SOL     OW17554   3.913   0.520   7.308
 5623SOL    HW117555   3.972   0.480   7.238
 5623SOL    HW217556   3.855   0.591   7.267
 5624SOL     OW17557   5.093   0.950   7.246
 5624SOL    HW117558   5.132   1.039   7.266
 5624SOL    HW217559   5.103   0.930   7.149
 5625SOL     OW17560   4.539   0.572   5.911
 5625SOL    HW117561   4.546   0.483   5.865
 5625SOL    HW217562   4.445   0.606   5.903
 5626SOL     OW17563   3.976   1.564   7.330
 5626SOL    HW117564   3.946   1.621   7.406
 5626SOL    HW217565   3.969   1.467   7.356
 5627SOL     OW17566   4.395   0.464   6.855
 5627SOL    HW117567   4.361   0.375   6.825
 5627SOL    HW217568   4.421   0.518   6.775
 5628SOL     OW17569   4.654   1.678   7.051
 5628SOL    HW117570   4.630   1.660   6.956
 5628SOL    HW217571   4.684   1.772   7.061
 5629SOL     OW17572   4.197   0.500   5.777
 5629SOL    HW117573   4.258   0.580   5.781
 5629SOL    HW217574   4.102   0.531   5.784
 5630SOL     OW17575   3.883   1.137   7.052
 5630SOL    HW117576   3.905   1.076   7.128
 5630SOL    HW217577   3.893   1.088   6.966
 5631SOL     OW17578   5.071   1.059   6.820
 5631SOL    HW117579   5.095   0.996   6.746
 5631SOL    HW217580   4.981   1.099   6.802
 5632SOL     OW17581   5.026   0.855   5.895
 5632SOL    HW117582   4.940   0.824   5.937
 5632SOL    HW217583   5.022   0.841   5.796
 5633SOL     OW17584   4.976   1.731   6.714
 5633SOL    HW117585   5.060   1.736   6.660
 5633SOL    HW217586   4.953   1.635   6.732
 5634SOL     OW17587   3.807   1.258   6.608
 5634SOL    HW117588   3.802   1.257   6.708
 5634SOL    HW217589   3.724   1.217   6.570
 5635SOL     OW17590   4.412   1.662   7.302
 5635SOL    HW117591   4.356   1.743   7.311
 5635SOL    HW217592   4.464   1.666   7.216
 5636SOL     OW17593   5.112   1.573   6.063
 5636SOL    HW117594   5.179   1.585   5.989
 5636SOL    HW217595   5.072   1.662   6.086
 5637SOL     OW17596   3.854   1.794   7.437
 5637SOL    HW117597   3.813   1.720   7.490
 5637SOL    HW217598   3.918   1.845   7.495
 5638SOL     OW17599   5.004   0.927   6.258
 5638SOL    HW117600   5.064   0.846   6.260
 5638SOL    HW217601   5.044   0.996   6.198
 5639SOL     OW17602   4.554   1.273   7.008
 5639SOL    HW117603   4.549   1.306   7.103
 5639SOL    HW217604   4.468   1.292   6.962
 5640SOL     OW17605   4.396   1.616   5.740
 5640SOL    HW117606   4.405   1.626   5.641
 5640SOL    HW217607   4.356   1.527   5.761
 5641SOL     OW17608   3.987   0.326   6.306
 5641SOL    HW117609   3.908   0.377   6.272
 5641SOL    HW217610   3.978   0.311   6.404
 5642SOL     OW17611   4.918   1.612   5.617
 5642SOL    HW117612   4.924   1.519   5.654
 5642SOL    HW217613   4.859   1.612   5.537
 5643SOL     OW17614   4.546   1.002   6.958
 5643SOL    HW117615   4.586   1.001   6.866
 5643SOL    HW217616   4.556   1.094   6.998
 5644SOL     OW17617   4.640   0.910   5.877
 5644SOL    HW117618   4.703   0.948   5.809
 5644SOL    HW217619   4.680   0.827   5.916
 5645SOL     OW17620   4.096   1.288   7.076
 5645SOL    HW117621   4.083   1.381   7.042
 5645SOL    HW217622   4.012   1.236   7.063
 5646SOL     OW17623   4.763   1.098   6.282
 5646SOL    HW117624   4.693   1.051   6.336
 5646SOL    HW217625   4.822   1.030   6.239
 5647SOL     OW17626   4.738   0.236   6.557
 5647SOL    HW117627   4.730   0.200   6.464
 5647SOL    HW217628   4.736   0.160   6.622
 5648SOL     OW17629   4.314   1.487   6.077
 5648SOL    HW117630   4.356   1.429   6.007
 5648SOL    HW217631   4.270   1.566   6.033
 5649SOL     OW17632   3.979   1.348   5.876
 5649SOL    HW117633   3.883   1.349   5.849
 5649SOL    HW217634   3.991   1.401   5.960
 5650SOL     OW17635   3.829   1.013   7.312
 5650SOL    HW117636   3.752   0.980   7.366
 5650SOL    HW217637   3.914   0.983   7.354
 5651SOL     OW17638   4.396   0.203   7.075
 5651SOL    HW117639   4.486   0.187   7.035
 5651SOL    HW217640   4.404   0.208   7.174
 5652SOL     OW17641   3.799   0.345   5.619
 5652SOL    HW117642   3.707   0.317   5.590
 5652SOL    HW217643   3.830   0.422   5.563
 5653SOL     OW17644   5.164   0.856   6.984
 5653SOL    HW117645   5.107   0.908   6.921
 5653SOL    HW217646   5.260   0.868   6.960
 5654SOL     OW17647   3.796   0.166   5.904
 5654SOL    HW117648   3.779   0.249   5.850
 5654SOL    HW217649   3.886   0.129   5.882
 5655SOL     OW17650   4.907   1.335   5.705
 5655SOL    HW117651   4.808   1.324   5.707
 5655SOL    HW217652   4.941   1.350   5.798
 5656SOL     OW17653   4.337   0.842   7.017
 5656SOL    HW117654   4.393   0.923   7.000
 5656SOL    HW217655   4.396   0.762   7.020
 5657SOL     OW17656   4.440   0.565   7.294
 5657SOL    HW117657   4.459   0.630   7.368
 5657SOL    HW217658   4.500   0.485   7.303
 5658SOL     OW17659   5.174   1.220   7.219
 5658SOL    HW117660   5.165   1.210   7.318
 5658SOL    HW217661   5.270   1.213   7.193
 5659SOL     OW17662   4.114   1.741   7.146
 5659SOL    HW117663   4.023   1.782   7.144
 5659SOL    HW217664   4.107   1.647   7.178
 5660SOL     OW17665   4.949   0.325   6.035
 5660SOL    HW117666   5.014   0.251   6.024
 5660SOL    HW217667   4.969   0.375   6.119
 5661SOL     OW17668   4.318   0.745   6.238
 5661SOL    HW117669   4.368   0.830   6.219
 5661SOL    HW217670   4.230   0.747   6.190
 5662SOL     OW17671   4.583   1.374   5.602
 5662SOL    HW117672   4.537   1.389   5.690
 5662SOL    HW217673   4.627   1.459   5.572
 5663SOL     OW17674   4.385   1.790   6.539
 5663SOL    HW117675   4.339   1.878   6.526
 5663SOL    HW217676   4.484   1.802   6.532
 5664SOL     OW17677   4.583   0.956   6.447
 5664SOL    HW117678   4.637   0.887   6.495
 5664SOL    HW217679   4.551   1.025   6.513
 5665SOL     OW17680   4.807   0.984   5.673
 5665SOL    HW117681   4.784   1.037   5.591
 5665SOL    HW217682   4.888   0.928   5.654
 5666SOL     OW17683   3.945   1.314   7.430
 5666SOL    HW117684   3.880   1.241   7.409
 5666SOL    HW217685   3.949   1.328   7.528
 5667SOL     OW17686   3.803   1.240   6.239
 5667SOL    HW117687   3.802   1.193   6.327
 5667SOL    HW217688   3.885   1.212   6.188
 5668SOL     OW17689   4.396   1.391   7.210
 5668SOL    HW117690   4.318   1.341   7.248
 5668SOL    HW217691   4.393   1.486   7.241
 5669SOL     OW17692   4.152   0.424   6.106
 5669SOL    HW117693   4.182   0.352   6.044
 5669SOL    HW217694   4.113   0.384   6.189
 5670SOL     OW17695   5.429   1.487   6.690
 5670SOL    HW117696   5.336   1.462   6.663
 5670SOL    HW217697   5.455   1.437   6.772
 5671SOL     OW17698   4.041   0.547   6.866
 5671SOL    HW117699   4.079   0.488   6.938
 5671SOL    HW217700   4.081   0.521   6.778
 5672SOL     OW17701   4.536   1.586   6.273
 5672SOL    HW117702   4.568   1.596   6.179
 5672SOL    HW217703   4.457   1.524   6.275
 5673SOL     OW17704   5.148   0.214   6.698
 5673SOL    HW117705   5.200   0.149   6.753
 5673SOL    HW217706   5.099   0.277   6.759
 5674SOL     OW17707   4.725   0.034   6.740
 5674SOL    HW117708   4.662  -0.038   6.709
 5674SOL    HW217709   4.818  -0.002   6.740
 5675SOL     OW17710   4.494   1.330   5.887
 5675SOL    HW117711   4.448   1.243   5.904
 5675SOL    HW217712   4.585   1.327   5.928
 5676SOL     OW17713   4.342   1.567   6.870
 5676SOL    HW117714   4.337   1.649   6.927
 5676SOL    HW217715   4.431   1.564   6.825
 5677SOL     OW17716   5.076   0.052   5.754
 5677SOL    HW117717   5.111   0.011   5.670
 5677SOL    HW217718   4.986   0.014   5.774
 5678SOL     OW17719   5.024   0.453   6.277
 5678SOL    HW117720   4.965   0.533   6.281
 5678SOL    HW217721   5.039   0.418   6.370
 5679SOL     OW17722   5.317   0.221   6.468
 5679SOL    HW117723   5.233   0.220   6.522
 5679SOL    HW217724   5.319   0.304   6.412
 5680SOL     OW17725   3.763   1.077   5.886
 5680SOL    HW117726   3.862   1.066   5.877
 5680SOL    HW217727   3.723   0.991   5.918
 5681SOL     OW17728   4.599   1.646   5.923
 5681SOL    HW117729   4.522   1.611   5.869
 5681SOL    HW217730   4.567   1.717   5.985
 5682SOL     OW17731   3.954   0.628   7.561
 5682SOL    HW117732   3.861   0.626   7.598
 5682SOL    HW217733   3.955   0.589   7.469
 5683SOL     OW17734   3.955   1.713   7.931
 5683SOL    HW117735   3.989   1.790   7.985
 5683SOL    HW217736   3.999   1.713   7.841
 5684SOL     OW17737   3.954   1.434   7.986
 5684SOL    HW117738   3.928   1.530   7.986
 5684SOL    HW217739   3.883   1.380   8.031
 5685SOL     OW17740   4.330   0.964   7.571
 5685SOL    HW117741   4.337   1.048   7.517
 5685SOL    HW217742   4.376   0.977   7.659
 5686SOL     OW17743   3.751   1.596   7.565
 5686SOL    HW117744   3.732   1.500   7.586
 5686SOL    HW217745   3.718   1.654   7.640
 5687SOL     OW17746   5.413   0.922   8.060
 5687SOL    HW117747   5.508   0.893   8.068
 5687SOL    HW217748   5.405   0.987   7.985
 5688SOL     OW17749   4.533   0.004   7.950
 5688SOL    HW117750   4.573   0.095   7.941
 5688SOL    HW217751   4.433   0.012   7.956
 5689SOL     OW17752   4.322   0.729   7.718
 5689SOL    HW117753   4.346   0.798   7.650
 5689SOL    HW217754   4.244   0.762   7.772
 5690SOL     OW17755   3.800   0.811   8.237
 5690SOL    HW117756   3.899   0.799   8.246
 5690SOL    HW217757   3.776   0.906   8.258
 5691SOL     OW17758   4.589   0.348   7.643
 5691SOL    HW117759   4.648   0.411   7.594
 5691SOL    HW217760   4.608   0.254   7.614
 5692SOL     OW17761   4.045   0.943   7.690
 5692SOL    HW117762   4.127   0.982   7.648
 5692SOL    HW217763   4.018   0.861   7.641
 5693SOL     OW17764   4.835   1.776   7.685
 5693SOL    HW117765   4.775   1.714   7.735
 5693SOL    HW217766   4.866   1.732   7.600
 5694SOL     OW17767   4.188   1.743   7.771
 5694SOL    HW117768   4.221   1.782   7.857
 5694SOL    HW217769   4.264   1.736   7.706
 5695SOL     OW17770   5.124   0.107   7.874
 5695SOL    HW117771   5.100   0.070   7.784
 5695SOL    HW217772   5.223   0.123   7.878
 5696SOL     OW17773   4.106   0.700   7.928
 5696SOL    HW117774   4.151   0.610   7.925
 5696SOL    HW217775   4.012   0.689   7.961
 5697SOL     OW17776   4.338   0.122   7.565
 5697SOL    HW117777   4.436   0.100   7.572
 5697SOL    HW217778   4.307   0.105   7.472
 5698SOL     OW17779   4.263   0.064   7.960
 5698SOL    HW117780   4.182   0.065   8.018
 5698SOL    HW217781   4.266   0.147   7.905
 5699SOL     OW17782   5.158   1.188   7.489
 5699SOL    HW117783   5.190   1.112   7.546
 5699SOL    HW217784   5.066   1.215   7.519
 5700SOL     OW17785   4.021   0.035   7.619
 5700SOL    HW117786   4.070   0.119   7.598
 5700SOL    HW217787   4.083  -0.030   7.664
 5701SOL     OW17788   4.659   0.236   7.928
 5701SOL    HW117789   4.611   0.277   7.850
 5701SOL    HW217790   4.758   0.234   7.909
 5702SOL     OW17791   4.183   1.152   8.189
 5702SOL    HW117792   4.112   1.125   8.254
 5702SOL    HW217793   4.157   1.124   8.096
 5703SOL     OW17794   4.995   1.797   8.039
 5703SOL    HW117795   5.039   1.861   7.975
 5703SOL    HW217796   4.945   1.849   8.109
 5704SOL     OW17797   4.756   0.549   7.464
 5704SOL    HW117798   4.715   0.631   7.425
 5704SOL    HW217799   4.820   0.575   7.537
 5705SOL     OW17800   4.212   1.385   7.622
 5705SOL    HW117801   4.125   1.370   7.669
 5705SOL    HW217802   4.195   1.411   7.527
 5706SOL     OW17803   5.114   0.575   7.526
 5706SOL    HW117804   5.060   0.554   7.607
 5706SOL    HW217805   5.205   0.534   7.535
 5707SOL     OW17806   4.251   0.256   7.776
 5707SOL    HW117807   4.278   0.197   7.701
 5707SOL    HW217808   4.251   0.351   7.745
 5708SOL     OW17809   4.429   1.050   7.816
 5708SOL    HW117810   4.415   1.057   7.915
 5708SOL    HW217811   4.513   0.999   7.798
 5709SOL     OW17812   4.091   1.100   7.949
 5709SOL    HW117813   4.084   1.183   7.893
 5709SOL    HW217814   4.095   1.020   7.889
 5710SOL     OW17815   4.976   1.348   7.836
 5710SOL    HW117816   5.026   1.425   7.876
 5710SOL    HW217817   4.881   1.350   7.868
 5711SOL     OW17818   5.306   0.639   7.920
 5711SOL    HW117819   5.275   0.700   7.993
 5711SOL    HW217820   5.356   0.691   7.851
 5712SOL     OW17821   4.933   0.525   7.723
 5712SOL    HW117822   4.946   0.441   7.777
 5712SOL    HW217823   4.904   0.599   7.783
 5713SOL     OW17824   5.346   0.367   7.822
 5713SOL    HW117825   5.348   0.291   7.886
 5713SOL    HW217826   5.298   0.444   7.862
 5714SOL     OW17827   5.027   0.838   7.490
 5714SOL    HW117828   5.061   0.745   7.505
 5714SOL    HW217829   5.045   0.865   7.395
 5715SOL     OW17830   3.732   1.326   7.648
 5715SOL    HW117831   3.639   1.347   7.617
 5715SOL    HW217832   3.742   1.227   7.661
 5716SOL     OW17833   4.539   0.572   7.773
 5716SOL    HW117834   4.546   0.483   7.727
 5716SOL    HW217835   4.445   0.606   7.765
 5717SOL     OW17836   4.197   0.500   7.639
 5717SOL    HW117837   4.258   0.580   7.643
 5717SOL    HW217838   4.102   0.531   7.646
 5718SOL     OW17839   5.026   0.855   7.757
 5718SOL    HW117840   4.940   0.824   7.799
 5718SOL    HW217841   5.022   0.841   7.658
 5719SOL     OW17842   5.112   1.573   7.925
 5719SOL    HW117843   5.179   1.585   7.851
 5719SOL    HW217844   5.072   1.662   7.948
 5720SOL     OW17845   4.396   1.616   7.602
 5720SOL    HW117846   4.405   1.626   7.503
 5720SOL    HW217847   4.356   1.527   7.623
 5721SOL     OW17848   4.918   1.612   7.479
 5721SOL    HW117849   4.924   1.519   7.516
 5721SOL    HW217850   4.859   1.612   7.399
 5722SOL     OW17851   4.640   0.910   7.739
 5722SOL    HW117852   4.703   0.948   7.671
 5722SOL    HW217853   4.680   0.827   7.778
 5723SOL     OW17854   4.314   1.487   7.939
 5723SOL    HW117855   4.356   1.429   7.869
 5723SOL    HW217856   4.270   1.566   7.895
 5724SOL     OW17857   3.979   1.348   7.738
 5724SOL    HW117858   3.883   1.349   7.711
 5724SOL    HW217859   3.991   1.401   7.822
 5725SOL     OW17860   3.799   0.345   7.481
 5725SOL    HW117861   3.707   0.317   7.452
 5725SOL    HW217862   3.830   0.422   7.425
 5726SOL     OW17863   3.796   0.166   7.766
 5726SOL    HW117864   3.779   0.249   7.712
 5726SOL    HW217865   3.886   0.129   7.744
 5727SOL     OW17866   4.907   1.335   7.567
 5727SOL    HW117867   4.808   1.324   7.569
 5727SOL    HW217868   4.941   1.350   7.660
 5728SOL     OW17869   5.217   1.767   8.407
 5728SOL    HW117870   5.250   1.831   8.338
 5728SOL    HW217871   5.283   1.761   8.482
 5729SOL     OW17872   4.949   0.325   7.897
 5729SOL    HW117873   5.014   0.251   7.886
 5729SOL    HW217874   4.969   0.375   7.981
 5730SOL     OW17875   4.318   0.745   8.100
 5730SOL    HW117876   4.368   0.830   8.081
 5730SOL    HW217877   4.230   0.747   8.052
 5731SOL     OW17878   4.583   1.374   7.464
 5731SOL    HW117879   4.537   1.389   7.552
 5731SOL    HW217880   4.627   1.459   7.434
 5732SOL     OW17881   4.807   0.984   7.535
 5732SOL    HW117882   4.784   1.037   7.453
 5732SOL    HW217883   4.888   0.928   7.516
 5733SOL     OW17884   4.152   0.424   7.968
 5733SOL    HW117885   4.182   0.352   7.906
 5733SOL    HW217886   4.113   0.384   8.051
 5734SOL     OW17887   4.494   1.330   7.749
 5734SOL    HW117888   4.448   1.243   7.766
 5734SOL    HW217889   4.585   1.327   7.790
 5735SOL     OW17890   5.076   0.052   7.616
 5735SOL    HW117891   5.111   0.011   7.532
 5735SOL    HW217892   4.986   0.014   7.636
 5736SOL     OW17893   3.763   1.077   7.748
 5736SOL    HW117894   3.862   1.066   7.739
 5736SOL    HW217895   3.723   0.991   7.780
 5737SOL     OW17896   4.599   1.646   7.785
 5737SOL    HW117897   4.522   1.611   7.731
 5737SOL    HW217898   4.567   1.717   7.847
 5738SOL     OW17899   3.954   2.490   0.113
 5738SOL    HW117900   3.861   2.488   0.150
 5738SOL    HW217901   3.955   2.451   0.021
 5739SOL     OW17902   3.949   2.137   0.996
 5739SOL    HW117903   3.984   2.120   1.088
 5739SOL    HW217904   3.861   2.092   0.984
 5740SOL     OW17905   3.743   2.230   0.647
 5740SOL    HW117906   3.661   2.273   0.686
 5740SOL    HW217907   3.715   2.157   0.584
 5741SOL     OW17908   4.293   3.137   1.165
 5741SOL    HW117909   4.200   3.130   1.128
 5741SOL    HW217910   4.304   3.226   1.209
 5742SOL     OW17911   5.279   3.373   0.703
 5742SOL    HW117912   5.222   3.357   0.784
 5742SOL    HW217913   5.220   3.383   0.623
 5743SOL     OW17914   4.859   2.565   0.717
 5743SOL    HW117915   4.916   2.643   0.692
 5743SOL    HW217916   4.799   2.591   0.793
 5744SOL     OW17917   4.492   3.006   1.023
 5744SOL    HW117918   4.414   3.023   1.083
 5744SOL    HW217919   4.526   3.093   0.987
 5745SOL     OW17920   4.574   2.660   1.823
 5745SOL    HW117921   4.570   2.736   1.888
 5745SOL    HW217922   4.596   2.696   1.732
 5746SOL     OW17923   4.409   2.874   0.665
 5746SOL    HW117924   4.478   2.858   0.735
 5746SOL    HW217925   4.336   2.931   0.703
 5747SOL     OW17926   4.410   3.023   1.803
 5747SOL    HW117927   4.470   3.102   1.817
 5747SOL    HW217928   4.324   3.054   1.762
 5748SOL     OW17929   4.059   3.297   1.061
 5748SOL    HW117930   3.981   3.266   1.008
 5748SOL    HW217931   4.117   3.355   1.004
 5749SOL     OW17932   5.184   3.367   1.339
 5749SOL    HW117933   5.208   3.461   1.365
 5749SOL    HW217934   5.168   3.313   1.421
 5750SOL     OW17935   4.162   2.254   1.499
 5750SOL    HW117936   4.244   2.198   1.508
 5750SOL    HW217937   4.081   2.196   1.503
 5751SOL     OW17938   3.955   3.575   0.483
 5751SOL    HW117939   3.989   3.652   0.537
 5751SOL    HW217940   3.999   3.575   0.393
 5752SOL     OW17941   4.851   3.203   1.690
 5752SOL    HW117942   4.898   3.203   1.778
 5752SOL    HW217943   4.803   3.116   1.679
 5753SOL     OW17944   3.954   3.296   0.538
 5753SOL    HW117945   3.928   3.392   0.538
 5753SOL    HW217946   3.883   3.242   0.583
 5754SOL     OW17947   3.964   2.953   0.886
 5754SOL    HW117948   3.978   2.869   0.938
 5754SOL    HW217949   3.909   3.017   0.941
 5755SOL     OW17950   4.344   3.648   1.439
 5755SOL    HW117951   4.252   3.631   1.474
 5755SOL    HW217952   4.372   3.740   1.465
 5756SOL     OW17953   4.330   2.826   0.123
 5756SOL    HW117954   4.337   2.910   0.069
 5756SOL    HW217955   4.376   2.839   0.211
 5757SOL     OW17956   3.846   2.505   0.563
 5757SOL    HW117957   3.801   2.417   0.580
 5757SOL    HW217958   3.845   2.559   0.647
 5758SOL     OW17959   3.751   3.458   0.117
 5758SOL    HW117960   3.732   3.362   0.138
 5758SOL    HW217961   3.718   3.516   0.192
 5759SOL     OW17962   5.413   2.784   0.612
 5759SOL    HW117963   5.508   2.755   0.620
 5759SOL    HW217964   5.405   2.849   0.537
 5760SOL     OW17965   3.837   2.599   1.597
 5760SOL    HW117966   3.925   2.586   1.642
 5760SOL    HW217967   3.824   2.696   1.575
 5761SOL     OW17968   4.337   3.227   0.726
 5761SOL    HW117969   4.288   3.140   0.735
 5761SOL    HW217970   4.314   3.270   0.639
 5762SOL     OW17971   5.017   3.090   1.423
 5762SOL    HW117972   5.054   3.017   1.365
 5762SOL    HW217973   5.069   3.095   1.508
 5763SOL     OW17974   4.533   1.866   0.502
 5763SOL    HW117975   4.573   1.957   0.493
 5763SOL    HW217976   4.433   1.874   0.508
 5764SOL     OW17977   3.921   2.838   1.264
 5764SOL    HW117978   4.010   2.793   1.250
 5764SOL    HW217979   3.848   2.773   1.245
 5765SOL     OW17980   4.911   3.654   1.616
 5765SOL    HW117981   4.935   3.714   1.540
 5765SOL    HW217982   4.918   3.559   1.586
 5766SOL     OW17983   4.041   2.113   1.801
 5766SOL    HW117984   4.112   2.184   1.807
 5766SOL    HW217985   3.953   2.152   1.829
 5767SOL     OW17986   5.190   3.279   0.953
 5767SOL    HW117987   5.131   3.285   1.033
 5767SOL    HW217988   5.175   3.191   0.907
 5768SOL     OW17989   4.322   2.591   0.270
 5768SOL    HW117990   4.346   2.660   0.202
 5768SOL    HW217991   4.244   2.624   0.324
 5769SOL     OW17992   5.005   2.207   0.944
 5769SOL    HW117993   4.919   2.157   0.931
 5769SOL    HW217994   5.067   2.153   1.000
 5770SOL     OW17995   4.531   2.467   1.465
 5770SOL    HW117996   4.484   2.464   1.554
 5770SOL    HW217997   4.480   2.412   1.399
 5771SOL     OW17998   5.118   2.331   1.674
 5771SOL    HW117999   5.098   2.374   1.762
 5771SOL    HW218000   5.196   2.269   1.683
 5772SOL     OW18001   4.697   2.752   1.572
 5772SOL    HW118002   4.743   2.668   1.543
 5772SOL    HW218003   4.641   2.786   1.497
 5773SOL     OW18004   4.715   2.272   1.242
 5773SOL    HW118005   4.638   2.306   1.296
 5773SOL    HW218006   4.681   2.221   1.163
 5774SOL     OW18007   4.765   2.563   0.429
 5774SOL    HW118008   4.791   2.559   0.525
 5774SOL    HW218009   4.680   2.512   0.415
 5775SOL     OW18010   3.800   2.673   0.789
 5775SOL    HW118011   3.899   2.661   0.798
 5775SOL    HW218012   3.776   2.768   0.810
 5776SOL     OW18013   3.854   3.683   1.571
 5776SOL    HW118014   3.844   3.668   1.670
 5776SOL    HW218015   3.768   3.719   1.535
 5777SOL     OW18016   4.589   2.210   0.195
 5777SOL    HW118017   4.648   2.273   0.146
 5777SOL    HW218018   4.608   2.116   0.166
 5778SOL     OW18019   5.086   3.006   0.545
 5778SOL    HW118020   5.169   2.977   0.497
 5778SOL    HW218021   5.037   3.073   0.489
 5779SOL     OW18022   4.274   2.058   0.885
 5779SOL    HW118023   4.269   2.053   0.985
 5779SOL    HW218024   4.276   2.154   0.856
 5780SOL     OW18025   4.732   3.318   0.477
 5780SOL    HW118026   4.686   3.390   0.425
 5780SOL    HW218027   4.728   3.338   0.575
 5781SOL     OW18028   4.075   3.663   0.853
 5781SOL    HW118029   4.125   3.577   0.859
 5781SOL    HW218030   4.140   3.740   0.850
 5782SOL     OW18031   4.951   3.412   1.506
 5782SOL    HW118032   4.957   3.335   1.570
 5782SOL    HW218033   4.899   3.386   1.426
 5783SOL     OW18034   4.045   2.805   0.242
 5783SOL    HW118035   4.127   2.844   0.200
 5783SOL    HW218036   4.018   2.723   0.193
 5784SOL     OW18037   4.185   3.128   1.727
 5784SOL    HW118038   4.135   3.129   1.641
 5784SOL    HW218039   4.122   3.110   1.803
 5785SOL     OW18040   4.835   3.638   0.237
 5785SOL    HW118041   4.775   3.576   0.287
 5785SOL    HW218042   4.866   3.594   0.152
 5786SOL     OW18043   3.926   2.147   1.498
 5786SOL    HW118044   3.846   2.207   1.485
 5786SOL    HW218045   3.916   2.098   1.584
 5787SOL     OW18046   4.188   3.605   0.323
 5787SOL    HW118047   4.221   3.644   0.409
 5787SOL    HW218048   4.264   3.598   0.258
 5788SOL     OW18049   5.124   1.969   0.426
 5788SOL    HW118050   5.100   1.932   0.336
 5788SOL    HW218051   5.223   1.985   0.430
 5789SOL     OW18052   3.973   3.647   1.241
 5789SOL    HW118053   4.030   3.582   1.291
 5789SOL    HW218054   3.957   3.614   1.148
 5790SOL     OW18055   4.664   3.560   0.904
 5790SOL    HW118056   4.744   3.503   0.925
 5790SOL    HW218057   4.615   3.520   0.827
 5791SOL     OW18058   4.106   2.562   0.480
 5791SOL    HW118059   4.151   2.472   0.477
 5791SOL    HW218060   4.012   2.551   0.513
 5792SOL     OW18061   4.338   1.984   0.117
 5792SOL    HW118062   4.436   1.962   0.124
 5792SOL    HW218063   4.307   1.967   0.024
 5793SOL     OW18064   4.505   2.126   1.749
 5793SOL    HW118065   4.572   2.065   1.792
 5793SOL    HW218066   4.432   2.145   1.814
 5794SOL     OW18067   4.612   3.376   1.195
 5794SOL    HW118068   4.589   3.351   1.101
 5794SOL    HW218069   4.673   3.307   1.234
 5795SOL     OW18070   5.075   2.452   1.433
 5795SOL    HW118071   5.103   2.409   1.518
 5795SOL    HW218072   5.100   2.548   1.434
 5796SOL     OW18073   4.527   3.264   0.924
 5796SOL    HW118074   4.617   3.278   0.882
 5796SOL    HW218075   4.456   3.266   0.853
 5797SOL     OW18076   4.646   2.365   0.899
 5797SOL    HW118077   4.621   2.356   0.803
 5797SOL    HW218078   4.694   2.283   0.930
 5798SOL     OW18079   4.263   1.926   0.512
 5798SOL    HW118080   4.182   1.927   0.570
 5798SOL    HW218081   4.266   2.009   0.457
 5799SOL     OW18082   5.158   3.050   0.041
 5799SOL    HW118083   5.190   2.974   0.098
 5799SOL    HW218084   5.066   3.077   0.071
 5800SOL     OW18085   4.021   1.897   0.171
 5800SOL    HW118086   4.070   1.981   0.150
 5800SOL    HW218087   4.083   1.832   0.216
 5801SOL     OW18088   4.659   2.098   0.480
 5801SOL    HW118089   4.611   2.139   0.402
 5801SOL    HW218090   4.758   2.096   0.461
 5802SOL     OW18091   4.800   2.545   1.464
 5802SOL    HW118092   4.720   2.484   1.467
 5802SOL    HW218093   4.881   2.492   1.440
 5803SOL     OW18094   4.951   3.432   0.793
 5803SOL    HW118095   4.972   3.506   0.728
 5803SOL    HW218096   5.019   3.432   0.866
 5804SOL     OW18097   4.183   3.014   0.741
 5804SOL    HW118098   4.112   2.987   0.806
 5804SOL    HW218099   4.157   2.986   0.648
 5805SOL     OW18100   4.995   3.659   0.591
 5805SOL    HW118101   5.039   3.723   0.527
 5805SOL    HW218102   4.945   3.711   0.661
 5806SOL     OW18103   4.756   2.411   0.016
 5806SOL    HW118104   4.715   2.493  -0.023
 5806SOL    HW218105   4.820   2.437   0.089
 5807SOL     OW18106   3.802   2.418   1.386
 5807SOL    HW118107   3.894   2.417   1.345
 5807SOL    HW218108   3.796   2.492   1.453
 5808SOL     OW18109   4.285   2.084   1.147
 5808SOL    HW118110   4.323   2.000   1.184
 5808SOL    HW218111   4.197   2.103   1.191
 5809SOL     OW18112   4.590   2.316   0.642
 5809SOL    HW118113   4.558   2.388   0.580
 5809SOL    HW218114   4.614   2.235   0.589
 5810SOL     OW18115   4.741   1.901   0.753
 5810SOL    HW118116   4.669   1.906   0.684
 5810SOL    HW218117   4.717   1.832   0.822
 5811SOL     OW18118   5.153   3.035   0.867
 5811SOL    HW118119   5.098   2.951   0.860
 5811SOL    HW218120   5.179   3.064   0.775
 5812SOL     OW18121   4.212   3.247   0.174
 5812SOL    HW118122   4.125   3.232   0.221
 5812SOL    HW218123   4.195   3.273   0.079
 5813SOL     OW18124   5.114   2.437   0.078
 5813SOL    HW118125   5.060   2.416   0.159
 5813SOL    HW218126   5.205   2.396   0.087
 5814SOL     OW18127   4.251   2.118   0.328
 5814SOL    HW118128   4.278   2.059   0.253
 5814SOL    HW218129   4.251   2.213   0.297
 5815SOL     OW18130   4.788   3.209   1.340
 5815SOL    HW118131   4.708   3.186   1.395
 5815SOL    HW218132   4.871   3.183   1.389
 5816SOL     OW18133   5.316   3.491   1.625
 5816SOL    HW118134   5.343   3.525   1.535
 5816SOL    HW218135   5.395   3.453   1.671
 5817SOL     OW18136   4.835   3.057   1.100
 5817SOL    HW118137   4.795   3.101   1.181
 5817SOL    HW218138   4.794   3.094   1.017
 5818SOL     OW18139   4.639   1.951   1.402
 5818SOL    HW118140   4.664   1.931   1.307
 5818SOL    HW218141   4.711   2.007   1.444
 5819SOL     OW18142   4.704   2.978   1.719
 5819SOL    HW118143   4.605   2.984   1.729
 5819SOL    HW218144   4.727   2.898   1.663
 5820SOL     OW18145   4.429   2.912   0.368
 5820SOL    HW118146   4.415   2.919   0.467
 5820SOL    HW218147   4.513   2.861   0.350
 5821SOL     OW18148   4.134   2.675   1.251
 5821SOL    HW118149   4.220   2.687   1.301
 5821SOL    HW218150   4.092   2.588   1.278
 5822SOL     OW18151   4.998   2.248   1.262
 5822SOL    HW118152   5.019   2.322   1.326
 5822SOL    HW218153   4.909   2.265   1.219
 5823SOL     OW18154   3.788   3.426   1.331
 5823SOL    HW118155   3.742   3.508   1.297
 5823SOL    HW218156   3.886   3.445   1.340
 5824SOL     OW18157   4.091   2.962   0.501
 5824SOL    HW118158   4.084   3.045   0.445
 5824SOL    HW218159   4.095   2.882   0.441
 5825SOL     OW18160   4.290   2.399   0.865
 5825SOL    HW118161   4.302   2.465   0.791
 5825SOL    HW218162   4.336   2.433   0.948
 5826SOL     OW18163   4.976   3.210   0.388
 5826SOL    HW118164   5.026   3.287   0.428
 5826SOL    HW218165   4.881   3.212   0.420
 5827SOL     OW18166   4.996   3.307   1.142
 5827SOL    HW118167   5.043   3.320   1.229
 5827SOL    HW218168   4.930   3.233   1.151
 5828SOL     OW18169   4.078   3.372   1.329
 5828SOL    HW118170   4.057   3.328   1.242
 5828SOL    HW218171   4.175   3.398   1.332
 5829SOL     OW18172   4.126   2.613   1.598
 5829SOL    HW118173   4.194   2.668   1.551
 5829SOL    HW218174   4.166   2.525   1.625
 5830SOL     OW18175   4.737   1.967   1.770
 5830SOL    HW118176   4.743   2.052   1.718
 5830SOL    HW218177   4.769   1.891   1.713
 5831SOL     OW18178   4.228   1.912   1.740
 5831SOL    HW118179   4.186   1.855   1.670
 5831SOL    HW218180   4.162   1.981   1.772
 5832SOL     OW18181   4.297   2.732   1.029
 5832SOL    HW118182   4.341   2.821   1.020
 5832SOL    HW218183   4.234   2.732   1.106
 5833SOL     OW18184   5.084   2.724   1.045
 5833SOL    HW118185   5.009   2.724   0.979
 5833SOL    HW218186   5.121   2.632   1.054
 5834SOL     OW18187   4.933   2.387   0.275
 5834SOL    HW118188   4.946   2.303   0.329
 5834SOL    HW218189   4.904   2.461   0.335
 5835SOL     OW18190   4.031   2.075   1.231
 5835SOL    HW118191   4.008   2.112   1.321
 5835SOL    HW218192   4.001   1.980   1.225
 5836SOL     OW18193   3.761   3.172   1.282
 5836SOL    HW118194   3.814   3.123   1.350
 5836SOL    HW218195   3.783   3.270   1.287
 5837SOL     OW18196   4.456   2.496   1.064
 5837SOL    HW118197   4.515   2.470   0.988
 5837SOL    HW218198   4.428   2.592   1.053
 5838SOL     OW18199   4.031   1.925   0.618
 5838SOL    HW118200   4.020   2.019   0.651
 5838SOL    HW218201   4.026   1.862   0.695
 5839SOL     OW18202   5.346   2.229   0.374
 5839SOL    HW118203   5.348   2.153   0.438
 5839SOL    HW218204   5.298   2.306   0.414
 5840SOL     OW18205   4.747   2.628   0.966
 5840SOL    HW118206   4.762   2.649   1.062
 5840SOL    HW218207   4.717   2.533   0.957
 5841SOL     OW18208   4.704   3.435   1.700
 5841SOL    HW118209   4.684   3.479   1.612
 5841SOL    HW218210   4.743   3.344   1.684
 5842SOL     OW18211   4.074   2.760   1.804
 5842SOL    HW118212   4.150   2.804   1.852
 5842SOL    HW218213   4.109   2.713   1.722
 5843SOL     OW18214   5.027   2.700   0.042
 5843SOL    HW118215   5.061   2.607   0.057
 5843SOL    HW218216   5.045   2.727  -0.053
 5844SOL     OW18217   4.792   3.195   0.849
 5844SOL    HW118218   4.799   3.111   0.794
 5844SOL    HW218219   4.854   3.264   0.813
 5845SOL     OW18220   4.043   2.672   0.949
 5845SOL    HW118221   4.136   2.708   0.954
 5845SOL    HW218222   4.037   2.587   1.001
 5846SOL     OW18223   4.063   2.371   1.006
 5846SOL    HW118224   4.011   2.288   0.989
 5846SOL    HW218225   4.140   2.376   0.942
 5847SOL     OW18226   4.862   2.242   1.678
 5847SOL    HW118227   4.817   2.305   1.742
 5847SOL    HW218228   4.955   2.273   1.661
 5848SOL     OW18229   4.884   2.069   1.477
 5848SOL    HW118230   4.884   2.133   1.554
 5848SOL    HW218231   4.912   2.117   1.394
 5849SOL     OW18232   3.732   3.188   0.200
 5849SOL    HW118233   3.639   3.209   0.169
 5849SOL    HW218234   3.742   3.089   0.213
 5850SOL     OW18235   3.812   3.663   0.927
 5850SOL    HW118236   3.770   3.577   0.900
 5850SOL    HW218237   3.906   3.666   0.893
 5851SOL     OW18238   4.228   3.430   0.910
 5851SOL    HW118239   4.294   3.504   0.919
 5851SOL    HW218240   4.272   3.351   0.868
 5852SOL     OW18241   4.726   2.658   1.238
 5852SOL    HW118242   4.767   2.626   1.324
 5852SOL    HW218243   4.630   2.631   1.235
 5853SOL     OW18244   3.764   2.406   1.114
 5853SOL    HW118245   3.849   2.373   1.073
 5853SOL    HW218246   3.777   2.421   1.212
 5854SOL     OW18247   3.913   2.382   1.722
 5854SOL    HW118248   3.972   2.342   1.652
 5854SOL    HW218249   3.855   2.453   1.681
 5855SOL     OW18250   5.093   2.812   1.660
 5855SOL    HW118251   5.132   2.901   1.680
 5855SOL    HW218252   5.103   2.792   1.563
 5856SOL     OW18253   4.539   2.434   0.325
 5856SOL    HW118254   4.546   2.345   0.279
 5856SOL    HW218255   4.445   2.468   0.317
 5857SOL     OW18256   3.976   3.426   1.744
 5857SOL    HW118257   3.946   3.483   1.820
 5857SOL    HW218258   3.969   3.329   1.770
 5858SOL     OW18259   4.395   2.326   1.269
 5858SOL    HW118260   4.361   2.237   1.239
 5858SOL    HW218261   4.421   2.380   1.189
 5859SOL     OW18262   4.654   3.540   1.465
 5859SOL    HW118263   4.630   3.522   1.370
 5859SOL    HW218264   4.684   3.634   1.475
 5860SOL     OW18265   4.197   2.362   0.191
 5860SOL    HW118266   4.258   2.442   0.195
 5860SOL    HW218267   4.102   2.393   0.198
 5861SOL     OW18268   3.883   2.999   1.466
 5861SOL    HW118269   3.905   2.938   1.542
 5861SOL    HW218270   3.893   2.950   1.380
 5862SOL     OW18271   5.071   2.921   1.234
 5862SOL    HW118272   5.095   2.858   1.160
 5862SOL    HW218273   4.981   2.961   1.216
 5863SOL     OW18274   5.026   2.717   0.309
 5863SOL    HW118275   4.940   2.686   0.351
 5863SOL    HW218276   5.022   2.703   0.210
 5864SOL     OW18277   4.976   3.593   1.128
 5864SOL    HW118278   5.060   3.598   1.074
 5864SOL    HW218279   4.953   3.497   1.146
 5865SOL     OW18280   3.807   3.120   1.022
 5865SOL    HW118281   3.802   3.119   1.122
 5865SOL    HW218282   3.724   3.079   0.984
 5866SOL     OW18283   4.412   3.524   1.716
 5866SOL    HW118284   4.356   3.605   1.725
 5866SOL    HW218285   4.464   3.528   1.630
 5867SOL     OW18286   4.627   1.948   0.133
 5867SOL    HW118287   4.678   1.949   0.047
 5867SOL    HW218288   4.683   1.906   0.204
 5868SOL     OW18289   5.450   1.997   0.523
 5868SOL    HW118290   5.523   1.980   0.456
 5868SOL    HW218291   5.419   1.910   0.561
 5869SOL     OW18292   5.112   3.435   0.477
 5869SOL    HW118293   5.179   3.447   0.403
 5869SOL    HW218294   5.072   3.524   0.500
 5870SOL     OW18295   3.854   3.656   1.851
 5870SOL    HW118296   3.813   3.582   1.904
 5870SOL    HW218297   3.918   3.707   1.909
 5871SOL     OW18298   5.004   2.789   0.672
 5871SOL    HW118299   5.064   2.708   0.674
 5871SOL    HW218300   5.044   2.858   0.612
 5872SOL     OW18301   4.554   3.135   1.422
 5872SOL    HW118302   4.549   3.168   1.517
 5872SOL    HW218303   4.468   3.154   1.376
 5873SOL     OW18304   4.396   3.478   0.154
 5873SOL    HW118305   4.405   3.488   0.055
 5873SOL    HW218306   4.356   3.389   0.175
 5874SOL     OW18307   3.987   2.188   0.720
 5874SOL    HW118308   3.908   2.239   0.686
 5874SOL    HW218309   3.978   2.173   0.818
 5875SOL     OW18310   4.918   3.474   0.031
 5875SOL    HW118311   4.924   3.381   0.068
 5875SOL    HW218312   4.859   3.474  -0.049
 5876SOL     OW18313   4.546   2.864   1.372
 5876SOL    HW118314   4.586   2.863   1.280
 5876SOL    HW218315   4.556   2.956   1.412
 5877SOL     OW18316   4.640   2.772   0.291
 5877SOL    HW118317   4.703   2.810   0.223
 5877SOL    HW218318   4.680   2.689   0.330
 5878SOL     OW18319   4.096   3.150   1.490
 5878SOL    HW118320   4.083   3.243   1.456
 5878SOL    HW218321   4.012   3.098   1.477
 5879SOL     OW18322   4.763   2.960   0.696
 5879SOL    HW118323   4.693   2.913   0.750
 5879SOL    HW218324   4.822   2.892   0.653
 5880SOL     OW18325   4.738   2.098   0.971
 5880SOL    HW118326   4.730   2.062   0.878
 5880SOL    HW218327   4.736   2.022   1.036
 5881SOL     OW18328   4.314   3.349   0.491
 5881SOL    HW118329   4.356   3.291   0.421
 5881SOL    HW218330   4.270   3.428   0.447
 5882SOL     OW18331   3.979   3.210   0.290
 5882SOL    HW118332   3.883   3.211   0.263
 5882SOL    HW218333   3.991   3.263   0.374
 5883SOL     OW18334   3.829   2.875   1.726
 5883SOL    HW118335   3.752   2.842   1.780
 5883SOL    HW218336   3.914   2.845   1.768
 5884SOL     OW18337   4.396   2.065   1.489
 5884SOL    HW118338   4.486   2.049   1.449
 5884SOL    HW218339   4.404   2.070   1.588
 5885SOL     OW18340   3.799   2.207   0.033
 5885SOL    HW118341   3.707   2.179   0.004
 5885SOL    HW218342   3.830   2.284  -0.023
 5886SOL     OW18343   5.164   2.718   1.398
 5886SOL    HW118344   5.107   2.770   1.335
 5886SOL    HW218345   5.260   2.730   1.374
 5887SOL     OW18346   3.796   2.028   0.318
 5887SOL    HW118347   3.779   2.111   0.264
 5887SOL    HW218348   3.886   1.991   0.296
 5888SOL     OW18349   4.907   3.197   0.119
 5888SOL    HW118350   4.808   3.186   0.121
 5888SOL    HW218351   4.941   3.212   0.212
 5889SOL     OW18352   4.337   2.704   1.431
 5889SOL    HW118353   4.393   2.785   1.414
 5889SOL    HW218354   4.396   2.624   1.434
 5890SOL     OW18355   4.440   2.427   1.708
 5890SOL    HW118356   4.459   2.492   1.782
 5890SOL    HW218357   4.500   2.347   1.717
 5891SOL     OW18358   5.174   3.082   1.633
 5891SOL    HW118359   5.165   3.072   1.732
 5891SOL    HW218360   5.270   3.075   1.607
 5892SOL     OW18361   4.114   3.603   1.560
 5892SOL    HW118362   4.023   3.644   1.558
 5892SOL    HW218363   4.107   3.509   1.592
 5893SOL     OW18364   4.949   2.187   0.449
 5893SOL    HW118365   5.014   2.113   0.438
 5893SOL    HW218366   4.969   2.237   0.533
 5894SOL     OW18367   4.318   2.607   0.652
 5894SOL    HW118368   4.368   2.692   0.633
 5894SOL    HW218369   4.230   2.609   0.604
 5895SOL     OW18370   4.583   3.236   0.016
 5895SOL    HW118371   4.537   3.251   0.104
 5895SOL    HW218372   4.627   3.321  -0.014
 5896SOL     OW18373   4.385   3.652   0.953
 5896SOL    HW118374   4.339   3.740   0.940
 5896SOL    HW218375   4.484   3.664   0.946
 5897SOL     OW18376   4.583   2.818   0.861
 5897SOL    HW118377   4.637   2.749   0.909
 5897SOL    HW218378   4.551   2.887   0.927
 5898SOL     OW18379   4.807   2.846   0.087
 5898SOL    HW118380   4.784   2.899   0.005
 5898SOL    HW218381   4.888   2.790   0.068
 5899SOL     OW18382   3.945   3.176   1.844
 5899SOL    HW118383   3.880   3.103   1.823
 5899SOL    HW218384   3.949   3.190   1.942
 5900SOL     OW18385   3.803   3.102   0.653
 5900SOL    HW118386   3.802   3.055   0.741
 5900SOL    HW218387   3.885   3.074   0.602
 5901SOL     OW18388   4.396   3.253   1.624
 5901SOL    HW118389   4.318   3.203   1.662
 5901SOL    HW218390   4.393   3.348   1.655
 5902SOL     OW18391   4.152   2.286   0.520
 5902SOL    HW118392   4.182   2.214   0.458
 5902SOL    HW218393   4.113   2.246   0.603
 5903SOL     OW18394   5.429   3.349   1.104
 5903SOL    HW118395   5.336   3.324   1.077
 5903SOL    HW218396   5.455   3.299   1.186
 5904SOL     OW18397   4.041   2.409   1.280
 5904SOL    HW118398   4.079   2.350   1.352
 5904SOL    HW218399   4.081   2.383   1.192
 5905SOL     OW18400   4.536   3.448   0.687
 5905SOL    HW118401   4.568   3.458   0.593
 5905SOL    HW218402   4.457   3.386   0.689
 5906SOL     OW18403   5.148   2.076   1.112
 5906SOL    HW118404   5.200   2.011   1.167
 5906SOL    HW218405   5.099   2.139   1.173
 5907SOL     OW18406   4.725   1.896   1.154
 5907SOL    HW118407   4.662   1.824   1.123
 5907SOL    HW218408   4.818   1.860   1.154
 5908SOL     OW18409   4.494   3.192   0.301
 5908SOL    HW118410   4.448   3.105   0.318
 5908SOL    HW218411   4.585   3.189   0.342
 5909SOL     OW18412   4.342   3.429   1.284
 5909SOL    HW118413   4.337   3.511   1.341
 5909SOL    HW218414   4.431   3.426   1.239
 5910SOL     OW18415   5.076   1.914   0.168
 5910SOL    HW118416   5.111   1.873   0.084
 5910SOL    HW218417   4.986   1.876   0.188
 5911SOL     OW18418   5.024   2.315   0.691
 5911SOL    HW118419   4.965   2.395   0.695
 5911SOL    HW218420   5.039   2.280   0.784
 5912SOL     OW18421   5.317   2.083   0.882
 5912SOL    HW118422   5.233   2.082   0.936
 5912SOL    HW218423   5.319   2.166   0.826
 5913SOL     OW18424   3.763   2.939   0.300
 5913SOL    HW118425   3.862   2.928   0.291
 5913SOL    HW218426   3.723   2.853   0.332
 5914SOL     OW18427   4.599   3.508   0.337
 5914SOL    HW118428   4.522   3.473   0.283
 5914SOL    HW218429   4.567   3.579   0.399
 5915SOL     OW18430   3.954   2.490   1.975
 5915SOL    HW118431   3.861   2.488   2.012
 5915SOL    HW218432   3.955   2.451   1.883
 5916SOL     OW18433   3.949   2.137   2.858
 5916SOL    HW118434   3.984   2.120   2.950
 5916SOL    HW218435   3.861   2.092   2.846
 5917SOL     OW18436   3.743   2.230   2.509
 5917SOL    HW118437   3.661   2.273   2.548
 5917SOL    HW218438   3.715   2.157   2.446
 5918SOL     OW18439   4.293   3.137   3.027
 5918SOL    HW118440   4.200   3.130   2.990
 5918SOL    HW218441   4.304   3.226   3.071
 5919SOL     OW18442   5.279   3.373   2.565
 5919SOL    HW118443   5.222   3.357   2.646
 5919SOL    HW218444   5.220   3.383   2.485
 5920SOL     OW18445   4.859   2.565   2.579
 5920SOL    HW118446   4.916   2.643   2.554
 5920SOL    HW218447   4.799   2.591   2.655
 5921SOL     OW18448   4.492   3.006   2.885
 5921SOL    HW118449   4.414   3.023   2.945
 5921SOL    HW218450   4.526   3.093   2.849
 5922SOL     OW18451   4.574   2.660   3.685
 5922SOL    HW118452   4.570   2.736   3.750
 5922SOL    HW218453   4.596   2.696   3.594
 5923SOL     OW18454   4.409   2.874   2.527
 5923SOL    HW118455   4.478   2.858   2.597
 5923SOL    HW218456   4.336   2.931   2.565
 5924SOL     OW18457   4.410   3.023   3.665
 5924SOL    HW118458   4.470   3.102   3.679
 5924SOL    HW218459   4.324   3.054   3.624
 5925SOL     OW18460   4.059   3.297   2.923
 5925SOL    HW118461   3.981   3.266   2.870
 5925SOL    HW218462   4.117   3.355   2.866
 5926SOL     OW18463   5.184   3.367   3.201
 5926SOL    HW118464   5.208   3.461   3.227
 5926SOL    HW218465   5.168   3.313   3.283
 5927SOL     OW18466   4.162   2.254   3.361
 5927SOL    HW118467   4.244   2.198   3.370
 5927SOL    HW218468   4.081   2.196   3.365
 5928SOL     OW18469   3.955   3.575   2.345
 5928SOL    HW118470   3.989   3.652   2.399
 5928SOL    HW218471   3.999   3.575   2.255
 5929SOL     OW18472   4.851   3.203   3.552
 5929SOL    HW118473   4.898   3.203   3.640
 5929SOL    HW218474   4.803   3.116   3.541
 5930SOL     OW18475   3.954   3.296   2.400
 5930SOL    HW118476   3.928   3.392   2.400
 5930SOL    HW218477   3.883   3.242   2.445
 5931SOL     OW18478   3.964   2.953   2.748
 5931SOL    HW118479   3.978   2.869   2.800
 5931SOL    HW218480   3.909   3.017   2.803
 5932SOL     OW18481   4.344   3.648   3.301
 5932SOL    HW118482   4.252   3.631   3.336
 5932SOL    HW218483   4.372   3.740   3.327
 5933SOL     OW18484   4.330   2.826   1.985
 5933SOL    HW118485   4.337   2.910   1.931
 5933SOL    HW218486   4.376   2.839   2.073
 5934SOL     OW18487   3.846   2.505   2.425
 5934SOL    HW118488   3.801   2.417   2.442
 5934SOL    HW218489   3.845   2.559   2.509
 5935SOL     OW18490   3.751   3.458   1.979
 5935SOL    HW118491   3.732   3.362   2.000
 5935SOL    HW218492   3.718   3.516   2.054
 5936SOL     OW18493   5.413   2.784   2.474
 5936SOL    HW118494   5.508   2.755   2.482
 5936SOL    HW218495   5.405   2.849   2.399
 5937SOL     OW18496   3.837   2.599   3.459
 5937SOL    HW118497   3.925   2.586   3.504
 5937SOL    HW218498   3.824   2.696   3.437
 5938SOL     OW18499   4.337   3.227   2.588
 5938SOL    HW118500   4.288   3.140   2.597
 5938SOL    HW218501   4.314   3.270   2.501
 5939SOL     OW18502   5.017   3.090   3.285
 5939SOL    HW118503   5.054   3.017   3.227
 5939SOL    HW218504   5.069   3.095   3.370
 5940SOL     OW18505   4.533   1.866   2.364
 5940SOL    HW118506   4.573   1.957   2.355
 5940SOL    HW218507   4.433   1.874   2.370
 5941SOL     OW18508   3.921   2.838   3.126
 5941SOL    HW118509   4.010   2.793   3.112
 5941SOL    HW218510   3.848   2.773   3.107
 5942SOL     OW18511   4.911   3.654   3.478
 5942SOL    HW118512   4.935   3.714   3.402
 5942SOL    HW218513   4.918   3.559   3.448
 5943SOL     OW18514   4.041   2.113   3.663
 5943SOL    HW118515   4.112   2.184   3.669
 5943SOL    HW218516   3.953   2.152   3.691
 5944SOL     OW18517   5.190   3.279   2.815
 5944SOL    HW118518   5.131   3.285   2.895
 5944SOL    HW218519   5.175   3.191   2.769
 5945SOL     OW18520   4.322   2.591   2.132
 5945SOL    HW118521   4.346   2.660   2.064
 5945SOL    HW218522   4.244   2.624   2.186
 5946SOL     OW18523   5.005   2.207   2.806
 5946SOL    HW118524   4.919   2.157   2.793
 5946SOL    HW218525   5.067   2.153   2.862
 5947SOL     OW18526   4.531   2.467   3.327
 5947SOL    HW118527   4.484   2.464   3.416
 5947SOL    HW218528   4.480   2.412   3.261
 5948SOL     OW18529   5.118   2.331   3.536
 5948SOL    HW118530   5.098   2.374   3.624
 5948SOL    HW218531   5.196   2.269   3.545
 5949SOL     OW18532   4.697   2.752   3.434
 5949SOL    HW118533   4.743   2.668   3.405
 5949SOL    HW218534   4.641   2.786   3.359
 5950SOL     OW18535   4.715   2.272   3.104
 5950SOL    HW118536   4.638   2.306   3.158
 5950SOL    HW218537   4.681   2.221   3.025
 5951SOL     OW18538   4.765   2.563   2.291
 5951SOL    HW118539   4.791   2.559   2.387
 5951SOL    HW218540   4.680   2.512   2.277
 5952SOL     OW18541   3.800   2.673   2.651
 5952SOL    HW118542   3.899   2.661   2.660
 5952SOL    HW218543   3.776   2.768   2.672
 5953SOL     OW18544   3.854   3.683   3.433
 5953SOL    HW118545   3.844   3.668   3.532
 5953SOL    HW218546   3.768   3.719   3.397
 5954SOL     OW18547   4.589   2.210   2.057
 5954SOL    HW118548   4.648   2.273   2.008
 5954SOL    HW218549   4.608   2.116   2.028
 5955SOL     OW18550   5.086   3.006   2.407
 5955SOL    HW118551   5.169   2.977   2.359
 5955SOL    HW218552   5.037   3.073   2.351
 5956SOL     OW18553   4.274   2.058   2.747
 5956SOL    HW118554   4.269   2.053   2.847
 5956SOL    HW218555   4.276   2.154   2.718
 5957SOL     OW18556   4.732   3.318   2.339
 5957SOL    HW118557   4.686   3.390   2.287
 5957SOL    HW218558   4.728   3.338   2.437
 5958SOL     OW18559   4.075   3.663   2.715
 5958SOL    HW118560   4.125   3.577   2.721
 5958SOL    HW218561   4.140   3.740   2.712
 5959SOL     OW18562   4.951   3.412   3.368
 5959SOL    HW118563   4.957   3.335   3.432
 5959SOL    HW218564   4.899   3.386   3.288
 5960SOL     OW18565   4.045   2.805   2.104
 5960SOL    HW118566   4.127   2.844   2.062
 5960SOL    HW218567   4.018   2.723   2.055
 5961SOL     OW18568   4.185   3.128   3.589
 5961SOL    HW118569   4.135   3.129   3.503
 5961SOL    HW218570   4.122   3.110   3.665
 5962SOL     OW18571   4.835   3.638   2.099
 5962SOL    HW118572   4.775   3.576   2.149
 5962SOL    HW218573   4.866   3.594   2.014
 5963SOL     OW18574   3.926   2.147   3.360
 5963SOL    HW118575   3.846   2.207   3.347
 5963SOL    HW218576   3.916   2.098   3.446
 5964SOL     OW18577   4.188   3.605   2.185
 5964SOL    HW118578   4.221   3.644   2.271
 5964SOL    HW218579   4.264   3.598   2.120
 5965SOL     OW18580   5.124   1.969   2.288
 5965SOL    HW118581   5.100   1.932   2.198
 5965SOL    HW218582   5.223   1.985   2.292
 5966SOL     OW18583   3.973   3.647   3.103
 5966SOL    HW118584   4.030   3.582   3.153
 5966SOL    HW218585   3.957   3.614   3.010
 5967SOL     OW18586   4.664   3.560   2.766
 5967SOL    HW118587   4.744   3.503   2.787
 5967SOL    HW218588   4.615   3.520   2.689
 5968SOL     OW18589   4.106   2.562   2.342
 5968SOL    HW118590   4.151   2.472   2.339
 5968SOL    HW218591   4.012   2.551   2.375
 5969SOL     OW18592   4.338   1.984   1.979
 5969SOL    HW118593   4.436   1.962   1.986
 5969SOL    HW218594   4.307   1.967   1.886
 5970SOL     OW18595   4.505   2.126   3.611
 5970SOL    HW118596   4.572   2.065   3.654
 5970SOL    HW218597   4.432   2.145   3.676
 5971SOL     OW18598   4.612   3.376   3.057
 5971SOL    HW118599   4.589   3.351   2.963
 5971SOL    HW218600   4.673   3.307   3.096
 5972SOL     OW18601   5.075   2.452   3.295
 5972SOL    HW118602   5.103   2.409   3.380
 5972SOL    HW218603   5.100   2.548   3.296
 5973SOL     OW18604   4.527   3.264   2.786
 5973SOL    HW118605   4.617   3.278   2.744
 5973SOL    HW218606   4.456   3.266   2.715
 5974SOL     OW18607   4.646   2.365   2.761
 5974SOL    HW118608   4.621   2.356   2.665
 5974SOL    HW218609   4.694   2.283   2.792
 5975SOL     OW18610   4.263   1.926   2.374
 5975SOL    HW118611   4.182   1.927   2.432
 5975SOL    HW218612   4.266   2.009   2.319
 5976SOL     OW18613   5.158   3.050   1.903
 5976SOL    HW118614   5.190   2.974   1.960
 5976SOL    HW218615   5.066   3.077   1.933
 5977SOL     OW18616   4.021   1.897   2.033
 5977SOL    HW118617   4.070   1.981   2.012
 5977SOL    HW218618   4.083   1.832   2.078
 5978SOL     OW18619   4.659   2.098   2.342
 5978SOL    HW118620   4.611   2.139   2.264
 5978SOL    HW218621   4.758   2.096   2.323
 5979SOL     OW18622   4.800   2.545   3.326
 5979SOL    HW118623   4.720   2.484   3.329
 5979SOL    HW218624   4.881   2.492   3.302
 5980SOL     OW18625   4.951   3.432   2.655
 5980SOL    HW118626   4.972   3.506   2.590
 5980SOL    HW218627   5.019   3.432   2.728
 5981SOL     OW18628   4.183   3.014   2.603
 5981SOL    HW118629   4.112   2.987   2.668
 5981SOL    HW218630   4.157   2.986   2.510
 5982SOL     OW18631   4.995   3.659   2.453
 5982SOL    HW118632   5.039   3.723   2.389
 5982SOL    HW218633   4.945   3.711   2.523
 5983SOL     OW18634   4.756   2.411   1.878
 5983SOL    HW118635   4.715   2.493   1.839
 5983SOL    HW218636   4.820   2.437   1.951
 5984SOL     OW18637   3.802   2.418   3.248
 5984SOL    HW118638   3.894   2.417   3.207
 5984SOL    HW218639   3.796   2.492   3.315
 5985SOL     OW18640   4.285   2.084   3.009
 5985SOL    HW118641   4.323   2.000   3.046
 5985SOL    HW218642   4.197   2.103   3.053
 5986SOL     OW18643   4.590   2.316   2.504
 5986SOL    HW118644   4.558   2.388   2.442
 5986SOL    HW218645   4.614   2.235   2.451
 5987SOL     OW18646   4.741   1.901   2.615
 5987SOL    HW118647   4.669   1.906   2.546
 5987SOL    HW218648   4.717   1.832   2.684
 5988SOL     OW18649   5.153   3.035   2.729
 5988SOL    HW118650   5.098   2.951   2.722
 5988SOL    HW218651   5.179   3.064   2.637
 5989SOL     OW18652   4.212   3.247   2.036
 5989SOL    HW118653   4.125   3.232   2.083
 5989SOL    HW218654   4.195   3.273   1.941
 5990SOL     OW18655   5.114   2.437   1.940
 5990SOL    HW118656   5.060   2.416   2.021
 5990SOL    HW218657   5.205   2.396   1.949
 5991SOL     OW18658   4.251   2.118   2.190
 5991SOL    HW118659   4.278   2.059   2.115
 5991SOL    HW218660   4.251   2.213   2.159
 5992SOL     OW18661   4.788   3.209   3.202
 5992SOL    HW118662   4.708   3.186   3.257
 5992SOL    HW218663   4.871   3.183   3.251
 5993SOL     OW18664   5.316   3.491   3.487
 5993SOL    HW118665   5.343   3.525   3.397
 5993SOL    HW218666   5.395   3.453   3.533
 5994SOL     OW18667   4.835   3.057   2.962
 5994SOL    HW118668   4.795   3.101   3.043
 5994SOL    HW218669   4.794   3.094   2.879
 5995SOL     OW18670   4.639   1.951   3.264
 5995SOL    HW118671   4.664   1.931   3.169
 5995SOL    HW218672   4.711   2.007   3.306
 5996SOL     OW18673   4.704   2.978   3.581
 5996SOL    HW118674   4.605   2.984   3.591
 5996SOL    HW218675   4.727   2.898   3.525
 5997SOL     OW18676   4.429   2.912   2.230
 5997SOL    HW118677   4.415   2.919   2.329
 5997SOL    HW218678   4.513   2.861   2.212
 5998SOL     OW18679   4.134   2.675   3.113
 5998SOL    HW118680   4.220   2.687   3.163
 5998SOL    HW218681   4.092   2.588   3.140
 5999SOL     OW18682   4.998   2.248   3.124
 5999SOL    HW118683   5.019   2.322   3.188
 5999SOL    HW218684   4.909   2.265   3.081
 6000SOL     OW18685   3.788   3.426   3.193
 6000SOL    HW118686   3.742   3.508   3.159
 6000SOL    HW218687   3.886   3.445   3.202
 6001SOL     OW18688   4.091   2.962   2.363
 6001SOL    HW118689   4.084   3.045   2.307
 6001SOL    HW218690   4.095   2.882   2.303
 6002SOL     OW18691   4.290   2.399   2.727
 6002SOL    HW118692   4.302   2.465   2.653
 6002SOL    HW218693   4.336   2.433   2.810
 6003SOL     OW18694   4.976   3.210   2.250
 6003SOL    HW118695   5.026   3.287   2.290
 6003SOL    HW218696   4.881   3.212   2.282
 6004SOL     OW18697   4.996   3.307   3.004
 6004SOL    HW118698   5.043   3.320   3.091
 6004SOL    HW218699   4.930   3.233   3.013
 6005SOL     OW18700   4.078   3.372   3.191
 6005SOL    HW118701   4.057   3.328   3.104
 6005SOL    HW218702   4.175   3.398   3.194
 6006SOL     OW18703   4.126   2.613   3.460
 6006SOL    HW118704   4.194   2.668   3.413
 6006SOL    HW218705   4.166   2.525   3.487
 6007SOL     OW18706   4.737   1.967   3.632
 6007SOL    HW118707   4.743   2.052   3.580
 6007SOL    HW218708   4.769   1.891   3.575
 6008SOL     OW18709   4.228   1.912   3.602
 6008SOL    HW118710   4.186   1.855   3.532
 6008SOL    HW218711   4.162   1.981   3.634
 6009SOL     OW18712   4.297   2.732   2.891
 6009SOL    HW118713   4.341   2.821   2.882
 6009SOL    HW218714   4.234   2.732   2.968
 6010SOL     OW18715   5.084   2.724   2.907
 6010SOL    HW118716   5.009   2.724   2.841
 6010SOL    HW218717   5.121   2.632   2.916
 6011SOL     OW18718   4.933   2.387   2.137
 6011SOL    HW118719   4.946   2.303   2.191
 6011SOL    HW218720   4.904   2.461   2.197
 6012SOL     OW18721   4.031   2.075   3.093
 6012SOL    HW118722   4.008   2.112   3.183
 6012SOL    HW218723   4.001   1.980   3.087
 6013SOL     OW18724   3.761   3.172   3.144
 6013SOL    HW118725   3.814   3.123   3.212
 6013SOL    HW218726   3.783   3.270   3.149
 6014SOL     OW18727   4.456   2.496   2.926
 6014SOL    HW118728   4.515   2.470   2.850
 6014SOL    HW218729   4.428   2.592   2.915
 6015SOL     OW18730   4.031   1.925   2.480
 6015SOL    HW118731   4.020   2.019   2.513
 6015SOL    HW218732   4.026   1.862   2.557
 6016SOL     OW18733   5.346   2.229   2.236
 6016SOL    HW118734   5.348   2.153   2.300
 6016SOL    HW218735   5.298   2.306   2.276
 6017SOL     OW18736   4.747   2.628   2.828
 6017SOL    HW118737   4.762   2.649   2.924
 6017SOL    HW218738   4.717   2.533   2.819
 6018SOL     OW18739   4.704   3.435   3.562
 6018SOL    HW118740   4.684   3.479   3.474
 6018SOL    HW218741   4.743   3.344   3.546
 6019SOL     OW18742   4.074   2.760   3.666
 6019SOL    HW118743   4.150   2.804   3.714
 6019SOL    HW218744   4.109   2.713   3.584
 6020SOL     OW18745   5.027   2.700   1.904
 6020SOL    HW118746   5.061   2.607   1.919
 6020SOL    HW218747   5.045   2.727   1.809
 6021SOL     OW18748   4.792   3.195   2.711
 6021SOL    HW118749   4.799   3.111   2.656
 6021SOL    HW218750   4.854   3.264   2.675
 6022SOL     OW18751   4.043   2.672   2.811
 6022SOL    HW118752   4.136   2.708   2.816
 6022SOL    HW218753   4.037   2.587   2.863
 6023SOL     OW18754   4.063   2.371   2.868
 6023SOL    HW118755   4.011   2.288   2.851
 6023SOL    HW218756   4.140   2.376   2.804
 6024SOL     OW18757   4.862   2.242   3.540
 6024SOL    HW118758   4.817   2.305   3.604
 6024SOL    HW218759   4.955   2.273   3.523
 6025SOL     OW18760   4.884   2.069   3.339
 6025SOL    HW118761   4.884   2.133   3.416
 6025SOL    HW218762   4.912   2.117   3.256
 6026SOL     OW18763   3.732   3.188   2.062
 6026SOL    HW118764   3.639   3.209   2.031
 6026SOL    HW218765   3.742   3.089   2.075
 6027SOL     OW18766   3.812   3.663   2.789
 6027SOL    HW118767   3.770   3.577   2.762
 6027SOL    HW218768   3.906   3.666   2.755
 6028SOL     OW18769   4.228   3.430   2.772
 6028SOL    HW118770   4.294   3.504   2.781
 6028SOL    HW218771   4.272   3.351   2.730
 6029SOL     OW18772   4.726   2.658   3.100
 6029SOL    HW118773   4.767   2.626   3.186
 6029SOL    HW218774   4.630   2.631   3.097
 6030SOL     OW18775   3.764   2.406   2.976
 6030SOL    HW118776   3.849   2.373   2.935
 6030SOL    HW218777   3.777   2.421   3.074
 6031SOL     OW18778   3.913   2.382   3.584
 6031SOL    HW118779   3.972   2.342   3.514
 6031SOL    HW218780   3.855   2.453   3.543
 6032SOL     OW18781   5.093   2.812   3.522
 6032SOL    HW118782   5.132   2.901   3.542
 6032SOL    HW218783   5.103   2.792   3.425
 6033SOL     OW18784   4.539   2.434   2.187
 6033SOL    HW118785   4.546   2.345   2.141
 6033SOL    HW218786   4.445   2.468   2.179
 6034SOL     OW18787   3.976   3.426   3.606
 6034SOL    HW118788   3.946   3.483   3.682
 6034SOL    HW218789   3.969   3.329   3.632
 6035SOL     OW18790   4.395   2.326   3.131
 6035SOL    HW118791   4.361   2.237   3.101
 6035SOL    HW218792   4.421   2.380   3.051
 6036SOL     OW18793   4.654   3.540   3.327
 6036SOL    HW118794   4.630   3.522   3.232
 6036SOL    HW218795   4.684   3.634   3.337
 6037SOL     OW18796   4.197   2.362   2.053
 6037SOL    HW118797   4.258   2.442   2.057
 6037SOL    HW218798   4.102   2.393   2.060
 6038SOL     OW18799   3.883   2.999   3.328
 6038SOL    HW118800   3.905   2.938   3.404
 6038SOL    HW218801   3.893   2.950   3.242
 6039SOL     OW18802   5.071   2.921   3.096
 6039SOL    HW118803   5.095   2.858   3.022
 6039SOL    HW218804   4.981   2.961   3.078
 6040SOL     OW18805   5.026   2.717   2.171
 6040SOL    HW118806   4.940   2.686   2.213
 6040SOL    HW218807   5.022   2.703   2.072
 6041SOL     OW18808   4.976   3.593   2.990
 6041SOL    HW118809   5.060   3.598   2.936
 6041SOL    HW218810   4.953   3.497   3.008
 6042SOL     OW18811   3.807   3.120   2.884
 6042SOL    HW118812   3.802   3.119   2.984
 6042SOL    HW218813   3.724   3.079   2.846
 6043SOL     OW18814   4.412   3.524   3.578
 6043SOL    HW118815   4.356   3.605   3.587
 6043SOL    HW218816   4.464   3.528   3.492
 6044SOL     OW18817   5.450   1.997   2.385
 6044SOL    HW118818   5.523   1.980   2.318
 6044SOL    HW218819   5.419   1.910   2.423
 6045SOL     OW18820   5.112   3.435   2.339
 6045SOL    HW118821   5.179   3.447   2.265
 6045SOL    HW218822   5.072   3.524   2.362
 6046SOL     OW18823   3.854   3.656   3.713
 6046SOL    HW118824   3.813   3.582   3.766
 6046SOL    HW218825   3.918   3.707   3.771
 6047SOL     OW18826   5.004   2.789   2.534
 6047SOL    HW118827   5.064   2.708   2.536
 6047SOL    HW218828   5.044   2.858   2.474
 6048SOL     OW18829   4.554   3.135   3.284
 6048SOL    HW118830   4.549   3.168   3.379
 6048SOL    HW218831   4.468   3.154   3.238
 6049SOL     OW18832   4.396   3.478   2.016
 6049SOL    HW118833   4.405   3.488   1.917
 6049SOL    HW218834   4.356   3.389   2.037
 6050SOL     OW18835   3.987   2.188   2.582
 6050SOL    HW118836   3.908   2.239   2.548
 6050SOL    HW218837   3.978   2.173   2.680
 6051SOL     OW18838   4.918   3.474   1.893
 6051SOL    HW118839   4.924   3.381   1.930
 6051SOL    HW218840   4.859   3.474   1.813
 6052SOL     OW18841   4.546   2.864   3.234
 6052SOL    HW118842   4.586   2.863   3.142
 6052SOL    HW218843   4.556   2.956   3.274
 6053SOL     OW18844   4.640   2.772   2.153
 6053SOL    HW118845   4.703   2.810   2.085
 6053SOL    HW218846   4.680   2.689   2.192
 6054SOL     OW18847   4.096   3.150   3.352
 6054SOL    HW118848   4.083   3.243   3.318
 6054SOL    HW218849   4.012   3.098   3.339
 6055SOL     OW18850   4.763   2.960   2.558
 6055SOL    HW118851   4.693   2.913   2.612
 6055SOL    HW218852   4.822   2.892   2.515
 6056SOL     OW18853   4.738   2.098   2.833
 6056SOL    HW118854   4.730   2.062   2.740
 6056SOL    HW218855   4.736   2.022   2.898
 6057SOL     OW18856   4.314   3.349   2.353
 6057SOL    HW118857   4.356   3.291   2.283
 6057SOL    HW218858   4.270   3.428   2.309
 6058SOL     OW18859   3.979   3.210   2.152
 6058SOL    HW118860   3.883   3.211   2.125
 6058SOL    HW218861   3.991   3.263   2.236
 6059SOL     OW18862   3.829   2.875   3.588
 6059SOL    HW118863   3.752   2.842   3.642
 6059SOL    HW218864   3.914   2.845   3.630
 6060SOL     OW18865   4.396   2.065   3.351
 6060SOL    HW118866   4.486   2.049   3.311
 6060SOL    HW218867   4.404   2.070   3.450
 6061SOL     OW18868   3.799   2.207   1.895
 6061SOL    HW118869   3.707   2.179   1.866
 6061SOL    HW218870   3.830   2.284   1.839
 6062SOL     OW18871   5.164   2.718   3.260
 6062SOL    HW118872   5.107   2.770   3.197
 6062SOL    HW218873   5.260   2.730   3.236
 6063SOL     OW18874   3.796   2.028   2.180
 6063SOL    HW118875   3.779   2.111   2.126
 6063SOL    HW218876   3.886   1.991   2.158
 6064SOL     OW18877   4.907   3.197   1.981
 6064SOL    HW118878   4.808   3.186   1.983
 6064SOL    HW218879   4.941   3.212   2.074
 6065SOL     OW18880   4.337   2.704   3.293
 6065SOL    HW118881   4.393   2.785   3.276
 6065SOL    HW218882   4.396   2.624   3.296
 6066SOL     OW18883   4.440   2.427   3.570
 6066SOL    HW118884   4.459   2.492   3.644
 6066SOL    HW218885   4.500   2.347   3.579
 6067SOL     OW18886   5.174   3.082   3.495
 6067SOL    HW118887   5.165   3.072   3.594
 6067SOL    HW218888   5.270   3.075   3.469
 6068SOL     OW18889   4.114   3.603   3.422
 6068SOL    HW118890   4.023   3.644   3.420
 6068SOL    HW218891   4.107   3.509   3.454
 6069SOL     OW18892   4.949   2.187   2.311
 6069SOL    HW118893   5.014   2.113   2.300
 6069SOL    HW218894   4.969   2.237   2.395
 6070SOL     OW18895   4.318   2.607   2.514
 6070SOL    HW118896   4.368   2.692   2.495
 6070SOL    HW218897   4.230   2.609   2.466
 6071SOL     OW18898   4.583   3.236   1.878
 6071SOL    HW118899   4.537   3.251   1.966
 6071SOL    HW218900   4.627   3.321   1.848
 6072SOL     OW18901   4.385   3.652   2.815
 6072SOL    HW118902   4.339   3.740   2.802
 6072SOL    HW218903   4.484   3.664   2.808
 6073SOL     OW18904   4.583   2.818   2.723
 6073SOL    HW118905   4.637   2.749   2.771
 6073SOL    HW218906   4.551   2.887   2.789
 6074SOL     OW18907   4.807   2.846   1.949
 6074SOL    HW118908   4.784   2.899   1.867
 6074SOL    HW218909   4.888   2.790   1.930
 6075SOL     OW18910   3.945   3.176   3.706
 6075SOL    HW118911   3.880   3.103   3.685
 6075SOL    HW218912   3.949   3.190   3.804
 6076SOL     OW18913   3.803   3.102   2.515
 6076SOL    HW118914   3.802   3.055   2.603
 6076SOL    HW218915   3.885   3.074   2.464
 6077SOL     OW18916   4.396   3.253   3.486
 6077SOL    HW118917   4.318   3.203   3.524
 6077SOL    HW218918   4.393   3.348   3.517
 6078SOL     OW18919   4.152   2.286   2.382
 6078SOL    HW118920   4.182   2.214   2.320
 6078SOL    HW218921   4.113   2.246   2.465
 6079SOL     OW18922   5.429   3.349   2.966
 6079SOL    HW118923   5.336   3.324   2.939
 6079SOL    HW218924   5.455   3.299   3.048
 6080SOL     OW18925   4.041   2.409   3.142
 6080SOL    HW118926   4.079   2.350   3.214
 6080SOL    HW218927   4.081   2.383   3.054
 6081SOL     OW18928   4.536   3.448   2.549
 6081SOL    HW118929   4.568   3.458   2.455
 6081SOL    HW218930   4.457   3.386   2.551
 6082SOL     OW18931   5.148   2.076   2.974
 6082SOL    HW118932   5.200   2.011   3.029
 6082SOL    HW218933   5.099   2.139   3.035
 6083SOL     OW18934   4.725   1.896   3.016
 6083SOL    HW118935   4.662   1.824   2.985
 6083SOL    HW218936   4.818   1.860   3.016
 6084SOL     OW18937   4.494   3.192   2.163
 6084SOL    HW118938   4.448   3.105   2.180
 6084SOL    HW218939   4.585   3.189   2.204
 6085SOL     OW18940   4.342   3.429   3.146
 6085SOL    HW118941   4.337   3.511   3.203
 6085SOL    HW218942   4.431   3.426   3.101
 6086SOL     OW18943   5.076   1.914   2.030
 6086SOL    HW118944   5.111   1.873   1.946
 6086SOL    HW218945   4.986   1.876   2.050
 6087SOL     OW18946   5.024   2.315   2.553
 6087SOL    HW118947   4.965   2.395   2.557
 6087SOL    HW218948   5.039   2.280   2.646
 6088SOL     OW18949   5.317   2.083   2.744
 6088SOL    HW118950   5.233   2.082   2.798
 6088SOL    HW218951   5.319   2.166   2.688
 6089SOL     OW18952   3.763   2.939   2.162
 6089SOL    HW118953   3.862   2.928   2.153
 6089SOL    HW218954   3.723   2.853   2.194
 6090SOL     OW18955   4.599   3.508   2.199
 6090SOL    HW118956   4.522   3.473   2.145
 6090SOL    HW218957   4.567   3.579   2.261
 6091SOL     OW18958   3.954   2.490   3.837
 6091SOL    HW118959   3.861   2.488   3.874
 6091SOL    HW218960   3.955   2.451   3.745
 6092SOL     OW18961   3.949   2.137   4.720
 6092SOL    HW118962   3.984   2.120   4.812
 6092SOL    HW218963   3.861   2.092   4.708
 6093SOL     OW18964   3.743   2.230   4.371
 6093SOL    HW118965   3.661   2.273   4.410
 6093SOL    HW218966   3.715   2.157   4.308
 6094SOL     OW18967   4.293   3.137   4.889
 6094SOL    HW118968   4.200   3.130   4.852
 6094SOL    HW218969   4.304   3.226   4.933
 6095SOL     OW18970   5.279   3.373   4.427
 6095SOL    HW118971   5.222   3.357   4.508
 6095SOL    HW218972   5.220   3.383   4.347
 6096SOL     OW18973   4.859   2.565   4.441
 6096SOL    HW118974   4.916   2.643   4.416
 6096SOL    HW218975   4.799   2.591   4.517
 6097SOL     OW18976   4.492   3.006   4.747
 6097SOL    HW118977   4.414   3.023   4.807
 6097SOL    HW218978   4.526   3.093   4.711
 6098SOL     OW18979   4.574   2.660   5.547
 6098SOL    HW118980   4.570   2.736   5.612
 6098SOL    HW218981   4.596   2.696   5.456
 6099SOL     OW18982   4.409   2.874   4.389
 6099SOL    HW118983   4.478   2.858   4.459
 6099SOL    HW218984   4.336   2.931   4.427
 6100SOL     OW18985   4.410   3.023   5.527
 6100SOL    HW118986   4.470   3.102   5.541
 6100SOL    HW218987   4.324   3.054   5.486
 6101SOL     OW18988   4.059   3.297   4.785
 6101SOL    HW118989   3.981   3.266   4.732
 6101SOL    HW218990   4.117   3.355   4.728
 6102SOL     OW18991   5.184   3.367   5.063
 6102SOL    HW118992   5.208   3.461   5.089
 6102SOL    HW218993   5.168   3.313   5.145
 6103SOL     OW18994   4.162   2.254   5.223
 6103SOL    HW118995   4.244   2.198   5.232
 6103SOL    HW218996   4.081   2.196   5.227
 6104SOL     OW18997   3.955   3.575   4.207
 6104SOL    HW118998   3.989   3.652   4.261
 6104SOL    HW218999   3.999   3.575   4.117
 6105SOL     OW19000   4.851   3.203   5.414
 6105SOL    HW119001   4.898   3.203   5.502
 6105SOL    HW219002   4.803   3.116   5.403
 6106SOL     OW19003   3.954   3.296   4.262
 6106SOL    HW119004   3.928   3.392   4.262
 6106SOL    HW219005   3.883   3.242   4.307
 6107SOL     OW19006   3.964   2.953   4.610
 6107SOL    HW119007   3.978   2.869   4.662
 6107SOL    HW219008   3.909   3.017   4.665
 6108SOL     OW19009   4.344   3.648   5.163
 6108SOL    HW119010   4.252   3.631   5.198
 6108SOL    HW219011   4.372   3.740   5.189
 6109SOL     OW19012   4.330   2.826   3.847
 6109SOL    HW119013   4.337   2.910   3.793
 6109SOL    HW219014   4.376   2.839   3.935
 6110SOL     OW19015   3.846   2.505   4.287
 6110SOL    HW119016   3.801   2.417   4.304
 6110SOL    HW219017   3.845   2.559   4.371
 6111SOL     OW19018   3.751   3.458   3.841
 6111SOL    HW119019   3.732   3.362   3.862
 6111SOL    HW219020   3.718   3.516   3.916
 6112SOL     OW19021   5.413   2.784   4.336
 6112SOL    HW119022   5.508   2.755   4.344
 6112SOL    HW219023   5.405   2.849   4.261
 6113SOL     OW19024   3.837   2.599   5.321
 6113SOL    HW119025   3.925   2.586   5.366
 6113SOL    HW219026   3.824   2.696   5.299
 6114SOL     OW19027   4.337   3.227   4.450
 6114SOL    HW119028   4.288   3.140   4.459
 6114SOL    HW219029   4.314   3.270   4.363
 6115SOL     OW19030   5.017   3.090   5.147
 6115SOL    HW119031   5.054   3.017   5.089
 6115SOL    HW219032   5.069   3.095   5.232
 6116SOL     OW19033   4.533   1.866   4.226
 6116SOL    HW119034   4.573   1.957   4.217
 6116SOL    HW219035   4.433   1.874   4.232
 6117SOL     OW19036   3.921   2.838   4.988
 6117SOL    HW119037   4.010   2.793   4.974
 6117SOL    HW219038   3.848   2.773   4.969
 6118SOL     OW19039   4.911   3.654   5.340
 6118SOL    HW119040   4.935   3.714   5.264
 6118SOL    HW219041   4.918   3.559   5.310
 6119SOL     OW19042   4.041   2.113   5.525
 6119SOL    HW119043   4.112   2.184   5.531
 6119SOL    HW219044   3.953   2.152   5.553
 6120SOL     OW19045   5.190   3.279   4.677
 6120SOL    HW119046   5.131   3.285   4.757
 6120SOL    HW219047   5.175   3.191   4.631
 6121SOL     OW19048   4.322   2.591   3.994
 6121SOL    HW119049   4.346   2.660   3.926
 6121SOL    HW219050   4.244   2.624   4.048
 6122SOL     OW19051   5.005   2.207   4.668
 6122SOL    HW119052   4.919   2.157   4.655
 6122SOL    HW219053   5.067   2.153   4.724
 6123SOL     OW19054   4.531   2.467   5.189
 6123SOL    HW119055   4.484   2.464   5.278
 6123SOL    HW219056   4.480   2.412   5.123
 6124SOL     OW19057   5.118   2.331   5.398
 6124SOL    HW119058   5.098   2.374   5.486
 6124SOL    HW219059   5.196   2.269   5.407
 6125SOL     OW19060   4.697   2.752   5.296
 6125SOL    HW119061   4.743   2.668   5.267
 6125SOL    HW219062   4.641   2.786   5.221
 6126SOL     OW19063   4.715   2.272   4.966
 6126SOL    HW119064   4.638   2.306   5.020
 6126SOL    HW219065   4.681   2.221   4.887
 6127SOL     OW19066   4.765   2.563   4.153
 6127SOL    HW119067   4.791   2.559   4.249
 6127SOL    HW219068   4.680   2.512   4.139
 6128SOL     OW19069   3.854   3.683   5.295
 6128SOL    HW119070   3.844   3.668   5.394
 6128SOL    HW219071   3.768   3.719   5.259
 6129SOL     OW19072   4.589   2.210   3.919
 6129SOL    HW119073   4.648   2.273   3.870
 6129SOL    HW219074   4.608   2.116   3.890
 6130SOL     OW19075   5.086   3.006   4.269
 6130SOL    HW119076   5.169   2.977   4.221
 6130SOL    HW219077   5.037   3.073   4.213
 6131SOL     OW19078   4.274   2.058   4.609
 6131SOL    HW119079   4.269   2.053   4.709
 6131SOL    HW219080   4.276   2.154   4.580
 6132SOL     OW19081   4.732   3.318   4.201
 6132SOL    HW119082   4.686   3.390   4.149
 6132SOL    HW219083   4.728   3.338   4.299
 6133SOL     OW19084   4.075   3.663   4.577
 6133SOL    HW119085   4.125   3.577   4.583
 6133SOL    HW219086   4.140   3.740   4.574
 6134SOL     OW19087   4.951   3.412   5.230
 6134SOL    HW119088   4.957   3.335   5.294
 6134SOL    HW219089   4.899   3.386   5.150
 6135SOL     OW19090   4.045   2.805   3.966
 6135SOL    HW119091   4.127   2.844   3.924
 6135SOL    HW219092   4.018   2.723   3.917
 6136SOL     OW19093   4.185   3.128   5.451
 6136SOL    HW119094   4.135   3.129   5.365
 6136SOL    HW219095   4.122   3.110   5.527
 6137SOL     OW19096   4.835   3.638   3.961
 6137SOL    HW119097   4.775   3.576   4.011
 6137SOL    HW219098   4.866   3.594   3.876
 6138SOL     OW19099   3.926   2.147   5.222
 6138SOL    HW119100   3.846   2.207   5.209
 6138SOL    HW219101   3.916   2.098   5.308
 6139SOL     OW19102   4.188   3.605   4.047
 6139SOL    HW119103   4.221   3.644   4.133
 6139SOL    HW219104   4.264   3.598   3.982
 6140SOL     OW19105   5.124   1.969   4.150
 6140SOL    HW119106   5.100   1.932   4.060
 6140SOL    HW219107   5.223   1.985   4.154
 6141SOL     OW19108   3.973   3.647   4.965
 6141SOL    HW119109   4.030   3.582   5.015
 6141SOL    HW219110   3.957   3.614   4.872
 6142SOL     OW19111   4.664   3.560   4.628
 6142SOL    HW119112   4.744   3.503   4.649
 6142SOL    HW219113   4.615   3.520   4.551
 6143SOL     OW19114   4.106   2.562   4.204
 6143SOL    HW119115   4.151   2.472   4.201
 6143SOL    HW219116   4.012   2.551   4.237
 6144SOL     OW19117   4.338   1.984   3.841
 6144SOL    HW119118   4.436   1.962   3.848
 6144SOL    HW219119   4.307   1.967   3.748
 6145SOL     OW19120   4.505   2.126   5.473
 6145SOL    HW119121   4.572   2.065   5.516
 6145SOL    HW219122   4.432   2.145   5.538
 6146SOL     OW19123   4.612   3.376   4.919
 6146SOL    HW119124   4.589   3.351   4.825
 6146SOL    HW219125   4.673   3.307   4.958
 6147SOL     OW19126   5.075   2.452   5.157
 6147SOL    HW119127   5.103   2.409   5.242
 6147SOL    HW219128   5.100   2.548   5.158
 6148SOL     OW19129   4.527   3.264   4.648
 6148SOL    HW119130   4.617   3.278   4.606
 6148SOL    HW219131   4.456   3.266   4.577
 6149SOL     OW19132   4.646   2.365   4.623
 6149SOL    HW119133   4.621   2.356   4.527
 6149SOL    HW219134   4.694   2.283   4.654
 6150SOL     OW19135   4.263   1.926   4.236
 6150SOL    HW119136   4.182   1.927   4.294
 6150SOL    HW219137   4.266   2.009   4.181
 6151SOL     OW19138   5.158   3.050   3.765
 6151SOL    HW119139   5.190   2.974   3.822
 6151SOL    HW219140   5.066   3.077   3.795
 6152SOL     OW19141   4.021   1.897   3.895
 6152SOL    HW119142   4.070   1.981   3.874
 6152SOL    HW219143   4.083   1.832   3.940
 6153SOL     OW19144   4.659   2.098   4.204
 6153SOL    HW119145   4.611   2.139   4.126
 6153SOL    HW219146   4.758   2.096   4.185
 6154SOL     OW19147   4.800   2.545   5.188
 6154SOL    HW119148   4.720   2.484   5.191
 6154SOL    HW219149   4.881   2.492   5.164
 6155SOL     OW19150   4.951   3.432   4.517
 6155SOL    HW119151   4.972   3.506   4.452
 6155SOL    HW219152   5.019   3.432   4.590
 6156SOL     OW19153   4.183   3.014   4.465
 6156SOL    HW119154   4.112   2.987   4.530
 6156SOL    HW219155   4.157   2.986   4.372
 6157SOL     OW19156   4.995   3.659   4.315
 6157SOL    HW119157   5.039   3.723   4.251
 6157SOL    HW219158   4.945   3.711   4.385
 6158SOL     OW19159   4.756   2.411   3.740
 6158SOL    HW119160   4.715   2.493   3.701
 6158SOL    HW219161   4.820   2.437   3.813
 6159SOL     OW19162   3.802   2.418   5.110
 6159SOL    HW119163   3.894   2.417   5.069
 6159SOL    HW219164   3.796   2.492   5.177
 6160SOL     OW19165   4.285   2.084   4.871
 6160SOL    HW119166   4.323   2.000   4.908
 6160SOL    HW219167   4.197   2.103   4.915
 6161SOL     OW19168   4.590   2.316   4.366
 6161SOL    HW119169   4.558   2.388   4.304
 6161SOL    HW219170   4.614   2.235   4.313
 6162SOL     OW19171   4.741   1.901   4.477
 6162SOL    HW119172   4.669   1.906   4.408
 6162SOL    HW219173   4.717   1.832   4.546
 6163SOL     OW19174   5.153   3.035   4.591
 6163SOL    HW119175   5.098   2.951   4.584
 6163SOL    HW219176   5.179   3.064   4.499
 6164SOL     OW19177   4.212   3.247   3.898
 6164SOL    HW119178   4.125   3.232   3.945
 6164SOL    HW219179   4.195   3.273   3.803
 6165SOL     OW19180   5.114   2.437   3.802
 6165SOL    HW119181   5.060   2.416   3.883
 6165SOL    HW219182   5.205   2.396   3.811
 6166SOL     OW19183   4.251   2.118   4.052
 6166SOL    HW119184   4.278   2.059   3.977
 6166SOL    HW219185   4.251   2.213   4.021
 6167SOL     OW19186   4.788   3.209   5.064
 6167SOL    HW119187   4.708   3.186   5.119
 6167SOL    HW219188   4.871   3.183   5.113
 6168SOL     OW19189   5.316   3.491   5.349
 6168SOL    HW119190   5.343   3.525   5.259
 6168SOL    HW219191   5.395   3.453   5.395
 6169SOL     OW19192   4.835   3.057   4.824
 6169SOL    HW119193   4.795   3.101   4.905
 6169SOL    HW219194   4.794   3.094   4.741
 6170SOL     OW19195   4.639   1.951   5.126
 6170SOL    HW119196   4.664   1.931   5.031
 6170SOL    HW219197   4.711   2.007   5.168
 6171SOL     OW19198   4.704   2.978   5.443
 6171SOL    HW119199   4.605   2.984   5.453
 6171SOL    HW219200   4.727   2.898   5.387
 6172SOL     OW19201   4.429   2.912   4.092
 6172SOL    HW119202   4.415   2.919   4.191
 6172SOL    HW219203   4.513   2.861   4.074
 6173SOL     OW19204   4.134   2.675   4.975
 6173SOL    HW119205   4.220   2.687   5.025
 6173SOL    HW219206   4.092   2.588   5.002
 6174SOL     OW19207   4.998   2.248   4.986
 6174SOL    HW119208   5.019   2.322   5.050
 6174SOL    HW219209   4.909   2.265   4.943
 6175SOL     OW19210   3.788   3.426   5.055
 6175SOL    HW119211   3.742   3.508   5.021
 6175SOL    HW219212   3.886   3.445   5.064
 6176SOL     OW19213   4.091   2.962   4.225
 6176SOL    HW119214   4.084   3.045   4.169
 6176SOL    HW219215   4.095   2.882   4.165
 6177SOL     OW19216   4.290   2.399   4.589
 6177SOL    HW119217   4.302   2.465   4.515
 6177SOL    HW219218   4.336   2.433   4.672
 6178SOL     OW19219   4.976   3.210   4.112
 6178SOL    HW119220   5.026   3.287   4.152
 6178SOL    HW219221   4.881   3.212   4.144
 6179SOL     OW19222   4.996   3.307   4.866
 6179SOL    HW119223   5.043   3.320   4.953
 6179SOL    HW219224   4.930   3.233   4.875
 6180SOL     OW19225   4.078   3.372   5.053
 6180SOL    HW119226   4.057   3.328   4.966
 6180SOL    HW219227   4.175   3.398   5.056
 6181SOL     OW19228   4.126   2.613   5.322
 6181SOL    HW119229   4.194   2.668   5.275
 6181SOL    HW219230   4.166   2.525   5.349
 6182SOL     OW19231   4.737   1.967   5.494
 6182SOL    HW119232   4.743   2.052   5.442
 6182SOL    HW219233   4.769   1.891   5.437
 6183SOL     OW19234   4.228   1.912   5.464
 6183SOL    HW119235   4.186   1.855   5.394
 6183SOL    HW219236   4.162   1.981   5.496
 6184SOL     OW19237   4.297   2.732   4.753
 6184SOL    HW119238   4.341   2.821   4.744
 6184SOL    HW219239   4.234   2.732   4.830
 6185SOL     OW19240   5.084   2.724   4.769
 6185SOL    HW119241   5.009   2.724   4.703
 6185SOL    HW219242   5.121   2.632   4.778
 6186SOL     OW19243   4.933   2.387   3.999
 6186SOL    HW119244   4.946   2.303   4.053
 6186SOL    HW219245   4.904   2.461   4.059
 6187SOL     OW19246   4.031   2.075   4.955
 6187SOL    HW119247   4.008   2.112   5.045
 6187SOL    HW219248   4.001   1.980   4.949
 6188SOL     OW19249   3.761   3.172   5.006
 6188SOL    HW119250   3.814   3.123   5.074
 6188SOL    HW219251   3.783   3.270   5.011
 6189SOL     OW19252   4.456   2.496   4.788
 6189SOL    HW119253   4.515   2.470   4.712
 6189SOL    HW219254   4.428   2.592   4.777
 6190SOL     OW19255   4.031   1.925   4.342
 6190SOL    HW119256   4.020   2.019   4.375
 6190SOL    HW219257   4.026   1.862   4.419
 6191SOL     OW19258   5.346   2.229   4.098
 6191SOL    HW119259   5.348   2.153   4.162
 6191SOL    HW219260   5.298   2.306   4.138
 6192SOL     OW19261   4.747   2.628   4.690
 6192SOL    HW119262   4.762   2.649   4.786
 6192SOL    HW219263   4.717   2.533   4.681
 6193SOL     OW19264   4.704   3.435   5.424
 6193SOL    HW119265   4.684   3.479   5.336
 6193SOL    HW219266   4.743   3.344   5.408
 6194SOL     OW19267   4.074   2.760   5.528
 6194SOL    HW119268   4.150   2.804   5.576
 6194SOL    HW219269   4.109   2.713   5.446
 6195SOL     OW19270   5.027   2.700   3.766
 6195SOL    HW119271   5.061   2.607   3.781
 6195SOL    HW219272   5.045   2.727   3.671
 6196SOL     OW19273   4.792   3.195   4.573
 6196SOL    HW119274   4.799   3.111   4.518
 6196SOL    HW219275   4.854   3.264   4.537
 6197SOL     OW19276   4.043   2.672   4.673
 6197SOL    HW119277   4.136   2.708   4.678
 6197SOL    HW219278   4.037   2.587   4.725
 6198SOL     OW19279   4.063   2.371   4.730
 6198SOL    HW119280   4.011   2.288   4.713
 6198SOL    HW219281   4.140   2.376   4.666
 6199SOL     OW19282   4.862   2.242   5.402
 6199SOL    HW119283   4.817   2.305   5.466
 6199SOL    HW219284   4.955   2.273   5.385
 6200SOL     OW19285   4.884   2.069   5.201
 6200SOL    HW119286   4.884   2.133   5.278
 6200SOL    HW219287   4.912   2.117   5.118
 6201SOL     OW19288   3.732   3.188   3.924
 6201SOL    HW119289   3.639   3.209   3.893
 6201SOL    HW219290   3.742   3.089   3.937
 6202SOL     OW19291   3.812   3.663   4.651
 6202SOL    HW119292   3.770   3.577   4.624
 6202SOL    HW219293   3.906   3.666   4.617
 6203SOL     OW19294   4.228   3.430   4.634
 6203SOL    HW119295   4.294   3.504   4.643
 6203SOL    HW219296   4.272   3.351   4.592
 6204SOL     OW19297   4.726   2.658   4.962
 6204SOL    HW119298   4.767   2.626   5.048
 6204SOL    HW219299   4.630   2.631   4.959
 6205SOL     OW19300   3.764   2.406   4.838
 6205SOL    HW119301   3.849   2.373   4.797
 6205SOL    HW219302   3.777   2.421   4.936
 6206SOL     OW19303   3.913   2.382   5.446
 6206SOL    HW119304   3.972   2.342   5.376
 6206SOL    HW219305   3.855   2.453   5.405
 6207SOL     OW19306   5.093   2.812   5.384
 6207SOL    HW119307   5.132   2.901   5.404
 6207SOL    HW219308   5.103   2.792   5.287
 6208SOL     OW19309   4.539   2.434   4.049
 6208SOL    HW119310   4.546   2.345   4.003
 6208SOL    HW219311   4.445   2.468   4.041
 6209SOL     OW19312   3.976   3.426   5.468
 6209SOL    HW119313   3.946   3.483   5.544
 6209SOL    HW219314   3.969   3.329   5.494
 6210SOL     OW19315   4.395   2.326   4.993
 6210SOL    HW119316   4.361   2.237   4.963
 6210SOL    HW219317   4.421   2.380   4.913
 6211SOL     OW19318   4.654   3.540   5.189
 6211SOL    HW119319   4.630   3.522   5.094
 6211SOL    HW219320   4.684   3.634   5.199
 6212SOL     OW19321   4.197   2.362   3.915
 6212SOL    HW119322   4.258   2.442   3.919
 6212SOL    HW219323   4.102   2.393   3.922
 6213SOL     OW19324   3.883   2.999   5.190
 6213SOL    HW119325   3.905   2.938   5.266
 6213SOL    HW219326   3.893   2.950   5.104
 6214SOL     OW19327   5.071   2.921   4.958
 6214SOL    HW119328   5.095   2.858   4.884
 6214SOL    HW219329   4.981   2.961   4.940
 6215SOL     OW19330   5.026   2.717   4.033
 6215SOL    HW119331   4.940   2.686   4.075
 6215SOL    HW219332   5.022   2.703   3.934
 6216SOL     OW19333   4.976   3.593   4.852
 6216SOL    HW119334   5.060   3.598   4.798
 6216SOL    HW219335   4.953   3.497   4.870
 6217SOL     OW19336   3.807   3.120   4.746
 6217SOL    HW119337   3.802   3.119   4.846
 6217SOL    HW219338   3.724   3.079   4.708
 6218SOL     OW19339   4.412   3.524   5.440
 6218SOL    HW119340   4.356   3.605   5.449
 6218SOL    HW219341   4.464   3.528   5.354
 6219SOL     OW19342   5.450   1.997   4.247
 6219SOL    HW119343   5.523   1.980   4.180
 6219SOL    HW219344   5.419   1.910   4.285
 6220SOL     OW19345   5.112   3.435   4.201
 6220SOL    HW119346   5.179   3.447   4.127
 6220SOL    HW219347   5.072   3.524   4.224
 6221SOL     OW19348   3.854   3.656   5.575
 6221SOL    HW119349   3.813   3.582   5.628
 6221SOL    HW219350   3.918   3.707   5.633
 6222SOL     OW19351   5.004   2.789   4.396
 6222SOL    HW119352   5.064   2.708   4.398
 6222SOL    HW219353   5.044   2.858   4.336
 6223SOL     OW19354   4.554   3.135   5.146
 6223SOL    HW119355   4.549   3.168   5.241
 6223SOL    HW219356   4.468   3.154   5.100
 6224SOL     OW19357   4.396   3.478   3.878
 6224SOL    HW119358   4.405   3.488   3.779
 6224SOL    HW219359   4.356   3.389   3.899
 6225SOL     OW19360   3.987   2.188   4.444
 6225SOL    HW119361   3.908   2.239   4.410
 6225SOL    HW219362   3.978   2.173   4.542
 6226SOL     OW19363   4.918   3.474   3.755
 6226SOL    HW119364   4.924   3.381   3.792
 6226SOL    HW219365   4.859   3.474   3.675
 6227SOL     OW19366   4.546   2.864   5.096
 6227SOL    HW119367   4.586   2.863   5.004
 6227SOL    HW219368   4.556   2.956   5.136
 6228SOL     OW19369   4.640   2.772   4.015
 6228SOL    HW119370   4.703   2.810   3.947
 6228SOL    HW219371   4.680   2.689   4.054
 6229SOL     OW19372   4.096   3.150   5.214
 6229SOL    HW119373   4.083   3.243   5.180
 6229SOL    HW219374   4.012   3.098   5.201
 6230SOL     OW19375   4.763   2.960   4.420
 6230SOL    HW119376   4.693   2.913   4.474
 6230SOL    HW219377   4.822   2.892   4.377
 6231SOL     OW19378   4.738   2.098   4.695
 6231SOL    HW119379   4.730   2.062   4.602
 6231SOL    HW219380   4.736   2.022   4.760
 6232SOL     OW19381   4.314   3.349   4.215
 6232SOL    HW119382   4.356   3.291   4.145
 6232SOL    HW219383   4.270   3.428   4.171
 6233SOL     OW19384   3.979   3.210   4.014
 6233SOL    HW119385   3.883   3.211   3.987
 6233SOL    HW219386   3.991   3.263   4.098
 6234SOL     OW19387   3.829   2.875   5.450
 6234SOL    HW119388   3.752   2.842   5.504
 6234SOL    HW219389   3.914   2.845   5.492
 6235SOL     OW19390   4.396   2.065   5.213
 6235SOL    HW119391   4.486   2.049   5.173
 6235SOL    HW219392   4.404   2.070   5.312
 6236SOL     OW19393   3.799   2.207   3.757
 6236SOL    HW119394   3.707   2.179   3.728
 6236SOL    HW219395   3.830   2.284   3.701
 6237SOL     OW19396   5.164   2.718   5.122
 6237SOL    HW119397   5.107   2.770   5.059
 6237SOL    HW219398   5.260   2.730   5.098
 6238SOL     OW19399   3.796   2.028   4.042
 6238SOL    HW119400   3.779   2.111   3.988
 6238SOL    HW219401   3.886   1.991   4.020
 6239SOL     OW19402   4.907   3.197   3.843
 6239SOL    HW119403   4.808   3.186   3.845
 6239SOL    HW219404   4.941   3.212   3.936
 6240SOL     OW19405   4.337   2.704   5.155
 6240SOL    HW119406   4.393   2.785   5.138
 6240SOL    HW219407   4.396   2.624   5.158
 6241SOL     OW19408   4.440   2.427   5.432
 6241SOL    HW119409   4.459   2.492   5.506
 6241SOL    HW219410   4.500   2.347   5.441
 6242SOL     OW19411   5.174   3.082   5.357
 6242SOL    HW119412   5.165   3.072   5.456
 6242SOL    HW219413   5.270   3.075   5.331
 6243SOL     OW19414   4.114   3.603   5.284
 6243SOL    HW119415   4.023   3.644   5.282
 6243SOL    HW219416   4.107   3.509   5.316
 6244SOL     OW19417   4.949   2.187   4.173
 6244SOL    HW119418   5.014   2.113   4.162
 6244SOL    HW219419   4.969   2.237   4.257
 6245SOL     OW19420   4.318   2.607   4.376
 6245SOL    HW119421   4.368   2.692   4.357
 6245SOL    HW219422   4.230   2.609   4.328
 6246SOL     OW19423   4.583   3.236   3.740
 6246SOL    HW119424   4.537   3.251   3.828
 6246SOL    HW219425   4.627   3.321   3.710
 6247SOL     OW19426   4.385   3.652   4.677
 6247SOL    HW119427   4.339   3.740   4.664
 6247SOL    HW219428   4.484   3.664   4.670
 6248SOL     OW19429   4.583   2.818   4.585
 6248SOL    HW119430   4.637   2.749   4.633
 6248SOL    HW219431   4.551   2.887   4.651
 6249SOL     OW19432   4.807   2.846   3.811
 6249SOL    HW119433   4.784   2.899   3.729
 6249SOL    HW219434   4.888   2.790   3.792
 6250SOL     OW19435   3.945   3.176   5.568
 6250SOL    HW119436   3.880   3.103   5.547
 6250SOL    HW219437   3.949   3.190   5.666
 6251SOL     OW19438   3.803   3.102   4.377
 6251SOL    HW119439   3.802   3.055   4.465
 6251SOL    HW219440   3.885   3.074   4.326
 6252SOL     OW19441   4.396   3.253   5.348
 6252SOL    HW119442   4.318   3.203   5.386
 6252SOL    HW219443   4.393   3.348   5.379
 6253SOL     OW19444   4.152   2.286   4.244
 6253SOL    HW119445   4.182   2.214   4.182
 6253SOL    HW219446   4.113   2.246   4.327
 6254SOL     OW19447   5.429   3.349   4.828
 6254SOL    HW119448   5.336   3.324   4.801
 6254SOL    HW219449   5.455   3.299   4.910
 6255SOL     OW19450   4.041   2.409   5.004
 6255SOL    HW119451   4.079   2.350   5.076
 6255SOL    HW219452   4.081   2.383   4.916
 6256SOL     OW19453   4.536   3.448   4.411
 6256SOL    HW119454   4.568   3.458   4.317
 6256SOL    HW219455   4.457   3.386   4.413
 6257SOL     OW19456   5.148   2.076   4.836
 6257SOL    HW119457   5.200   2.011   4.891
 6257SOL    HW219458   5.099   2.139   4.897
 6258SOL     OW19459   4.725   1.896   4.878
 6258SOL    HW119460   4.662   1.824   4.847
 6258SOL    HW219461   4.818   1.860   4.878
 6259SOL     OW19462   4.494   3.192   4.025
 6259SOL    HW119463   4.448   3.105   4.042
 6259SOL    HW219464   4.585   3.189   4.066
 6260SOL     OW19465   4.342   3.429   5.008
 6260SOL    HW119466   4.337   3.511   5.065
 6260SOL    HW219467   4.431   3.426   4.963
 6261SOL     OW19468   5.076   1.914   3.892
 6261SOL    HW119469   5.111   1.873   3.808
 6261SOL    HW219470   4.986   1.876   3.912
 6262SOL     OW19471   5.024   2.315   4.415
 6262SOL    HW119472   4.965   2.395   4.419
 6262SOL    HW219473   5.039   2.280   4.508
 6263SOL     OW19474   5.317   2.083   4.606
 6263SOL    HW119475   5.233   2.082   4.660
 6263SOL    HW219476   5.319   2.166   4.550
 6264SOL     OW19477   3.763   2.939   4.024
 6264SOL    HW119478   3.862   2.928   4.015
 6264SOL    HW219479   3.723   2.853   4.056
 6265SOL     OW19480   4.599   3.508   4.061
 6265SOL    HW119481   4.522   3.473   4.007
 6265SOL    HW219482   4.567   3.579   4.123
 6266SOL     OW19483   3.954   2.490   5.699
 6266SOL    HW119484   3.861   2.488   5.736
 6266SOL    HW219485   3.955   2.451   5.607
 6267SOL     OW19486   3.949   2.137   6.582
 6267SOL    HW119487   3.984   2.120   6.674
 6267SOL    HW219488   3.861   2.092   6.570
 6268SOL     OW19489   3.743   2.230   6.233
 6268SOL    HW119490   3.661   2.273   6.272
 6268SOL    HW219491   3.715   2.157   6.170
 6269SOL     OW19492   4.293   3.137   6.751
 6269SOL    HW119493   4.200   3.130   6.714
 6269SOL    HW219494   4.304   3.226   6.795
 6270SOL     OW19495   5.279   3.373   6.289
 6270SOL    HW119496   5.222   3.357   6.370
 6270SOL    HW219497   5.220   3.383   6.209
 6271SOL     OW19498   4.859   2.565   6.303
 6271SOL    HW119499   4.916   2.643   6.278
 6271SOL    HW219500   4.799   2.591   6.379
 6272SOL     OW19501   4.492   3.006   6.609
 6272SOL    HW119502   4.414   3.023   6.669
 6272SOL    HW219503   4.526   3.093   6.573
 6273SOL     OW19504   4.574   2.660   7.409
 6273SOL    HW119505   4.570   2.736   7.474
 6273SOL    HW219506   4.596   2.696   7.318
 6274SOL     OW19507   4.409   2.874   6.251
 6274SOL    HW119508   4.478   2.858   6.321
 6274SOL    HW219509   4.336   2.931   6.289
 6275SOL     OW19510   4.410   3.023   7.389
 6275SOL    HW119511   4.470   3.102   7.403
 6275SOL    HW219512   4.324   3.054   7.348
 6276SOL     OW19513   4.059   3.297   6.647
 6276SOL    HW119514   3.981   3.266   6.594
 6276SOL    HW219515   4.117   3.355   6.590
 6277SOL     OW19516   5.184   3.367   6.925
 6277SOL    HW119517   5.208   3.461   6.951
 6277SOL    HW219518   5.168   3.313   7.007
 6278SOL     OW19519   4.162   2.254   7.085
 6278SOL    HW119520   4.244   2.198   7.094
 6278SOL    HW219521   4.081   2.196   7.089
 6279SOL     OW19522   3.955   3.575   6.069
 6279SOL    HW119523   3.989   3.652   6.123
 6279SOL    HW219524   3.999   3.575   5.979
 6280SOL     OW19525   4.851   3.203   7.276
 6280SOL    HW119526   4.898   3.203   7.364
 6280SOL    HW219527   4.803   3.116   7.265
 6281SOL     OW19528   3.954   3.296   6.124
 6281SOL    HW119529   3.928   3.392   6.124
 6281SOL    HW219530   3.883   3.242   6.169
 6282SOL     OW19531   3.964   2.953   6.472
 6282SOL    HW119532   3.978   2.869   6.524
 6282SOL    HW219533   3.909   3.017   6.527
 6283SOL     OW19534   4.344   3.648   7.025
 6283SOL    HW119535   4.252   3.631   7.060
 6283SOL    HW219536   4.372   3.740   7.051
 6284SOL     OW19537   4.330   2.826   5.709
 6284SOL    HW119538   4.337   2.910   5.655
 6284SOL    HW219539   4.376   2.839   5.797
 6285SOL     OW19540   3.846   2.505   6.149
 6285SOL    HW119541   3.801   2.417   6.166
 6285SOL    HW219542   3.845   2.559   6.233
 6286SOL     OW19543   3.751   3.458   5.703
 6286SOL    HW119544   3.732   3.362   5.724
 6286SOL    HW219545   3.718   3.516   5.778
 6287SOL     OW19546   5.413   2.784   6.198
 6287SOL    HW119547   5.508   2.755   6.206
 6287SOL    HW219548   5.405   2.849   6.123
 6288SOL     OW19549   3.837   2.599   7.183
 6288SOL    HW119550   3.925   2.586   7.228
 6288SOL    HW219551   3.824   2.696   7.161
 6289SOL     OW19552   4.337   3.227   6.312
 6289SOL    HW119553   4.288   3.140   6.321
 6289SOL    HW219554   4.314   3.270   6.225
 6290SOL     OW19555   5.017   3.090   7.009
 6290SOL    HW119556   5.054   3.017   6.951
 6290SOL    HW219557   5.069   3.095   7.094
 6291SOL     OW19558   4.533   1.866   6.088
 6291SOL    HW119559   4.573   1.957   6.079
 6291SOL    HW219560   4.433   1.874   6.094
 6292SOL     OW19561   3.921   2.838   6.850
 6292SOL    HW119562   4.010   2.793   6.836
 6292SOL    HW219563   3.848   2.773   6.831
 6293SOL     OW19564   4.911   3.654   7.202
 6293SOL    HW119565   4.935   3.714   7.126
 6293SOL    HW219566   4.918   3.559   7.172
 6294SOL     OW19567   4.041   2.113   7.387
 6294SOL    HW119568   4.112   2.184   7.393
 6294SOL    HW219569   3.953   2.152   7.415
 6295SOL     OW19570   5.190   3.279   6.539
 6295SOL    HW119571   5.131   3.285   6.619
 6295SOL    HW219572   5.175   3.191   6.493
 6296SOL     OW19573   4.322   2.591   5.856
 6296SOL    HW119574   4.346   2.660   5.788
 6296SOL    HW219575   4.244   2.624   5.910
 6297SOL     OW19576   5.005   2.207   6.530
 6297SOL    HW119577   4.919   2.157   6.517
 6297SOL    HW219578   5.067   2.153   6.586
 6298SOL     OW19579   4.531   2.467   7.051
 6298SOL    HW119580   4.484   2.464   7.140
 6298SOL    HW219581   4.480   2.412   6.985
 6299SOL     OW19582   5.118   2.331   7.260
 6299SOL    HW119583   5.098   2.374   7.348
 6299SOL    HW219584   5.196   2.269   7.269
 6300SOL     OW19585   4.697   2.752   7.158
 6300SOL    HW119586   4.743   2.668   7.129
 6300SOL    HW219587   4.641   2.786   7.083
 6301SOL     OW19588   4.715   2.272   6.828
 6301SOL    HW119589   4.638   2.306   6.882
 6301SOL    HW219590   4.681   2.221   6.749
 6302SOL     OW19591   4.765   2.563   6.015
 6302SOL    HW119592   4.791   2.559   6.111
 6302SOL    HW219593   4.680   2.512   6.001
 6303SOL     OW19594   3.800   2.673   6.375
 6303SOL    HW119595   3.899   2.661   6.384
 6303SOL    HW219596   3.776   2.768   6.396
 6304SOL     OW19597   3.854   3.683   7.157
 6304SOL    HW119598   3.844   3.668   7.256
 6304SOL    HW219599   3.768   3.719   7.121
 6305SOL     OW19600   4.589   2.210   5.781
 6305SOL    HW119601   4.648   2.273   5.732
 6305SOL    HW219602   4.608   2.116   5.752
 6306SOL     OW19603   5.086   3.006   6.131
 6306SOL    HW119604   5.169   2.977   6.083
 6306SOL    HW219605   5.037   3.073   6.075
 6307SOL     OW19606   4.274   2.058   6.471
 6307SOL    HW119607   4.269   2.053   6.571
 6307SOL    HW219608   4.276   2.154   6.442
 6308SOL     OW19609   4.732   3.318   6.063
 6308SOL    HW119610   4.686   3.390   6.011
 6308SOL    HW219611   4.728   3.338   6.161
 6309SOL     OW19612   4.075   3.663   6.439
 6309SOL    HW119613   4.125   3.577   6.445
 6309SOL    HW219614   4.140   3.740   6.436
 6310SOL     OW19615   4.951   3.412   7.092
 6310SOL    HW119616   4.957   3.335   7.156
 6310SOL    HW219617   4.899   3.386   7.012
 6311SOL     OW19618   4.045   2.805   5.828
 6311SOL    HW119619   4.127   2.844   5.786
 6311SOL    HW219620   4.018   2.723   5.779
 6312SOL     OW19621   4.185   3.128   7.313
 6312SOL    HW119622   4.135   3.129   7.227
 6312SOL    HW219623   4.122   3.110   7.389
 6313SOL     OW19624   4.835   3.638   5.823
 6313SOL    HW119625   4.775   3.576   5.873
 6313SOL    HW219626   4.866   3.594   5.738
 6314SOL     OW19627   3.926   2.147   7.084
 6314SOL    HW119628   3.846   2.207   7.071
 6314SOL    HW219629   3.916   2.098   7.170
 6315SOL     OW19630   4.188   3.605   5.909
 6315SOL    HW119631   4.221   3.644   5.995
 6315SOL    HW219632   4.264   3.598   5.844
 6316SOL     OW19633   5.124   1.969   6.012
 6316SOL    HW119634   5.100   1.932   5.922
 6316SOL    HW219635   5.223   1.985   6.016
 6317SOL     OW19636   3.973   3.647   6.827
 6317SOL    HW119637   4.030   3.582   6.877
 6317SOL    HW219638   3.957   3.614   6.734
 6318SOL     OW19639   4.664   3.560   6.490
 6318SOL    HW119640   4.744   3.503   6.511
 6318SOL    HW219641   4.615   3.520   6.413
 6319SOL     OW19642   4.106   2.562   6.066
 6319SOL    HW119643   4.151   2.472   6.063
 6319SOL    HW219644   4.012   2.551   6.099
 6320SOL     OW19645   4.338   1.984   5.703
 6320SOL    HW119646   4.436   1.962   5.710
 6320SOL    HW219647   4.307   1.967   5.610
 6321SOL     OW19648   4.505   2.126   7.335
 6321SOL    HW119649   4.572   2.065   7.378
 6321SOL    HW219650   4.432   2.145   7.400
 6322SOL     OW19651   4.612   3.376   6.781
 6322SOL    HW119652   4.589   3.351   6.687
 6322SOL    HW219653   4.673   3.307   6.820
 6323SOL     OW19654   5.075   2.452   7.019
 6323SOL    HW119655   5.103   2.409   7.104
 6323SOL    HW219656   5.100   2.548   7.020
 6324SOL     OW19657   4.527   3.264   6.510
 6324SOL    HW119658   4.617   3.278   6.468
 6324SOL    HW219659   4.456   3.266   6.439
 6325SOL     OW19660   4.646   2.365   6.485
 6325SOL    HW119661   4.621   2.356   6.389
 6325SOL    HW219662   4.694   2.283   6.516
 6326SOL     OW19663   4.263   1.926   6.098
 6326SOL    HW119664   4.182   1.927   6.156
 6326SOL    HW219665   4.266   2.009   6.043
 6327SOL     OW19666   5.158   3.050   5.627
 6327SOL    HW119667   5.190   2.974   5.684
 6327SOL    HW219668   5.066   3.077   5.657
 6328SOL     OW19669   4.021   1.897   5.757
 6328SOL    HW119670   4.070   1.981   5.736
 6328SOL    HW219671   4.083   1.832   5.802
 6329SOL     OW19672   4.659   2.098   6.066
 6329SOL    HW119673   4.611   2.139   5.988
 6329SOL    HW219674   4.758   2.096   6.047
 6330SOL     OW19675   4.800   2.545   7.050
 6330SOL    HW119676   4.720   2.484   7.053
 6330SOL    HW219677   4.881   2.492   7.026
 6331SOL     OW19678   4.951   3.432   6.379
 6331SOL    HW119679   4.972   3.506   6.314
 6331SOL    HW219680   5.019   3.432   6.452
 6332SOL     OW19681   4.183   3.014   6.327
 6332SOL    HW119682   4.112   2.987   6.392
 6332SOL    HW219683   4.157   2.986   6.234
 6333SOL     OW19684   4.995   3.659   6.177
 6333SOL    HW119685   5.039   3.723   6.113
 6333SOL    HW219686   4.945   3.711   6.247
 6334SOL     OW19687   4.756   2.411   5.602
 6334SOL    HW119688   4.715   2.493   5.563
 6334SOL    HW219689   4.820   2.437   5.675
 6335SOL     OW19690   3.802   2.418   6.972
 6335SOL    HW119691   3.894   2.417   6.931
 6335SOL    HW219692   3.796   2.492   7.039
 6336SOL     OW19693   4.285   2.084   6.733
 6336SOL    HW119694   4.323   2.000   6.770
 6336SOL    HW219695   4.197   2.103   6.777
 6337SOL     OW19696   4.590   2.316   6.228
 6337SOL    HW119697   4.558   2.388   6.166
 6337SOL    HW219698   4.614   2.235   6.175
 6338SOL     OW19699   4.741   1.901   6.339
 6338SOL    HW119700   4.669   1.906   6.270
 6338SOL    HW219701   4.717   1.832   6.408
 6339SOL     OW19702   5.153   3.035   6.453
 6339SOL    HW119703   5.098   2.951   6.446
 6339SOL    HW219704   5.179   3.064   6.361
 6340SOL     OW19705   4.212   3.247   5.760
 6340SOL    HW119706   4.125   3.232   5.807
 6340SOL    HW219707   4.195   3.273   5.665
 6341SOL     OW19708   5.114   2.437   5.664
 6341SOL    HW119709   5.060   2.416   5.745
 6341SOL    HW219710   5.205   2.396   5.673
 6342SOL     OW19711   4.251   2.118   5.914
 6342SOL    HW119712   4.278   2.059   5.839
 6342SOL    HW219713   4.251   2.213   5.883
 6343SOL     OW19714   4.788   3.209   6.926
 6343SOL    HW119715   4.708   3.186   6.981
 6343SOL    HW219716   4.871   3.183   6.975
 6344SOL     OW19717   5.316   3.491   7.211
 6344SOL    HW119718   5.343   3.525   7.121
 6344SOL    HW219719   5.395   3.453   7.257
 6345SOL     OW19720   4.835   3.057   6.686
 6345SOL    HW119721   4.795   3.101   6.767
 6345SOL    HW219722   4.794   3.094   6.603
 6346SOL     OW19723   4.639   1.951   6.988
 6346SOL    HW119724   4.664   1.931   6.893
 6346SOL    HW219725   4.711   2.007   7.030
 6347SOL     OW19726   4.704   2.978   7.305
 6347SOL    HW119727   4.605   2.984   7.315
 6347SOL    HW219728   4.727   2.898   7.249
 6348SOL     OW19729   4.429   2.912   5.954
 6348SOL    HW119730   4.415   2.919   6.053
 6348SOL    HW219731   4.513   2.861   5.936
 6349SOL     OW19732   4.134   2.675   6.837
 6349SOL    HW119733   4.220   2.687   6.887
 6349SOL    HW219734   4.092   2.588   6.864
 6350SOL     OW19735   4.998   2.248   6.848
 6350SOL    HW119736   5.019   2.322   6.912
 6350SOL    HW219737   4.909   2.265   6.805
 6351SOL     OW19738   3.788   3.426   6.917
 6351SOL    HW119739   3.742   3.508   6.883
 6351SOL    HW219740   3.886   3.445   6.926
 6352SOL     OW19741   4.091   2.962   6.087
 6352SOL    HW119742   4.084   3.045   6.031
 6352SOL    HW219743   4.095   2.882   6.027
 6353SOL     OW19744   4.290   2.399   6.451
 6353SOL    HW119745   4.302   2.465   6.377
 6353SOL    HW219746   4.336   2.433   6.534
 6354SOL     OW19747   4.976   3.210   5.974
 6354SOL    HW119748   5.026   3.287   6.014
 6354SOL    HW219749   4.881   3.212   6.006
 6355SOL     OW19750   4.996   3.307   6.728
 6355SOL    HW119751   5.043   3.320   6.815
 6355SOL    HW219752   4.930   3.233   6.737
 6356SOL     OW19753   4.078   3.372   6.915
 6356SOL    HW119754   4.057   3.328   6.828
 6356SOL    HW219755   4.175   3.398   6.918
 6357SOL     OW19756   4.126   2.613   7.184
 6357SOL    HW119757   4.194   2.668   7.137
 6357SOL    HW219758   4.166   2.525   7.211
 6358SOL     OW19759   4.737   1.967   7.356
 6358SOL    HW119760   4.743   2.052   7.304
 6358SOL    HW219761   4.769   1.891   7.299
 6359SOL     OW19762   4.228   1.912   7.326
 6359SOL    HW119763   4.186   1.855   7.256
 6359SOL    HW219764   4.162   1.981   7.358
 6360SOL     OW19765   4.297   2.732   6.615
 6360SOL    HW119766   4.341   2.821   6.606
 6360SOL    HW219767   4.234   2.732   6.692
 6361SOL     OW19768   5.084   2.724   6.631
 6361SOL    HW119769   5.009   2.724   6.565
 6361SOL    HW219770   5.121   2.632   6.640
 6362SOL     OW19771   4.933   2.387   5.861
 6362SOL    HW119772   4.946   2.303   5.915
 6362SOL    HW219773   4.904   2.461   5.921
 6363SOL     OW19774   4.031   2.075   6.817
 6363SOL    HW119775   4.008   2.112   6.907
 6363SOL    HW219776   4.001   1.980   6.811
 6364SOL     OW19777   3.761   3.172   6.868
 6364SOL    HW119778   3.814   3.123   6.936
 6364SOL    HW219779   3.783   3.270   6.873
 6365SOL     OW19780   4.456   2.496   6.650
 6365SOL    HW119781   4.515   2.470   6.574
 6365SOL    HW219782   4.428   2.592   6.639
 6366SOL     OW19783   4.031   1.925   6.204
 6366SOL    HW119784   4.020   2.019   6.237
 6366SOL    HW219785   4.026   1.862   6.281
 6367SOL     OW19786   5.346   2.229   5.960
 6367SOL    HW119787   5.348   2.153   6.024
 6367SOL    HW219788   5.298   2.306   6.000
 6368SOL     OW19789   4.747   2.628   6.552
 6368SOL    HW119790   4.762   2.649   6.648
 6368SOL    HW219791   4.717   2.533   6.543
 6369SOL     OW19792   4.704   3.435   7.286
 6369SOL    HW119793   4.684   3.479   7.198
 6369SOL    HW219794   4.743   3.344   7.270
 6370SOL     OW19795   4.074   2.760   7.390
 6370SOL    HW119796   4.150   2.804   7.438
 6370SOL    HW219797   4.109   2.713   7.308
 6371SOL     OW19798   5.027   2.700   5.628
 6371SOL    HW119799   5.061   2.607   5.643
 6371SOL    HW219800   5.045   2.727   5.533
 6372SOL     OW19801   4.792   3.195   6.435
 6372SOL    HW119802   4.799   3.111   6.380
 6372SOL    HW219803   4.854   3.264   6.399
 6373SOL     OW19804   4.043   2.672   6.535
 6373SOL    HW119805   4.136   2.708   6.540
 6373SOL    HW219806   4.037   2.587   6.587
 6374SOL     OW19807   4.063   2.371   6.592
 6374SOL    HW119808   4.011   2.288   6.575
 6374SOL    HW219809   4.140   2.376   6.528
 6375SOL     OW19810   4.862   2.242   7.264
 6375SOL    HW119811   4.817   2.305   7.328
 6375SOL    HW219812   4.955   2.273   7.247
 6376SOL     OW19813   4.884   2.069   7.063
 6376SOL    HW119814   4.884   2.133   7.140
 6376SOL    HW219815   4.912   2.117   6.980
 6377SOL     OW19816   3.732   3.188   5.786
 6377SOL    HW119817   3.639   3.209   5.755
 6377SOL    HW219818   3.742   3.089   5.799
 6378SOL     OW19819   3.812   3.663   6.513
 6378SOL    HW119820   3.770   3.577   6.486
 6378SOL    HW219821   3.906   3.666   6.479
 6379SOL     OW19822   4.228   3.430   6.496
 6379SOL    HW119823   4.294   3.504   6.505
 6379SOL    HW219824   4.272   3.351   6.454
 6380SOL     OW19825   4.726   2.658   6.824
 6380SOL    HW119826   4.767   2.626   6.910
 6380SOL    HW219827   4.630   2.631   6.821
 6381SOL     OW19828   3.764   2.406   6.700
 6381SOL    HW119829   3.849   2.373   6.659
 6381SOL    HW219830   3.777   2.421   6.798
 6382SOL     OW19831   3.913   2.382   7.308
 6382SOL    HW119832   3.972   2.342   7.238
 6382SOL    HW219833   3.855   2.453   7.267
 6383SOL     OW19834   5.093   2.812   7.246
 6383SOL    HW119835   5.132   2.901   7.266
 6383SOL    HW219836   5.103   2.792   7.149
 6384SOL     OW19837   4.539   2.434   5.911
 6384SOL    HW119838   4.546   2.345   5.865
 6384SOL    HW219839   4.445   2.468   5.903
 6385SOL     OW19840   3.976   3.426   7.330
 6385SOL    HW119841   3.946   3.483   7.406
 6385SOL    HW219842   3.969   3.329   7.356
 6386SOL     OW19843   4.395   2.326   6.855
 6386SOL    HW119844   4.361   2.237   6.825
 6386SOL    HW219845   4.421   2.380   6.775
 6387SOL     OW19846   4.654   3.540   7.051
 6387SOL    HW119847   4.630   3.522   6.956
 6387SOL    HW219848   4.684   3.634   7.061
 6388SOL     OW19849   4.197   2.362   5.777
 6388SOL    HW119850   4.258   2.442   5.781
 6388SOL    HW219851   4.102   2.393   5.784
 6389SOL     OW19852   3.883   2.999   7.052
 6389SOL    HW119853   3.905   2.938   7.128
 6389SOL    HW219854   3.893   2.950   6.966
 6390SOL     OW19855   5.071   2.921   6.820
 6390SOL    HW119856   5.095   2.858   6.746
 6390SOL    HW219857   4.981   2.961   6.802
 6391SOL     OW19858   5.026   2.717   5.895
 6391SOL    HW119859   4.940   2.686   5.937
 6391SOL    HW219860   5.022   2.703   5.796
 6392SOL     OW19861   4.976   3.593   6.714
 6392SOL    HW119862   5.060   3.598   6.660
 6392SOL    HW219863   4.953   3.497   6.732
 6393SOL     OW19864   3.807   3.120   6.608
 6393SOL    HW119865   3.802   3.119   6.708
 6393SOL    HW219866   3.724   3.079   6.570
 6394SOL     OW19867   4.412   3.524   7.302
 6394SOL    HW119868   4.356   3.605   7.311
 6394SOL    HW219869   4.464   3.528   7.216
 6395SOL     OW19870   5.450   1.997   6.109
 6395SOL    HW119871   5.523   1.980   6.042
 6395SOL    HW219872   5.419   1.910   6.147
 6396SOL     OW19873   5.112   3.435   6.063
 6396SOL    HW119874   5.179   3.447   5.989
 6396SOL    HW219875   5.072   3.524   6.086
 6397SOL     OW19876   3.854   3.656   7.437
 6397SOL    HW119877   3.813   3.582   7.490
 6397SOL    HW219878   3.918   3.707   7.495
 6398SOL     OW19879   5.004   2.789   6.258
 6398SOL    HW119880   5.064   2.708   6.260
 6398SOL    HW219881   5.044   2.858   6.198
 6399SOL     OW19882   4.554   3.135   7.008
 6399SOL    HW119883   4.549   3.168   7.103
 6399SOL    HW219884   4.468   3.154   6.962
 6400SOL     OW19885   4.396   3.478   5.740
 6400SOL    HW119886   4.405   3.488   5.641
 6400SOL    HW219887   4.356   3.389   5.761
 6401SOL     OW19888   3.987   2.188   6.306
 6401SOL    HW119889   3.908   2.239   6.272
 6401SOL    HW219890   3.978   2.173   6.404
 6402SOL     OW19891   4.918   3.474   5.617
 6402SOL    HW119892   4.924   3.381   5.654
 6402SOL    HW219893   4.859   3.474   5.537
 6403SOL     OW19894   4.546   2.864   6.958
 6403SOL    HW119895   4.586   2.863   6.866
 6403SOL    HW219896   4.556   2.956   6.998
 6404SOL     OW19897   4.640   2.772   5.877
 6404SOL    HW119898   4.703   2.810   5.809
 6404SOL    HW219899   4.680   2.689   5.916
 6405SOL     OW19900   4.096   3.150   7.076
 6405SOL    HW119901   4.083   3.243   7.042
 6405SOL    HW219902   4.012   3.098   7.063
 6406SOL     OW19903   4.763   2.960   6.282
 6406SOL    HW119904   4.693   2.913   6.336
 6406SOL    HW219905   4.822   2.892   6.239
 6407SOL     OW19906   4.738   2.098   6.557
 6407SOL    HW119907   4.730   2.062   6.464
 6407SOL    HW219908   4.736   2.022   6.622
 6408SOL     OW19909   4.314   3.349   6.077
 6408SOL    HW119910   4.356   3.291   6.007
 6408SOL    HW219911   4.270   3.428   6.033
 6409SOL     OW19912   3.979   3.210   5.876
 6409SOL    HW119913   3.883   3.211   5.849
 6409SOL    HW219914   3.991   3.263   5.960
 6410SOL     OW19915   3.829   2.875   7.312
 6410SOL    HW119916   3.752   2.842   7.366
 6410SOL    HW219917   3.914   2.845   7.354
 6411SOL     OW19918   4.396   2.065   7.075
 6411SOL    HW119919   4.486   2.049   7.035
 6411SOL    HW219920   4.404   2.070   7.174
 6412SOL     OW19921   3.799   2.207   5.619
 6412SOL    HW119922   3.707   2.179   5.590
 6412SOL    HW219923   3.830   2.284   5.563
 6413SOL     OW19924   5.164   2.718   6.984
 6413SOL    HW119925   5.107   2.770   6.921
 6413SOL    HW219926   5.260   2.730   6.960
 6414SOL     OW19927   3.796   2.028   5.904
 6414SOL    HW119928   3.779   2.111   5.850
 6414SOL    HW219929   3.886   1.991   5.882
 6415SOL     OW19930   4.907   3.197   5.705
 6415SOL    HW119931   4.808   3.186   5.707
 6415SOL    HW219932   4.941   3.212   5.798
 6416SOL     OW19933   4.337   2.704   7.017
 6416SOL    HW119934   4.393   2.785   7.000
 6416SOL    HW219935   4.396   2.624   7.020
 6417SOL     OW19936   4.440   2.427   7.294
 6417SOL    HW119937   4.459   2.492   7.368
 6417SOL    HW219938   4.500   2.347   7.303
 6418SOL     OW19939   5.174   3.082   7.219
 6418SOL    HW119940   5.165   3.072   7.318
 6418SOL    HW219941   5.270   3.075   7.193
 6419SOL     OW19942   4.114   3.603   7.146
 6419SOL    HW119943   4.023   3.644   7.144
 6419SOL    HW219944   4.107   3.509   7.178
 6420SOL     OW19945   4.949   2.187   6.035
 6420SOL    HW119946   5.014   2.113   6.024
 6420SOL    HW219947   4.969   2.237   6.119
 6421SOL     OW19948   4.318   2.607   6.238
 6421SOL    HW119949   4.368   2.692   6.219
 6421SOL    HW219950   4.230   2.609   6.190
 6422SOL     OW19951   4.583   3.236   5.602
 6422SOL    HW119952   4.537   3.251   5.690
 6422SOL    HW219953   4.627   3.321   5.572
 6423SOL     OW19954   4.385   3.652   6.539
 6423SOL    HW119955   4.339   3.740   6.526
 6423SOL    HW219956   4.484   3.664   6.532
 6424SOL     OW19957   4.583   2.818   6.447
 6424SOL    HW119958   4.637   2.749   6.495
 6424SOL    HW219959   4.551   2.887   6.513
 6425SOL     OW19960   4.807   2.846   5.673
 6425SOL    HW119961   4.784   2.899   5.591
 6425SOL    HW219962   4.888   2.790   5.654
 6426SOL     OW19963   3.945   3.176   7.430
 6426SOL    HW119964   3.880   3.103   7.409
 6426SOL    HW219965   3.949   3.190   7.528
 6427SOL     OW19966   3.803   3.102   6.239
 6427SOL    HW119967   3.802   3.055   6.327
 6427SOL    HW219968   3.885   3.074   6.188
 6428SOL     OW19969   4.396   3.253   7.210
 6428SOL    HW119970   4.318   3.203   7.248
 6428SOL    HW219971   4.393   3.348   7.241
 6429SOL     OW19972   4.152   2.286   6.106
 6429SOL    HW119973   4.182   2.214   6.044
 6429SOL    HW219974   4.113   2.246   6.189
 6430SOL     OW19975   5.429   3.349   6.690
 6430SOL    HW119976   5.336   3.324   6.663
 6430SOL    HW219977   5.455   3.299   6.772
 6431SOL     OW19978   4.041   2.409   6.866
 6431SOL    HW119979   4.079   2.350   6.938
 6431SOL    HW219980   4.081   2.383   6.778
 6432SOL     OW19981   4.536   3.448   6.273
 6432SOL    HW119982   4.568   3.458   6.179
 6432SOL    HW219983   4.457   3.386   6.275
 6433SOL     OW19984   5.148   2.076   6.698
 6433SOL    HW119985   5.200   2.011   6.753
 6433SOL    HW219986   5.099   2.139   6.759
 6434SOL     OW19987   4.725   1.896   6.740
 6434SOL    HW119988   4.662   1.824   6.709
 6434SOL    HW219989   4.818   1.860   6.740
 6435SOL     OW19990   4.494   3.192   5.887
 6435SOL    HW119991   4.448   3.105   5.904
 6435SOL    HW219992   4.585   3.189   5.928
 6436SOL     OW19993   4.342   3.429   6.870
 6436SOL    HW119994   4.337   3.511   6.927
 6436SOL    HW219995   4.431   3.426   6.825
 6437SOL     OW19996   5.076   1.914   5.754
 6437SOL    HW119997   5.111   1.873   5.670
 6437SOL    HW219998   4.986   1.876   5.774
 6438SOL     OW19999   5.024   2.315   6.277
 6438SOL    HW120000   4.965   2.395   6.281
 6438SOL    HW220001   5.039   2.280   6.370
 6439SOL     OW20002   5.317   2.083   6.468
 6439SOL    HW120003   5.233   2.082   6.522
 6439SOL    HW220004   5.319   2.166   6.412
 6440SOL     OW20005   3.763   2.939   5.886
 6440SOL    HW120006   3.862   2.928   5.877
 6440SOL    HW220007   3.723   2.853   5.918
 6441SOL     OW20008   4.599   3.508   5.923
 6441SOL    HW120009   4.522   3.473   5.869
 6441SOL    HW220010   4.567   3.579   5.985
 6442SOL     OW20011   3.954   2.490   7.561
 6442SOL    HW120012   3.861   2.488   7.598
 6442SOL    HW220013   3.955   2.451   7.469
 6443SOL     OW20014   3.955   3.575   7.931
 6443SOL    HW120015   3.989   3.652   7.985
 6443SOL    HW220016   3.999   3.575   7.841
 6444SOL     OW20017   3.954   3.296   7.986
 6444SOL    HW120018   3.928   3.392   7.986
 6444SOL    HW220019   3.883   3.242   8.031
 6445SOL     OW20020   4.330   2.826   7.571
 6445SOL    HW120021   4.337   2.910   7.517
 6445SOL    HW220022   4.376   2.839   7.659
 6446SOL     OW20023   3.751   3.458   7.565
 6446SOL    HW120024   3.732   3.362   7.586
 6446SOL    HW220025   3.718   3.516   7.640
 6447SOL     OW20026   5.413   2.784   8.060
 6447SOL    HW120027   5.508   2.755   8.068
 6447SOL    HW220028   5.405   2.849   7.985
 6448SOL     OW20029   4.533   1.866   7.950
 6448SOL    HW120030   4.573   1.957   7.941
 6448SOL    HW220031   4.433   1.874   7.956
 6449SOL     OW20032   4.322   2.591   7.718
 6449SOL    HW120033   4.346   2.660   7.650
 6449SOL    HW220034   4.244   2.624   7.772
 6450SOL     OW20035   3.800   2.673   8.237
 6450SOL    HW120036   3.899   2.661   8.246
 6450SOL    HW220037   3.776   2.768   8.258
 6451SOL     OW20038   4.589   2.210   7.643
 6451SOL    HW120039   4.648   2.273   7.594
 6451SOL    HW220040   4.608   2.116   7.614
 6452SOL     OW20041   4.045   2.805   7.690
 6452SOL    HW120042   4.127   2.844   7.648
 6452SOL    HW220043   4.018   2.723   7.641
 6453SOL     OW20044   4.835   3.638   7.685
 6453SOL    HW120045   4.775   3.576   7.735
 6453SOL    HW220046   4.866   3.594   7.600
 6454SOL     OW20047   4.188   3.605   7.771
 6454SOL    HW120048   4.221   3.644   7.857
 6454SOL    HW220049   4.264   3.598   7.706
 6455SOL     OW20050   5.124   1.969   7.874
 6455SOL    HW120051   5.100   1.932   7.784
 6455SOL    HW220052   5.223   1.985   7.878
 6456SOL     OW20053   4.106   2.562   7.928
 6456SOL    HW120054   4.151   2.472   7.925
 6456SOL    HW220055   4.012   2.551   7.961
 6457SOL     OW20056   4.338   1.984   7.565
 6457SOL    HW120057   4.436   1.962   7.572
 6457SOL    HW220058   4.307   1.967   7.472
 6458SOL     OW20059   4.263   1.926   7.960
 6458SOL    HW120060   4.182   1.927   8.018
 6458SOL    HW220061   4.266   2.009   7.905
 6459SOL     OW20062   5.158   3.050   7.489
 6459SOL    HW120063   5.190   2.974   7.546
 6459SOL    HW220064   5.066   3.077   7.519
 6460SOL     OW20065   4.021   1.897   7.619
 6460SOL    HW120066   4.070   1.981   7.598
 6460SOL    HW220067   4.083   1.832   7.664
 6461SOL     OW20068   4.659   2.098   7.928
 6461SOL    HW120069   4.611   2.139   7.850
 6461SOL    HW220070   4.758   2.096   7.909
 6462SOL     OW20071   4.183   3.014   8.189
 6462SOL    HW120072   4.112   2.987   8.254
 6462SOL    HW220073   4.157   2.986   8.096
 6463SOL     OW20074   4.995   3.659   8.039
 6463SOL    HW120075   5.039   3.723   7.975
 6463SOL    HW220076   4.945   3.711   8.109
 6464SOL     OW20077   4.756   2.411   7.464
 6464SOL    HW120078   4.715   2.493   7.425
 6464SOL    HW220079   4.820   2.437   7.537
 6465SOL     OW20080   4.212   3.247   7.622
 6465SOL    HW120081   4.125   3.232   7.669
 6465SOL    HW220082   4.195   3.273   7.527
 6466SOL     OW20083   5.114   2.437   7.526
 6466SOL    HW120084   5.060   2.416   7.607
 6466SOL    HW220085   5.205   2.396   7.535
 6467SOL     OW20086   4.251   2.118   7.776
 6467SOL    HW120087   4.278   2.059   7.701
 6467SOL    HW220088   4.251   2.213   7.745
 6468SOL     OW20089   4.429   2.912   7.816
 6468SOL    HW120090   4.415   2.919   7.915
 6468SOL    HW220091   4.513   2.861   7.798
 6469SOL     OW20092   4.091   2.962   7.949
 6469SOL    HW120093   4.084   3.045   7.893
 6469SOL    HW220094   4.095   2.882   7.889
 6470SOL     OW20095   4.976   3.210   7.836
 6470SOL    HW120096   5.026   3.287   7.876
 6470SOL    HW220097   4.881   3.212   7.868
 6471SOL     OW20098   5.306   2.501   7.920
 6471SOL    HW120099   5.275   2.562   7.993
 6471SOL    HW220100   5.356   2.553   7.851
 6472SOL     OW20101   4.933   2.387   7.723
 6472SOL    HW120102   4.946   2.303   7.777
 6472SOL    HW220103   4.904   2.461   7.783
 6473SOL     OW20104   5.346   2.229   7.822
 6473SOL    HW120105   5.348   2.153   7.886
 6473SOL    HW220106   5.298   2.306   7.862
 6474SOL     OW20107   5.027   2.700   7.490
 6474SOL    HW120108   5.061   2.607   7.505
 6474SOL    HW220109   5.045   2.727   7.395
 6475SOL     OW20110   3.732   3.188   7.648
 6475SOL    HW120111   3.639   3.209   7.617
 6475SOL    HW220112   3.742   3.089   7.661
 6476SOL     OW20113   4.539   2.434   7.773
 6476SOL    HW120114   4.546   2.345   7.727
 6476SOL    HW220115   4.445   2.468   7.765
 6477SOL     OW20116   4.197   2.362   7.639
 6477SOL    HW120117   4.258   2.442   7.643
 6477SOL    HW220118   4.102   2.393   7.646
 6478SOL     OW20119   5.026   2.717   7.757
 6478SOL    HW120120   4.940   2.686   7.799
 6478SOL    HW220121   5.022   2.703   7.658
 6479SOL     OW20122   5.450   1.997   7.971
 6479SOL    HW120123   5.523   1.980   7.904
 6479SOL    HW220124   5.419   1.910   8.009
 6480SOL     OW20125   5.112   3.435   7.925
 6480SOL    HW120126   5.179   3.447   7.851
 6480SOL    HW220127   5.072   3.524   7.948
 6481SOL     OW20128   4.396   3.478   7.602
 6481SOL    HW120129   4.405   3.488   7.503
 6481SOL    HW220130   4.356   3.389   7.623
 6482SOL     OW20131   4.918   3.474   7.479
 6482SOL    HW120132   4.924   3.381   7.516
 6482SOL    HW220133   4.859   3.474   7.399
 6483SOL     OW20134   4.640   2.772   7.739
 6483SOL    HW120135   4.703   2.810   7.671
 6483SOL    HW220136   4.680   2.689   7.778
 6484SOL     OW20137   4.314   3.349   7.939
 6484SOL    HW120138   4.356   3.291   7.869
 6484SOL    HW220139   4.270   3.428   7.895
 6485SOL     OW20140   3.979   3.210   7.738
 6485SOL    HW120141   3.883   3.211   7.711
 6485SOL    HW220142   3.991   3.263   7.822
 6486SOL     OW20143   3.799   2.207   7.481
 6486SOL    HW120144   3.707   2.179   7.452
 6486SOL    HW220145   3.830   2.284   7.425
 6487SOL     OW20146   3.796   2.028   7.766
 6487SOL    HW120147   3.779   2.111   7.712
 6487SOL    HW220148   3.886   1.991   7.744
 6488SOL     OW20149   4.907   3.197   7.567
 6488SOL    HW120150   4.808   3.186   7.569
 6488SOL    HW220151   4.941   3.212   7.660
 6489SOL     OW20152   5.217   3.629   8.407
 6489SOL    HW120153   5.250   3.693   8.338
 6489SOL    HW220154   5.283   3.623   8.482
 6490SOL     OW20155   4.949   2.187   7.897
 6490SOL    HW120156   5.014   2.113   7.886
 6490SOL    HW220157   4.969   2.237   7.981
 6491SOL     OW20158   4.318   2.607   8.100
 6491SOL    HW120159   4.368   2.692   8.081
 6491SOL    HW220160   4.230   2.609   8.052
 6492SOL     OW20161   4.583   3.236   7.464
 6492SOL    HW120162   4.537   3.251   7.552
 6492SOL    HW220163   4.627   3.321   7.434
 6493SOL     OW20164   4.807   2.846   7.535
 6493SOL    HW120165   4.784   2.899   7.453
 6493SOL    HW220166   4.888   2.790   7.516
 6494SOL     OW20167   4.152   2.286   7.968
 6494SOL    HW120168   4.182   2.214   7.906
 6494SOL    HW220169   4.113   2.246   8.051
 6495SOL     OW20170   4.494   3.192   7.749
 6495SOL    HW120171   4.448   3.105   7.766
 6495SOL    HW220172   4.585   3.189   7.790
 6496SOL     OW20173   5.076   1.914   7.616
 6496SOL    HW120174   5.111   1.873   7.532
 6496SOL    HW220175   4.986   1.876   7.636
 6497SOL     OW20176   3.763   2.939   7.748
 6497SOL    HW120177   3.862   2.928   7.739
 6497SOL    HW220178   3.723   2.853   7.780
 6498SOL     OW20179   4.599   3.508   7.785
 6498SOL    HW120180   4.522   3.473   7.731
 6498SOL    HW220181   4.567   3.579   7.847
 6499SOL     OW20182   3.954   4.352   0.113
 6499SOL    HW120183   3.861   4.350   0.150
 6499SOL    HW220184   3.955   4.313   0.021
 6500SOL     OW20185   3.949   3.999   0.996
 6500SOL    HW120186   3.984   3.982   1.088
 6500SOL    HW220187   3.861   3.954   0.984
 6501SOL     OW20188   3.743   4.092   0.647
 6501SOL    HW120189   3.661   4.135   0.686
 6501SOL    HW220190   3.715   4.019   0.584
 6502SOL     OW20191   4.293   4.999   1.165
 6502SOL    HW120192   4.200   4.992   1.128
 6502SOL    HW220193   4.304   5.088   1.209
 6503SOL     OW20194   5.279   5.235   0.703
 6503SOL    HW120195   5.222   5.219   0.784
 6503SOL    HW220196   5.220   5.245   0.623
 6504SOL     OW20197   4.859   4.427   0.717
 6504SOL    HW120198   4.916   4.505   0.692
 6504SOL    HW220199   4.799   4.453   0.793
 6505SOL     OW20200   4.492   4.868   1.023
 6505SOL    HW120201   4.414   4.885   1.083
 6505SOL    HW220202   4.526   4.955   0.987
 6506SOL     OW20203   4.574   4.522   1.823
 6506SOL    HW120204   4.570   4.598   1.888
 6506SOL    HW220205   4.596   4.558   1.732
 6507SOL     OW20206   4.409   4.736   0.665
 6507SOL    HW120207   4.478   4.720   0.735
 6507SOL    HW220208   4.336   4.793   0.703
 6508SOL     OW20209   4.410   4.885   1.803
 6508SOL    HW120210   4.470   4.964   1.817
 6508SOL    HW220211   4.324   4.916   1.762
 6509SOL     OW20212   4.059   5.159   1.061
 6509SOL    HW120213   3.981   5.128   1.008
 6509SOL    HW220214   4.117   5.217   1.004
 6510SOL     OW20215   5.184   5.229   1.339
 6510SOL    HW120216   5.208   5.323   1.365
 6510SOL    HW220217   5.168   5.175   1.421
 6511SOL     OW20218   4.162   4.116   1.499
 6511SOL    HW120219   4.244   4.060   1.508
 6511SOL    HW220220   4.081   4.058   1.503
 6512SOL     OW20221   4.851   5.065   1.690
 6512SOL    HW120222   4.898   5.065   1.778
 6512SOL    HW220223   4.803   4.978   1.679
 6513SOL     OW20224   3.954   5.158   0.538
 6513SOL    HW120225   3.928   5.254   0.538
 6513SOL    HW220226   3.883   5.104   0.583
 6514SOL     OW20227   3.964   4.815   0.886
 6514SOL    HW120228   3.978   4.731   0.938
 6514SOL    HW220229   3.909   4.879   0.941
 6515SOL     OW20230   4.330   4.688   0.123
 6515SOL    HW120231   4.337   4.772   0.069
 6515SOL    HW220232   4.376   4.701   0.211
 6516SOL     OW20233   3.846   4.367   0.563
 6516SOL    HW120234   3.801   4.279   0.580
 6516SOL    HW220235   3.845   4.421   0.647
 6517SOL     OW20236   3.751   5.320   0.117
 6517SOL    HW120237   3.732   5.224   0.138
 6517SOL    HW220238   3.718   5.378   0.192
 6518SOL     OW20239   5.413   4.646   0.612
 6518SOL    HW120240   5.508   4.617   0.620
 6518SOL    HW220241   5.405   4.711   0.537
 6519SOL     OW20242   3.837   4.461   1.597
 6519SOL    HW120243   3.925   4.448   1.642
 6519SOL    HW220244   3.824   4.558   1.575
 6520SOL     OW20245   4.337   5.089   0.726
 6520SOL    HW120246   4.288   5.002   0.735
 6520SOL    HW220247   4.314   5.132   0.639
 6521SOL     OW20248   5.017   4.952   1.423
 6521SOL    HW120249   5.054   4.879   1.365
 6521SOL    HW220250   5.069   4.957   1.508
 6522SOL     OW20251   4.533   3.728   0.502
 6522SOL    HW120252   4.573   3.819   0.493
 6522SOL    HW220253   4.433   3.736   0.508
 6523SOL     OW20254   3.921   4.700   1.264
 6523SOL    HW120255   4.010   4.655   1.250
 6523SOL    HW220256   3.848   4.635   1.245
 6524SOL     OW20257   4.041   3.975   1.801
 6524SOL    HW120258   4.112   4.046   1.807
 6524SOL    HW220259   3.953   4.014   1.829
 6525SOL     OW20260   5.190   5.141   0.953
 6525SOL    HW120261   5.131   5.147   1.033
 6525SOL    HW220262   5.175   5.053   0.907
 6526SOL     OW20263   5.391   5.438   0.572
 6526SOL    HW120264   5.350   5.415   0.484
 6526SOL    HW220265   5.373   5.364   0.637
 6527SOL     OW20266   4.322   4.453   0.270
 6527SOL    HW120267   4.346   4.522   0.202
 6527SOL    HW220268   4.244   4.486   0.324
 6528SOL     OW20269   5.005   4.069   0.944
 6528SOL    HW120270   4.919   4.019   0.931
 6528SOL    HW220271   5.067   4.015   1.000
 6529SOL     OW20272   4.531   4.329   1.465
 6529SOL    HW120273   4.484   4.326   1.554
 6529SOL    HW220274   4.480   4.274   1.399
 6530SOL     OW20275   5.118   4.193   1.674
 6530SOL    HW120276   5.098   4.236   1.762
 6530SOL    HW220277   5.196   4.131   1.683
 6531SOL     OW20278   4.697   4.614   1.572
 6531SOL    HW120279   4.743   4.530   1.543
 6531SOL    HW220280   4.641   4.648   1.497
 6532SOL     OW20281   4.715   4.134   1.242
 6532SOL    HW120282   4.638   4.168   1.296
 6532SOL    HW220283   4.681   4.083   1.163
 6533SOL     OW20284   4.765   4.425   0.429
 6533SOL    HW120285   4.791   4.421   0.525
 6533SOL    HW220286   4.680   4.374   0.415
 6534SOL     OW20287   3.800   4.535   0.789
 6534SOL    HW120288   3.899   4.523   0.798
 6534SOL    HW220289   3.776   4.630   0.810
 6535SOL     OW20290   4.589   4.072   0.195
 6535SOL    HW120291   4.648   4.135   0.146
 6535SOL    HW220292   4.608   3.978   0.166
 6536SOL     OW20293   5.086   4.868   0.545
 6536SOL    HW120294   5.169   4.839   0.497
 6536SOL    HW220295   5.037   4.935   0.489
 6537SOL     OW20296   4.274   3.920   0.885
 6537SOL    HW120297   4.269   3.915   0.985
 6537SOL    HW220298   4.276   4.016   0.856
 6538SOL     OW20299   4.732   5.180   0.477
 6538SOL    HW120300   4.686   5.252   0.425
 6538SOL    HW220301   4.728   5.200   0.575
 6539SOL     OW20302   4.951   5.274   1.506
 6539SOL    HW120303   4.957   5.197   1.570
 6539SOL    HW220304   4.899   5.248   1.426
 6540SOL     OW20305   4.045   4.667   0.242
 6540SOL    HW120306   4.127   4.706   0.200
 6540SOL    HW220307   4.018   4.585   0.193
 6541SOL     OW20308   4.185   4.990   1.727
 6541SOL    HW120309   4.135   4.991   1.641
 6541SOL    HW220310   4.122   4.972   1.803
 6542SOL     OW20311   4.835   5.500   0.237
 6542SOL    HW120312   4.775   5.438   0.287
 6542SOL    HW220313   4.866   5.456   0.152
 6543SOL     OW20314   3.926   4.009   1.498
 6543SOL    HW120315   3.846   4.069   1.485
 6543SOL    HW220316   3.916   3.960   1.584
 6544SOL     OW20317   5.124   3.831   0.426
 6544SOL    HW120318   5.100   3.794   0.336
 6544SOL    HW220319   5.223   3.847   0.430
 6545SOL     OW20320   4.106   4.424   0.480
 6545SOL    HW120321   4.151   4.334   0.477
 6545SOL    HW220322   4.012   4.413   0.513
 6546SOL     OW20323   4.338   3.846   0.117
 6546SOL    HW120324   4.436   3.824   0.124
 6546SOL    HW220325   4.307   3.829   0.024
 6547SOL     OW20326   4.505   3.988   1.749
 6547SOL    HW120327   4.572   3.927   1.792
 6547SOL    HW220328   4.432   4.007   1.814
 6548SOL     OW20329   5.075   4.314   1.433
 6548SOL    HW120330   5.103   4.271   1.518
 6548SOL    HW220331   5.100   4.410   1.434
 6549SOL     OW20332   4.527   5.126   0.924
 6549SOL    HW120333   4.617   5.140   0.882
 6549SOL    HW220334   4.456   5.128   0.853
 6550SOL     OW20335   4.646   4.227   0.899
 6550SOL    HW120336   4.621   4.218   0.803
 6550SOL    HW220337   4.694   4.145   0.930
 6551SOL     OW20338   4.263   3.788   0.512
 6551SOL    HW120339   4.182   3.789   0.570
 6551SOL    HW220340   4.266   3.871   0.457
 6552SOL     OW20341   5.158   4.912   0.041
 6552SOL    HW120342   5.190   4.836   0.098
 6552SOL    HW220343   5.066   4.939   0.071
 6553SOL     OW20344   4.021   3.759   0.171
 6553SOL    HW120345   4.070   3.843   0.150
 6553SOL    HW220346   4.083   3.694   0.216
 6554SOL     OW20347   4.659   3.960   0.480
 6554SOL    HW120348   4.611   4.001   0.402
 6554SOL    HW220349   4.758   3.958   0.461
 6555SOL     OW20350   4.800   4.407   1.464
 6555SOL    HW120351   4.720   4.346   1.467
 6555SOL    HW220352   4.881   4.354   1.440
 6556SOL     OW20353   4.951   5.294   0.793
 6556SOL    HW120354   4.972   5.368   0.728
 6556SOL    HW220355   5.019   5.294   0.866
 6557SOL     OW20356   4.183   4.876   0.741
 6557SOL    HW120357   4.112   4.849   0.806
 6557SOL    HW220358   4.157   4.848   0.648
 6558SOL     OW20359   4.756   4.273   0.016
 6558SOL    HW120360   4.715   4.355  -0.023
 6558SOL    HW220361   4.820   4.299   0.089
 6559SOL     OW20362   3.802   4.280   1.386
 6559SOL    HW120363   3.894   4.279   1.345
 6559SOL    HW220364   3.796   4.354   1.453
 6560SOL     OW20365   4.285   3.946   1.147
 6560SOL    HW120366   4.323   3.862   1.184
 6560SOL    HW220367   4.197   3.965   1.191
 6561SOL     OW20368   4.590   4.178   0.642
 6561SOL    HW120369   4.558   4.250   0.580
 6561SOL    HW220370   4.614   4.097   0.589
 6562SOL     OW20371   4.741   3.763   0.753
 6562SOL    HW120372   4.669   3.768   0.684
 6562SOL    HW220373   4.717   3.694   0.822
 6563SOL     OW20374   5.153   4.897   0.867
 6563SOL    HW120375   5.098   4.813   0.860
 6563SOL    HW220376   5.179   4.926   0.775
 6564SOL     OW20377   4.212   5.109   0.174
 6564SOL    HW120378   4.125   5.094   0.221
 6564SOL    HW220379   4.195   5.135   0.079
 6565SOL     OW20380   5.114   4.299   0.078
 6565SOL    HW120381   5.060   4.278   0.159
 6565SOL    HW220382   5.205   4.258   0.087
 6566SOL     OW20383   4.251   3.980   0.328
 6566SOL    HW120384   4.278   3.921   0.253
 6566SOL    HW220385   4.251   4.075   0.297
 6567SOL     OW20386   4.788   5.071   1.340
 6567SOL    HW120387   4.708   5.048   1.395
 6567SOL    HW220388   4.871   5.045   1.389
 6568SOL     OW20389   4.835   4.919   1.100
 6568SOL    HW120390   4.795   4.963   1.181
 6568SOL    HW220391   4.794   4.956   1.017
 6569SOL     OW20392   4.639   3.813   1.402
 6569SOL    HW120393   4.664   3.793   1.307
 6569SOL    HW220394   4.711   3.869   1.444
 6570SOL     OW20395   4.704   4.840   1.719
 6570SOL    HW120396   4.605   4.846   1.729
 6570SOL    HW220397   4.727   4.760   1.663
 6571SOL     OW20398   4.429   4.774   0.368
 6571SOL    HW120399   4.415   4.781   0.467
 6571SOL    HW220400   4.513   4.723   0.350
 6572SOL     OW20401   4.134   4.537   1.251
 6572SOL    HW120402   4.220   4.549   1.301
 6572SOL    HW220403   4.092   4.450   1.278
 6573SOL     OW20404   4.998   4.110   1.262
 6573SOL    HW120405   5.019   4.184   1.326
 6573SOL    HW220406   4.909   4.127   1.219
 6574SOL     OW20407   4.091   4.824   0.501
 6574SOL    HW120408   4.084   4.907   0.445
 6574SOL    HW220409   4.095   4.744   0.441
 6575SOL     OW20410   4.290   4.261   0.865
 6575SOL    HW120411   4.302   4.327   0.791
 6575SOL    HW220412   4.336   4.295   0.948
 6576SOL     OW20413   4.976   5.072   0.388
 6576SOL    HW120414   5.026   5.149   0.428
 6576SOL    HW220415   4.881   5.074   0.420
 6577SOL     OW20416   4.996   5.169   1.142
 6577SOL    HW120417   5.043   5.182   1.229
 6577SOL    HW220418   4.930   5.095   1.151
 6578SOL     OW20419   4.078   5.234   1.329
 6578SOL    HW120420   4.057   5.190   1.242
 6578SOL    HW220421   4.175   5.260   1.332
 6579SOL     OW20422   4.126   4.475   1.598
 6579SOL    HW120423   4.194   4.530   1.551
 6579SOL    HW220424   4.166   4.387   1.625
 6580SOL     OW20425   4.737   3.829   1.770
 6580SOL    HW120426   4.743   3.914   1.718
 6580SOL    HW220427   4.769   3.753   1.713
 6581SOL     OW20428   4.228   3.774   1.740
 6581SOL    HW120429   4.186   3.717   1.670
 6581SOL    HW220430   4.162   3.843   1.772
 6582SOL     OW20431   4.297   4.594   1.029
 6582SOL    HW120432   4.341   4.683   1.020
 6582SOL    HW220433   4.234   4.594   1.106
 6583SOL     OW20434   5.084   4.586   1.045
 6583SOL    HW120435   5.009   4.586   0.979
 6583SOL    HW220436   5.121   4.494   1.054
 6584SOL     OW20437   4.933   4.249   0.275
 6584SOL    HW120438   4.946   4.165   0.329
 6584SOL    HW220439   4.904   4.323   0.335
 6585SOL     OW20440   4.031   3.937   1.231
 6585SOL    HW120441   4.008   3.974   1.321
 6585SOL    HW220442   4.001   3.842   1.225
 6586SOL     OW20443   3.761   5.034   1.282
 6586SOL    HW120444   3.814   4.985   1.350
 6586SOL    HW220445   3.783   5.132   1.287
 6587SOL     OW20446   4.456   4.358   1.064
 6587SOL    HW120447   4.515   4.332   0.988
 6587SOL    HW220448   4.428   4.454   1.053
 6588SOL     OW20449   4.031   3.787   0.618
 6588SOL    HW120450   4.020   3.881   0.651
 6588SOL    HW220451   4.026   3.724   0.695
 6589SOL     OW20452   5.346   4.091   0.374
 6589SOL    HW120453   5.348   4.015   0.438
 6589SOL    HW220454   5.298   4.168   0.414
 6590SOL     OW20455   4.747   4.490   0.966
 6590SOL    HW120456   4.762   4.511   1.062
 6590SOL    HW220457   4.717   4.395   0.957
 6591SOL     OW20458   4.074   4.622   1.804
 6591SOL    HW120459   4.150   4.666   1.852
 6591SOL    HW220460   4.109   4.575   1.722
 6592SOL     OW20461   5.027   4.562   0.042
 6592SOL    HW120462   5.061   4.469   0.057
 6592SOL    HW220463   5.045   4.589  -0.053
 6593SOL     OW20464   4.792   5.057   0.849
 6593SOL    HW120465   4.799   4.973   0.794
 6593SOL    HW220466   4.854   5.126   0.813
 6594SOL     OW20467   4.043   4.534   0.949
 6594SOL    HW120468   4.136   4.570   0.954
 6594SOL    HW220469   4.037   4.449   1.001
 6595SOL     OW20470   4.063   4.233   1.006
 6595SOL    HW120471   4.011   4.150   0.989
 6595SOL    HW220472   4.140   4.238   0.942
 6596SOL     OW20473   4.862   4.104   1.678
 6596SOL    HW120474   4.817   4.167   1.742
 6596SOL    HW220475   4.955   4.135   1.661
 6597SOL     OW20476   4.884   3.931   1.477
 6597SOL    HW120477   4.884   3.995   1.554
 6597SOL    HW220478   4.912   3.979   1.394
 6598SOL     OW20479   3.732   5.050   0.200
 6598SOL    HW120480   3.639   5.071   0.169
 6598SOL    HW220481   3.742   4.951   0.213
 6599SOL     OW20482   4.726   4.520   1.238
 6599SOL    HW120483   4.767   4.488   1.324
 6599SOL    HW220484   4.630   4.493   1.235
 6600SOL     OW20485   3.764   4.268   1.114
 6600SOL    HW120486   3.849   4.235   1.073
 6600SOL    HW220487   3.777   4.283   1.212
 6601SOL     OW20488   3.913   4.244   1.722
 6601SOL    HW120489   3.972   4.204   1.652
 6601SOL    HW220490   3.855   4.315   1.681
 6602SOL     OW20491   5.093   4.674   1.660
 6602SOL    HW120492   5.132   4.763   1.680
 6602SOL    HW220493   5.103   4.654   1.563
 6603SOL     OW20494   4.539   4.296   0.325
 6603SOL    HW120495   4.546   4.207   0.279
 6603SOL    HW220496   4.445   4.330   0.317
 6604SOL     OW20497   3.976   5.288   1.744
 6604SOL    HW120498   3.946   5.345   1.820
 6604SOL    HW220499   3.969   5.191   1.770
 6605SOL     OW20500   4.395   4.188   1.269
 6605SOL    HW120501   4.361   4.099   1.239
 6605SOL    HW220502   4.421   4.242   1.189
 6606SOL     OW20503   4.197   4.224   0.191
 6606SOL    HW120504   4.258   4.304   0.195
 6606SOL    HW220505   4.102   4.255   0.198
 6607SOL     OW20506   3.883   4.861   1.466
 6607SOL    HW120507   3.905   4.800   1.542
 6607SOL    HW220508   3.893   4.812   1.380
 6608SOL     OW20509   5.071   4.783   1.234
 6608SOL    HW120510   5.095   4.720   1.160
 6608SOL    HW220511   4.981   4.823   1.216
 6609SOL     OW20512   5.026   4.579   0.309
 6609SOL    HW120513   4.940   4.548   0.351
 6609SOL    HW220514   5.022   4.565   0.210
 6610SOL     OW20515   3.807   4.982   1.022
 6610SOL    HW120516   3.802   4.981   1.122
 6610SOL    HW220517   3.724   4.941   0.984
 6611SOL     OW20518   4.412   5.386   1.716
 6611SOL    HW120519   4.356   5.467   1.725
 6611SOL    HW220520   4.464   5.390   1.630
 6612SOL     OW20521   4.627   3.810   0.133
 6612SOL    HW120522   4.678   3.811   0.047
 6612SOL    HW220523   4.683   3.768   0.204
 6613SOL     OW20524   5.450   3.859   0.523
 6613SOL    HW120525   5.523   3.842   0.456
 6613SOL    HW220526   5.419   3.772   0.561
 6614SOL     OW20527   5.004   4.651   0.672
 6614SOL    HW120528   5.064   4.570   0.674
 6614SOL    HW220529   5.044   4.720   0.612
 6615SOL     OW20530   4.554   4.997   1.422
 6615SOL    HW120531   4.549   5.030   1.517
 6615SOL    HW220532   4.468   5.016   1.376
 6616SOL     OW20533   3.987   4.050   0.720
 6616SOL    HW120534   3.908   4.101   0.686
 6616SOL    HW220535   3.978   4.035   0.818
 6617SOL     OW20536   4.918   5.336   0.031
 6617SOL    HW120537   4.924   5.243   0.068
 6617SOL    HW220538   4.859   5.336  -0.049
 6618SOL     OW20539   4.546   4.726   1.372
 6618SOL    HW120540   4.586   4.725   1.280
 6618SOL    HW220541   4.556   4.818   1.412
 6619SOL     OW20542   4.640   4.634   0.291
 6619SOL    HW120543   4.703   4.672   0.223
 6619SOL    HW220544   4.680   4.551   0.330
 6620SOL     OW20545   4.096   5.012   1.490
 6620SOL    HW120546   4.083   5.105   1.456
 6620SOL    HW220547   4.012   4.960   1.477
 6621SOL     OW20548   4.763   4.822   0.696
 6621SOL    HW120549   4.693   4.775   0.750
 6621SOL    HW220550   4.822   4.754   0.653
 6622SOL     OW20551   4.738   3.960   0.971
 6622SOL    HW120552   4.730   3.924   0.878
 6622SOL    HW220553   4.736   3.884   1.036
 6623SOL     OW20554   3.979   5.072   0.290
 6623SOL    HW120555   3.883   5.073   0.263
 6623SOL    HW220556   3.991   5.125   0.374
 6624SOL     OW20557   3.829   4.737   1.726
 6624SOL    HW120558   3.752   4.704   1.780
 6624SOL    HW220559   3.914   4.707   1.768
 6625SOL     OW20560   4.396   3.927   1.489
 6625SOL    HW120561   4.486   3.911   1.449
 6625SOL    HW220562   4.404   3.932   1.588
 6626SOL     OW20563   3.799   4.069   0.033
 6626SOL    HW120564   3.707   4.041   0.004
 6626SOL    HW220565   3.830   4.146  -0.023
 6627SOL     OW20566   5.164   4.580   1.398
 6627SOL    HW120567   5.107   4.632   1.335
 6627SOL    HW220568   5.260   4.592   1.374
 6628SOL     OW20569   3.796   3.890   0.318
 6628SOL    HW120570   3.779   3.973   0.264
 6628SOL    HW220571   3.886   3.853   0.296
 6629SOL     OW20572   4.907   5.059   0.119
 6629SOL    HW120573   4.808   5.048   0.121
 6629SOL    HW220574   4.941   5.074   0.212
 6630SOL     OW20575   4.337   4.566   1.431
 6630SOL    HW120576   4.393   4.647   1.414
 6630SOL    HW220577   4.396   4.486   1.434
 6631SOL     OW20578   4.440   4.289   1.708
 6631SOL    HW120579   4.459   4.354   1.782
 6631SOL    HW220580   4.500   4.209   1.717
 6632SOL     OW20581   5.174   4.944   1.633
 6632SOL    HW120582   5.165   4.934   1.732
 6632SOL    HW220583   5.270   4.937   1.607
 6633SOL     OW20584   4.949   4.049   0.449
 6633SOL    HW120585   5.014   3.975   0.438
 6633SOL    HW220586   4.969   4.099   0.533
 6634SOL     OW20587   4.318   4.469   0.652
 6634SOL    HW120588   4.368   4.554   0.633
 6634SOL    HW220589   4.230   4.471   0.604
 6635SOL     OW20590   4.583   5.098   0.016
 6635SOL    HW120591   4.537   5.113   0.104
 6635SOL    HW220592   4.627   5.183  -0.014
 6636SOL     OW20593   4.583   4.680   0.861
 6636SOL    HW120594   4.637   4.611   0.909
 6636SOL    HW220595   4.551   4.749   0.927
 6637SOL     OW20596   4.807   4.708   0.087
 6637SOL    HW120597   4.784   4.761   0.005
 6637SOL    HW220598   4.888   4.652   0.068
 6638SOL     OW20599   3.945   5.038   1.844
 6638SOL    HW120600   3.880   4.965   1.823
 6638SOL    HW220601   3.949   5.052   1.942
 6639SOL     OW20602   3.803   4.964   0.653
 6639SOL    HW120603   3.802   4.917   0.741
 6639SOL    HW220604   3.885   4.936   0.602
 6640SOL     OW20605   4.396   5.115   1.624
 6640SOL    HW120606   4.318   5.065   1.662
 6640SOL    HW220607   4.393   5.210   1.655
 6641SOL     OW20608   4.152   4.148   0.520
 6641SOL    HW120609   4.182   4.076   0.458
 6641SOL    HW220610   4.113   4.108   0.603
 6642SOL     OW20611   5.429   5.211   1.104
 6642SOL    HW120612   5.336   5.186   1.077
 6642SOL    HW220613   5.455   5.161   1.186
 6643SOL     OW20614   4.041   4.271   1.280
 6643SOL    HW120615   4.079   4.212   1.352
 6643SOL    HW220616   4.081   4.245   1.192
 6644SOL     OW20617   5.148   3.938   1.112
 6644SOL    HW120618   5.200   3.873   1.167
 6644SOL    HW220619   5.099   4.001   1.173
 6645SOL     OW20620   4.725   3.758   1.154
 6645SOL    HW120621   4.662   3.686   1.123
 6645SOL    HW220622   4.818   3.722   1.154
 6646SOL     OW20623   4.494   5.054   0.301
 6646SOL    HW120624   4.448   4.967   0.318
 6646SOL    HW220625   4.585   5.051   0.342
 6647SOL     OW20626   4.342   5.291   1.284
 6647SOL    HW120627   4.337   5.373   1.341
 6647SOL    HW220628   4.431   5.288   1.239
 6648SOL     OW20629   5.076   3.776   0.168
 6648SOL    HW120630   5.111   3.735   0.084
 6648SOL    HW220631   4.986   3.738   0.188
 6649SOL     OW20632   5.024   4.177   0.691
 6649SOL    HW120633   4.965   4.257   0.695
 6649SOL    HW220634   5.039   4.142   0.784
 6650SOL     OW20635   5.317   3.945   0.882
 6650SOL    HW120636   5.233   3.944   0.936
 6650SOL    HW220637   5.319   4.028   0.826
 6651SOL     OW20638   3.763   4.801   0.300
 6651SOL    HW120639   3.862   4.790   0.291
 6651SOL    HW220640   3.723   4.715   0.332
 6652SOL     OW20641   3.954   4.352   1.975
 6652SOL    HW120642   3.861   4.350   2.012
 6652SOL    HW220643   3.955   4.313   1.883
 6653SOL     OW20644   3.949   3.999   2.858
 6653SOL    HW120645   3.984   3.982   2.950
 6653SOL    HW220646   3.861   3.954   2.846
 6654SOL     OW20647   3.743   4.092   2.509
 6654SOL    HW120648   3.661   4.135   2.548
 6654SOL    HW220649   3.715   4.019   2.446
 6655SOL     OW20650   4.293   4.999   3.027
 6655SOL    HW120651   4.200   4.992   2.990
 6655SOL    HW220652   4.304   5.088   3.071
 6656SOL     OW20653   5.279   5.235   2.565
 6656SOL    HW120654   5.222   5.219   2.646
 6656SOL    HW220655   5.220   5.245   2.485
 6657SOL     OW20656   4.859   4.427   2.579
 6657SOL    HW120657   4.916   4.505   2.554
 6657SOL    HW220658   4.799   4.453   2.655
 6658SOL     OW20659   4.492   4.868   2.885
 6658SOL    HW120660   4.414   4.885   2.945
 6658SOL    HW220661   4.526   4.955   2.849
 6659SOL     OW20662   4.574   4.522   3.685
 6659SOL    HW120663   4.570   4.598   3.750
 6659SOL    HW220664   4.596   4.558   3.594
 6660SOL     OW20665   4.409   4.736   2.527
 6660SOL    HW120666   4.478   4.720   2.597
 6660SOL    HW220667   4.336   4.793   2.565
 6661SOL     OW20668   4.410   4.885   3.665
 6661SOL    HW120669   4.470   4.964   3.679
 6661SOL    HW220670   4.324   4.916   3.624
 6662SOL     OW20671   4.059   5.159   2.923
 6662SOL    HW120672   3.981   5.128   2.870
 6662SOL    HW220673   4.117   5.217   2.866
 6663SOL     OW20674   5.184   5.229   3.201
 6663SOL    HW120675   5.208   5.323   3.227
 6663SOL    HW220676   5.168   5.175   3.283
 6664SOL     OW20677   4.162   4.116   3.361
 6664SOL    HW120678   4.244   4.060   3.370
 6664SOL    HW220679   4.081   4.058   3.365
 6665SOL     OW20680   4.851   5.065   3.552
 6665SOL    HW120681   4.898   5.065   3.640
 6665SOL    HW220682   4.803   4.978   3.541
 6666SOL     OW20683   3.954   5.158   2.400
 6666SOL    HW120684   3.928   5.254   2.400
 6666SOL    HW220685   3.883   5.104   2.445
 6667SOL     OW20686   3.964   4.815   2.748
 6667SOL    HW120687   3.978   4.731   2.800
 6667SOL    HW220688   3.909   4.879   2.803
 6668SOL     OW20689   4.330   4.688   1.985
 6668SOL    HW120690   4.337   4.772   1.931
 6668SOL    HW220691   4.376   4.701   2.073
 6669SOL     OW20692   3.846   4.367   2.425
 6669SOL    HW120693   3.801   4.279   2.442
 6669SOL    HW220694   3.845   4.421   2.509
 6670SOL     OW20695   3.751   5.320   1.979
 6670SOL    HW120696   3.732   5.224   2.000
 6670SOL    HW220697   3.718   5.378   2.054
 6671SOL     OW20698   5.413   4.646   2.474
 6671SOL    HW120699   5.508   4.617   2.482
 6671SOL    HW220700   5.405   4.711   2.399
 6672SOL     OW20701   3.837   4.461   3.459
 6672SOL    HW120702   3.925   4.448   3.504
 6672SOL    HW220703   3.824   4.558   3.437
 6673SOL     OW20704   4.337   5.089   2.588
 6673SOL    HW120705   4.288   5.002   2.597
 6673SOL    HW220706   4.314   5.132   2.501
 6674SOL     OW20707   5.017   4.952   3.285
 6674SOL    HW120708   5.054   4.879   3.227
 6674SOL    HW220709   5.069   4.957   3.370
 6675SOL     OW20710   4.533   3.728   2.364
 6675SOL    HW120711   4.573   3.819   2.355
 6675SOL    HW220712   4.433   3.736   2.370
 6676SOL     OW20713   3.921   4.700   3.126
 6676SOL    HW120714   4.010   4.655   3.112
 6676SOL    HW220715   3.848   4.635   3.107
 6677SOL     OW20716   4.041   3.975   3.663
 6677SOL    HW120717   4.112   4.046   3.669
 6677SOL    HW220718   3.953   4.014   3.691
 6678SOL     OW20719   5.190   5.141   2.815
 6678SOL    HW120720   5.131   5.147   2.895
 6678SOL    HW220721   5.175   5.053   2.769
 6679SOL     OW20722   5.391   5.438   2.434
 6679SOL    HW120723   5.350   5.415   2.346
 6679SOL    HW220724   5.373   5.364   2.499
 6680SOL     OW20725   4.322   4.453   2.132
 6680SOL    HW120726   4.346   4.522   2.064
 6680SOL    HW220727   4.244   4.486   2.186
 6681SOL     OW20728   5.005   4.069   2.806
 6681SOL    HW120729   4.919   4.019   2.793
 6681SOL    HW220730   5.067   4.015   2.862
 6682SOL     OW20731   4.531   4.329   3.327
 6682SOL    HW120732   4.484   4.326   3.416
 6682SOL    HW220733   4.480   4.274   3.261
 6683SOL     OW20734   5.118   4.193   3.536
 6683SOL    HW120735   5.098   4.236   3.624
 6683SOL    HW220736   5.196   4.131   3.545
 6684SOL     OW20737   4.697   4.614   3.434
 6684SOL    HW120738   4.743   4.530   3.405
 6684SOL    HW220739   4.641   4.648   3.359
 6685SOL     OW20740   4.715   4.134   3.104
 6685SOL    HW120741   4.638   4.168   3.158
 6685SOL    HW220742   4.681   4.083   3.025
 6686SOL     OW20743   4.765   4.425   2.291
 6686SOL    HW120744   4.791   4.421   2.387
 6686SOL    HW220745   4.680   4.374   2.277
 6687SOL     OW20746   3.800   4.535   2.651
 6687SOL    HW120747   3.899   4.523   2.660
 6687SOL    HW220748   3.776   4.630   2.672
 6688SOL     OW20749   4.589   4.072   2.057
 6688SOL    HW120750   4.648   4.135   2.008
 6688SOL    HW220751   4.608   3.978   2.028
 6689SOL     OW20752   5.086   4.868   2.407
 6689SOL    HW120753   5.169   4.839   2.359
 6689SOL    HW220754   5.037   4.935   2.351
 6690SOL     OW20755   4.274   3.920   2.747
 6690SOL    HW120756   4.269   3.915   2.847
 6690SOL    HW220757   4.276   4.016   2.718
 6691SOL     OW20758   4.732   5.180   2.339
 6691SOL    HW120759   4.686   5.252   2.287
 6691SOL    HW220760   4.728   5.200   2.437
 6692SOL     OW20761   4.951   5.274   3.368
 6692SOL    HW120762   4.957   5.197   3.432
 6692SOL    HW220763   4.899   5.248   3.288
 6693SOL     OW20764   4.045   4.667   2.104
 6693SOL    HW120765   4.127   4.706   2.062
 6693SOL    HW220766   4.018   4.585   2.055
 6694SOL     OW20767   4.185   4.990   3.589
 6694SOL    HW120768   4.135   4.991   3.503
 6694SOL    HW220769   4.122   4.972   3.665
 6695SOL     OW20770   4.835   5.500   2.099
 6695SOL    HW120771   4.775   5.438   2.149
 6695SOL    HW220772   4.866   5.456   2.014
 6696SOL     OW20773   3.926   4.009   3.360
 6696SOL    HW120774   3.846   4.069   3.347
 6696SOL    HW220775   3.916   3.960   3.446
 6697SOL     OW20776   5.124   3.831   2.288
 6697SOL    HW120777   5.100   3.794   2.198
 6697SOL    HW220778   5.223   3.847   2.292
 6698SOL     OW20779   4.106   4.424   2.342
 6698SOL    HW120780   4.151   4.334   2.339
 6698SOL    HW220781   4.012   4.413   2.375
 6699SOL     OW20782   4.338   3.846   1.979
 6699SOL    HW120783   4.436   3.824   1.986
 6699SOL    HW220784   4.307   3.829   1.886
 6700SOL     OW20785   4.505   3.988   3.611
 6700SOL    HW120786   4.572   3.927   3.654
 6700SOL    HW220787   4.432   4.007   3.676
 6701SOL     OW20788   5.075   4.314   3.295
 6701SOL    HW120789   5.103   4.271   3.380
 6701SOL    HW220790   5.100   4.410   3.296
 6702SOL     OW20791   4.527   5.126   2.786
 6702SOL    HW120792   4.617   5.140   2.744
 6702SOL    HW220793   4.456   5.128   2.715
 6703SOL     OW20794   4.646   4.227   2.761
 6703SOL    HW120795   4.621   4.218   2.665
 6703SOL    HW220796   4.694   4.145   2.792
 6704SOL     OW20797   4.263   3.788   2.374
 6704SOL    HW120798   4.182   3.789   2.432
 6704SOL    HW220799   4.266   3.871   2.319
 6705SOL     OW20800   5.158   4.912   1.903
 6705SOL    HW120801   5.190   4.836   1.960
 6705SOL    HW220802   5.066   4.939   1.933
 6706SOL     OW20803   4.021   3.759   2.033
 6706SOL    HW120804   4.070   3.843   2.012
 6706SOL    HW220805   4.083   3.694   2.078
 6707SOL     OW20806   4.659   3.960   2.342
 6707SOL    HW120807   4.611   4.001   2.264
 6707SOL    HW220808   4.758   3.958   2.323
 6708SOL     OW20809   4.800   4.407   3.326
 6708SOL    HW120810   4.720   4.346   3.329
 6708SOL    HW220811   4.881   4.354   3.302
 6709SOL     OW20812   4.951   5.294   2.655
 6709SOL    HW120813   4.972   5.368   2.590
 6709SOL    HW220814   5.019   5.294   2.728
 6710SOL     OW20815   4.183   4.876   2.603
 6710SOL    HW120816   4.112   4.849   2.668
 6710SOL    HW220817   4.157   4.848   2.510
 6711SOL     OW20818   4.756   4.273   1.878
 6711SOL    HW120819   4.715   4.355   1.839
 6711SOL    HW220820   4.820   4.299   1.951
 6712SOL     OW20821   3.802   4.280   3.248
 6712SOL    HW120822   3.894   4.279   3.207
 6712SOL    HW220823   3.796   4.354   3.315
 6713SOL     OW20824   4.285   3.946   3.009
 6713SOL    HW120825   4.323   3.862   3.046
 6713SOL    HW220826   4.197   3.965   3.053
 6714SOL     OW20827   4.590   4.178   2.504
 6714SOL    HW120828   4.558   4.250   2.442
 6714SOL    HW220829   4.614   4.097   2.451
 6715SOL     OW20830   4.741   3.763   2.615
 6715SOL    HW120831   4.669   3.768   2.546
 6715SOL    HW220832   4.717   3.694   2.684
 6716SOL     OW20833   5.153   4.897   2.729
 6716SOL    HW120834   5.098   4.813   2.722
 6716SOL    HW220835   5.179   4.926   2.637
 6717SOL     OW20836   4.212   5.109   2.036
 6717SOL    HW120837   4.125   5.094   2.083
 6717SOL    HW220838   4.195   5.135   1.941
 6718SOL     OW20839   5.114   4.299   1.940
 6718SOL    HW120840   5.060   4.278   2.021
 6718SOL    HW220841   5.205   4.258   1.949
 6719SOL     OW20842   4.251   3.980   2.190
 6719SOL    HW120843   4.278   3.921   2.115
 6719SOL    HW220844   4.251   4.075   2.159
 6720SOL     OW20845   4.788   5.071   3.202
 6720SOL    HW120846   4.708   5.048   3.257
 6720SOL    HW220847   4.871   5.045   3.251
 6721SOL     OW20848   4.835   4.919   2.962
 6721SOL    HW120849   4.795   4.963   3.043
 6721SOL    HW220850   4.794   4.956   2.879
 6722SOL     OW20851   4.639   3.813   3.264
 6722SOL    HW120852   4.664   3.793   3.169
 6722SOL    HW220853   4.711   3.869   3.306
 6723SOL     OW20854   4.704   4.840   3.581
 6723SOL    HW120855   4.605   4.846   3.591
 6723SOL    HW220856   4.727   4.760   3.525
 6724SOL     OW20857   4.429   4.774   2.230
 6724SOL    HW120858   4.415   4.781   2.329
 6724SOL    HW220859   4.513   4.723   2.212
 6725SOL     OW20860   4.134   4.537   3.113
 6725SOL    HW120861   4.220   4.549   3.163
 6725SOL    HW220862   4.092   4.450   3.140
 6726SOL     OW20863   4.998   4.110   3.124
 6726SOL    HW120864   5.019   4.184   3.188
 6726SOL    HW220865   4.909   4.127   3.081
 6727SOL     OW20866   4.091   4.824   2.363
 6727SOL    HW120867   4.084   4.907   2.307
 6727SOL    HW220868   4.095   4.744   2.303
 6728SOL     OW20869   4.290   4.261   2.727
 6728SOL    HW120870   4.302   4.327   2.653
 6728SOL    HW220871   4.336   4.295   2.810
 6729SOL     OW20872   4.976   5.072   2.250
 6729SOL    HW120873   5.026   5.149   2.290
 6729SOL    HW220874   4.881   5.074   2.282
 6730SOL     OW20875   4.996   5.169   3.004
 6730SOL    HW120876   5.043   5.182   3.091
 6730SOL    HW220877   4.930   5.095   3.013
 6731SOL     OW20878   4.078   5.234   3.191
 6731SOL    HW120879   4.057   5.190   3.104
 6731SOL    HW220880   4.175   5.260   3.194
 6732SOL     OW20881   4.126   4.475   3.460
 6732SOL    HW120882   4.194   4.530   3.413
 6732SOL    HW220883   4.166   4.387   3.487
 6733SOL     OW20884   4.737   3.829   3.632
 6733SOL    HW120885   4.743   3.914   3.580
 6733SOL    HW220886   4.769   3.753   3.575
 6734SOL     OW20887   4.228   3.774   3.602
 6734SOL    HW120888   4.186   3.717   3.532
 6734SOL    HW220889   4.162   3.843   3.634
 6735SOL     OW20890   4.297   4.594   2.891
 6735SOL    HW120891   4.341   4.683   2.882
 6735SOL    HW220892   4.234   4.594   2.968
 6736SOL     OW20893   5.084   4.586   2.907
 6736SOL    HW120894   5.009   4.586   2.841
 6736SOL    HW220895   5.121   4.494   2.916
 6737SOL     OW20896   4.933   4.249   2.137
 6737SOL    HW120897   4.946   4.165   2.191
 6737SOL    HW220898   4.904   4.323   2.197
 6738SOL     OW20899   4.031   3.937   3.093
 6738SOL    HW120900   4.008   3.974   3.183
 6738SOL    HW220901   4.001   3.842   3.087
 6739SOL     OW20902   3.761   5.034   3.144
 6739SOL    HW120903   3.814   4.985   3.212
 6739SOL    HW220904   3.783   5.132   3.149
 6740SOL     OW20905   4.456   4.358   2.926
 6740SOL    HW120906   4.515   4.332   2.850
 6740SOL    HW220907   4.428   4.454   2.915
 6741SOL     OW20908   4.031   3.787   2.480
 6741SOL    HW120909   4.020   3.881   2.513
 6741SOL    HW220910   4.026   3.724   2.557
 6742SOL     OW20911   5.346   4.091   2.236
 6742SOL    HW120912   5.348   4.015   2.300
 6742SOL    HW220913   5.298   4.168   2.276
 6743SOL     OW20914   4.747   4.490   2.828
 6743SOL    HW120915   4.762   4.511   2.924
 6743SOL    HW220916   4.717   4.395   2.819
 6744SOL     OW20917   4.074   4.622   3.666
 6744SOL    HW120918   4.150   4.666   3.714
 6744SOL    HW220919   4.109   4.575   3.584
 6745SOL     OW20920   5.027   4.562   1.904
 6745SOL    HW120921   5.061   4.469   1.919
 6745SOL    HW220922   5.045   4.589   1.809
 6746SOL     OW20923   4.792   5.057   2.711
 6746SOL    HW120924   4.799   4.973   2.656
 6746SOL    HW220925   4.854   5.126   2.675
 6747SOL     OW20926   4.043   4.534   2.811
 6747SOL    HW120927   4.136   4.570   2.816
 6747SOL    HW220928   4.037   4.449   2.863
 6748SOL     OW20929   4.063   4.233   2.868
 6748SOL    HW120930   4.011   4.150   2.851
 6748SOL    HW220931   4.140   4.238   2.804
 6749SOL     OW20932   4.862   4.104   3.540
 6749SOL    HW120933   4.817   4.167   3.604
 6749SOL    HW220934   4.955   4.135   3.523
 6750SOL     OW20935   4.884   3.931   3.339
 6750SOL    HW120936   4.884   3.995   3.416
 6750SOL    HW220937   4.912   3.979   3.256
 6751SOL     OW20938   3.732   5.050   2.062
 6751SOL    HW120939   3.639   5.071   2.031
 6751SOL    HW220940   3.742   4.951   2.075
 6752SOL     OW20941   4.726   4.520   3.100
 6752SOL    HW120942   4.767   4.488   3.186
 6752SOL    HW220943   4.630   4.493   3.097
 6753SOL     OW20944   3.764   4.268   2.976
 6753SOL    HW120945   3.849   4.235   2.935
 6753SOL    HW220946   3.777   4.283   3.074
 6754SOL     OW20947   3.913   4.244   3.584
 6754SOL    HW120948   3.972   4.204   3.514
 6754SOL    HW220949   3.855   4.315   3.543
 6755SOL     OW20950   5.093   4.674   3.522
 6755SOL    HW120951   5.132   4.763   3.542
 6755SOL    HW220952   5.103   4.654   3.425
 6756SOL     OW20953   4.539   4.296   2.187
 6756SOL    HW120954   4.546   4.207   2.141
 6756SOL    HW220955   4.445   4.330   2.179
 6757SOL     OW20956   3.976   5.288   3.606
 6757SOL    HW120957   3.946   5.345   3.682
 6757SOL    HW220958   3.969   5.191   3.632
 6758SOL     OW20959   4.395   4.188   3.131
 6758SOL    HW120960   4.361   4.099   3.101
 6758SOL    HW220961   4.421   4.242   3.051
 6759SOL     OW20962   4.197   4.224   2.053
 6759SOL    HW120963   4.258   4.304   2.057
 6759SOL    HW220964   4.102   4.255   2.060
 6760SOL     OW20965   3.883   4.861   3.328
 6760SOL    HW120966   3.905   4.800   3.404
 6760SOL    HW220967   3.893   4.812   3.242
 6761SOL     OW20968   5.071   4.783   3.096
 6761SOL    HW120969   5.095   4.720   3.022
 6761SOL    HW220970   4.981   4.823   3.078
 6762SOL     OW20971   5.026   4.579   2.171
 6762SOL    HW120972   4.940   4.548   2.213
 6762SOL    HW220973   5.022   4.565   2.072
 6763SOL     OW20974   3.807   4.982   2.884
 6763SOL    HW120975   3.802   4.981   2.984
 6763SOL    HW220976   3.724   4.941   2.846
 6764SOL     OW20977   4.412   5.386   3.578
 6764SOL    HW120978   4.356   5.467   3.587
 6764SOL    HW220979   4.464   5.390   3.492
 6765SOL     OW20980   5.450   3.859   2.385
 6765SOL    HW120981   5.523   3.842   2.318
 6765SOL    HW220982   5.419   3.772   2.423
 6766SOL     OW20983   5.004   4.651   2.534
 6766SOL    HW120984   5.064   4.570   2.536
 6766SOL    HW220985   5.044   4.720   2.474
 6767SOL     OW20986   4.554   4.997   3.284
 6767SOL    HW120987   4.549   5.030   3.379
 6767SOL    HW220988   4.468   5.016   3.238
 6768SOL     OW20989   3.987   4.050   2.582
 6768SOL    HW120990   3.908   4.101   2.548
 6768SOL    HW220991   3.978   4.035   2.680
 6769SOL     OW20992   4.546   4.726   3.234
 6769SOL    HW120993   4.586   4.725   3.142
 6769SOL    HW220994   4.556   4.818   3.274
 6770SOL     OW20995   4.640   4.634   2.153
 6770SOL    HW120996   4.703   4.672   2.085
 6770SOL    HW220997   4.680   4.551   2.192
 6771SOL     OW20998   4.096   5.012   3.352
 6771SOL    HW120999   4.083   5.105   3.318
 6771SOL    HW221000   4.012   4.960   3.339
 6772SOL     OW21001   4.763   4.822   2.558
 6772SOL    HW121002   4.693   4.775   2.612
 6772SOL    HW221003   4.822   4.754   2.515
 6773SOL     OW21004   4.738   3.960   2.833
 6773SOL    HW121005   4.730   3.924   2.740
 6773SOL    HW221006   4.736   3.884   2.898
 6774SOL     OW21007   3.979   5.072   2.152
 6774SOL    HW121008   3.883   5.073   2.125
 6774SOL    HW221009   3.991   5.125   2.236
 6775SOL     OW21010   3.829   4.737   3.588
 6775SOL    HW121011   3.752   4.704   3.642
 6775SOL    HW221012   3.914   4.707   3.630
 6776SOL     OW21013   4.396   3.927   3.351
 6776SOL    HW121014   4.486   3.911   3.311
 6776SOL    HW221015   4.404   3.932   3.450
 6777SOL     OW21016   3.799   4.069   1.895
 6777SOL    HW121017   3.707   4.041   1.866
 6777SOL    HW221018   3.830   4.146   1.839
 6778SOL     OW21019   5.164   4.580   3.260
 6778SOL    HW121020   5.107   4.632   3.197
 6778SOL    HW221021   5.260   4.592   3.236
 6779SOL     OW21022   3.796   3.890   2.180
 6779SOL    HW121023   3.779   3.973   2.126
 6779SOL    HW221024   3.886   3.853   2.158
 6780SOL     OW21025   4.907   5.059   1.981
 6780SOL    HW121026   4.808   5.048   1.983
 6780SOL    HW221027   4.941   5.074   2.074
 6781SOL     OW21028   4.337   4.566   3.293
 6781SOL    HW121029   4.393   4.647   3.276
 6781SOL    HW221030   4.396   4.486   3.296
 6782SOL     OW21031   4.440   4.289   3.570
 6782SOL    HW121032   4.459   4.354   3.644
 6782SOL    HW221033   4.500   4.209   3.579
 6783SOL     OW21034   5.174   4.944   3.495
 6783SOL    HW121035   5.165   4.934   3.594
 6783SOL    HW221036   5.270   4.937   3.469
 6784SOL     OW21037   4.949   4.049   2.311
 6784SOL    HW121038   5.014   3.975   2.300
 6784SOL    HW221039   4.969   4.099   2.395
 6785SOL     OW21040   4.318   4.469   2.514
 6785SOL    HW121041   4.368   4.554   2.495
 6785SOL    HW221042   4.230   4.471   2.466
 6786SOL     OW21043   4.583   5.098   1.878
 6786SOL    HW121044   4.537   5.113   1.966
 6786SOL    HW221045   4.627   5.183   1.848
 6787SOL     OW21046   4.583   4.680   2.723
 6787SOL    HW121047   4.637   4.611   2.771
 6787SOL    HW221048   4.551   4.749   2.789
 6788SOL     OW21049   4.807   4.708   1.949
 6788SOL    HW121050   4.784   4.761   1.867
 6788SOL    HW221051   4.888   4.652   1.930
 6789SOL     OW21052   3.945   5.038   3.706
 6789SOL    HW121053   3.880   4.965   3.685
 6789SOL    HW221054   3.949   5.052   3.804
 6790SOL     OW21055   3.803   4.964   2.515
 6790SOL    HW121056   3.802   4.917   2.603
 6790SOL    HW221057   3.885   4.936   2.464
 6791SOL     OW21058   4.396   5.115   3.486
 6791SOL    HW121059   4.318   5.065   3.524
 6791SOL    HW221060   4.393   5.210   3.517
 6792SOL     OW21061   4.152   4.148   2.382
 6792SOL    HW121062   4.182   4.076   2.320
 6792SOL    HW221063   4.113   4.108   2.465
 6793SOL     OW21064   5.429   5.211   2.966
 6793SOL    HW121065   5.336   5.186   2.939
 6793SOL    HW221066   5.455   5.161   3.048
 6794SOL     OW21067   4.041   4.271   3.142
 6794SOL    HW121068   4.079   4.212   3.214
 6794SOL    HW221069   4.081   4.245   3.054
 6795SOL     OW21070   5.148   3.938   2.974
 6795SOL    HW121071   5.200   3.873   3.029
 6795SOL    HW221072   5.099   4.001   3.035
 6796SOL     OW21073   4.725   3.758   3.016
 6796SOL    HW121074   4.662   3.686   2.985
 6796SOL    HW221075   4.818   3.722   3.016
 6797SOL     OW21076   4.494   5.054   2.163
 6797SOL    HW121077   4.448   4.967   2.180
 6797SOL    HW221078   4.585   5.051   2.204
 6798SOL     OW21079   4.342   5.291   3.146
 6798SOL    HW121080   4.337   5.373   3.203
 6798SOL    HW221081   4.431   5.288   3.101
 6799SOL     OW21082   5.076   3.776   2.030
 6799SOL    HW121083   5.111   3.735   1.946
 6799SOL    HW221084   4.986   3.738   2.050
 6800SOL     OW21085   5.024   4.177   2.553
 6800SOL    HW121086   4.965   4.257   2.557
 6800SOL    HW221087   5.039   4.142   2.646
 6801SOL     OW21088   5.317   3.945   2.744
 6801SOL    HW121089   5.233   3.944   2.798
 6801SOL    HW221090   5.319   4.028   2.688
 6802SOL     OW21091   3.763   4.801   2.162
 6802SOL    HW121092   3.862   4.790   2.153
 6802SOL    HW221093   3.723   4.715   2.194
 6803SOL     OW21094   3.954   4.352   3.837
 6803SOL    HW121095   3.861   4.350   3.874
 6803SOL    HW221096   3.955   4.313   3.745
 6804SOL     OW21097   3.949   3.999   4.720
 6804SOL    HW121098   3.984   3.982   4.812
 6804SOL    HW221099   3.861   3.954   4.708
 6805SOL     OW21100   3.743   4.092   4.371
 6805SOL    HW121101   3.661   4.135   4.410
 6805SOL    HW221102   3.715   4.019   4.308
 6806SOL     OW21103   4.293   4.999   4.889
 6806SOL    HW121104   4.200   4.992   4.852
 6806SOL    HW221105   4.304   5.088   4.933
 6807SOL     OW21106   5.279   5.235   4.427
 6807SOL    HW121107   5.222   5.219   4.508
 6807SOL    HW221108   5.220   5.245   4.347
 6808SOL     OW21109   4.859   4.427   4.441
 6808SOL    HW121110   4.916   4.505   4.416
 6808SOL    HW221111   4.799   4.453   4.517
 6809SOL     OW21112   4.492   4.868   4.747
 6809SOL    HW121113   4.414   4.885   4.807
 6809SOL    HW221114   4.526   4.955   4.711
 6810SOL     OW21115   4.574   4.522   5.547
 6810SOL    HW121116   4.570   4.598   5.612
 6810SOL    HW221117   4.596   4.558   5.456
 6811SOL     OW21118   4.409   4.736   4.389
 6811SOL    HW121119   4.478   4.720   4.459
 6811SOL    HW221120   4.336   4.793   4.427
 6812SOL     OW21121   4.410   4.885   5.527
 6812SOL    HW121122   4.470   4.964   5.541
 6812SOL    HW221123   4.324   4.916   5.486
 6813SOL     OW21124   4.059   5.159   4.785
 6813SOL    HW121125   3.981   5.128   4.732
 6813SOL    HW221126   4.117   5.217   4.728
 6814SOL     OW21127   5.184   5.229   5.063
 6814SOL    HW121128   5.208   5.323   5.089
 6814SOL    HW221129   5.168   5.175   5.145
 6815SOL     OW21130   4.162   4.116   5.223
 6815SOL    HW121131   4.244   4.060   5.232
 6815SOL    HW221132   4.081   4.058   5.227
 6816SOL     OW21133   4.851   5.065   5.414
 6816SOL    HW121134   4.898   5.065   5.502
 6816SOL    HW221135   4.803   4.978   5.403
 6817SOL     OW21136   3.954   5.158   4.262
 6817SOL    HW121137   3.928   5.254   4.262
 6817SOL    HW221138   3.883   5.104   4.307
 6818SOL     OW21139   3.964   4.815   4.610
 6818SOL    HW121140   3.978   4.731   4.662
 6818SOL    HW221141   3.909   4.879   4.665
 6819SOL     OW21142   4.330   4.688   3.847
 6819SOL    HW121143   4.337   4.772   3.793
 6819SOL    HW221144   4.376   4.701   3.935
 6820SOL     OW21145   3.846   4.367   4.287
 6820SOL    HW121146   3.801   4.279   4.304
 6820SOL    HW221147   3.845   4.421   4.371
 6821SOL     OW21148   3.751   5.320   3.841
 6821SOL    HW121149   3.732   5.224   3.862
 6821SOL    HW221150   3.718   5.378   3.916
 6822SOL     OW21151   5.413   4.646   4.336
 6822SOL    HW121152   5.508   4.617   4.344
 6822SOL    HW221153   5.405   4.711   4.261
 6823SOL     OW21154   3.837   4.461   5.321
 6823SOL    HW121155   3.925   4.448   5.366
 6823SOL    HW221156   3.824   4.558   5.299
 6824SOL     OW21157   4.337   5.089   4.450
 6824SOL    HW121158   4.288   5.002   4.459
 6824SOL    HW221159   4.314   5.132   4.363
 6825SOL     OW21160   5.017   4.952   5.147
 6825SOL    HW121161   5.054   4.879   5.089
 6825SOL    HW221162   5.069   4.957   5.232
 6826SOL     OW21163   4.533   3.728   4.226
 6826SOL    HW121164   4.573   3.819   4.217
 6826SOL    HW221165   4.433   3.736   4.232
 6827SOL     OW21166   3.921   4.700   4.988
 6827SOL    HW121167   4.010   4.655   4.974
 6827SOL    HW221168   3.848   4.635   4.969
 6828SOL     OW21169   4.041   3.975   5.525
 6828SOL    HW121170   4.112   4.046   5.531
 6828SOL    HW221171   3.953   4.014   5.553
 6829SOL     OW21172   5.190   5.141   4.677
 6829SOL    HW121173   5.131   5.147   4.757
 6829SOL    HW221174   5.175   5.053   4.631
 6830SOL     OW21175   5.391   5.438   4.296
 6830SOL    HW121176   5.350   5.415   4.208
 6830SOL    HW221177   5.373   5.364   4.361
 6831SOL     OW21178   4.322   4.453   3.994
 6831SOL    HW121179   4.346   4.522   3.926
 6831SOL    HW221180   4.244   4.486   4.048
 6832SOL     OW21181   5.005   4.069   4.668
 6832SOL    HW121182   4.919   4.019   4.655
 6832SOL    HW221183   5.067   4.015   4.724
 6833SOL     OW21184   4.531   4.329   5.189
 6833SOL    HW121185   4.484   4.326   5.278
 6833SOL    HW221186   4.480   4.274   5.123
 6834SOL     OW21187   5.118   4.193   5.398
 6834SOL    HW121188   5.098   4.236   5.486
 6834SOL    HW221189   5.196   4.131   5.407
 6835SOL     OW21190   4.697   4.614   5.296
 6835SOL    HW121191   4.743   4.530   5.267
 6835SOL    HW221192   4.641   4.648   5.221
 6836SOL     OW21193   4.715   4.134   4.966
 6836SOL    HW121194   4.638   4.168   5.020
 6836SOL    HW221195   4.681   4.083   4.887
 6837SOL     OW21196   4.765   4.425   4.153
 6837SOL    HW121197   4.791   4.421   4.249
 6837SOL    HW221198   4.680   4.374   4.139
 6838SOL     OW21199   3.800   4.535   4.513
 6838SOL    HW121200   3.899   4.523   4.522
 6838SOL    HW221201   3.776   4.630   4.534
 6839SOL     OW21202   4.589   4.072   3.919
 6839SOL    HW121203   4.648   4.135   3.870
 6839SOL    HW221204   4.608   3.978   3.890
 6840SOL     OW21205   5.086   4.868   4.269
 6840SOL    HW121206   5.169   4.839   4.221
 6840SOL    HW221207   5.037   4.935   4.213
 6841SOL     OW21208   4.274   3.920   4.609
 6841SOL    HW121209   4.269   3.915   4.709
 6841SOL    HW221210   4.276   4.016   4.580
 6842SOL     OW21211   4.732   5.180   4.201
 6842SOL    HW121212   4.686   5.252   4.149
 6842SOL    HW221213   4.728   5.200   4.299
 6843SOL     OW21214   4.951   5.274   5.230
 6843SOL    HW121215   4.957   5.197   5.294
 6843SOL    HW221216   4.899   5.248   5.150
 6844SOL     OW21217   4.045   4.667   3.966
 6844SOL    HW121218   4.127   4.706   3.924
 6844SOL    HW221219   4.018   4.585   3.917
 6845SOL     OW21220   4.185   4.990   5.451
 6845SOL    HW121221   4.135   4.991   5.365
 6845SOL    HW221222   4.122   4.972   5.527
 6846SOL     OW21223   4.835   5.500   3.961
 6846SOL    HW121224   4.775   5.438   4.011
 6846SOL    HW221225   4.866   5.456   3.876
 6847SOL     OW21226   3.926   4.009   5.222
 6847SOL    HW121227   3.846   4.069   5.209
 6847SOL    HW221228   3.916   3.960   5.308
 6848SOL     OW21229   5.124   3.831   4.150
 6848SOL    HW121230   5.100   3.794   4.060
 6848SOL    HW221231   5.223   3.847   4.154
 6849SOL     OW21232   4.106   4.424   4.204
 6849SOL    HW121233   4.151   4.334   4.201
 6849SOL    HW221234   4.012   4.413   4.237
 6850SOL     OW21235   4.338   3.846   3.841
 6850SOL    HW121236   4.436   3.824   3.848
 6850SOL    HW221237   4.307   3.829   3.748
 6851SOL     OW21238   4.505   3.988   5.473
 6851SOL    HW121239   4.572   3.927   5.516
 6851SOL    HW221240   4.432   4.007   5.538
 6852SOL     OW21241   5.075   4.314   5.157
 6852SOL    HW121242   5.103   4.271   5.242
 6852SOL    HW221243   5.100   4.410   5.158
 6853SOL     OW21244   4.527   5.126   4.648
 6853SOL    HW121245   4.617   5.140   4.606
 6853SOL    HW221246   4.456   5.128   4.577
 6854SOL     OW21247   4.646   4.227   4.623
 6854SOL    HW121248   4.621   4.218   4.527
 6854SOL    HW221249   4.694   4.145   4.654
 6855SOL     OW21250   4.263   3.788   4.236
 6855SOL    HW121251   4.182   3.789   4.294
 6855SOL    HW221252   4.266   3.871   4.181
 6856SOL     OW21253   5.158   4.912   3.765
 6856SOL    HW121254   5.190   4.836   3.822
 6856SOL    HW221255   5.066   4.939   3.795
 6857SOL     OW21256   4.021   3.759   3.895
 6857SOL    HW121257   4.070   3.843   3.874
 6857SOL    HW221258   4.083   3.694   3.940
 6858SOL     OW21259   4.659   3.960   4.204
 6858SOL    HW121260   4.611   4.001   4.126
 6858SOL    HW221261   4.758   3.958   4.185
 6859SOL     OW21262   4.800   4.407   5.188
 6859SOL    HW121263   4.720   4.346   5.191
 6859SOL    HW221264   4.881   4.354   5.164
 6860SOL     OW21265   4.951   5.294   4.517
 6860SOL    HW121266   4.972   5.368   4.452
 6860SOL    HW221267   5.019   5.294   4.590
 6861SOL     OW21268   4.183   4.876   4.465
 6861SOL    HW121269   4.112   4.849   4.530
 6861SOL    HW221270   4.157   4.848   4.372
 6862SOL     OW21271   4.756   4.273   3.740
 6862SOL    HW121272   4.715   4.355   3.701
 6862SOL    HW221273   4.820   4.299   3.813
 6863SOL     OW21274   3.802   4.280   5.110
 6863SOL    HW121275   3.894   4.279   5.069
 6863SOL    HW221276   3.796   4.354   5.177
 6864SOL     OW21277   4.285   3.946   4.871
 6864SOL    HW121278   4.323   3.862   4.908
 6864SOL    HW221279   4.197   3.965   4.915
 6865SOL     OW21280   4.590   4.178   4.366
 6865SOL    HW121281   4.558   4.250   4.304
 6865SOL    HW221282   4.614   4.097   4.313
 6866SOL     OW21283   4.741   3.763   4.477
 6866SOL    HW121284   4.669   3.768   4.408
 6866SOL    HW221285   4.717   3.694   4.546
 6867SOL     OW21286   5.153   4.897   4.591
 6867SOL    HW121287   5.098   4.813   4.584
 6867SOL    HW221288   5.179   4.926   4.499
 6868SOL     OW21289   4.212   5.109   3.898
 6868SOL    HW121290   4.125   5.094   3.945
 6868SOL    HW221291   4.195   5.135   3.803
 6869SOL     OW21292   5.114   4.299   3.802
 6869SOL    HW121293   5.060   4.278   3.883
 6869SOL    HW221294   5.205   4.258   3.811
 6870SOL     OW21295   4.251   3.980   4.052
 6870SOL    HW121296   4.278   3.921   3.977
 6870SOL    HW221297   4.251   4.075   4.021
 6871SOL     OW21298   4.788   5.071   5.064
 6871SOL    HW121299   4.708   5.048   5.119
 6871SOL    HW221300   4.871   5.045   5.113
 6872SOL     OW21301   4.835   4.919   4.824
 6872SOL    HW121302   4.795   4.963   4.905
 6872SOL    HW221303   4.794   4.956   4.741
 6873SOL     OW21304   4.639   3.813   5.126
 6873SOL    HW121305   4.664   3.793   5.031
 6873SOL    HW221306   4.711   3.869   5.168
 6874SOL     OW21307   4.704   4.840   5.443
 6874SOL    HW121308   4.605   4.846   5.453
 6874SOL    HW221309   4.727   4.760   5.387
 6875SOL     OW21310   4.429   4.774   4.092
 6875SOL    HW121311   4.415   4.781   4.191
 6875SOL    HW221312   4.513   4.723   4.074
 6876SOL     OW21313   4.134   4.537   4.975
 6876SOL    HW121314   4.220   4.549   5.025
 6876SOL    HW221315   4.092   4.450   5.002
 6877SOL     OW21316   4.998   4.110   4.986
 6877SOL    HW121317   5.019   4.184   5.050
 6877SOL    HW221318   4.909   4.127   4.943
 6878SOL     OW21319   4.091   4.824   4.225
 6878SOL    HW121320   4.084   4.907   4.169
 6878SOL    HW221321   4.095   4.744   4.165
 6879SOL     OW21322   4.290   4.261   4.589
 6879SOL    HW121323   4.302   4.327   4.515
 6879SOL    HW221324   4.336   4.295   4.672
 6880SOL     OW21325   4.976   5.072   4.112
 6880SOL    HW121326   5.026   5.149   4.152
 6880SOL    HW221327   4.881   5.074   4.144
 6881SOL     OW21328   4.996   5.169   4.866
 6881SOL    HW121329   5.043   5.182   4.953
 6881SOL    HW221330   4.930   5.095   4.875
 6882SOL     OW21331   4.078   5.234   5.053
 6882SOL    HW121332   4.057   5.190   4.966
 6882SOL    HW221333   4.175   5.260   5.056
 6883SOL     OW21334   4.126   4.475   5.322
 6883SOL    HW121335   4.194   4.530   5.275
 6883SOL    HW221336   4.166   4.387   5.349
 6884SOL     OW21337   4.737   3.829   5.494
 6884SOL    HW121338   4.743   3.914   5.442
 6884SOL    HW221339   4.769   3.753   5.437
 6885SOL     OW21340   4.228   3.774   5.464
 6885SOL    HW121341   4.186   3.717   5.394
 6885SOL    HW221342   4.162   3.843   5.496
 6886SOL     OW21343   4.297   4.594   4.753
 6886SOL    HW121344   4.341   4.683   4.744
 6886SOL    HW221345   4.234   4.594   4.830
 6887SOL     OW21346   5.084   4.586   4.769
 6887SOL    HW121347   5.009   4.586   4.703
 6887SOL    HW221348   5.121   4.494   4.778
 6888SOL     OW21349   4.933   4.249   3.999
 6888SOL    HW121350   4.946   4.165   4.053
 6888SOL    HW221351   4.904   4.323   4.059
 6889SOL     OW21352   4.031   3.937   4.955
 6889SOL    HW121353   4.008   3.974   5.045
 6889SOL    HW221354   4.001   3.842   4.949
 6890SOL     OW21355   3.761   5.034   5.006
 6890SOL    HW121356   3.814   4.985   5.074
 6890SOL    HW221357   3.783   5.132   5.011
 6891SOL     OW21358   4.456   4.358   4.788
 6891SOL    HW121359   4.515   4.332   4.712
 6891SOL    HW221360   4.428   4.454   4.777
 6892SOL     OW21361   4.031   3.787   4.342
 6892SOL    HW121362   4.020   3.881   4.375
 6892SOL    HW221363   4.026   3.724   4.419
 6893SOL     OW21364   5.346   4.091   4.098
 6893SOL    HW121365   5.348   4.015   4.162
 6893SOL    HW221366   5.298   4.168   4.138
 6894SOL     OW21367   4.747   4.490   4.690
 6894SOL    HW121368   4.762   4.511   4.786
 6894SOL    HW221369   4.717   4.395   4.681
 6895SOL     OW21370   4.074   4.622   5.528
 6895SOL    HW121371   4.150   4.666   5.576
 6895SOL    HW221372   4.109   4.575   5.446
 6896SOL     OW21373   5.027   4.562   3.766
 6896SOL    HW121374   5.061   4.469   3.781
 6896SOL    HW221375   5.045   4.589   3.671
 6897SOL     OW21376   4.792   5.057   4.573
 6897SOL    HW121377   4.799   4.973   4.518
 6897SOL    HW221378   4.854   5.126   4.537
 6898SOL     OW21379   4.043   4.534   4.673
 6898SOL    HW121380   4.136   4.570   4.678
 6898SOL    HW221381   4.037   4.449   4.725
 6899SOL     OW21382   4.063   4.233   4.730
 6899SOL    HW121383   4.011   4.150   4.713
 6899SOL    HW221384   4.140   4.238   4.666
 6900SOL     OW21385   4.862   4.104   5.402
 6900SOL    HW121386   4.817   4.167   5.466
 6900SOL    HW221387   4.955   4.135   5.385
 6901SOL     OW21388   4.884   3.931   5.201
 6901SOL    HW121389   4.884   3.995   5.278
 6901SOL    HW221390   4.912   3.979   5.118
 6902SOL     OW21391   3.732   5.050   3.924
 6902SOL    HW121392   3.639   5.071   3.893
 6902SOL    HW221393   3.742   4.951   3.937
 6903SOL     OW21394   4.726   4.520   4.962
 6903SOL    HW121395   4.767   4.488   5.048
 6903SOL    HW221396   4.630   4.493   4.959
 6904SOL     OW21397   3.764   4.268   4.838
 6904SOL    HW121398   3.849   4.235   4.797
 6904SOL    HW221399   3.777   4.283   4.936
 6905SOL     OW21400   3.913   4.244   5.446
 6905SOL    HW121401   3.972   4.204   5.376
 6905SOL    HW221402   3.855   4.315   5.405
 6906SOL     OW21403   5.093   4.674   5.384
 6906SOL    HW121404   5.132   4.763   5.404
 6906SOL    HW221405   5.103   4.654   5.287
 6907SOL     OW21406   4.539   4.296   4.049
 6907SOL    HW121407   4.546   4.207   4.003
 6907SOL    HW221408   4.445   4.330   4.041
 6908SOL     OW21409   3.976   5.288   5.468
 6908SOL    HW121410   3.946   5.345   5.544
 6908SOL    HW221411   3.969   5.191   5.494
 6909SOL     OW21412   4.395   4.188   4.993
 6909SOL    HW121413   4.361   4.099   4.963
 6909SOL    HW221414   4.421   4.242   4.913
 6910SOL     OW21415   4.197   4.224   3.915
 6910SOL    HW121416   4.258   4.304   3.919
 6910SOL    HW221417   4.102   4.255   3.922
 6911SOL     OW21418   3.883   4.861   5.190
 6911SOL    HW121419   3.905   4.800   5.266
 6911SOL    HW221420   3.893   4.812   5.104
 6912SOL     OW21421   5.071   4.783   4.958
 6912SOL    HW121422   5.095   4.720   4.884
 6912SOL    HW221423   4.981   4.823   4.940
 6913SOL     OW21424   5.026   4.579   4.033
 6913SOL    HW121425   4.940   4.548   4.075
 6913SOL    HW221426   5.022   4.565   3.934
 6914SOL     OW21427   3.807   4.982   4.746
 6914SOL    HW121428   3.802   4.981   4.846
 6914SOL    HW221429   3.724   4.941   4.708
 6915SOL     OW21430   4.412   5.386   5.440
 6915SOL    HW121431   4.356   5.467   5.449
 6915SOL    HW221432   4.464   5.390   5.354
 6916SOL     OW21433   5.450   3.859   4.247
 6916SOL    HW121434   5.523   3.842   4.180
 6916SOL    HW221435   5.419   3.772   4.285
 6917SOL     OW21436   5.004   4.651   4.396
 6917SOL    HW121437   5.064   4.570   4.398
 6917SOL    HW221438   5.044   4.720   4.336
 6918SOL     OW21439   4.554   4.997   5.146
 6918SOL    HW121440   4.549   5.030   5.241
 6918SOL    HW221441   4.468   5.016   5.100
 6919SOL     OW21442   3.987   4.050   4.444
 6919SOL    HW121443   3.908   4.101   4.410
 6919SOL    HW221444   3.978   4.035   4.542
 6920SOL     OW21445   4.546   4.726   5.096
 6920SOL    HW121446   4.586   4.725   5.004
 6920SOL    HW221447   4.556   4.818   5.136
 6921SOL     OW21448   4.640   4.634   4.015
 6921SOL    HW121449   4.703   4.672   3.947
 6921SOL    HW221450   4.680   4.551   4.054
 6922SOL     OW21451   4.096   5.012   5.214
 6922SOL    HW121452   4.083   5.105   5.180
 6922SOL    HW221453   4.012   4.960   5.201
 6923SOL     OW21454   4.763   4.822   4.420
 6923SOL    HW121455   4.693   4.775   4.474
 6923SOL    HW221456   4.822   4.754   4.377
 6924SOL     OW21457   4.738   3.960   4.695
 6924SOL    HW121458   4.730   3.924   4.602
 6924SOL    HW221459   4.736   3.884   4.760
 6925SOL     OW21460   3.979   5.072   4.014
 6925SOL    HW121461   3.883   5.073   3.987
 6925SOL    HW221462   3.991   5.125   4.098
 6926SOL     OW21463   3.829   4.737   5.450
 6926SOL    HW121464   3.752   4.704   5.504
 6926SOL    HW221465   3.914   4.707   5.492
 6927SOL     OW21466   4.396   3.927   5.213
 6927SOL    HW121467   4.486   3.911   5.173
 6927SOL    HW221468   4.404   3.932   5.312
 6928SOL     OW21469   3.799   4.069   3.757
 6928SOL    HW121470   3.707   4.041   3.728
 6928SOL    HW221471   3.830   4.146   3.701
 6929SOL     OW21472   5.164   4.580   5.122
 6929SOL    HW121473   5.107   4.632   5.059
 6929SOL    HW221474   5.260   4.592   5.098
 6930SOL     OW21475   3.796   3.890   4.042
 6930SOL    HW121476   3.779   3.973   3.988
 6930SOL    HW221477   3.886   3.853   4.020
 6931SOL     OW21478   4.907   5.059   3.843
 6931SOL    HW121479   4.808   5.048   3.845
 6931SOL    HW221480   4.941   5.074   3.936
 6932SOL     OW21481   4.337   4.566   5.155
 6932SOL    HW121482   4.393   4.647   5.138
 6932SOL    HW221483   4.396   4.486   5.158
 6933SOL     OW21484   4.440   4.289   5.432
 6933SOL    HW121485   4.459   4.354   5.506
 6933SOL    HW221486   4.500   4.209   5.441
 6934SOL     OW21487   5.174   4.944   5.357
 6934SOL    HW121488   5.165   4.934   5.456
 6934SOL    HW221489   5.270   4.937   5.331
 6935SOL     OW21490   4.949   4.049   4.173
 6935SOL    HW121491   5.014   3.975   4.162
 6935SOL    HW221492   4.969   4.099   4.257
 6936SOL     OW21493   4.318   4.469   4.376
 6936SOL    HW121494   4.368   4.554   4.357
 6936SOL    HW221495   4.230   4.471   4.328
 6937SOL     OW21496   4.583   5.098   3.740
 6937SOL    HW121497   4.537   5.113   3.828
 6937SOL    HW221498   4.627   5.183   3.710
 6938SOL     OW21499   4.583   4.680   4.585
 6938SOL    HW121500   4.637   4.611   4.633
 6938SOL    HW221501   4.551   4.749   4.651
 6939SOL     OW21502   4.807   4.708   3.811
 6939SOL    HW121503   4.784   4.761   3.729
 6939SOL    HW221504   4.888   4.652   3.792
 6940SOL     OW21505   3.945   5.038   5.568
 6940SOL    HW121506   3.880   4.965   5.547
 6940SOL    HW221507   3.949   5.052   5.666
 6941SOL     OW21508   3.803   4.964   4.377
 6941SOL    HW121509   3.802   4.917   4.465
 6941SOL    HW221510   3.885   4.936   4.326
 6942SOL     OW21511   4.396   5.115   5.348
 6942SOL    HW121512   4.318   5.065   5.386
 6942SOL    HW221513   4.393   5.210   5.379
 6943SOL     OW21514   4.152   4.148   4.244
 6943SOL    HW121515   4.182   4.076   4.182
 6943SOL    HW221516   4.113   4.108   4.327
 6944SOL     OW21517   5.429   5.211   4.828
 6944SOL    HW121518   5.336   5.186   4.801
 6944SOL    HW221519   5.455   5.161   4.910
 6945SOL     OW21520   4.041   4.271   5.004
 6945SOL    HW121521   4.079   4.212   5.076
 6945SOL    HW221522   4.081   4.245   4.916
 6946SOL     OW21523   5.148   3.938   4.836
 6946SOL    HW121524   5.200   3.873   4.891
 6946SOL    HW221525   5.099   4.001   4.897
 6947SOL     OW21526   4.725   3.758   4.878
 6947SOL    HW121527   4.662   3.686   4.847
 6947SOL    HW221528   4.818   3.722   4.878
 6948SOL     OW21529   4.494   5.054   4.025
 6948SOL    HW121530   4.448   4.967   4.042
 6948SOL    HW221531   4.585   5.051   4.066
 6949SOL     OW21532   4.342   5.291   5.008
 6949SOL    HW121533   4.337   5.373   5.065
 6949SOL    HW221534   4.431   5.288   4.963
 6950SOL     OW21535   5.076   3.776   3.892
 6950SOL    HW121536   5.111   3.735   3.808
 6950SOL    HW221537   4.986   3.738   3.912
 6951SOL     OW21538   5.024   4.177   4.415
 6951SOL    HW121539   4.965   4.257   4.419
 6951SOL    HW221540   5.039   4.142   4.508
 6952SOL     OW21541   5.317   3.945   4.606
 6952SOL    HW121542   5.233   3.944   4.660
 6952SOL    HW221543   5.319   4.028   4.550
 6953SOL     OW21544   3.763   4.801   4.024
 6953SOL    HW121545   3.862   4.790   4.015
 6953SOL    HW221546   3.723   4.715   4.056
 6954SOL     OW21547   3.954   4.352   5.699
 6954SOL    HW121548   3.861   4.350   5.736
 6954SOL    HW221549   3.955   4.313   5.607
 6955SOL     OW21550   3.949   3.999   6.582
 6955SOL    HW121551   3.984   3.982   6.674
 6955SOL    HW221552   3.861   3.954   6.570
 6956SOL     OW21553   3.743   4.092   6.233
 6956SOL    HW121554   3.661   4.135   6.272
 6956SOL    HW221555   3.715   4.019   6.170
 6957SOL     OW21556   4.293   4.999   6.751
 6957SOL    HW121557   4.200   4.992   6.714
 6957SOL    HW221558   4.304   5.088   6.795
 6958SOL     OW21559   5.279   5.235   6.289
 6958SOL    HW121560   5.222   5.219   6.370
 6958SOL    HW221561   5.220   5.245   6.209
 6959SOL     OW21562   4.859   4.427   6.303
 6959SOL    HW121563   4.916   4.505   6.278
 6959SOL    HW221564   4.799   4.453   6.379
 6960SOL     OW21565   4.492   4.868   6.609
 6960SOL    HW121566   4.414   4.885   6.669
 6960SOL    HW221567   4.526   4.955   6.573
 6961SOL     OW21568   4.574   4.522   7.409
 6961SOL    HW121569   4.570   4.598   7.474
 6961SOL    HW221570   4.596   4.558   7.318
 6962SOL     OW21571   4.409   4.736   6.251
 6962SOL    HW121572   4.478   4.720   6.321
 6962SOL    HW221573   4.336   4.793   6.289
 6963SOL     OW21574   4.410   4.885   7.389
 6963SOL    HW121575   4.470   4.964   7.403
 6963SOL    HW221576   4.324   4.916   7.348
 6964SOL     OW21577   4.059   5.159   6.647
 6964SOL    HW121578   3.981   5.128   6.594
 6964SOL    HW221579   4.117   5.217   6.590
 6965SOL     OW21580   5.184   5.229   6.925
 6965SOL    HW121581   5.208   5.323   6.951
 6965SOL    HW221582   5.168   5.175   7.007
 6966SOL     OW21583   4.162   4.116   7.085
 6966SOL    HW121584   4.244   4.060   7.094
 6966SOL    HW221585   4.081   4.058   7.089
 6967SOL     OW21586   4.851   5.065   7.276
 6967SOL    HW121587   4.898   5.065   7.364
 6967SOL    HW221588   4.803   4.978   7.265
 6968SOL     OW21589   3.954   5.158   6.124
 6968SOL    HW121590   3.928   5.254   6.124
 6968SOL    HW221591   3.883   5.104   6.169
 6969SOL     OW21592   3.964   4.815   6.472
 6969SOL    HW121593   3.978   4.731   6.524
 6969SOL    HW221594   3.909   4.879   6.527
 6970SOL     OW21595   4.330   4.688   5.709
 6970SOL    HW121596   4.337   4.772   5.655
 6970SOL    HW221597   4.376   4.701   5.797
 6971SOL     OW21598   3.846   4.367   6.149
 6971SOL    HW121599   3.801   4.279   6.166
 6971SOL    HW221600   3.845   4.421   6.233
 6972SOL     OW21601   3.751   5.320   5.703
 6972SOL    HW121602   3.732   5.224   5.724
 6972SOL    HW221603   3.718   5.378   5.778
 6973SOL     OW21604   5.413   4.646   6.198
 6973SOL    HW121605   5.508   4.617   6.206
 6973SOL    HW221606   5.405   4.711   6.123
 6974SOL     OW21607   3.837   4.461   7.183
 6974SOL    HW121608   3.925   4.448   7.228
 6974SOL    HW221609   3.824   4.558   7.161
 6975SOL     OW21610   4.337   5.089   6.312
 6975SOL    HW121611   4.288   5.002   6.321
 6975SOL    HW221612   4.314   5.132   6.225
 6976SOL     OW21613   5.017   4.952   7.009
 6976SOL    HW121614   5.054   4.879   6.951
 6976SOL    HW221615   5.069   4.957   7.094
 6977SOL     OW21616   4.533   3.728   6.088
 6977SOL    HW121617   4.573   3.819   6.079
 6977SOL    HW221618   4.433   3.736   6.094
 6978SOL     OW21619   3.921   4.700   6.850
 6978SOL    HW121620   4.010   4.655   6.836
 6978SOL    HW221621   3.848   4.635   6.831
 6979SOL     OW21622   4.041   3.975   7.387
 6979SOL    HW121623   4.112   4.046   7.393
 6979SOL    HW221624   3.953   4.014   7.415
 6980SOL     OW21625   5.190   5.141   6.539
 6980SOL    HW121626   5.131   5.147   6.619
 6980SOL    HW221627   5.175   5.053   6.493
 6981SOL     OW21628   5.391   5.438   6.158
 6981SOL    HW121629   5.350   5.415   6.070
 6981SOL    HW221630   5.373   5.364   6.223
 6982SOL     OW21631   4.322   4.453   5.856
 6982SOL    HW121632   4.346   4.522   5.788
 6982SOL    HW221633   4.244   4.486   5.910
 6983SOL     OW21634   5.005   4.069   6.530
 6983SOL    HW121635   4.919   4.019   6.517
 6983SOL    HW221636   5.067   4.015   6.586
 6984SOL     OW21637   4.531   4.329   7.051
 6984SOL    HW121638   4.484   4.326   7.140
 6984SOL    HW221639   4.480   4.274   6.985
 6985SOL     OW21640   5.118   4.193   7.260
 6985SOL    HW121641   5.098   4.236   7.348
 6985SOL    HW221642   5.196   4.131   7.269
 6986SOL     OW21643   4.697   4.614   7.158
 6986SOL    HW121644   4.743   4.530   7.129
 6986SOL    HW221645   4.641   4.648   7.083
 6987SOL     OW21646   4.715   4.134   6.828
 6987SOL    HW121647   4.638   4.168   6.882
 6987SOL    HW221648   4.681   4.083   6.749
 6988SOL     OW21649   4.765   4.425   6.015
 6988SOL    HW121650   4.791   4.421   6.111
 6988SOL    HW221651   4.680   4.374   6.001
 6989SOL     OW21652   3.800   4.535   6.375
 6989SOL    HW121653   3.899   4.523   6.384
 6989SOL    HW221654   3.776   4.630   6.396
 6990SOL     OW21655   4.589   4.072   5.781
 6990SOL    HW121656   4.648   4.135   5.732
 6990SOL    HW221657   4.608   3.978   5.752
 6991SOL     OW21658   5.086   4.868   6.131
 6991SOL    HW121659   5.169   4.839   6.083
 6991SOL    HW221660   5.037   4.935   6.075
 6992SOL     OW21661   4.274   3.920   6.471
 6992SOL    HW121662   4.269   3.915   6.571
 6992SOL    HW221663   4.276   4.016   6.442
 6993SOL     OW21664   4.732   5.180   6.063
 6993SOL    HW121665   4.686   5.252   6.011
 6993SOL    HW221666   4.728   5.200   6.161
 6994SOL     OW21667   4.951   5.274   7.092
 6994SOL    HW121668   4.957   5.197   7.156
 6994SOL    HW221669   4.899   5.248   7.012
 6995SOL     OW21670   4.045   4.667   5.828
 6995SOL    HW121671   4.127   4.706   5.786
 6995SOL    HW221672   4.018   4.585   5.779
 6996SOL     OW21673   4.185   4.990   7.313
 6996SOL    HW121674   4.135   4.991   7.227
 6996SOL    HW221675   4.122   4.972   7.389
 6997SOL     OW21676   4.835   5.500   5.823
 6997SOL    HW121677   4.775   5.438   5.873
 6997SOL    HW221678   4.866   5.456   5.738
 6998SOL     OW21679   3.926   4.009   7.084
 6998SOL    HW121680   3.846   4.069   7.071
 6998SOL    HW221681   3.916   3.960   7.170
 6999SOL     OW21682   5.124   3.831   6.012
 6999SOL    HW121683   5.100   3.794   5.922
 6999SOL    HW221684   5.223   3.847   6.016
 7000SOL     OW21685   4.106   4.424   6.066
 7000SOL    HW121686   4.151   4.334   6.063
 7000SOL    HW221687   4.012   4.413   6.099
 7001SOL     OW21688   4.338   3.846   5.703
 7001SOL    HW121689   4.436   3.824   5.710
 7001SOL    HW221690   4.307   3.829   5.610
 7002SOL     OW21691   4.505   3.988   7.335
 7002SOL    HW121692   4.572   3.927   7.378
 7002SOL    HW221693   4.432   4.007   7.400
 7003SOL     OW21694   5.075   4.314   7.019
 7003SOL    HW121695   5.103   4.271   7.104
 7003SOL    HW221696   5.100   4.410   7.020
 7004SOL     OW21697   4.527   5.126   6.510
 7004SOL    HW121698   4.617   5.140   6.468
 7004SOL    HW221699   4.456   5.128   6.439
 7005SOL     OW21700   4.646   4.227   6.485
 7005SOL    HW121701   4.621   4.218   6.389
 7005SOL    HW221702   4.694   4.145   6.516
 7006SOL     OW21703   4.263   3.788   6.098
 7006SOL    HW121704   4.182   3.789   6.156
 7006SOL    HW221705   4.266   3.871   6.043
 7007SOL     OW21706   5.158   4.912   5.627
 7007SOL    HW121707   5.190   4.836   5.684
 7007SOL    HW221708   5.066   4.939   5.657
 7008SOL     OW21709   4.021   3.759   5.757
 7008SOL    HW121710   4.070   3.843   5.736
 7008SOL    HW221711   4.083   3.694   5.802
 7009SOL     OW21712   4.659   3.960   6.066
 7009SOL    HW121713   4.611   4.001   5.988
 7009SOL    HW221714   4.758   3.958   6.047
 7010SOL     OW21715   4.800   4.407   7.050
 7010SOL    HW121716   4.720   4.346   7.053
 7010SOL    HW221717   4.881   4.354   7.026
 7011SOL     OW21718   4.951   5.294   6.379
 7011SOL    HW121719   4.972   5.368   6.314
 7011SOL    HW221720   5.019   5.294   6.452
 7012SOL     OW21721   4.183   4.876   6.327
 7012SOL    HW121722   4.112   4.849   6.392
 7012SOL    HW221723   4.157   4.848   6.234
 7013SOL     OW21724   4.756   4.273   5.602
 7013SOL    HW121725   4.715   4.355   5.563
 7013SOL    HW221726   4.820   4.299   5.675
 7014SOL     OW21727   3.802   4.280   6.972
 7014SOL    HW121728   3.894   4.279   6.931
 7014SOL    HW221729   3.796   4.354   7.039
 7015SOL     OW21730   4.285   3.946   6.733
 7015SOL    HW121731   4.323   3.862   6.770
 7015SOL    HW221732   4.197   3.965   6.777
 7016SOL     OW21733   4.590   4.178   6.228
 7016SOL    HW121734   4.558   4.250   6.166
 7016SOL    HW221735   4.614   4.097   6.175
 7017SOL     OW21736   4.741   3.763   6.339
 7017SOL    HW121737   4.669   3.768   6.270
 7017SOL    HW221738   4.717   3.694   6.408
 7018SOL     OW21739   5.153   4.897   6.453
 7018SOL    HW121740   5.098   4.813   6.446
 7018SOL    HW221741   5.179   4.926   6.361
 7019SOL     OW21742   4.212   5.109   5.760
 7019SOL    HW121743   4.125   5.094   5.807
 7019SOL    HW221744   4.195   5.135   5.665
 7020SOL     OW21745   5.114   4.299   5.664
 7020SOL    HW121746   5.060   4.278   5.745
 7020SOL    HW221747   5.205   4.258   5.673
 7021SOL     OW21748   4.251   3.980   5.914
 7021SOL    HW121749   4.278   3.921   5.839
 7021SOL    HW221750   4.251   4.075   5.883
 7022SOL     OW21751   4.788   5.071   6.926
 7022SOL    HW121752   4.708   5.048   6.981
 7022SOL    HW221753   4.871   5.045   6.975
 7023SOL     OW21754   4.835   4.919   6.686
 7023SOL    HW121755   4.795   4.963   6.767
 7023SOL    HW221756   4.794   4.956   6.603
 7024SOL     OW21757   4.639   3.813   6.988
 7024SOL    HW121758   4.664   3.793   6.893
 7024SOL    HW221759   4.711   3.869   7.030
 7025SOL     OW21760   4.704   4.840   7.305
 7025SOL    HW121761   4.605   4.846   7.315
 7025SOL    HW221762   4.727   4.760   7.249
 7026SOL     OW21763   4.429   4.774   5.954
 7026SOL    HW121764   4.415   4.781   6.053
 7026SOL    HW221765   4.513   4.723   5.936
 7027SOL     OW21766   4.134   4.537   6.837
 7027SOL    HW121767   4.220   4.549   6.887
 7027SOL    HW221768   4.092   4.450   6.864
 7028SOL     OW21769   4.998   4.110   6.848
 7028SOL    HW121770   5.019   4.184   6.912
 7028SOL    HW221771   4.909   4.127   6.805
 7029SOL     OW21772   4.091   4.824   6.087
 7029SOL    HW121773   4.084   4.907   6.031
 7029SOL    HW221774   4.095   4.744   6.027
 7030SOL     OW21775   4.290   4.261   6.451
 7030SOL    HW121776   4.302   4.327   6.377
 7030SOL    HW221777   4.336   4.295   6.534
 7031SOL     OW21778   4.976   5.072   5.974
 7031SOL    HW121779   5.026   5.149   6.014
 7031SOL    HW221780   4.881   5.074   6.006
 7032SOL     OW21781   4.996   5.169   6.728
 7032SOL    HW121782   5.043   5.182   6.815
 7032SOL    HW221783   4.930   5.095   6.737
 7033SOL     OW21784   4.078   5.234   6.915
 7033SOL    HW121785   4.057   5.190   6.828
 7033SOL    HW221786   4.175   5.260   6.918
 7034SOL     OW21787   4.126   4.475   7.184
 7034SOL    HW121788   4.194   4.530   7.137
 7034SOL    HW221789   4.166   4.387   7.211
 7035SOL     OW21790   4.737   3.829   7.356
 7035SOL    HW121791   4.743   3.914   7.304
 7035SOL    HW221792   4.769   3.753   7.299
 7036SOL     OW21793   4.228   3.774   7.326
 7036SOL    HW121794   4.186   3.717   7.256
 7036SOL    HW221795   4.162   3.843   7.358
 7037SOL     OW21796   4.297   4.594   6.615
 7037SOL    HW121797   4.341   4.683   6.606
 7037SOL    HW221798   4.234   4.594   6.692
 7038SOL     OW21799   5.084   4.586   6.631
 7038SOL    HW121800   5.009   4.586   6.565
 7038SOL    HW221801   5.121   4.494   6.640
 7039SOL     OW21802   4.933   4.249   5.861
 7039SOL    HW121803   4.946   4.165   5.915
 7039SOL    HW221804   4.904   4.323   5.921
 7040SOL     OW21805   4.031   3.937   6.817
 7040SOL    HW121806   4.008   3.974   6.907
 7040SOL    HW221807   4.001   3.842   6.811
 7041SOL     OW21808   3.761   5.034   6.868
 7041SOL    HW121809   3.814   4.985   6.936
 7041SOL    HW221810   3.783   5.132   6.873
 7042SOL     OW21811   4.456   4.358   6.650
 7042SOL    HW121812   4.515   4.332   6.574
 7042SOL    HW221813   4.428   4.454   6.639
 7043SOL     OW21814   4.031   3.787   6.204
 7043SOL    HW121815   4.020   3.881   6.237
 7043SOL    HW221816   4.026   3.724   6.281
 7044SOL     OW21817   5.346   4.091   5.960
 7044SOL    HW121818   5.348   4.015   6.024
 7044SOL    HW221819   5.298   4.168   6.000
 7045SOL     OW21820   4.747   4.490   6.552
 7045SOL    HW121821   4.762   4.511   6.648
 7045SOL    HW221822   4.717   4.395   6.543
 7046SOL     OW21823   4.074   4.622   7.390
 7046SOL    HW121824   4.150   4.666   7.438
 7046SOL    HW221825   4.109   4.575   7.308
 7047SOL     OW21826   5.027   4.562   5.628
 7047SOL    HW121827   5.061   4.469   5.643
 7047SOL    HW221828   5.045   4.589   5.533
 7048SOL     OW21829   4.792   5.057   6.435
 7048SOL    HW121830   4.799   4.973   6.380
 7048SOL    HW221831   4.854   5.126   6.399
 7049SOL     OW21832   4.043   4.534   6.535
 7049SOL    HW121833   4.136   4.570   6.540
 7049SOL    HW221834   4.037   4.449   6.587
 7050SOL     OW21835   4.063   4.233   6.592
 7050SOL    HW121836   4.011   4.150   6.575
 7050SOL    HW221837   4.140   4.238   6.528
 7051SOL     OW21838   4.862   4.104   7.264
 7051SOL    HW121839   4.817   4.167   7.328
 7051SOL    HW221840   4.955   4.135   7.247
 7052SOL     OW21841   4.884   3.931   7.063
 7052SOL    HW121842   4.884   3.995   7.140
 7052SOL    HW221843   4.912   3.979   6.980
 7053SOL     OW21844   3.732   5.050   5.786
 7053SOL    HW121845   3.639   5.071   5.755
 7053SOL    HW221846   3.742   4.951   5.799
 7054SOL     OW21847   4.726   4.520   6.824
 7054SOL    HW121848   4.767   4.488   6.910
 7054SOL    HW221849   4.630   4.493   6.821
 7055SOL     OW21850   3.764   4.268   6.700
 7055SOL    HW121851   3.849   4.235   6.659
 7055SOL    HW221852   3.777   4.283   6.798
 7056SOL     OW21853   3.913   4.244   7.308
 7056SOL    HW121854   3.972   4.204   7.238
 7056SOL    HW221855   3.855   4.315   7.267
 7057SOL     OW21856   5.093   4.674   7.246
 7057SOL    HW121857   5.132   4.763   7.266
 7057SOL    HW221858   5.103   4.654   7.149
 7058SOL     OW21859   4.539   4.296   5.911
 7058SOL    HW121860   4.546   4.207   5.865
 7058SOL    HW221861   4.445   4.330   5.903
 7059SOL     OW21862   3.976   5.288   7.330
 7059SOL    HW121863   3.946   5.345   7.406
 7059SOL    HW221864   3.969   5.191   7.356
 7060SOL     OW21865   4.395   4.188   6.855
 7060SOL    HW121866   4.361   4.099   6.825
 7060SOL    HW221867   4.421   4.242   6.775
 7061SOL     OW21868   4.197   4.224   5.777
 7061SOL    HW121869   4.258   4.304   5.781
 7061SOL    HW221870   4.102   4.255   5.784
 7062SOL     OW21871   3.883   4.861   7.052
 7062SOL    HW121872   3.905   4.800   7.128
 7062SOL    HW221873   3.893   4.812   6.966
 7063SOL     OW21874   5.071   4.783   6.820
 7063SOL    HW121875   5.095   4.720   6.746
 7063SOL    HW221876   4.981   4.823   6.802
 7064SOL     OW21877   5.026   4.579   5.895
 7064SOL    HW121878   4.940   4.548   5.937
 7064SOL    HW221879   5.022   4.565   5.796
 7065SOL     OW21880   3.807   4.982   6.608
 7065SOL    HW121881   3.802   4.981   6.708
 7065SOL    HW221882   3.724   4.941   6.570
 7066SOL     OW21883   4.412   5.386   7.302
 7066SOL    HW121884   4.356   5.467   7.311
 7066SOL    HW221885   4.464   5.390   7.216
 7067SOL     OW21886   5.450   3.859   6.109
 7067SOL    HW121887   5.523   3.842   6.042
 7067SOL    HW221888   5.419   3.772   6.147
 7068SOL     OW21889   5.004   4.651   6.258
 7068SOL    HW121890   5.064   4.570   6.260
 7068SOL    HW221891   5.044   4.720   6.198
 7069SOL     OW21892   4.554   4.997   7.008
 7069SOL    HW121893   4.549   5.030   7.103
 7069SOL    HW221894   4.468   5.016   6.962
 7070SOL     OW21895   3.987   4.050   6.306
 7070SOL    HW121896   3.908   4.101   6.272
 7070SOL    HW221897   3.978   4.035   6.404
 7071SOL     OW21898   4.546   4.726   6.958
 7071SOL    HW121899   4.586   4.725   6.866
 7071SOL    HW221900   4.556   4.818   6.998
 7072SOL     OW21901   4.640   4.634   5.877
 7072SOL    HW121902   4.703   4.672   5.809
 7072SOL    HW221903   4.680   4.551   5.916
 7073SOL     OW21904   4.096   5.012   7.076
 7073SOL    HW121905   4.083   5.105   7.042
 7073SOL    HW221906   4.012   4.960   7.063
 7074SOL     OW21907   4.763   4.822   6.282
 7074SOL    HW121908   4.693   4.775   6.336
 7074SOL    HW221909   4.822   4.754   6.239
 7075SOL     OW21910   4.738   3.960   6.557
 7075SOL    HW121911   4.730   3.924   6.464
 7075SOL    HW221912   4.736   3.884   6.622
 7076SOL     OW21913   3.979   5.072   5.876
 7076SOL    HW121914   3.883   5.073   5.849
 7076SOL    HW221915   3.991   5.125   5.960
 7077SOL     OW21916   3.829   4.737   7.312
 7077SOL    HW121917   3.752   4.704   7.366
 7077SOL    HW221918   3.914   4.707   7.354
 7078SOL     OW21919   4.396   3.927   7.075
 7078SOL    HW121920   4.486   3.911   7.035
 7078SOL    HW221921   4.404   3.932   7.174
 7079SOL     OW21922   3.799   4.069   5.619
 7079SOL    HW121923   3.707   4.041   5.590
 7079SOL    HW221924   3.830   4.146   5.563
 7080SOL     OW21925   5.164   4.580   6.984
 7080SOL    HW121926   5.107   4.632   6.921
 7080SOL    HW221927   5.260   4.592   6.960
 7081SOL     OW21928   3.796   3.890   5.904
 7081SOL    HW121929   3.779   3.973   5.850
 7081SOL    HW221930   3.886   3.853   5.882
 7082SOL     OW21931   4.907   5.059   5.705
 7082SOL    HW121932   4.808   5.048   5.707
 7082SOL    HW221933   4.941   5.074   5.798
 7083SOL     OW21934   4.337   4.566   7.017
 7083SOL    HW121935   4.393   4.647   7.000
 7083SOL    HW221936   4.396   4.486   7.020
 7084SOL     OW21937   4.440   4.289   7.294
 7084SOL    HW121938   4.459   4.354   7.368
 7084SOL    HW221939   4.500   4.209   7.303
 7085SOL     OW21940   5.174   4.944   7.219
 7085SOL    HW121941   5.165   4.934   7.318
 7085SOL    HW221942   5.270   4.937   7.193
 7086SOL     OW21943   4.949   4.049   6.035
 7086SOL    HW121944   5.014   3.975   6.024
 7086SOL    HW221945   4.969   4.099   6.119
 7087SOL     OW21946   4.318   4.469   6.238
 7087SOL    HW121947   4.368   4.554   6.219
 7087SOL    HW221948   4.230   4.471   6.190
 7088SOL     OW21949   4.583   5.098   5.602
 7088SOL    HW121950   4.537   5.113   5.690
 7088SOL    HW221951   4.627   5.183   5.572
 7089SOL     OW21952   4.583   4.680   6.447
 7089SOL    HW121953   4.637   4.611   6.495
 7089SOL    HW221954   4.551   4.749   6.513
 7090SOL     OW21955   4.807   4.708   5.673
 7090SOL    HW121956   4.784   4.761   5.591
 7090SOL    HW221957   4.888   4.652   5.654
 7091SOL     OW21958   3.945   5.038   7.430
 7091SOL    HW121959   3.880   4.965   7.409
 7091SOL    HW221960   3.949   5.052   7.528
 7092SOL     OW21961   3.803   4.964   6.239
 7092SOL    HW121962   3.802   4.917   6.327
 7092SOL    HW221963   3.885   4.936   6.188
 7093SOL     OW21964   4.396   5.115   7.210
 7093SOL    HW121965   4.318   5.065   7.248
 7093SOL    HW221966   4.393   5.210   7.241
 7094SOL     OW21967   4.152   4.148   6.106
 7094SOL    HW121968   4.182   4.076   6.044
 7094SOL    HW221969   4.113   4.108   6.189
 7095SOL     OW21970   5.429   5.211   6.690
 7095SOL    HW121971   5.336   5.186   6.663
 7095SOL    HW221972   5.455   5.161   6.772
 7096SOL     OW21973   4.041   4.271   6.866
 7096SOL    HW121974   4.079   4.212   6.938
 7096SOL    HW221975   4.081   4.245   6.778
 7097SOL     OW21976   5.148   3.938   6.698
 7097SOL    HW121977   5.200   3.873   6.753
 7097SOL    HW221978   5.099   4.001   6.759
 7098SOL     OW21979   4.725   3.758   6.740
 7098SOL    HW121980   4.662   3.686   6.709
 7098SOL    HW221981   4.818   3.722   6.740
 7099SOL     OW21982   4.494   5.054   5.887
 7099SOL    HW121983   4.448   4.967   5.904
 7099SOL    HW221984   4.585   5.051   5.928
 7100SOL     OW21985   4.342   5.291   6.870
 7100SOL    HW121986   4.337   5.373   6.927
 7100SOL    HW221987   4.431   5.288   6.825
 7101SOL     OW21988   5.076   3.776   5.754
 7101SOL    HW121989   5.111   3.735   5.670
 7101SOL    HW221990   4.986   3.738   5.774
 7102SOL     OW21991   5.024   4.177   6.277
 7102SOL    HW121992   4.965   4.257   6.281
 7102SOL    HW221993   5.039   4.142   6.370
 7103SOL     OW21994   5.317   3.945   6.468
 7103SOL    HW121995   5.233   3.944   6.522
 7103SOL    HW221996   5.319   4.028   6.412
 7104SOL     OW21997   3.763   4.801   5.886
 7104SOL    HW121998   3.862   4.790   5.877
 7104SOL    HW221999   3.723   4.715   5.918
 7105SOL     OW22000   3.954   4.352   7.561
 7105SOL    HW122001   3.861   4.350   7.598
 7105SOL    HW222002   3.955   4.313   7.469
 7106SOL     OW22003   3.955   5.437   7.931
 7106SOL    HW122004   3.989   5.514   7.985
 7106SOL    HW222005   3.999   5.437   7.841
 7107SOL     OW22006   3.954   5.158   7.986
 7107SOL    HW122007   3.928   5.254   7.986
 7107SOL    HW222008   3.883   5.104   8.031
 7108SOL     OW22009   4.330   4.688   7.571
 7108SOL    HW122010   4.337   4.772   7.517
 7108SOL    HW222011   4.376   4.701   7.659
 7109SOL     OW22012   3.751   5.320   7.565
 7109SOL    HW122013   3.732   5.224   7.586
 7109SOL    HW222014   3.718   5.378   7.640
 7110SOL     OW22015   5.413   4.646   8.060
 7110SOL    HW122016   5.508   4.617   8.068
 7110SOL    HW222017   5.405   4.711   7.985
 7111SOL     OW22018   4.533   3.728   7.950
 7111SOL    HW122019   4.573   3.819   7.941
 7111SOL    HW222020   4.433   3.736   7.956
 7112SOL     OW22021   4.322   4.453   7.718
 7112SOL    HW122022   4.346   4.522   7.650
 7112SOL    HW222023   4.244   4.486   7.772
 7113SOL     OW22024   3.800   4.535   8.237
 7113SOL    HW122025   3.899   4.523   8.246
 7113SOL    HW222026   3.776   4.630   8.258
 7114SOL     OW22027   4.589   4.072   7.643
 7114SOL    HW122028   4.648   4.135   7.594
 7114SOL    HW222029   4.608   3.978   7.614
 7115SOL     OW22030   4.045   4.667   7.690
 7115SOL    HW122031   4.127   4.706   7.648
 7115SOL    HW222032   4.018   4.585   7.641
 7116SOL     OW22033   4.835   5.500   7.685
 7116SOL    HW122034   4.775   5.438   7.735
 7116SOL    HW222035   4.866   5.456   7.600
 7117SOL     OW22036   5.124   3.831   7.874
 7117SOL    HW122037   5.100   3.794   7.784
 7117SOL    HW222038   5.223   3.847   7.878
 7118SOL     OW22039   4.106   4.424   7.928
 7118SOL    HW122040   4.151   4.334   7.925
 7118SOL    HW222041   4.012   4.413   7.961
 7119SOL     OW22042   4.338   3.846   7.565
 7119SOL    HW122043   4.436   3.824   7.572
 7119SOL    HW222044   4.307   3.829   7.472
 7120SOL     OW22045   4.263   3.788   7.960
 7120SOL    HW122046   4.182   3.789   8.018
 7120SOL    HW222047   4.266   3.871   7.905
 7121SOL     OW22048   5.158   4.912   7.489
 7121SOL    HW122049   5.190   4.836   7.546
 7121SOL    HW222050   5.066   4.939   7.519
 7122SOL     OW22051   4.021   3.759   7.619
 7122SOL    HW122052   4.070   3.843   7.598
 7122SOL    HW222053   4.083   3.694   7.664
 7123SOL     OW22054   4.659   3.960   7.928
 7123SOL    HW122055   4.611   4.001   7.850
 7123SOL    HW222056   4.758   3.958   7.909
 7124SOL     OW22057   4.183   4.876   8.189
 7124SOL    HW122058   4.112   4.849   8.254
 7124SOL    HW222059   4.157   4.848   8.096
 7125SOL     OW22060   4.756   4.273   7.464
 7125SOL    HW122061   4.715   4.355   7.425
 7125SOL    HW222062   4.820   4.299   7.537
 7126SOL     OW22063   4.212   5.109   7.622
 7126SOL    HW122064   4.125   5.094   7.669
 7126SOL    HW222065   4.195   5.135   7.527
 7127SOL     OW22066   5.114   4.299   7.526
 7127SOL    HW122067   5.060   4.278   7.607
 7127SOL    HW222068   5.205   4.258   7.535
 7128SOL     OW22069   4.251   3.980   7.776
 7128SOL    HW122070   4.278   3.921   7.701
 7128SOL    HW222071   4.251   4.075   7.745
 7129SOL     OW22072   4.429   4.774   7.816
 7129SOL    HW122073   4.415   4.781   7.915
 7129SOL    HW222074   4.513   4.723   7.798
 7130SOL     OW22075   4.091   4.824   7.949
 7130SOL    HW122076   4.084   4.907   7.893
 7130SOL    HW222077   4.095   4.744   7.889
 7131SOL     OW22078   4.976   5.072   7.836
 7131SOL    HW122079   5.026   5.149   7.876
 7131SOL    HW222080   4.881   5.074   7.868
 7132SOL     OW22081   5.306   4.363   7.920
 7132SOL    HW122082   5.275   4.424   7.993
 7132SOL    HW222083   5.356   4.415   7.851
 7133SOL     OW22084   4.933   4.249   7.723
 7133SOL    HW122085   4.946   4.165   7.777
 7133SOL    HW222086   4.904   4.323   7.783
 7134SOL     OW22087   5.346   4.091   7.822
 7134SOL    HW122088   5.348   4.015   7.886
 7134SOL    HW222089   5.298   4.168   7.862
 7135SOL     OW22090   5.027   4.562   7.490
 7135SOL    HW122091   5.061   4.469   7.505
 7135SOL    HW222092   5.045   4.589   7.395
 7136SOL     OW22093   3.732   5.050   7.648
 7136SOL    HW122094   3.639   5.071   7.617
 7136SOL    HW222095   3.742   4.951   7.661
 7137SOL     OW22096   4.539   4.296   7.773
 7137SOL    HW122097   4.546   4.207   7.727
 7137SOL    HW222098   4.445   4.330   7.765
 7138SOL     OW22099   4.197   4.224   7.639
 7138SOL    HW122100   4.258   4.304   7.643
 7138SOL    HW222101   4.102   4.255   7.646
 7139SOL     OW22102   5.026   4.579   7.757
 7139SOL    HW122103   4.940   4.548   7.799
 7139SOL    HW222104   5.022   4.565   7.658
 7140SOL     OW22105   5.450   3.859   7.971
 7140SOL    HW122106   5.523   3.842   7.904
 7140SOL    HW222107   5.419   3.772   8.009
 7141SOL     OW22108   4.640   4.634   7.739
 7141SOL    HW122109   4.703   4.672   7.671
 7141SOL    HW222110   4.680   4.551   7.778
 7142SOL     OW22111   3.979   5.072   7.738
 7142SOL    HW122112   3.883   5.073   7.711
 7142SOL    HW222113   3.991   5.125   7.822
 7143SOL     OW22114   3.799   4.069   7.481
 7143SOL    HW122115   3.707   4.041   7.452
 7143SOL    HW222116   3.830   4.146   7.425
 7144SOL     OW22117   3.796   3.890   7.766
 7144SOL    HW122118   3.779   3.973   7.712
 7144SOL    HW222119   3.886   3.853   7.744
 7145SOL     OW22120   4.907   5.059   7.567
 7145SOL    HW122121   4.808   5.048   7.569
 7145SOL    HW222122   4.941   5.074   7.660
 7146SOL     OW22123   4.949   4.049   7.897
 7146SOL    HW122124   5.014   3.975   7.886
 7146SOL    HW222125   4.969   4.099   7.981
 7147SOL     OW22126   4.318   4.469   8.100
 7147SOL    HW122127   4.368   4.554   8.081
 7147SOL    HW222128   4.230   4.471   8.052
 7148SOL     OW22129   4.583   5.098   7.464
 7148SOL    HW122130   4.537   5.113   7.552
 7148SOL    HW222131   4.627   5.183   7.434
 7149SOL     OW22132   4.807   4.708   7.535
 7149SOL    HW122133   4.784   4.761   7.453
 7149SOL    HW222134   4.888   4.652   7.516
 7150SOL     OW22135   4.152   4.148   7.968
 7150SOL    HW122136   4.182   4.076   7.906
 7150SOL    HW222137   4.113   4.108   8.051
 7151SOL     OW22138   4.494   5.054   7.749
 7151SOL    HW122139   4.448   4.967   7.766
 7151SOL    HW222140   4.585   5.051   7.790
 7152SOL     OW22141   5.076   3.776   7.616
 7152SOL    HW122142   5.111   3.735   7.532
 7152SOL    HW222143   4.986   3.738   7.636
 7153SOL     OW22144   3.763   4.801   7.748
 7153SOL    HW122145   3.862   4.790   7.739
 7153SOL    HW222146   3.723   4.715   7.780
   5.30000   5.30000   8.08000
