2gCDOH_1PEG_l11
21930
    1LIG      O    1   2.209   2.273   0.026
    1LIG      C    2   2.292   2.293   0.147
    1LIG     C1    3   2.220   2.241   0.279
    1LIG     O1    4   2.282   2.291   0.403
    1LIG     C2    5   2.221   2.236   0.525
    1LIG     C3    6   2.295   2.283   0.657
    1LIG     O2    7   2.234   2.222   0.776
    1LIG     C4    8   2.289   2.274   0.902
    1LIG     C5    9   2.210   2.218   1.028
    1LIG     O3   10   2.273   2.264   1.152
    1LIG     C6   11   2.211   2.216   1.276
    1LIG     C7   12   2.285   2.276   1.401
    1LIG     O4   13   2.215   2.241   1.524
    1LIG     C8   14   2.291   2.273   1.645
    1LIG     C9   15   2.214   2.225   1.773
    1LIG     O5   16   2.280   2.273   1.893
    1LIG    C10   17   2.224   2.220   2.017
    1LIG    C11   18   2.301   2.274   2.142
    1LIG     O6   19   2.250   2.211   2.264
    1LIG    C12   20   2.295   2.280   2.385
    1LIG    C13   21   2.217   2.228   2.511
    1LIG     O7   22   2.287   2.269   2.632
    1LIG    C14   23   2.215   2.246   2.755
    1LIG    C15   24   2.299   2.300   2.878
    1LIG     O8   25   2.252   2.244   3.003
    1LIG    C16   26   2.310   2.302   3.123
    1LIG    C17   27   2.239   2.240   3.248
    1LIG     O9   28   2.283   2.305   3.371
    1LIG    C18   29   2.226   2.243   3.489
    1LIG    C19   30   2.299   2.291   3.618
    1LIG    O10   31   2.229   2.246   3.737
    1LIG    C20   32   2.295   2.290   3.860
    1LIG    C21   33   2.216   2.240   3.985
    1LIG    O11   34   2.275   2.290   4.109
    1LIG    C22   35   2.212   2.234   4.227
    1LIG    C23   36   2.290   2.278   4.356
    1LIG    O12   37   2.234   2.214   4.474
    1LIG    C24   38   2.292   2.269   4.596
    1LIG    C25   39   2.221   2.208   4.721
    1LIG    O13   40   2.273   2.267   4.844
    1LIG    C26   41   2.218   2.212   4.967
    1LIG    C27   42   2.288   2.276   5.092
    1LIG    O14   43   2.216   2.247   5.214
    1LIG    C28   44   2.292   2.280   5.334
    1LIG    C29   45   2.215   2.236   5.463
    1LIG    O15   46   2.283   2.288   5.581
    1LIG    C30   47   2.228   2.235   5.704
    1LIG    C31   48   2.305   2.286   5.829
    1LIG    O16   49   2.249   2.225   5.949
    1LIG    C32   50   2.297   2.279   6.074
    1LIG    C33   51   2.221   2.212   6.194
    1LIG    O17   52   2.275   2.261   6.320
    1LIG    C34   53   2.195   2.227   6.437
    1LIG    C35   54   2.261   2.290   6.563
    1LIG    O18   55   2.196   2.249   6.685
    1LIG    C36   56   2.263   2.297   6.805
    1LIG    C37   57   2.206   2.225   6.931
    1LIG    O19   58   2.251   2.292   7.051
    1LIG    C38   59   2.207   2.226   7.173
    1LIG    C39   60   2.288   2.278   7.296
    1LIG    O20   61   2.227   2.233   7.419
    1LIG    C40   62   2.295   2.283   7.538
    1LIG    C41   63   2.219   2.234   7.666
    1LIG    O21   64   2.287   2.272   7.787
    1LIG    C42   65   2.214   2.232   7.906
    1LIG    C43   66   2.287   2.282   8.034
    1LIG    O22   67   2.233   2.218   8.153
    1LIG    C44   68   2.285   2.276   8.275
    1LIG    C45   69   2.210   2.220   8.400
    1LIG    O23   70   2.267   2.276   8.522
    1LIG    C46   71   2.213   2.219   8.644
    1LIG    C47   72   2.288   2.280   8.767
    1LIG    O24   73   2.214   2.254   8.891
    1LIG    C48   74   2.294   2.282   9.010
    1LIG    C49   75   2.222   2.230   9.139
    1LIG    O25   76   2.293   2.274   9.259
    1LIG    C50   77   2.232   2.229   9.383
    1LIG    C51   78   2.309   2.280   9.509
    1LIG    O26   79   2.251   2.224   9.631
    1LIG    C52   80   2.294   2.289   9.755
    1LIG    C53   81   2.211   2.236   9.877
    1LIG    O27   82   2.273   2.271  10.005
    1LIG    C54   83   2.206   2.222  10.126
    1LIG    C55   84   2.280   2.275  10.255
    1LIG    O28   85   2.216   2.231  10.380
    1LIG    C56   86   2.275   2.286  10.503
    1LIG    C57   87   2.210   2.217  10.631
    1LIG    O29   88   2.257   2.275  10.758
    1LIG    C58   89   2.193   2.215  10.877
    1LIG    C59   90   2.282   2.221  11.008
    1LIG      H   91   2.314   2.400   0.157
    1LIG     H1   92   2.388   2.241   0.136
    1LIG     H2   93   2.224   2.132   0.279
    1LIG     H3   94   2.115   2.271   0.277
    1LIG     H4   95   2.225   2.127   0.519
    1LIG     H5   96   2.116   2.265   0.529
    1LIG     H6   97   2.288   2.392   0.665
    1LIG     H7   98   2.400   2.254   0.652
    1LIG     H8   99   2.283   2.383   0.903
    1LIG     H9  100   2.394   2.245   0.910
    1LIG    H10  101   2.211   2.108   1.026
    1LIG    H11  102   2.106   2.252   1.024
    1LIG    H12  103   2.217   2.106   1.279
    1LIG    H13  104   2.106   2.246   1.278
    1LIG    H14  105   2.291   2.385   1.393
    1LIG    H15  106   2.387   2.236   1.405
    1LIG    H16  107   2.307   2.381   1.651
    1LIG    H17  108   2.389   2.223   1.641
    1LIG    H18  109   2.210   2.116   1.773
    1LIG    H19  110   2.112   2.264   1.770
    1LIG    H20  111   2.227   2.110   2.015
    1LIG    H21  112   2.119   2.251   2.025
    1LIG    H22  113   2.287   2.382   2.148
    1LIG    H23  114   2.408   2.252   2.132
    1LIG    H24  115   2.280   2.388   2.375
    1LIG    H25  116   2.403   2.261   2.398
    1LIG    H26  117   2.211   2.119   2.508
    1LIG    H27  118   2.116   2.269   2.511
    1LIG    H28  119   2.198   2.138   2.767
    1LIG    H29  120   2.118   2.296   2.751
    1LIG    H30  121   2.290   2.410   2.880
    1LIG    H31  122   2.404   2.274   2.865
    1LIG    H32  123   2.294   2.410   3.123
    1LIG    H33  124   2.418   2.281   3.127
    1LIG    H34  125   2.260   2.132   3.252
    1LIG    H35  126   2.131   2.254   3.237
    1LIG    H36  127   2.234   2.134   3.483
    1LIG    H37  128   2.119   2.270   3.496
    1LIG    H38  129   2.304   2.401   3.619
    1LIG    H39  130   2.401   2.251   3.618
    1LIG    H40  131   2.300   2.399   3.861
    1LIG    H41  132   2.397   2.251   3.863
    1LIG    H42  133   2.218   2.130   3.987
    1LIG    H43  134   2.111   2.272   3.979
    1LIG    H44  135   2.213   2.124   4.220
    1LIG    H45  136   2.108   2.267   4.233
    1LIG    H46  137   2.284   2.387   4.366
    1LIG    H47  138   2.396   2.249   4.346
    1LIG    H48  139   2.279   2.378   4.597
    1LIG    H49  140   2.399   2.246   4.600
    1LIG    H50  141   2.236   2.099   4.724
    1LIG    H51  142   2.113   2.227   4.714
    1LIG    H52  143   2.232   2.103   4.968
    1LIG    H53  144   2.111   2.232   4.971
    1LIG    H54  145   2.295   2.385   5.079
    1LIG    H55  146   2.389   2.236   5.100
    1LIG    H56  147   2.310   2.388   5.337
    1LIG    H57  148   2.389   2.231   5.332
    1LIG    H58  149   2.212   2.127   5.466
    1LIG    H59  150   2.113   2.275   5.460
    1LIG    H60  151   2.234   2.126   5.701
    1LIG    H61  152   2.122   2.264   5.712
    1LIG    H62  153   2.297   2.396   5.836
    1LIG    H63  154   2.411   2.260   5.821
    1LIG    H64  155   2.280   2.387   6.077
    1LIG    H65  156   2.405   2.260   6.083
    1LIG    H66  157   2.232   2.103   6.189
    1LIG    H67  158   2.114   2.235   6.187
    1LIG    H68  159   2.190   2.118   6.448
    1LIG    H69  160   2.093   2.266   6.425
    1LIG    H70  161   2.258   2.400   6.556
    1LIG    H71  162   2.367   2.260   6.567
    1LIG    H72  163   2.247   2.406   6.814
    1LIG    H73  164   2.371   2.279   6.798
    1LIG    H74  165   2.239   2.120   6.931
    1LIG    H75  166   2.096   2.226   6.928
    1LIG    H76  167   2.221   2.117   7.164
    1LIG    H77  168   2.100   2.246   7.188
    1LIG    H78  169   2.291   2.388   7.295
    1LIG    H79  170   2.391   2.240   7.290
    1LIG    H80  171   2.297   2.393   7.537
    1LIG    H81  172   2.398   2.247   7.540
    1LIG    H82  173   2.212   2.125   7.662
    1LIG    H83  174   2.117   2.275   7.666
    1LIG    H84  175   2.207   2.123   7.908
    1LIG    H85  176   2.112   2.273   7.903
    1LIG    H86  177   2.275   2.391   8.042
    1LIG    H87  178   2.394   2.259   8.026
    1LIG    H88  179   2.274   2.385   8.272
    1LIG    H89  180   2.392   2.252   8.283
    1LIG    H90  181   2.219   2.110   8.402
    1LIG    H91  182   2.103   2.246   8.394
    1LIG    H92  183   2.226   2.110   8.643
    1LIG    H93  184   2.106   2.241   8.651
    1LIG    H94  185   2.298   2.388   8.754
    1LIG    H95  186   2.389   2.237   8.773
    1LIG    H96  187   2.310   2.390   9.018
    1LIG    H97  188   2.392   2.235   9.002
    1LIG    H98  189   2.219   2.120   9.137
    1LIG    H99  190   2.119   2.267   9.142
    1LIG   H100  191   2.229   2.119   9.383
    1LIG   H101  192   2.129   2.266   9.388
    1LIG   H102  193   2.303   2.389   9.512
    1LIG   H103  194   2.415   2.251   9.503
    1LIG   H104  195   2.281   2.398   9.746
    1LIG   H105  196   2.400   2.268   9.770
    1LIG   H106  197   2.205   2.127   9.869
    1LIG   H107  198   2.109   2.276   9.873
    1LIG   H108  199   2.207   2.112  10.126
    1LIG   H109  200   2.102   2.256  10.126
    1LIG   H110  201   2.281   2.385  10.253
    1LIG   H111  202   2.384   2.239  10.254
    1LIG   H112  203   2.258   2.394  10.507
    1LIG   H113  204   2.383   2.268  10.503
    1LIG   H114  205   2.234   2.110  10.629
    1LIG   H115  206   2.101   2.228  10.625
    1LIG   H116  207   2.170   2.110  10.856
    1LIG   H117  208   2.097   2.266  10.895
    1LIG   H118  209   2.372   2.282  10.989
    1LIG   H119  210   2.316   2.119  11.031
    2MOL     C1  211   2.938   2.453   5.071
    2MOL     H1  212   3.041   2.419   5.075
    2MOL     O1  213   2.912   2.518   4.944
    2MOL     C2  214   2.777   2.573   4.928
    2MOL     H2  215   2.705   2.492   4.934
    2MOL     C3  216   2.762   2.640   4.788
    2MOL     H3  217   2.656   2.664   4.771
    2MOL     H4  218   2.789   2.567   4.711
    2MOL     O2  219   2.840   2.759   4.771
    2MOL     H5  220   2.778   2.832   4.749
    2MOL     C4  221   2.917   2.555   5.187
    2MOL     H6  222   2.988   2.638   5.171
    2MOL     O3  223   2.940   2.498   5.315
    2MOL     H7  224   2.925   2.400   5.304
    2MOL     C5  225   2.774   2.612   5.183
    2MOL     H8  226   2.704   2.528   5.198
    2MOL     O4  227   2.759   2.708   5.289
    2MOL     H9  228   2.802   2.665   5.365
    2MOL     C6  229   2.747   2.673   5.044
    2MOL    H10  230   2.811   2.762   5.032
    2MOL     O5  231   2.607   2.707   5.040
    2MOL     C7  232   2.575   2.839   4.991
    2MOL    H11  233   2.665   2.890   4.955
    2MOL     O6  234   2.480   2.825   4.881
    2MOL     C8  235   2.351   2.767   4.915
    2MOL    H12  236   2.366   2.667   4.957
    2MOL     C9  237   2.265   2.750   4.786
    2MOL    H13  238   2.184   2.679   4.806
    2MOL    H14  239   2.328   2.706   4.708
    2MOL     O7  240   2.207   2.873   4.738
    2MOL    H15  241   2.130   2.891   4.796
    2MOL    C10  242   2.513   2.920   5.107
    2MOL    H16  243   2.496   3.024   5.073
    2MOL     O8  244   2.599   2.921   5.219
    2MOL    H17  245   2.641   2.830   5.222
    2MOL    C11  246   2.378   2.859   5.147
    2MOL    H18  247   2.399   2.755   5.175
    2MOL     O9  248   2.319   2.928   5.258
    2MOL    H19  249   2.393   2.968   5.309
    2MOL    C12  250   2.288   2.859   5.023
    2MOL    H20  251   2.282   2.961   4.983
    2MOL    O10  252   2.158   2.811   5.063
    2MOL    C13  253   2.050   2.902   5.036
    2MOL    H21  254   2.087   3.002   5.011
    2MOL    O11  255   1.973   2.849   4.926
    2MOL    C14  256   1.913   2.718   4.949
    2MOL    H22  257   1.992   2.646   4.969
    2MOL    C15  258   1.838   2.674   4.820
    2MOL    H23  259   1.839   2.566   4.814
    2MOL    H24  260   1.893   2.713   4.734
    2MOL    O12  261   1.702   2.717   4.815
    2MOL    H25  262   1.653   2.653   4.871
    2MOL    C16  263   1.960   2.915   5.162
    2MOL    H26  264   1.877   2.981   5.137
    2MOL    O13  265   2.034   2.970   5.270
    2MOL    H27  266   2.121   2.923   5.272
    2MOL    C17  267   1.899   2.778   5.199
    2MOL    H28  268   1.980   2.708   5.221
    2MOL    O14  269   1.810   2.789   5.311
    2MOL    H29  270   1.863   2.811   5.391
    2MOL    C18  271   1.821   2.728   5.075
    2MOL    H30  272   1.741   2.800   5.054
    2MOL    O15  273   1.766   2.599   5.108
    2MOL    C19  274   1.623   2.586   5.101
    2MOL    H31  275   1.574   2.685   5.095
    2MOL    O16  276   1.591   2.507   4.983
    2MOL    C20  277   1.648   2.373   4.984
    2MOL    H32  278   1.756   2.380   4.996
    2MOL    C21  279   1.620   2.301   4.848
    2MOL    H33  280   1.696   2.223   4.833
    2MOL    H34  281   1.632   2.374   4.766
    2MOL    O17  282   1.491   2.240   4.843
    2MOL    H35  283   1.510   2.148   4.873
    2MOL    C22  284   1.572   2.516   5.229
    2MOL    H36  285   1.462   2.513   5.226
    2MOL    O18  286   1.614   2.589   5.343
    2MOL    H37  287   1.686   2.649   5.311
    2MOL    C23  288   1.625   2.371   5.239
    2MOL    H38  289   1.735   2.376   5.247
    2MOL    O19  290   1.571   2.303   5.355
    2MOL    H39  291   1.522   2.369   5.408
    2MOL    C24  292   1.592   2.296   5.107
    2MOL    H40  293   1.483   2.289   5.098
    2MOL    O20  294   1.652   2.166   5.114
    2MOL    C25  295   1.563   2.054   5.098
    2MOL    H41  296   1.458   2.084   5.107
    2MOL    O21  297   1.586   1.996   4.967
    2MOL    C26  298   1.721   1.943   4.942
    2MOL    H42  299   1.794   2.025   4.948
    2MOL    C27  300   1.727   1.883   4.800
    2MOL    H43  301   1.829   1.849   4.780
    2MOL    H44  302   1.705   1.961   4.726
    2MOL    O22  303   1.636   1.772   4.784
    2MOL    H45  304   1.670   1.722   4.707
    2MOL    C28  305   1.593   1.950   5.208
    2MOL    H46  306   1.521   1.868   5.200
    2MOL    O23  307   1.581   2.013   5.336
    2MOL    H47  308   1.599   2.108   5.319
    2MOL    C29  309   1.736   1.894   5.193
    2MOL    H48  310   1.805   1.978   5.204
    2MOL    O24  311   1.763   1.796   5.295
    2MOL    H49  312   1.749   1.844   5.379
    2MOL    C30  313   1.756   1.838   5.051
    2MOL    H50  314   1.692   1.749   5.038
    2MOL    O25  315   1.895   1.803   5.039
    2MOL    C31  316   1.925   1.678   4.973
    2MOL    H51  317   1.837   1.638   4.923
    2MOL    O26  318   2.028   1.704   4.874
    2MOL    C32  319   2.153   1.756   4.927
    2MOL    H52  320   2.135   1.850   4.980
    2MOL    C33  321   2.250   1.786   4.810
    2MOL    H53  322   2.335   1.845   4.848
    2MOL    H54  323   2.200   1.850   4.737
    2MOL    O27  324   2.299   1.669   4.745
    2MOL    H55  325   2.397   1.679   4.744
    2MOL    C34  326   1.975   1.575   5.079
    2MOL    H56  327   1.991   1.478   5.030
    2MOL    O28  328   1.876   1.563   5.180
    2MOL    H57  329   1.859   1.656   5.209
    2MOL    C35  330   2.107   1.624   5.142
    2MOL    H58  331   2.088   1.720   5.191
    2MOL    O29  332   2.162   1.530   5.237
    2MOL    H59  333   2.117   1.546   5.326
    2MOL    C36  334   2.207   1.651   5.027
    2MOL    H60  335   2.224   1.557   4.973
    2MOL    O30  336   2.328   1.698   5.089
    2MOL    C37  337   2.435   1.603   5.079
    2MOL    H61  338   2.397   1.501   5.065
    2MOL    O31  339   2.515   1.641   4.966
    2MOL    C38  340   2.581   1.771   4.974
    2MOL    H62  341   2.506   1.851   4.981
    2MOL    C39  342   2.663   1.793   4.846
    2MOL    H63  343   2.743   1.717   4.842
    2MOL    H64  344   2.711   1.891   4.849
    2MOL    O32  345   2.582   1.782   4.728
    2MOL    H65  346   2.648   1.758   4.659
    2MOL    C40  347   2.518   1.605   5.209
    2MOL    H66  348   2.595   1.527   5.203
    2MOL    O33  349   2.433   1.582   5.321
    2MOL    H67  350   2.343   1.571   5.284
    2MOL    C41  351   2.587   1.741   5.226
    2MOL    H68  352   2.507   1.815   5.235
    2MOL    O34  353   2.666   1.741   5.345
    2MOL    H69  354   2.608   1.695   5.410
    2MOL    C42  355   2.670   1.774   5.101
    2MOL    H70  356   2.751   1.700   5.089
    2MOL    O35  357   2.721   1.908   5.119
    2MOL    C43  358   2.864   1.920   5.123
    2MOL    H71  359   2.912   1.822   5.129
    2MOL    O36  360   2.905   1.986   5.001
    2MOL    C44  361   2.854   2.120   4.980
    2MOL    H72  362   2.744   2.119   4.980
    2MOL    C45  363   2.902   2.168   4.841
    2MOL    H73  364   3.008   2.142   4.831
    2MOL    H74  365   2.895   2.278   4.836
    2MOL    O37  366   2.828   2.111   4.732
    2MOL    H75  367   2.875   2.031   4.700
    2MOL    C46  368   2.905   2.005   5.246
    2MOL    H76  369   3.014   2.005   5.252
    2MOL    O38  370   2.850   1.951   5.367
    2MOL    H77  371   2.786   1.881   5.341
    2MOL    C47  372   2.859   2.152   5.233
    2MOL    H78  373   2.750   2.155   5.236
    2MOL    O39  374   2.913   2.226   5.343
    2MOL    H79  375   2.912   2.165   5.418
    2MOL    C48  376   2.904   2.210   5.097
    2MOL    H80  377   3.014   2.213   5.096
    2MOL    O40  378   2.847   2.342   5.087
    3MOL     C1  379   1.569   2.447   6.029
    3MOL     H1  380   1.463   2.418   6.027
    3MOL     O1  381   1.600   2.508   6.157
    3MOL     C2  382   1.736   2.553   6.173
    3MOL     H2  383   1.804   2.468   6.160
    3MOL     C3  384   1.756   2.609   6.317
    3MOL     H3  385   1.861   2.636   6.331
    3MOL     H4  386   1.732   2.530   6.389
    3MOL     O2  387   1.674   2.724   6.340
    3MOL     H5  388   1.729   2.788   6.392
    3MOL     C4  389   1.597   2.548   5.914
    3MOL     H6  390   1.530   2.633   5.927
    3MOL     O3  391   1.576   2.487   5.787
    3MOL     H7  392   1.604   2.393   5.799
    3MOL     C5  393   1.743   2.598   5.922
    3MOL     H8  394   1.809   2.512   5.911
    3MOL     O4  395   1.772   2.695   5.820
    3MOL     H9  396   1.721   2.672   5.740
    3MOL     C6  397   1.766   2.658   6.062
    3MOL    H10  398   1.699   2.744   6.076
    3MOL     O5  399   1.905   2.699   6.066
    3MOL     C7  400   1.932   2.833   6.113
    3MOL    H11  401   1.842   2.877   6.159
    3MOL     O6  402   2.034   2.821   6.214
    3MOL     C8  403   2.161   2.769   6.166
    3MOL    H12  404   2.145   2.674   6.113
    3MOL     C9  405   2.253   2.738   6.286
    3MOL    H13  406   2.323   2.658   6.259
    3MOL    H14  407   2.188   2.698   6.365
    3MOL     O7  408   2.326   2.851   6.333
    3MOL    H15  409   2.403   2.861   6.272
    3MOL    C10  410   1.981   2.924   5.997
    3MOL    H16  411   1.995   3.026   6.036
    3MOL     O8  412   1.884   2.929   5.892
    3MOL    H17  413   1.864   2.834   5.870
    3MOL    C11  414   2.119   2.877   5.943
    3MOL    H18  415   2.108   2.775   5.902
    3MOL     O9  416   2.172   2.965   5.842
    3MOL    H19  417   2.105   2.970   5.770
    3MOL    C12  418   2.216   2.869   6.064
    3MOL    H20  419   2.223   2.968   6.111
    3MOL    O10  420   2.343   2.825   6.016
    3MOL    C13  421   2.455   2.911   6.044
    3MOL    H21  422   2.422   3.013   6.071
    3MOL    O11  423   2.531   2.852   6.153
    3MOL    C14  424   2.581   2.718   6.126
    3MOL    H22  425   2.497   2.651   6.104
    3MOL    C15  426   2.652   2.661   6.253
    3MOL    H23  427   2.649   2.552   6.247
    3MOL    H24  428   2.596   2.692   6.342
    3MOL    O12  429   2.789   2.701   6.263
    3MOL    H25  430   2.838   2.632   6.212
    3MOL    C16  431   2.540   2.920   5.916
    3MOL    H26  432   2.624   2.989   5.934
    3MOL    O13  433   2.458   2.969   5.812
    3MOL    H27  434   2.365   2.947   5.839
    3MOL    C17  435   2.597   2.781   5.879
    3MOL    H28  436   2.512   2.713   5.860
    3MOL    O14  437   2.681   2.788   5.763
    3MOL    H29  438   2.642   2.858   5.705
    3MOL    C18  439   2.674   2.726   6.002
    3MOL    H30  440   2.756   2.796   6.024
    3MOL    O15  441   2.724   2.595   5.970
    3MOL    C19  442   2.866   2.578   5.988
    3MOL    H31  443   2.917   2.675   5.995
    3MOL    O16  444   2.887   2.501   6.109
    3MOL    C20  445   2.827   2.369   6.109
    3MOL    H32  446   2.720   2.377   6.086
    3MOL    C21  447   2.836   2.303   6.251
    3MOL    H33  448   2.749   2.238   6.265
    3MOL    H34  449   2.829   2.382   6.327
    3MOL    O17  450   2.954   2.225   6.274
    3MOL    H35  451   2.950   2.150   6.211
    3MOL    C22  452   2.922   2.503   5.865
    3MOL    H36  453   3.032   2.500   5.873
    3MOL    O18  454   2.884   2.571   5.746
    3MOL    H37  455   2.814   2.635   5.773
    3MOL    C23  456   2.870   2.358   5.859
    3MOL    H38  457   2.761   2.363   5.845
    3MOL    O19  458   2.930   2.288   5.749
    3MOL    H39  459   2.934   2.354   5.676
    3MOL    C24  460   2.897   2.289   5.995
    3MOL    H40  461   3.005   2.286   6.014
    3MOL    O20  462   2.841   2.158   5.988
    3MOL    C25  463   2.933   2.048   6.003
    3MOL    H41  464   3.038   2.081   5.994
    3MOL    O21  465   2.910   1.990   6.134
    3MOL    C26  466   2.774   1.942   6.159
    3MOL    H42  467   2.704   2.026   6.156
    3MOL    C27  468   2.770   1.880   6.301
    3MOL    H43  469   2.667   1.849   6.323
    3MOL    H44  470   2.797   1.957   6.374
    3MOL    O22  471   2.859   1.768   6.311
    3MOL    H45  472   2.846   1.726   6.398
    3MOL    C28  473   2.902   1.945   5.893
    3MOL    H46  474   2.969   1.858   5.907
    3MOL    O23  475   2.924   2.002   5.765
    3MOL    H47  476   2.912   2.099   5.777
    3MOL    C29  477   2.755   1.899   5.905
    3MOL    H48  478   2.691   1.988   5.896
    3MOL    O24  479   2.721   1.805   5.801
    3MOL    H49  480   2.785   1.823   5.729
    3MOL    C30  481   2.735   1.841   6.048
    3MOL    H50  482   2.799   1.752   6.057
    3MOL    O25  483   2.596   1.807   6.062
    3MOL    C31  484   2.569   1.680   6.126
    3MOL    H51  485   2.659   1.641   6.176
    3MOL    O26  486   2.467   1.700   6.226
    3MOL    C32  487   2.341   1.751   6.176
    3MOL    H52  488   2.358   1.847   6.124
    3MOL    C33  489   2.245   1.778   6.295
    3MOL    H53  490   2.166   1.846   6.262
    3MOL    H54  491   2.301   1.829   6.375
    3MOL    O27  492   2.187   1.657   6.345
    3MOL    H55  493   2.093   1.658   6.316
    3MOL    C34  494   2.522   1.580   6.018
    3MOL    H56  495   2.511   1.481   6.065
    3MOL    O28  496   2.621   1.574   5.918
    3MOL    H57  497   2.634   1.668   5.886
    3MOL    C35  498   2.386   1.623   5.958
    3MOL    H58  499   2.401   1.719   5.908
    3MOL    O29  500   2.335   1.525   5.865
    3MOL    H59  501   2.413   1.483   5.820
    3MOL    C36  502   2.286   1.647   6.075
    3MOL    H60  503   2.270   1.553   6.128
    3MOL    O30  504   2.164   1.696   6.018
    3MOL    C37  505   2.055   1.602   6.024
    3MOL    H61  506   2.091   1.499   6.038
    3MOL    O31  507   1.970   1.638   6.136
    3MOL    C38  508   1.905   1.768   6.127
    3MOL    H62  509   1.981   1.848   6.116
    3MOL    C39  510   1.825   1.796   6.256
    3MOL    H63  511   1.747   1.719   6.268
    3MOL    H64  512   1.773   1.893   6.247
    3MOL    O32  513   1.909   1.798   6.372
    3MOL    H65  514   1.901   1.706   6.409
    3MOL    C40  515   1.977   1.607   5.891
    3MOL    H66  516   1.904   1.525   5.891
    3MOL    O33  517   2.068   1.591   5.781
    3MOL    H67  518   2.155   1.568   5.823
    3MOL    C41  519   1.899   1.739   5.876
    3MOL    H68  520   1.973   1.820   5.868
    3MOL    O34  521   1.819   1.737   5.757
    3MOL    H69  522   1.875   1.688   5.692
    3MOL    C42  523   1.815   1.768   6.002
    3MOL    H70  524   1.737   1.693   6.013
    3MOL    O35  525   1.761   1.901   5.987
    3MOL    C43  526   1.619   1.913   5.983
    3MOL    H71  527   1.571   1.815   5.976
    3MOL    O36  528   1.576   1.981   6.104
    3MOL    C44  529   1.633   2.114   6.125
    3MOL    H72  530   1.742   2.109   6.128
    3MOL    C45  531   1.581   2.170   6.261
    3MOL    H73  532   1.472   2.164   6.261
    3MOL    H74  533   1.608   2.276   6.270
    3MOL    O37  534   1.633   2.098   6.375
    3MOL    H75  535   1.577   2.127   6.450
    3MOL    C46  536   1.580   1.998   5.860
    3MOL    H76  537   1.471   2.004   5.859
    3MOL    O38  538   1.626   1.939   5.738
    3MOL    H77  539   1.699   1.877   5.762
    3MOL    C47  540   1.634   2.141   5.870
    3MOL    H78  541   1.744   2.136   5.869
    3MOL    O39  542   1.587   2.216   5.758
    3MOL    H79  543   1.567   2.146   5.691
    3MOL    C48  544   1.590   2.204   6.004
    3MOL    H80  545   1.481   2.214   6.004
    3MOL    O40  546   1.655   2.332   6.013
    4SOL     OW  547   0.240   0.597   0.110
    4SOL    HW1  548   0.165   0.587   0.168
    4SOL    HW2  549   0.205   0.639   0.032
    5SOL     OW  550   0.192   0.294   0.989
    5SOL    HW1  551   0.225   0.266   1.074
    5SOL    HW2  552   0.129   0.226   0.964
    6SOL     OW  553   4.500   0.387   0.638
    6SOL    HW1  554   4.426   0.426   0.685
    6SOL    HW2  555   4.461   0.314   0.589
    7SOL     OW  556   0.568   1.292   1.179
    7SOL    HW1  557   0.481   1.298   1.139
    7SOL    HW2  558   0.584   1.380   1.214
    8SOL     OW  559   1.565   1.513   0.708
    8SOL    HW1  560   1.522   1.491   0.791
    8SOL    HW2  561   1.493   1.516   0.644
    9SOL     OW  562   1.138   0.698   0.695
    9SOL    HW1  563   1.183   0.782   0.687
    9SOL    HW2  564   1.086   0.705   0.775
   10SOL     OW  565   1.780   0.600   0.212
   10SOL    HW1  566   1.718   0.614   0.140
   10SOL    HW2  567   1.742   0.530   0.264
   11SOL     OW  568   0.750   1.139   1.043
   11SOL    HW1  569   0.683   1.176   1.101
   11SOL    HW2  570   0.788   1.216   0.999
   12SOL     OW  571   0.868   0.768   1.821
   12SOL    HW1  572   0.854   0.837   1.885
   12SOL    HW2  573   0.892   0.813   1.740
   13SOL     OW  574   0.685   1.000   0.646
   13SOL    HW1  575   0.751   0.989   0.714
   13SOL    HW2  576   0.616   1.053   0.688
   14SOL     OW  577   0.713   1.149   1.816
   14SOL    HW1  578   0.760   1.227   1.844
   14SOL    HW2  579   0.632   1.182   1.777
   15SOL     OW  580   0.334   1.419   1.068
   15SOL    HW1  581   0.253   1.399   1.021
   15SOL    HW2  582   0.384   1.473   1.007
   16SOL     OW  583   1.460   1.501   1.357
   16SOL    HW1  584   1.514   1.580   1.366
   16SOL    HW2  585   1.395   1.509   1.427
   17SOL     OW  586   0.442   0.393   1.484
   17SOL    HW1  587   0.531   0.359   1.484
   17SOL    HW2  588   0.388   0.321   1.517
   18SOL     OW  589   1.608   0.444   0.739
   18SOL    HW1  590   1.526   0.460   0.693
   18SOL    HW2  591   1.621   0.522   0.793
   19SOL     OW  592   0.245   1.691   0.481
   19SOL    HW1  593   0.231   1.778   0.519
   19SOL    HW2  594   0.311   1.705   0.413
   20SOL     OW  595   1.137   1.342   1.694
   20SOL    HW1  596   1.178   1.336   1.780
   20SOL    HW2  597   1.085   1.262   1.686
   21SOL     OW  598   0.246   1.426   0.527
   21SOL    HW1  599   0.240   1.522   0.526
   21SOL    HW2  600   0.183   1.399   0.594
   22SOL     OW  601   0.250   1.083   0.884
   22SOL    HW1  602   0.266   0.992   0.909
   22SOL    HW2  603   0.189   1.115   0.951
   23SOL     OW  604   0.610   1.791   1.430
   23SOL    HW1  605   0.527   1.774   1.474
   23SOL    HW2  606   0.631   1.881   1.454
   24SOL     OW  607   0.566   0.997   0.154
   24SOL    HW1  608   0.617   1.031   0.081
   24SOL    HW2  609   0.614   1.025   0.232
   25SOL     OW  610   1.578   0.118   1.467
   25SOL    HW1  611   1.610   0.186   1.408
   25SOL    HW2  612   1.568   0.162   1.551
   26SOL     OW  613   0.135   0.646   0.572
   26SOL    HW1  614   0.086   0.567   0.596
   26SOL    HW2  615   0.111   0.710   0.639
   27SOL     OW  616   1.843   1.760   0.328
   27SOL    HW1  617   1.908   1.730   0.392
   27SOL    HW2  618   1.866   1.851   0.310
   28SOL     OW  619   0.075   1.588   0.150
   28SOL    HW1  620   0.043   1.499   0.162
   28SOL    HW2  621   0.041   1.636   0.225
   29SOL     OW  622   1.690   0.919   0.643
   29SOL    HW1  623   1.772   0.877   0.620
   29SOL    HW2  624   1.667   0.972   0.567
   30SOL     OW  625   1.648   1.103   0.432
   30SOL    HW1  626   1.730   1.113   0.384
   30SOL    HW2  627   1.653   1.167   0.503
   31SOL     OW  628   0.102   0.768   1.572
   31SOL    HW1  629   0.190   0.758   1.536
   31SOL    HW2  630   0.098   0.859   1.602
   32SOL     OW  631   0.615   1.389   0.736
   32SOL    HW1  632   0.569   1.305   0.746
   32SOL    HW2  633   0.598   1.415   0.646
   33SOL     OW  634   1.287   1.237   1.422
   33SOL    HW1  635   1.319   1.169   1.362
   33SOL    HW2  636   1.346   1.232   1.498
   34SOL     OW  637   0.825   0.012   0.556
   34SOL    HW1  638   0.863   0.090   0.516
   34SOL    HW2  639   0.731   0.023   0.544
   35SOL     OW  640   0.177   0.940   1.279
   35SOL    HW1  641   0.269   0.920   1.259
   35SOL    HW2  642   0.132   0.932   1.194
   36SOL     OW  643   1.513   1.005   0.206
   36SOL    HW1  644   1.448   0.945   0.243
   36SOL    HW2  645   1.564   1.034   0.281
   37SOL     OW  646   1.185   1.809   1.624
   37SOL    HW1  647   1.194   1.869   1.549
   37SOL    HW2  648   1.202   1.722   1.587
   38SOL     OW  649   0.317   0.260   1.766
   38SOL    HW1  650   0.385   0.310   1.812
   38SOL    HW2  651   0.240   0.268   1.821
   39SOL     OW  652   1.467   1.419   0.949
   39SOL    HW1  653   1.399   1.435   1.015
   39SOL    HW2  654   1.453   1.328   0.923
   40SOL     OW  655   1.658   1.744   0.578
   40SOL    HW1  656   1.637   1.714   0.489
   40SOL    HW2  657   1.634   1.671   0.635
   41SOL     OW  658   0.593   0.717   0.264
   41SOL    HW1  659   0.596   0.801   0.218
   41SOL    HW2  660   0.531   0.730   0.335
   42SOL     OW  661   1.290   0.368   0.933
   42SOL    HW1  662   1.200   0.338   0.921
   42SOL    HW2  663   1.329   0.305   0.994
   43SOL     OW  664   1.581   1.671   0.313
   43SOL    HW1  665   1.672   1.700   0.305
   43SOL    HW2  666   1.553   1.653   0.223
   44SOL     OW  667   0.798   0.618   1.453
   44SOL    HW1  668   0.769   0.591   1.541
   44SOL    HW2  669   0.757   0.554   1.394
   45SOL     OW  670   1.388   0.481   1.676
   45SOL    HW1  671   1.392   0.525   1.761
   45SOL    HW2  672   1.455   0.412   1.681
   46SOL     OW  673   0.952   0.887   1.584
   46SOL    HW1  674   1.007   0.817   1.547
   46SOL    HW2  675   0.905   0.923   1.509
   47SOL     OW  676   0.999   0.418   1.233
   47SOL    HW1  677   0.910   0.423   1.268
   47SOL    HW2  678   0.989   0.366   1.153
   48SOL     OW  679   1.051   0.702   0.427
   48SOL    HW1  680   1.070   0.693   0.520
   48SOL    HW2  681   0.968   0.656   0.415
   49SOL     OW  682   0.097   0.823   0.784
   49SOL    HW1  683   0.182   0.816   0.828
   49SOL    HW2  684   0.035   0.842   0.855
   50SOL     OW  685   0.120   1.864   1.579
   50SOL    HW1  686   0.115   1.838   1.671
   50SOL    HW2  687   0.046   1.819   1.538
   51SOL     OW  688   0.879   0.362   0.207
   51SOL    HW1  689   0.928   0.417   0.145
   51SOL    HW2  690   0.905   0.273   0.185
   52SOL     OW  691   1.702   0.571   1.829
   52SOL    HW1  692   1.667   0.646   1.780
   52SOL    HW2  693   1.738   0.513   1.762
   53SOL     OW  694   1.379   1.142   0.540
   53SOL    HW1  695   1.457   1.130   0.486
   53SOL    HW2  696   1.326   1.204   0.492
   54SOL     OW  697   0.538   0.208   0.899
   54SOL    HW1  698   0.560   0.225   0.990
   54SOL    HW2  699   0.537   0.294   0.858
   55SOL     OW  700   1.001   1.443   0.472
   55SOL    HW1  701   0.968   1.517   0.422
   55SOL    HW2  702   0.980   1.463   0.563
   56SOL     OW  703   0.357   1.814   0.862
   56SOL    HW1  704   0.398   1.728   0.871
   56SOL    HW2  705   0.427   1.876   0.878
   57SOL     OW  706   1.800   1.054   0.869
   57SOL    HW1  707   1.746   1.035   0.792
   57SOL    HW2  708   1.738   1.061   0.941
   58SOL     OW  709   1.227   1.539   1.513
   58SOL    HW1  710   1.215   1.466   1.574
   58SOL    HW2  711   1.162   1.525   1.445
   59SOL     OW  712   0.309   0.954   0.282
   59SOL    HW1  713   0.392   0.982   0.241
   59SOL    HW2  714   0.312   0.858   0.278
   60SOL     OW  715   1.482   0.743   0.721
   60SOL    HW1  716   1.473   0.703   0.808
   60SOL    HW2  717   1.558   0.801   0.729
   61SOL     OW  718   0.470   1.264   1.735
   61SOL    HW1  719   0.443   1.271   1.643
   61SOL    HW2  720   0.387   1.266   1.784
   62SOL     OW  721   1.108   1.780   0.226
   62SOL    HW1  722   1.046   1.730   0.279
   62SOL    HW2  723   1.150   1.715   0.171
   63SOL     OW  724   0.159   0.267   1.512
   63SOL    HW1  725   0.134   0.353   1.481
   63SOL    HW2  726   0.196   0.282   1.599
   64SOL     OW  727   1.628   1.374   0.090
   64SOL    HW1  728   1.585   1.458   0.078
   64SOL    HW2  729   1.563   1.310   0.060
   65SOL     OW  730   0.468   1.740   0.319
   65SOL    HW1  731   0.509   1.799   0.383
   65SOL    HW2  732   0.540   1.710   0.264
   66SOL     OW  733   1.424   0.144   0.425
   66SOL    HW1  734   1.405   0.106   0.339
   66SOL    HW2  735   1.519   0.137   0.434
   67SOL     OW  736   0.253   1.786   1.230
   67SOL    HW1  737   0.301   1.711   1.264
   67SOL    HW2  738   0.221   1.758   1.145
   68SOL     OW  739   0.938   1.700   0.897
   68SOL    HW1  740   1.016   1.649   0.920
   68SOL    HW2  741   0.896   1.649   0.828
   69SOL     OW  742   0.393   0.691   0.467
   69SOL    HW1  743   0.419   0.601   0.483
   69SOL    HW2  744   0.303   0.696   0.498
   70SOL     OW  745   1.524   0.233   1.723
   70SOL    HW1  746   1.524   0.255   1.816
   70SOL    HW2  747   1.444   0.181   1.710
   71SOL     OW  748   0.602   0.102   0.127
   71SOL    HW1  749   0.695   0.082   0.124
   71SOL    HW2  750   0.568   0.069   0.044
   72SOL     OW  751   0.768   0.271   1.755
   72SOL    HW1  752   0.837   0.204   1.756
   72SOL    HW2  753   0.732   0.269   1.844
   73SOL     OW  754   0.876   1.523   1.194
   73SOL    HW1  755   0.860   1.486   1.107
   73SOL    HW2  756   0.946   1.468   1.230
   74SOL     OW  757   1.340   0.590   1.428
   74SOL    HW1  758   1.368   0.562   1.515
   74SOL    HW2  759   1.375   0.679   1.419
   75SOL     OW  760   0.817   1.392   0.943
   75SOL    HW1  761   0.901   1.380   0.899
   75SOL    HW2  762   0.753   1.396   0.872
   76SOL     OW  763   0.926   0.520   0.898
   76SOL    HW1  764   0.907   0.521   0.804
   76SOL    HW2  765   0.961   0.433   0.915
   77SOL     OW  766   0.565   0.070   0.514
   77SOL    HW1  767   0.478   0.056   0.551
   77SOL    HW2  768   0.552   0.137   0.446
   78SOL     OW  769   1.424   1.197   0.028
   78SOL    HW1  770   1.453   1.125   0.084
   78SOL    HW2  771   1.341   1.226   0.066
   79SOL     OW  772   0.300   0.051   0.191
   79SOL    HW1  773   0.383   0.084   0.155
   79SOL    HW2  774   0.325   4.496   0.265
   80SOL     OW  775   0.956   0.227   0.446
   80SOL    HW1  776   0.909   0.288   0.390
   80SOL    HW2  777   1.045   0.261   0.450
   81SOL     OW  778   1.081   0.683   1.459
   81SOL    HW1  779   1.011   0.617   1.458
   81SOL    HW2  780   1.162   0.633   1.448
   82SOL     OW  781   1.222   1.571   0.795
   82SOL    HW1  782   1.237   1.636   0.726
   82SOL    HW2  783   1.290   1.587   0.859
   83SOL     OW  784   0.470   1.152   0.737
   83SOL    HW1  785   0.401   1.132   0.800
   83SOL    HW2  786   0.429   1.141   0.651
   84SOL     OW  787   1.267   1.793   0.608
   84SOL    HW1  788   1.314   1.855   0.553
   84SOL    HW2  789   1.200   1.846   0.652
   85SOL     OW  790   1.020   0.528   0.040
   85SOL    HW1  791   0.982   0.613   0.020
   85SOL    HW2  792   1.093   0.547   0.099
   86SOL     OW  793   0.093   0.511   1.412
   86SOL    HW1  794   0.149   0.517   1.335
   86SOL    HW2  795   0.056   0.599   1.423
   87SOL     OW  796   0.559   0.247   1.167
   87SOL    HW1  797   0.589   0.165   1.207
   87SOL    HW2  798   0.464   0.248   1.183
   88SOL     OW  799   0.859   0.513   0.631
   88SOL    HW1  800   0.826   0.543   0.547
   88SOL    HW2  801   0.822   0.425   0.642
   89SOL     OW  802   0.950   0.023   0.796
   89SOL    HW1  803   0.907   0.022   0.711
   89SOL    HW2  804   0.977   4.432   0.810
   90SOL     OW  805   1.438   1.161   0.857
   90SOL    HW1  806   1.368   1.096   0.856
   90SOL    HW2  807   1.462   1.171   0.765
   91SOL     OW  808   1.464   0.607   0.970
   91SOL    HW1  809   1.409   0.529   0.971
   91SOL    HW2  810   1.521   0.598   1.047
   92SOL     OW  811   1.850   0.811   0.377
   92SOL    HW1  812   1.902   0.761   0.440
   92SOL    HW2  813   1.822   0.746   0.313
   93SOL     OW  814   0.495   1.423   0.173
   93SOL    HW1  815   0.416   1.398   0.221
   93SOL    HW2  816   0.492   1.372   0.093
   94SOL     OW  817   1.673   1.264   0.645
   94SOL    HW1  818   1.767   1.267   0.658
   94SOL    HW2  819   1.643   1.353   0.666
   95SOL     OW  820   1.392   0.571   0.079
   95SOL    HW1  821   1.328   0.556   0.148
   95SOL    HW2  822   1.452   0.497   0.085
   96SOL     OW  823   0.522   0.262   0.325
   96SOL    HW1  824   0.556   0.203   0.259
   96SOL    HW2  825   0.507   0.345   0.279
   97SOL     OW  826   1.752   1.241   1.570
   97SOL    HW1  827   1.839   1.202   1.563
   97SOL    HW2  828   1.767   1.331   1.596
   98SOL     OW  829   1.057   1.354   1.333
   98SOL    HW1  830   0.982   1.323   1.383
   98SOL    HW2  831   1.132   1.312   1.374
   99SOL     OW  832   1.610   1.625   1.655
   99SOL    HW1  833   1.602   1.662   1.567
   99SOL    HW2  834   1.693   1.578   1.655
  100SOL     OW  835   1.132   1.206   1.104
  100SOL    HW1  836   1.072   1.244   1.168
  100SOL    HW2  837   1.101   1.239   1.020
  101SOL     OW  838   1.626   1.097   1.076
  101SOL    HW1  839   1.621   1.160   1.148
  101SOL    HW2  840   1.549   1.115   1.023
  102SOL     OW  841   0.898   0.137   1.384
  102SOL    HW1  842   0.921   0.090   1.304
  102SOL    HW2  843   0.982   0.155   1.426
  103SOL     OW  844   0.984   1.115   1.724
  103SOL    HW1  845   0.893   1.131   1.747
  103SOL    HW2  846   0.981   1.037   1.668
  104SOL     OW  847   0.711   1.059   0.375
  104SOL    HW1  848   0.699   1.042   0.469
  104SOL    HW2  849   0.786   1.005   0.350
  105SOL     OW  850   0.431   0.829   1.245
  105SOL    HW1  851   0.500   0.840   1.310
  105SOL    HW2  852   0.374   0.760   1.280
  106SOL     OW  853   1.269   0.374   1.275
  106SOL    HW1  854   1.301   0.453   1.319
  106SOL    HW2  855   1.179   0.396   1.249
  107SOL     OW  856   0.064   1.576   1.348
  107SOL    HW1  857   0.039   1.665   1.325
  107SOL    HW2  858   0.160   1.577   1.350
  108SOL     OW  859   0.339   1.123   0.500
  108SOL    HW1  860   0.345   1.197   0.440
  108SOL    HW2  861   0.333   1.047   0.442
  109SOL     OW  862   0.563   0.520   0.850
  109SOL    HW1  863   0.573   0.582   0.778
  109SOL    HW2  864   0.624   0.550   0.917
  110SOL     OW  865   1.246   1.346   0.397
  110SOL    HW1  866   1.302   1.419   0.425
  110SOL    HW2  867   1.159   1.370   0.428
  111SOL     OW  868   1.285   1.459   1.148
  111SOL    HW1  869   1.341   1.463   1.225
  111SOL    HW2  870   1.229   1.382   1.162
  112SOL     OW  871   1.583   0.627   0.477
  112SOL    HW1  872   1.532   0.664   0.549
  112SOL    HW2  873   1.614   0.703   0.429
  113SOL     OW  874   0.346   1.533   1.312
  113SOL    HW1  875   0.333   1.485   1.230
  113SOL    HW2  876   0.441   1.543   1.320
  114SOL     OW  877   0.492   0.756   1.676
  114SOL    HW1  878   0.519   0.795   1.592
  114SOL    HW2  879   0.550   0.680   1.686
  115SOL     OW  880   1.604   0.779   1.683
  115SOL    HW1  881   1.519   0.822   1.677
  115SOL    HW2  882   1.657   0.821   1.615
  116SOL     OW  883   0.999   0.088   1.714
  116SOL    HW1  884   1.041   0.166   1.678
  116SOL    HW2  885   1.023   0.018   1.653
  117SOL     OW  886   0.495   0.042   1.753
  117SOL    HW1  887   0.482   4.496   1.671
  117SOL    HW2  888   0.430   0.112   1.752
  118SOL     OW  889   0.590   0.875   1.024
  118SOL    HW1  890   0.623   0.965   1.027
  118SOL    HW2  891   0.535   0.868   1.102
  119SOL     OW  892   1.354   0.858   1.026
  119SOL    HW1  893   1.268   0.846   0.984
  119SOL    HW2  894   1.397   0.773   1.017
  120SOL     OW  895   1.196   0.532   0.263
  120SOL    HW1  896   1.205   0.454   0.318
  120SOL    HW2  897   1.154   0.597   0.320
  121SOL     OW  898   0.283   0.212   1.234
  121SOL    HW1  899   0.242   0.231   1.318
  121SOL    HW2  900   0.329   0.129   1.247
  122SOL     OW  901   0.028   1.313   1.287
  122SOL    HW1  902   0.070   1.264   1.359
  122SOL    HW2  903   0.038   1.405   1.312
  123SOL     OW  904   0.722   0.629   1.053
  123SOL    HW1  905   0.798   0.611   0.999
  123SOL    HW2  906   0.696   0.718   1.030
  124SOL     OW  907   1.737   0.959   1.855
  124SOL    HW1  908   1.691   0.895   1.800
  124SOL    HW2  909   1.677   0.975   1.928
  125SOL     OW  910   0.319   0.071   0.627
  125SOL    HW1  911   0.302   0.161   0.657
  125SOL    HW2  912   0.309   0.017   0.705
  126SOL     OW  913   1.624   0.383   0.356
  126SOL    HW1  914   1.647   0.315   0.420
  126SOL    HW2  915   1.597   0.458   0.409
  127SOL     OW  916   1.031   0.763   0.960
  127SOL    HW1  917   1.024   0.778   1.054
  127SOL    HW2  918   1.001   0.672   0.948
  128SOL     OW  919   0.982   1.567   1.719
  128SOL    HW1  920   0.967   1.610   1.635
  128SOL    HW2  921   1.025   1.484   1.696
  129SOL     OW  922   1.855   1.501   1.604
  129SOL    HW1  923   1.870   1.533   1.515
  129SOL    HW2  924   1.936   1.523   1.651
  130SOL     OW  925   0.347   0.935   1.817
  130SOL    HW1  926   0.417   0.967   1.874
  130SOL    HW2  927   0.388   0.867   1.764
  131SOL     OW  928   1.526   0.299   0.106
  131SOL    HW1  929   1.473   0.223   0.126
  131SOL    HW2  930   1.567   0.323   0.190
  132SOL     OW  931   1.285   0.819   0.032
  132SOL    HW1  932   1.329   0.734   0.041
  132SOL    HW2  933   1.321   0.856  11.051
  133SOL     OW  934   1.067   1.336   0.855
  133SOL    HW1  935   1.071   1.265   0.792
  133SOL    HW2  936   1.127   1.402   0.820
  134SOL     OW  937   0.320   0.813   0.944
  134SOL    HW1  938   0.414   0.831   0.944
  134SOL    HW2  939   0.313   0.722   0.971
  135SOL     OW  940   0.331   0.532   0.985
  135SOL    HW1  941   0.287   0.449   0.968
  135SOL    HW2  942   0.410   0.529   0.931
  136SOL     OW  943   1.137   0.371   1.701
  136SOL    HW1  944   1.085   0.434   1.750
  136SOL    HW2  945   1.221   0.415   1.687
  137SOL     OW  946   1.152   0.215   1.474
  137SOL    HW1  947   1.149   0.279   1.545
  137SOL    HW2  948   1.197   0.261   1.402
  138SOL     OW  949   4.499   1.324   0.206
  138SOL    HW1  950   4.405   1.343   0.197
  138SOL    HW2  951   0.001   1.232   0.232
  139SOL     OW  952   0.100   1.770   0.940
  139SOL    HW1  953   0.060   1.726   0.865
  139SOL    HW2  954   0.188   1.794   0.910
  140SOL     OW  955   0.494   1.574   0.907
  140SOL    HW1  956   0.562   1.637   0.931
  140SOL    HW2  957   0.538   1.513   0.849
  141SOL     OW  958   0.980   0.792   1.225
  141SOL    HW1  959   1.037   0.771   1.299
  141SOL    HW2  960   0.896   0.751   1.248
  142SOL     OW  961   0.031   0.565   1.106
  142SOL    HW1  962   0.112   0.530   1.068
  142SOL    HW2  963   0.005   0.501   1.172
  143SOL     OW  964   0.179   0.531   1.715
  143SOL    HW1  965   0.267   0.514   1.684
  143SOL    HW2  966   0.151   0.609   1.668
  144SOL     OW  967   1.379   0.936   1.657
  144SOL    HW1  968   1.400   1.030   1.655
  144SOL    HW2  969   1.375   0.910   1.566
  145SOL     OW  970   0.812   0.578   0.363
  145SOL    HW1  971   0.821   0.502   0.306
  145SOL    HW2  972   0.738   0.627   0.327
  146SOL     OW  973   1.638   0.601   1.183
  146SOL    HW1  974   1.629   0.543   1.258
  146SOL    HW2  975   1.726   0.583   1.149
  147SOL     OW  976   0.273   1.562   1.739
  147SOL    HW1  977   0.214   1.613   1.795
  147SOL    HW2  978   0.256   1.471   1.763
  148SOL     OW  979   0.694   0.463   1.264
  148SOL    HW1  980   0.650   0.384   1.231
  148SOL    HW2  981   0.696   0.522   1.189
  149SOL     OW  982   0.925   1.679   1.469
  149SOL    HW1  983   0.900   1.642   1.385
  149SOL    HW2  984   0.919   1.774   1.456
  150SOL     OW  985   0.475   0.482   0.175
  150SOL    HW1  986   0.531   0.555   0.200
  150SOL    HW2  987   0.391   0.522   0.154
  151SOL     OW  988   0.161   1.141   1.459
  151SOL    HW1  989   0.144   1.097   1.542
  151SOL    HW2  990   0.168   1.070   1.395
  152SOL     OW  991   1.323   1.045   1.221
  152SOL    HW1  992   1.346   0.981   1.153
  152SOL    HW2  993   1.255   1.099   1.182
  153SOL     OW  994   1.309   0.851   0.310
  153SOL    HW1  995   1.234   0.820   0.360
  153SOL    HW2  996   1.286   0.836   0.219
  154SOL     OW  997   1.765   1.740   1.147
  154SOL    HW1  998   1.828   1.769   1.082
  154SOL    HW2  999   1.748   1.648   1.125
  155SOL     OW 1000   1.240   1.733   1.108
  155SOL    HW1 1001   1.323   1.756   1.066
  155SOL    HW2 1002   1.248   1.640   1.128
  156SOL     OW 1003   0.068   1.184   1.051
  156SOL    HW1 1004   0.058   1.215   1.141
  156SOL    HW2 1005   0.035   1.257   0.997
  157SOL     OW 1006   0.679   1.668   1.734
  157SOL    HW1 1007   0.621   1.743   1.725
  157SOL    HW2 1008   0.745   1.681   1.666
  158SOL     OW 1009   0.877   0.067   0.125
  158SOL    HW1 1010   0.964   0.095   0.096
  158SOL    HW2 1011   0.894   0.007   0.198
  159SOL     OW 1012   1.720   0.134   0.490
  159SOL    HW1 1013   1.790   0.144   0.426
  159SOL    HW2 1014   1.746   0.059   0.544
  160SOL     OW 1015   1.391   1.568   0.488
  160SOL    HW1 1016   1.451   1.600   0.421
  160SOL    HW2 1017   1.342   1.645   0.517
  161SOL     OW 1018   0.116   1.808   1.849
  161SOL    HW1 1019   0.076   1.736   1.898
  161SOL    HW2 1020   0.181   1.845   1.910
  162SOL     OW 1021   1.279   0.929   0.674
  162SOL    HW1 1022   1.352   0.867   0.679
  162SOL    HW2 1023   1.313   1.001   0.620
  163SOL     OW 1024   0.810   1.275   1.427
  163SOL    HW1 1025   0.782   1.315   1.510
  163SOL    HW2 1026   0.740   1.296   1.366
  164SOL     OW 1027   0.674   1.623   0.170
  164SOL    HW1 1028   0.692   1.629   0.076
  164SOL    HW2 1029   0.617   1.547   0.178
  165SOL     OW 1030   1.620   1.727   1.389
  165SOL    HW1 1031   1.672   1.734   1.309
  165SOL    HW2 1032   1.607   1.817   1.417
  166SOL     OW 1033   1.839   0.152   0.965
  166SOL    HW1 1034   1.868   0.073   0.920
  166SOL    HW2 1035   1.753   0.171   0.929
  167SOL     OW 1036   0.259   0.322   0.719
  167SOL    HW1 1037   0.176   0.357   0.688
  167SOL    HW2 1038   0.248   0.313   0.814
  168SOL     OW 1039   1.224   1.600   0.055
  168SOL    HW1 1040   1.211   1.507   0.074
  168SOL    HW2 1041   1.159   1.619  11.087
  169SOL     OW 1042   0.826   1.007   1.373
  169SOL    HW1 1043   0.869   1.003   1.288
  169SOL    HW2 1044   0.823   1.101   1.393
  170SOL     OW 1045   0.913   0.905   0.280
  170SOL    HW1 1046   0.979   0.946   0.224
  170SOL    HW2 1047   0.963   0.843   0.334
  171SOL     OW 1048   1.498   1.622   0.048
  171SOL    HW1 1049   1.402   1.615   0.048
  171SOL    HW2 1050   1.522   1.638  11.057
  172SOL     OW 1051   0.372   1.309   1.491
  172SOL    HW1 1052   0.355   1.388   1.439
  172SOL    HW2 1053   0.298   1.252   1.473
  173SOL     OW 1054   1.609   1.284   1.279
  173SOL    HW1 1055   1.670   1.272   1.352
  173SOL    HW2 1056   1.549   1.352   1.310
  174SOL     OW 1057   1.056   1.108   0.707
  174SOL    HW1 1058   0.985   1.058   0.746
  174SOL    HW2 1059   1.120   1.043   0.681
  175SOL     OW 1060   1.008   0.244   1.006
  175SOL    HW1 1061   1.008   0.222   0.913
  175SOL    HW2 1062   0.998   0.160   1.051
  176SOL     OW 1063   0.604   1.489   0.482
  176SOL    HW1 1064   0.646   1.439   0.412
  176SOL    HW2 1065   0.530   1.532   0.439
  177SOL     OW 1066   1.724   0.394   1.376
  177SOL    HW1 1067   1.797   0.455   1.376
  177SOL    HW2 1068   1.752   0.323   1.319
  178SOL     OW 1069   0.266   1.326   0.284
  178SOL    HW1 1070   0.178   1.334   0.246
  178SOL    HW2 1071   0.259   1.367   0.370
  179SOL     OW 1072   0.115   1.005   1.694
  179SOL    HW1 1073   0.053   1.053   1.749
  179SOL    HW2 1074   0.194   0.998   1.747
  180SOL     OW 1075   0.658   0.212   1.499
  180SOL    HW1 1076   0.737   0.184   1.453
  180SOL    HW2 1077   0.688   0.228   1.589
  181SOL     OW 1078   0.050   0.339   0.020
  181SOL    HW1 1079   4.459   0.323   0.047
  181SOL    HW2 1080   0.064   0.433   0.037
  182SOL     OW 1081   1.427   0.858   1.398
  182SOL    HW1 1082   1.378   0.919   1.343
  182SOL    HW2 1083   1.517   0.860   1.363
  183SOL     OW 1084   0.081   0.179   0.290
  183SOL    HW1 1085   0.083   0.265   0.248
  183SOL    HW2 1086   0.160   0.135   0.260
  184SOL     OW 1087   1.185   1.337   0.122
  184SOL    HW1 1088   1.091   1.323   0.113
  184SOL    HW2 1089   1.201   1.329   0.216
  185SOL     OW 1090   0.626   0.829   1.433
  185SOL    HW1 1091   0.681   0.906   1.419
  185SOL    HW2 1092   0.688   0.757   1.439
  186SOL     OW 1093   1.485   1.779   0.982
  186SOL    HW1 1094   1.509   1.842   0.913
  186SOL    HW2 1095   1.567   1.761   1.027
  187SOL     OW 1096   0.710   0.564   1.705
  187SOL    HW1 1097   0.757   0.626   1.762
  187SOL    HW2 1098   0.739   0.478   1.736
  188SOL     OW 1099   1.473   1.197   1.631
  188SOL    HW1 1100   1.461   1.212   1.724
  188SOL    HW2 1101   1.566   1.215   1.615
  189SOL     OW 1102   0.377   1.746   1.565
  189SOL    HW1 1103   0.292   1.787   1.546
  189SOL    HW2 1104   0.354   1.667   1.614
  190SOL     OW 1105   1.667   0.881   1.255
  190SOL    HW1 1106   1.660   0.796   1.211
  190SOL    HW2 1107   1.657   0.945   1.184
  191SOL     OW 1108   1.218   0.329   0.447
  191SOL    HW1 1109   1.286   0.264   0.434
  191SOL    HW2 1110   1.244   0.376   0.526
  192SOL     OW 1111   0.582   0.736   0.673
  192SOL    HW1 1112   0.625   0.820   0.660
  192SOL    HW2 1113   0.518   0.730   0.603
  193SOL     OW 1114   1.759   0.370   1.644
  193SOL    HW1 1115   1.744   0.383   1.551
  193SOL    HW2 1116   1.682   0.322   1.675
  194SOL     OW 1117   1.747   0.933   1.512
  194SOL    HW1 1118   1.740   1.028   1.525
  194SOL    HW2 1119   1.730   0.921   1.418
  195SOL     OW 1120   0.910   1.355   0.075
  195SOL    HW1 1121   0.842   1.351   0.142
  195SOL    HW2 1122   0.891   1.435   0.026
  196SOL     OW 1123   0.662   1.788   0.943
  196SOL    HW1 1124   0.643   1.879   0.920
  196SOL    HW2 1125   0.757   1.781   0.934
  197SOL     OW 1126   0.869   0.969   0.853
  197SOL    HW1 1127   0.919   0.897   0.891
  197SOL    HW2 1128   0.832   1.015   0.929
  198SOL     OW 1129   1.078   0.988   0.084
  198SOL    HW1 1130   1.051   1.020  11.097
  198SOL    HW2 1131   1.154   0.933   0.067
  199SOL     OW 1132   1.852   1.554   0.844
  199SOL    HW1 1133   1.773   1.544   0.790
  199SOL    HW2 1134   1.838   1.495   0.918
  200SOL     OW 1135   0.232   1.304   1.860
  200SOL    HW1 1136   0.151   1.256   1.842
  200SOL    HW2 1137   0.233   1.315   1.955
  201SOL     OW 1138   0.111   1.223   0.669
  201SOL    HW1 1139   0.137   1.186   0.754
  201SOL    HW2 1140   0.176   1.190   0.608
  202SOL     OW 1141   0.684   1.405   1.630
  202SOL    HW1 1142   0.604   1.362   1.659
  202SOL    HW2 1143   0.679   1.493   1.667
  203SOL     OW 1144   1.805   0.178   1.238
  203SOL    HW1 1145   1.801   0.085   1.258
  203SOL    HW2 1146   1.822   0.182   1.144
  204SOL     OW 1147   0.440   0.431   0.532
  204SOL    HW1 1148   0.459   0.360   0.470
  204SOL    HW2 1149   0.382   0.391   0.597
  205SOL     OW 1150   1.703   1.482   1.087
  205SOL    HW1 1151   1.620   1.463   1.044
  205SOL    HW2 1152   1.709   1.417   1.157
  206SOL     OW 1153   0.307   0.505   1.250
  206SOL    HW1 1154   0.380   0.457   1.289
  206SOL    HW2 1155   0.333   0.518   1.158
  207SOL     OW 1156   0.829   1.578   0.677
  207SOL    HW1 1157   0.811   1.637   0.604
  207SOL    HW2 1158   0.754   1.519   0.680
  208SOL     OW 1159   1.431   0.217   1.116
  208SOL    HW1 1160   1.466   0.145   1.169
  208SOL    HW2 1161   1.381   0.270   1.178
  209SOL     OW 1162   0.995   0.004   1.153
  209SOL    HW1 1163   0.955   4.418   1.145
  209SOL    HW2 1164   1.089   4.487   1.163
  210SOL     OW 1165   0.771   1.327   0.319
  210SOL    HW1 1166   0.743   1.237   0.335
  210SOL    HW2 1167   0.853   1.335   0.367
  211SOL     OW 1168   0.621   1.555   1.287
  211SOL    HW1 1169   0.622   1.637   1.336
  211SOL    HW2 1170   0.708   1.549   1.248
  212SOL     OW 1171   1.356   0.057   0.169
  212SOL    HW1 1172   1.390   4.488   0.113
  212SOL    HW2 1173   1.272   0.024   0.199
  213SOL     OW 1174   1.316   0.464   0.674
  213SOL    HW1 1175   1.258   0.540   0.675
  213SOL    HW2 1176   1.302   0.423   0.759
  214SOL     OW 1177   1.586   0.198   0.869
  214SOL    HW1 1178   1.527   0.214   0.943
  214SOL    HW2 1179   1.588   0.281   0.821
  215SOL     OW 1180   0.037   1.053   0.286
  215SOL    HW1 1181   0.131   1.038   0.283
  215SOL    HW2 1182   0.011   1.026   0.374
  216SOL     OW 1183   0.888   1.657   0.346
  216SOL    HW1 1184   0.814   1.637   0.288
  216SOL    HW2 1185   0.857   1.729   0.400
  217SOL     OW 1186   0.245   0.628   1.986
  217SOL    HW1 1187   0.171   0.602   2.041
  217SOL    HW2 1188   0.213   0.617   1.896
  218SOL     OW 1189   0.192   0.295   2.850
  218SOL    HW1 1190   0.222   0.265   2.936
  218SOL    HW2 1191   0.131   0.226   2.821
  219SOL     OW 1192   0.001   0.389   2.499
  219SOL    HW1 1193   4.424   0.424   2.544
  219SOL    HW2 1194   4.466   0.315   2.448
  220SOL     OW 1195   0.568   1.292   3.041
  220SOL    HW1 1196   0.482   1.297   3.001
  220SOL    HW2 1197   0.584   1.380   3.076
  221SOL     OW 1198   1.565   1.513   2.571
  221SOL    HW1 1199   1.523   1.491   2.654
  221SOL    HW2 1200   1.494   1.516   2.507
  222SOL     OW 1201   1.138   0.697   2.557
  222SOL    HW1 1202   1.182   0.781   2.548
  222SOL    HW2 1203   1.087   0.706   2.638
  223SOL     OW 1204   1.772   0.604   2.088
  223SOL    HW1 1205   1.748   0.596   1.995
  223SOL    HW2 1206   1.736   0.525   2.128
  224SOL     OW 1207   0.750   1.140   2.905
  224SOL    HW1 1208   0.683   1.176   2.963
  224SOL    HW2 1209   0.788   1.216   2.861
  225SOL     OW 1210   0.868   0.768   3.683
  225SOL    HW1 1211   0.854   0.838   3.747
  225SOL    HW2 1212   0.893   0.813   3.602
  226SOL     OW 1213   0.684   1.000   2.508
  226SOL    HW1 1214   0.751   0.990   2.576
  226SOL    HW2 1215   0.616   1.053   2.549
  227SOL     OW 1216   0.713   1.149   3.678
  227SOL    HW1 1217   0.760   1.227   3.706
  227SOL    HW2 1218   0.632   1.182   3.639
  228SOL     OW 1219   0.334   1.419   2.930
  228SOL    HW1 1220   0.253   1.398   2.884
  228SOL    HW2 1221   0.384   1.473   2.869
  229SOL     OW 1222   1.460   1.501   3.219
  229SOL    HW1 1223   1.514   1.579   3.228
  229SOL    HW2 1224   1.395   1.509   3.289
  230SOL     OW 1225   0.442   0.393   3.347
  230SOL    HW1 1226   0.531   0.358   3.347
  230SOL    HW2 1227   0.388   0.320   3.378
  231SOL     OW 1228   1.608   0.443   2.601
  231SOL    HW1 1229   1.529   0.463   2.552
  231SOL    HW2 1230   1.623   0.521   2.655
  232SOL     OW 1231   0.246   1.691   2.337
  232SOL    HW1 1232   0.229   1.776   2.377
  232SOL    HW2 1233   0.317   1.707   2.276
  233SOL     OW 1234   1.137   1.342   3.556
  233SOL    HW1 1235   1.178   1.336   3.642
  233SOL    HW2 1236   1.085   1.262   3.548
  234SOL     OW 1237   0.253   1.426   2.388
  234SOL    HW1 1238   0.242   1.521   2.390
  234SOL    HW2 1239   0.192   1.393   2.453
  235SOL     OW 1240   0.251   1.083   2.747
  235SOL    HW1 1241   0.266   0.992   2.771
  235SOL    HW2 1242   0.189   1.115   2.813
  236SOL     OW 1243   0.609   1.792   3.292
  236SOL    HW1 1244   0.526   1.774   3.336
  236SOL    HW2 1245   0.631   1.882   3.316
  237SOL     OW 1246   0.574   0.990   2.004
  237SOL    HW1 1247   0.624   1.030   1.932
  237SOL    HW2 1248   0.619   1.019   2.083
  238SOL     OW 1249   1.577   0.118   3.328
  238SOL    HW1 1250   1.610   0.186   3.270
  238SOL    HW2 1251   1.568   0.162   3.413
  239SOL     OW 1252   0.136   0.645   2.435
  239SOL    HW1 1253   0.086   0.566   2.457
  239SOL    HW2 1254   0.109   0.710   2.500
  240SOL     OW 1255   1.845   1.759   2.193
  240SOL    HW1 1256   1.909   1.733   2.259
  240SOL    HW2 1257   1.868   1.850   2.173
  241SOL     OW 1258   0.032   1.604   2.009
  241SOL    HW1 1259   0.019   1.509   2.002
  241SOL    HW2 1260   0.036   1.621   2.103
  242SOL     OW 1261   1.690   0.920   2.505
  242SOL    HW1 1262   1.772   0.876   2.481
  242SOL    HW2 1263   1.667   0.971   2.427
  243SOL     OW 1264   1.648   1.105   2.291
  243SOL    HW1 1265   1.734   1.109   2.249
  243SOL    HW2 1266   1.653   1.168   2.363
  244SOL     OW 1267   0.102   0.768   3.435
  244SOL    HW1 1268   0.189   0.758   3.398
  244SOL    HW2 1269   0.098   0.859   3.464
  245SOL     OW 1270   0.615   1.388   2.598
  245SOL    HW1 1271   0.568   1.305   2.608
  245SOL    HW2 1272   0.598   1.414   2.508
  246SOL     OW 1273   1.287   1.237   3.284
  246SOL    HW1 1274   1.319   1.170   3.224
  246SOL    HW2 1275   1.346   1.232   3.360
  247SOL     OW 1276   0.825   0.017   2.418
  247SOL    HW1 1277   0.860   0.102   2.391
  247SOL    HW2 1278   0.730   0.025   2.404
  248SOL     OW 1279   0.177   0.940   3.141
  248SOL    HW1 1280   0.269   0.920   3.121
  248SOL    HW2 1281   0.132   0.931   3.057
  249SOL     OW 1282   1.531   0.995   2.062
  249SOL    HW1 1283   1.461   0.939   2.095
  249SOL    HW2 1284   1.573   1.030   2.141
  250SOL     OW 1285   1.184   1.809   3.486
  250SOL    HW1 1286   1.194   1.868   3.411
  250SOL    HW2 1287   1.202   1.722   3.450
  251SOL     OW 1288   0.317   0.260   3.628
  251SOL    HW1 1289   0.385   0.310   3.673
  251SOL    HW2 1290   0.240   0.268   3.684
  252SOL     OW 1291   1.466   1.419   2.811
  252SOL    HW1 1292   1.399   1.435   2.877
  252SOL    HW2 1293   1.453   1.328   2.785
  253SOL     OW 1294   1.658   1.744   2.439
  253SOL    HW1 1295   1.636   1.712   2.351
  253SOL    HW2 1296   1.634   1.671   2.497
  254SOL     OW 1297   0.595   0.722   2.129
  254SOL    HW1 1298   0.595   0.805   2.082
  254SOL    HW2 1299   0.529   0.734   2.198
  255SOL     OW 1300   1.293   0.369   2.794
  255SOL    HW1 1301   1.204   0.339   2.776
  255SOL    HW2 1302   1.328   0.305   2.855
  256SOL     OW 1303   1.580   1.672   2.172
  256SOL    HW1 1304   1.671   1.701   2.163
  256SOL    HW2 1305   1.551   1.655   2.082
  257SOL     OW 1306   0.798   0.618   3.316
  257SOL    HW1 1307   0.769   0.591   3.403
  257SOL    HW2 1308   0.758   0.555   3.256
  258SOL     OW 1309   1.388   0.481   3.538
  258SOL    HW1 1310   1.392   0.525   3.623
  258SOL    HW2 1311   1.455   0.413   3.543
  259SOL     OW 1312   0.952   0.887   3.446
  259SOL    HW1 1313   1.007   0.817   3.409
  259SOL    HW2 1314   0.905   0.923   3.371
  260SOL     OW 1315   0.998   0.418   3.095
  260SOL    HW1 1316   0.909   0.423   3.130
  260SOL    HW2 1317   0.991   0.364   3.016
  261SOL     OW 1318   1.051   0.698   2.288
  261SOL    HW1 1319   1.069   0.690   2.381
  261SOL    HW2 1320   0.968   0.653   2.275
  262SOL     OW 1321   0.094   0.827   2.647
  262SOL    HW1 1322   0.181   0.817   2.687
  262SOL    HW2 1323   0.035   0.839   2.721
  263SOL     OW 1324   0.120   1.864   3.441
  263SOL    HW1 1325   0.115   1.839   3.533
  263SOL    HW2 1326   0.046   1.819   3.400
  264SOL     OW 1327   0.854   0.370   2.046
  264SOL    HW1 1328   0.924   0.404   1.990
  264SOL    HW2 1329   0.869   0.276   2.049
  265SOL     OW 1330   1.702   0.571   3.691
  265SOL    HW1 1331   1.667   0.646   3.642
  265SOL    HW2 1332   1.738   0.513   3.624
  266SOL     OW 1333   1.379   1.143   2.402
  266SOL    HW1 1334   1.458   1.131   2.349
  266SOL    HW2 1335   1.326   1.205   2.352
  267SOL     OW 1336   0.539   0.207   2.762
  267SOL    HW1 1337   0.560   0.225   2.853
  267SOL    HW2 1338   0.534   0.294   2.721
  268SOL     OW 1339   1.003   1.443   2.332
  268SOL    HW1 1340   0.969   1.518   2.283
  268SOL    HW2 1341   0.982   1.464   2.423
  269SOL     OW 1342   0.357   1.814   2.722
  269SOL    HW1 1343   0.399   1.728   2.733
  269SOL    HW2 1344   0.427   1.876   2.741
  270SOL     OW 1345   1.800   1.055   2.731
  270SOL    HW1 1346   1.747   1.035   2.654
  270SOL    HW2 1347   1.737   1.061   2.803
  271SOL     OW 1348   1.227   1.539   3.376
  271SOL    HW1 1349   1.214   1.466   3.436
  271SOL    HW2 1350   1.163   1.525   3.306
  272SOL     OW 1351   0.313   0.953   2.119
  272SOL    HW1 1352   0.397   0.977   2.079
  272SOL    HW2 1353   0.301   0.861   2.095
  273SOL     OW 1354   1.482   0.745   2.584
  273SOL    HW1 1355   1.473   0.704   2.670
  273SOL    HW2 1356   1.559   0.801   2.593
  274SOL     OW 1357   0.470   1.264   3.597
  274SOL    HW1 1358   0.443   1.271   3.505
  274SOL    HW2 1359   0.387   1.266   3.646
  275SOL     OW 1360   1.123   1.778   2.092
  275SOL    HW1 1361   1.048   1.738   2.137
  275SOL    HW2 1362   1.147   1.715   2.024
  276SOL     OW 1363   0.159   0.266   3.374
  276SOL    HW1 1364   0.134   0.353   3.342
  276SOL    HW2 1365   0.196   0.282   3.461
  277SOL     OW 1366   1.628   1.381   1.952
  277SOL    HW1 1367   1.587   1.466   1.935
  277SOL    HW2 1368   1.560   1.317   1.931
  278SOL     OW 1369   0.469   1.742   2.176
  278SOL    HW1 1370   0.513   1.796   2.241
  278SOL    HW2 1371   0.540   1.705   2.123
  279SOL     OW 1372   1.426   0.145   2.281
  279SOL    HW1 1373   1.409   0.089   2.205
  279SOL    HW2 1374   1.519   0.133   2.299
  280SOL     OW 1375   0.254   1.786   3.092
  280SOL    HW1 1376   0.301   1.711   3.126
  280SOL    HW2 1377   0.220   1.758   3.007
  281SOL     OW 1378   0.938   1.700   2.760
  281SOL    HW1 1379   1.016   1.649   2.782
  281SOL    HW2 1380   0.896   1.649   2.690
  282SOL     OW 1381   0.396   0.691   2.333
  282SOL    HW1 1382   0.420   0.599   2.348
  282SOL    HW2 1383   0.304   0.696   2.359
  283SOL     OW 1384   1.524   0.233   3.585
  283SOL    HW1 1385   1.524   0.255   3.678
  283SOL    HW2 1386   1.445   0.182   3.572
  284SOL     OW 1387   0.628   0.119   1.981
  284SOL    HW1 1388   0.716   0.085   1.993
  284SOL    HW2 1389   0.597   0.080   1.899
  285SOL     OW 1390   0.768   0.271   3.617
  285SOL    HW1 1391   0.837   0.204   3.618
  285SOL    HW2 1392   0.732   0.269   3.706
  286SOL     OW 1393   0.876   1.523   3.056
  286SOL    HW1 1394   0.860   1.486   2.969
  286SOL    HW2 1395   0.946   1.468   3.092
  287SOL     OW 1396   1.340   0.590   3.290
  287SOL    HW1 1397   1.368   0.562   3.377
  287SOL    HW2 1398   1.375   0.679   3.281
  288SOL     OW 1399   0.817   1.392   2.805
  288SOL    HW1 1400   0.901   1.380   2.761
  288SOL    HW2 1401   0.753   1.396   2.734
  289SOL     OW 1402   0.925   0.522   2.759
  289SOL    HW1 1403   0.908   0.520   2.665
  289SOL    HW2 1404   0.958   0.435   2.780
  290SOL     OW 1405   0.565   0.071   2.369
  290SOL    HW1 1406   0.480   0.056   2.410
  290SOL    HW2 1407   0.549   0.138   2.303
  291SOL     OW 1408   1.428   1.199   1.903
  291SOL    HW1 1409   1.457   1.124   1.953
  291SOL    HW2 1410   1.343   1.221   1.939
  292SOL     OW 1411   0.305   0.070   2.053
  292SOL    HW1 1412   0.389   0.117   2.054
  292SOL    HW2 1413   0.319   4.498   2.115
  293SOL     OW 1414   0.958   0.240   2.327
  293SOL    HW1 1415   0.904   0.303   2.278
  293SOL    HW2 1416   1.047   0.274   2.321
  294SOL     OW 1417   1.081   0.683   3.321
  294SOL    HW1 1418   1.011   0.617   3.320
  294SOL    HW2 1419   1.162   0.633   3.310
  295SOL     OW 1420   1.222   1.571   2.656
  295SOL    HW1 1421   1.237   1.637   2.589
  295SOL    HW2 1422   1.290   1.587   2.721
  296SOL     OW 1423   0.468   1.152   2.595
  296SOL    HW1 1424   0.399   1.132   2.659
  296SOL    HW2 1425   0.427   1.136   2.510
  297SOL     OW 1426   1.267   1.793   2.472
  297SOL    HW1 1427   1.314   1.855   2.416
  297SOL    HW2 1428   1.200   1.846   2.515
  298SOL     OW 1429   1.027   0.544   1.882
  298SOL    HW1 1430   0.979   0.625   1.866
  298SOL    HW2 1431   1.086   0.564   1.954
  299SOL     OW 1432   0.093   0.511   3.274
  299SOL    HW1 1433   0.148   0.517   3.197
  299SOL    HW2 1434   0.055   0.598   3.284
  300SOL     OW 1435   0.558   0.247   3.030
  300SOL    HW1 1436   0.589   0.166   3.069
  300SOL    HW2 1437   0.464   0.248   3.046
  301SOL     OW 1438   0.864   0.504   2.490
  301SOL    HW1 1439   0.826   0.541   2.411
  301SOL    HW2 1440   0.819   0.421   2.503
  302SOL     OW 1441   0.954   0.016   2.659
  302SOL    HW1 1442   0.910   0.019   2.574
  302SOL    HW2 1443   0.971   4.423   2.673
  303SOL     OW 1444   1.438   1.161   2.719
  303SOL    HW1 1445   1.368   1.096   2.719
  303SOL    HW2 1446   1.461   1.171   2.626
  304SOL     OW 1447   1.464   0.607   2.832
  304SOL    HW1 1448   1.409   0.529   2.833
  304SOL    HW2 1449   1.521   0.598   2.909
  305SOL     OW 1450   1.843   0.814   2.246
  305SOL    HW1 1451   1.901   0.764   2.304
  305SOL    HW2 1452   1.817   0.752   2.178
  306SOL     OW 1453   0.492   1.420   2.018
  306SOL    HW1 1454   0.414   1.392   2.066
  306SOL    HW2 1455   0.479   1.386   1.930
  307SOL     OW 1456   1.674   1.265   2.505
  307SOL    HW1 1457   1.768   1.267   2.520
  307SOL    HW2 1458   1.644   1.353   2.528
  308SOL     OW 1459   1.395   0.572   1.931
  308SOL    HW1 1460   1.332   0.556   2.002
  308SOL    HW2 1461   1.480   0.556   1.971
  309SOL     OW 1462   0.519   0.264   2.180
  309SOL    HW1 1463   0.571   0.215   2.116
  309SOL    HW2 1464   0.502   0.348   2.139
  310SOL     OW 1465   1.752   1.241   3.432
  310SOL    HW1 1466   1.839   1.202   3.425
  310SOL    HW2 1467   1.767   1.331   3.459
  311SOL     OW 1468   1.057   1.354   3.195
  311SOL    HW1 1469   0.982   1.323   3.245
  311SOL    HW2 1470   1.132   1.312   3.236
  312SOL     OW 1471   1.610   1.625   3.517
  312SOL    HW1 1472   1.602   1.661   3.429
  312SOL    HW2 1473   1.693   1.578   3.517
  313SOL     OW 1474   1.132   1.206   2.966
  313SOL    HW1 1475   1.072   1.244   3.030
  313SOL    HW2 1476   1.101   1.239   2.882
  314SOL     OW 1477   1.626   1.097   2.938
  314SOL    HW1 1478   1.621   1.159   3.010
  314SOL    HW2 1479   1.548   1.115   2.885
  315SOL     OW 1480   0.898   0.136   3.246
  315SOL    HW1 1481   0.921   0.089   3.166
  315SOL    HW2 1482   0.983   0.154   3.288
  316SOL     OW 1483   0.984   1.115   3.586
  316SOL    HW1 1484   0.893   1.131   3.609
  316SOL    HW2 1485   0.982   1.037   3.530
  317SOL     OW 1486   0.709   1.062   2.234
  317SOL    HW1 1487   0.696   1.044   2.327
  317SOL    HW2 1488   0.784   1.008   2.210
  318SOL     OW 1489   0.431   0.829   3.107
  318SOL    HW1 1490   0.499   0.840   3.173
  318SOL    HW2 1491   0.375   0.759   3.140
  319SOL     OW 1492   1.268   0.374   3.137
  319SOL    HW1 1493   1.301   0.453   3.181
  319SOL    HW2 1494   1.179   0.396   3.111
  320SOL     OW 1495   0.064   1.576   3.210
  320SOL    HW1 1496   0.039   1.665   3.187
  320SOL    HW2 1497   0.160   1.577   3.213
  321SOL     OW 1498   0.339   1.111   2.355
  321SOL    HW1 1499   0.352   1.186   2.296
  321SOL    HW2 1500   0.339   1.035   2.298
  322SOL     OW 1501   0.563   0.520   2.713
  322SOL    HW1 1502   0.573   0.582   2.641
  322SOL    HW2 1503   0.624   0.551   2.780
  323SOL     OW 1504   1.248   1.349   2.252
  323SOL    HW1 1505   1.303   1.420   2.283
  323SOL    HW2 1506   1.161   1.370   2.285
  324SOL     OW 1507   1.285   1.459   3.010
  324SOL    HW1 1508   1.341   1.463   3.087
  324SOL    HW2 1509   1.229   1.382   3.024
  325SOL     OW 1510   1.580   0.622   2.341
  325SOL    HW1 1511   1.532   0.669   2.410
  325SOL    HW2 1512   1.624   0.691   2.291
  326SOL     OW 1513   0.346   1.533   3.174
  326SOL    HW1 1514   0.333   1.485   3.092
  326SOL    HW2 1515   0.441   1.543   3.182
  327SOL     OW 1516   0.493   0.757   3.538
  327SOL    HW1 1517   0.519   0.795   3.454
  327SOL    HW2 1518   0.549   0.680   3.548
  328SOL     OW 1519   1.604   0.779   3.545
  328SOL    HW1 1520   1.518   0.821   3.539
  328SOL    HW2 1521   1.657   0.821   3.477
  329SOL     OW 1522   0.999   0.088   3.576
  329SOL    HW1 1523   1.040   0.166   3.540
  329SOL    HW2 1524   1.023   0.018   3.515
  330SOL     OW 1525   0.495   0.042   3.615
  330SOL    HW1 1526   0.482   4.496   3.533
  330SOL    HW2 1527   0.430   0.112   3.614
  331SOL     OW 1528   0.590   0.875   2.886
  331SOL    HW1 1529   0.623   0.965   2.889
  331SOL    HW2 1530   0.535   0.868   2.964
  332SOL     OW 1531   1.353   0.858   2.887
  332SOL    HW1 1532   1.268   0.846   2.846
  332SOL    HW2 1533   1.396   0.773   2.879
  333SOL     OW 1534   1.200   0.536   2.121
  333SOL    HW1 1535   1.207   0.457   2.174
  333SOL    HW2 1536   1.157   0.599   2.179
  334SOL     OW 1537   0.283   0.212   3.096
  334SOL    HW1 1538   0.242   0.231   3.180
  334SOL    HW2 1539   0.328   0.129   3.109
  335SOL     OW 1540   0.028   1.313   3.150
  335SOL    HW1 1541   0.070   1.264   3.221
  335SOL    HW2 1542   0.038   1.405   3.174
  336SOL     OW 1543   0.722   0.629   2.916
  336SOL    HW1 1544   0.798   0.611   2.861
  336SOL    HW2 1545   0.696   0.719   2.893
  337SOL     OW 1546   1.737   0.958   3.717
  337SOL    HW1 1547   1.691   0.895   3.662
  337SOL    HW2 1548   1.676   0.975   3.790
  338SOL     OW 1549   0.323   0.072   2.491
  338SOL    HW1 1550   0.303   0.161   2.520
  338SOL    HW2 1551   0.311   0.018   2.569
  339SOL     OW 1552   1.620   0.382   2.220
  339SOL    HW1 1553   1.645   0.317   2.285
  339SOL    HW2 1554   1.595   0.459   2.271
  340SOL     OW 1555   1.031   0.763   2.822
  340SOL    HW1 1556   1.024   0.779   2.916
  340SOL    HW2 1557   1.001   0.673   2.810
  341SOL     OW 1558   0.982   1.566   3.581
  341SOL    HW1 1559   0.967   1.610   3.497
  341SOL    HW2 1560   1.025   1.484   3.558
  342SOL     OW 1561   1.855   1.502   3.466
  342SOL    HW1 1562   1.871   1.532   3.377
  342SOL    HW2 1563   1.936   1.523   3.513
  343SOL     OW 1564   0.346   0.935   3.680
  343SOL    HW1 1565   0.417   0.968   3.736
  343SOL    HW2 1566   0.388   0.867   3.627
  344SOL     OW 1567   1.529   0.262   1.990
  344SOL    HW1 1568   1.459   0.205   2.022
  344SOL    HW2 1569   1.560   0.309   2.068
  345SOL     OW 1570   1.289   0.826   1.891
  345SOL    HW1 1571   1.331   0.740   1.894
  345SOL    HW2 1572   1.321   0.865   1.810
  346SOL     OW 1573   1.067   1.337   2.717
  346SOL    HW1 1574   1.071   1.265   2.654
  346SOL    HW2 1575   1.127   1.402   2.682
  347SOL     OW 1576   0.319   0.813   2.806
  347SOL    HW1 1577   0.413   0.830   2.805
  347SOL    HW2 1578   0.312   0.721   2.833
  348SOL     OW 1579   0.331   0.532   2.847
  348SOL    HW1 1580   0.287   0.449   2.830
  348SOL    HW2 1581   0.410   0.528   2.792
  349SOL     OW 1582   1.137   0.371   3.563
  349SOL    HW1 1583   1.085   0.434   3.612
  349SOL    HW2 1584   1.221   0.415   3.549
  350SOL     OW 1585   1.152   0.215   3.336
  350SOL    HW1 1586   1.149   0.279   3.407
  350SOL    HW2 1587   1.197   0.261   3.264
  351SOL     OW 1588   4.491   1.320   2.071
  351SOL    HW1 1589   4.398   1.337   2.052
  351SOL    HW2 1590   4.494   1.227   2.091
  352SOL     OW 1591   0.100   1.771   2.802
  352SOL    HW1 1592   0.061   1.725   2.728
  352SOL    HW2 1593   0.188   1.794   2.772
  353SOL     OW 1594   0.494   1.574   2.769
  353SOL    HW1 1595   0.563   1.637   2.793
  353SOL    HW2 1596   0.538   1.512   2.711
  354SOL     OW 1597   0.980   0.792   3.087
  354SOL    HW1 1598   1.037   0.771   3.161
  354SOL    HW2 1599   0.896   0.751   3.110
  355SOL     OW 1600   0.033   0.567   2.971
  355SOL    HW1 1601   0.111   0.529   2.930
  355SOL    HW2 1602   0.004   0.499   3.032
  356SOL     OW 1603   0.179   0.531   3.577
  356SOL    HW1 1604   0.267   0.513   3.545
  356SOL    HW2 1605   0.151   0.609   3.529
  357SOL     OW 1606   1.379   0.936   3.520
  357SOL    HW1 1607   1.400   1.030   3.517
  357SOL    HW2 1608   1.375   0.910   3.428
  358SOL     OW 1609   0.811   0.576   2.221
  358SOL    HW1 1610   0.816   0.505   2.156
  358SOL    HW2 1611   0.739   0.631   2.191
  359SOL     OW 1612   1.638   0.601   3.045
  359SOL    HW1 1613   1.629   0.543   3.120
  359SOL    HW2 1614   1.726   0.583   3.011
  360SOL     OW 1615   0.273   1.562   3.602
  360SOL    HW1 1616   0.213   1.613   3.657
  360SOL    HW2 1617   0.256   1.471   3.625
  361SOL     OW 1618   0.694   0.462   3.126
  361SOL    HW1 1619   0.650   0.384   3.094
  361SOL    HW2 1620   0.696   0.522   3.051
  362SOL     OW 1621   0.925   1.679   3.331
  362SOL    HW1 1622   0.900   1.642   3.247
  362SOL    HW2 1623   0.919   1.774   3.318
  363SOL     OW 1624   0.472   0.490   2.042
  363SOL    HW1 1625   0.533   0.560   2.066
  363SOL    HW2 1626   0.389   0.535   2.026
  364SOL     OW 1627   0.161   1.141   3.321
  364SOL    HW1 1628   0.144   1.097   3.404
  364SOL    HW2 1629   0.168   1.070   3.257
  365SOL     OW 1630   1.323   1.045   3.083
  365SOL    HW1 1631   1.346   0.981   3.015
  365SOL    HW2 1632   1.255   1.099   3.044
  366SOL     OW 1633   1.315   0.856   2.167
  366SOL    HW1 1634   1.240   0.828   2.219
  366SOL    HW2 1635   1.286   0.844   2.076
  367SOL     OW 1636   1.768   1.736   3.011
  367SOL    HW1 1637   1.833   1.766   2.947
  367SOL    HW2 1638   1.750   1.645   2.986
  368SOL     OW 1639   1.240   1.733   2.971
  368SOL    HW1 1640   1.323   1.755   2.929
  368SOL    HW2 1641   1.248   1.639   2.991
  369SOL     OW 1642   0.068   1.185   2.913
  369SOL    HW1 1643   0.059   1.215   3.003
  369SOL    HW2 1644   0.034   1.257   2.860
  370SOL     OW 1645   0.680   1.668   3.596
  370SOL    HW1 1646   0.621   1.743   3.587
  370SOL    HW2 1647   0.746   1.681   3.528
  371SOL     OW 1648   1.719   0.129   2.350
  371SOL    HW1 1649   1.788   0.141   2.284
  371SOL    HW2 1650   1.752   0.058   2.405
  372SOL     OW 1651   1.391   1.568   2.349
  372SOL    HW1 1652   1.450   1.601   2.282
  372SOL    HW2 1653   1.341   1.644   2.378
  373SOL     OW 1654   0.116   1.808   3.711
  373SOL    HW1 1655   0.076   1.736   3.760
  373SOL    HW2 1656   0.181   1.845   3.772
  374SOL     OW 1657   1.279   0.929   2.534
  374SOL    HW1 1658   1.352   0.867   2.541
  374SOL    HW2 1659   1.313   1.001   2.481
  375SOL     OW 1660   0.810   1.275   3.289
  375SOL    HW1 1661   0.782   1.315   3.372
  375SOL    HW2 1662   0.740   1.296   3.228
  376SOL     OW 1663   0.672   1.623   2.017
  376SOL    HW1 1664   0.683   1.635   1.923
  376SOL    HW2 1665   0.617   1.545   2.024
  377SOL     OW 1666   1.620   1.725   3.251
  377SOL    HW1 1667   1.672   1.733   3.171
  377SOL    HW2 1668   1.606   1.815   3.280
  378SOL     OW 1669   1.839   0.152   2.827
  378SOL    HW1 1670   1.868   0.074   2.781
  378SOL    HW2 1671   1.752   0.170   2.791
  379SOL     OW 1672   0.259   0.323   2.581
  379SOL    HW1 1673   0.176   0.357   2.549
  379SOL    HW2 1674   0.246   0.313   2.675
  380SOL     OW 1675   1.208   1.604   1.894
  380SOL    HW1 1676   1.197   1.513   1.921
  380SOL    HW2 1677   1.143   1.617   1.826
  381SOL     OW 1678   0.826   1.007   3.235
  381SOL    HW1 1679   0.869   1.002   3.150
  381SOL    HW2 1680   0.823   1.101   3.255
  382SOL     OW 1681   0.915   0.910   2.152
  382SOL    HW1 1682   0.976   0.942   2.086
  382SOL    HW2 1683   0.964   0.842   2.198
  383SOL     OW 1684   1.491   1.627   1.905
  383SOL    HW1 1685   1.396   1.619   1.890
  383SOL    HW2 1686   1.528   1.632   1.817
  384SOL     OW 1687   0.373   1.309   3.353
  384SOL    HW1 1688   0.355   1.388   3.301
  384SOL    HW2 1689   0.298   1.252   3.335
  385SOL     OW 1690   1.609   1.284   3.141
  385SOL    HW1 1691   1.671   1.272   3.213
  385SOL    HW2 1692   1.549   1.352   3.172
  386SOL     OW 1693   1.056   1.109   2.570
  386SOL    HW1 1694   0.985   1.058   2.608
  386SOL    HW2 1695   1.120   1.043   2.542
  387SOL     OW 1696   1.001   0.246   2.873
  387SOL    HW1 1697   1.008   0.229   2.780
  387SOL    HW2 1698   0.993   0.160   2.913
  388SOL     OW 1699   0.606   1.488   2.344
  388SOL    HW1 1700   0.651   1.439   2.275
  388SOL    HW2 1701   0.529   1.526   2.300
  389SOL     OW 1702   1.724   0.394   3.238
  389SOL    HW1 1703   1.797   0.456   3.238
  389SOL    HW2 1704   1.752   0.323   3.181
  390SOL     OW 1705   0.252   1.343   2.136
  390SOL    HW1 1706   0.157   1.340   2.124
  390SOL    HW2 1707   0.263   1.375   2.226
  391SOL     OW 1708   0.115   1.006   3.556
  391SOL    HW1 1709   0.053   1.053   3.611
  391SOL    HW2 1710   0.194   0.998   3.609
  392SOL     OW 1711   0.658   0.211   3.361
  392SOL    HW1 1712   0.737   0.184   3.315
  392SOL    HW2 1713   0.688   0.228   3.451
  393SOL     OW 1714   0.073   0.320   1.887
  393SOL    HW1 1715   4.480   0.326   1.906
  393SOL    HW2 1716   0.098   0.408   1.857
  394SOL     OW 1717   1.427   0.858   3.260
  394SOL    HW1 1718   1.378   0.919   3.206
  394SOL    HW2 1719   1.517   0.860   3.225
  395SOL     OW 1720   0.086   0.187   2.164
  395SOL    HW1 1721   0.075   0.262   2.105
  395SOL    HW2 1722   0.166   0.145   2.134
  396SOL     OW 1723   1.178   1.337   1.979
  396SOL    HW1 1724   1.087   1.307   1.981
  396SOL    HW2 1725   1.205   1.338   2.071
  397SOL     OW 1726   0.625   0.829   3.295
  397SOL    HW1 1727   0.680   0.906   3.280
  397SOL    HW2 1728   0.687   0.757   3.301
  398SOL     OW 1729   1.483   1.779   2.844
  398SOL    HW1 1730   1.504   1.843   2.776
  398SOL    HW2 1731   1.567   1.763   2.887
  399SOL     OW 1732   0.710   0.563   3.567
  399SOL    HW1 1733   0.757   0.625   3.624
  399SOL    HW2 1734   0.739   0.477   3.598
  400SOL     OW 1735   1.473   1.197   3.493
  400SOL    HW1 1736   1.461   1.212   3.586
  400SOL    HW2 1737   1.566   1.215   3.477
  401SOL     OW 1738   0.377   1.746   3.427
  401SOL    HW1 1739   0.292   1.787   3.408
  401SOL    HW2 1740   0.354   1.667   3.476
  402SOL     OW 1741   1.667   0.881   3.117
  402SOL    HW1 1742   1.661   0.796   3.073
  402SOL    HW2 1743   1.657   0.945   3.046
  403SOL     OW 1744   1.220   0.332   2.308
  403SOL    HW1 1745   1.287   0.265   2.295
  403SOL    HW2 1746   1.248   0.380   2.386
  404SOL     OW 1747   0.585   0.735   2.535
  404SOL    HW1 1748   0.626   0.820   2.521
  404SOL    HW2 1749   0.519   0.728   2.465
  405SOL     OW 1750   1.759   0.369   3.506
  405SOL    HW1 1751   1.744   0.383   3.413
  405SOL    HW2 1752   1.681   0.322   3.536
  406SOL     OW 1753   1.746   0.933   3.374
  406SOL    HW1 1754   1.740   1.028   3.387
  406SOL    HW2 1755   1.730   0.921   3.280
  407SOL     OW 1756   0.864   1.366   1.900
  407SOL    HW1 1757   0.825   1.394   1.983
  407SOL    HW2 1758   0.880   1.447   1.853
  408SOL     OW 1759   0.662   1.789   2.804
  408SOL    HW1 1760   0.643   1.880   2.782
  408SOL    HW2 1761   0.757   1.781   2.797
  409SOL     OW 1762   0.869   0.969   2.715
  409SOL    HW1 1763   0.919   0.897   2.753
  409SOL    HW2 1764   0.832   1.015   2.791
  410SOL     OW 1765   1.078   0.988   1.951
  410SOL    HW1 1766   1.056   1.040   1.874
  410SOL    HW2 1767   1.152   0.934   1.924
  411SOL     OW 1768   1.851   1.549   2.702
  411SOL    HW1 1769   1.770   1.541   2.653
  411SOL    HW2 1770   1.839   1.492   2.778
  412SOL     OW 1771   0.232   1.304   3.722
  412SOL    HW1 1772   0.151   1.256   3.703
  412SOL    HW2 1773   0.232   1.315   3.817
  413SOL     OW 1774   0.115   1.230   2.530
  413SOL    HW1 1775   0.134   1.189   2.615
  413SOL    HW2 1776   0.173   1.185   2.469
  414SOL     OW 1777   0.684   1.405   3.492
  414SOL    HW1 1778   0.604   1.362   3.521
  414SOL    HW2 1779   0.678   1.493   3.529
  415SOL     OW 1780   1.805   0.178   3.100
  415SOL    HW1 1781   1.801   0.085   3.120
  415SOL    HW2 1782   1.822   0.182   3.006
  416SOL     OW 1783   0.443   0.429   2.396
  416SOL    HW1 1784   0.457   0.360   2.331
  416SOL    HW2 1785   0.382   0.391   2.459
  417SOL     OW 1786   1.704   1.481   2.948
  417SOL    HW1 1787   1.620   1.462   2.905
  417SOL    HW2 1788   1.710   1.416   3.018
  418SOL     OW 1789   0.308   0.506   3.112
  418SOL    HW1 1790   0.381   0.457   3.150
  418SOL    HW2 1791   0.332   0.517   3.020
  419SOL     OW 1792   0.830   1.578   2.538
  419SOL    HW1 1793   0.812   1.637   2.465
  419SOL    HW2 1794   0.754   1.519   2.540
  420SOL     OW 1795   1.431   0.217   2.979
  420SOL    HW1 1796   1.466   0.145   3.031
  420SOL    HW2 1797   1.380   0.269   3.040
  421SOL     OW 1798   0.995   0.002   3.016
  421SOL    HW1 1799   0.956   4.415   3.007
  421SOL    HW2 1800   1.089   4.486   3.024
  422SOL     OW 1801   0.773   1.333   2.179
  422SOL    HW1 1802   0.744   1.242   2.186
  422SOL    HW2 1803   0.855   1.337   2.229
  423SOL     OW 1804   0.621   1.555   3.148
  423SOL    HW1 1805   0.622   1.637   3.198
  423SOL    HW2 1806   0.708   1.549   3.110
  424SOL     OW 1807   1.338   0.052   2.020
  424SOL    HW1 1808   1.377   4.476   1.975
  424SOL    HW2 1809   1.262   0.016   2.066
  425SOL     OW 1810   1.315   0.464   2.535
  425SOL    HW1 1811   1.258   0.542   2.536
  425SOL    HW2 1812   1.304   0.425   2.621
  426SOL     OW 1813   1.585   0.199   2.731
  426SOL    HW1 1814   1.527   0.214   2.805
  426SOL    HW2 1815   1.587   0.282   2.684
  427SOL     OW 1816   0.040   1.050   2.152
  427SOL    HW1 1817   0.133   1.029   2.140
  427SOL    HW2 1818   0.021   1.024   2.243
  428SOL     OW 1819   0.888   1.656   2.202
  428SOL    HW1 1820   0.814   1.639   2.143
  428SOL    HW2 1821   0.859   1.729   2.256
  429SOL     OW 1822   0.245   0.629   3.848
  429SOL    HW1 1823   0.171   0.602   3.903
  429SOL    HW2 1824   0.213   0.617   3.758
  430SOL     OW 1825   0.192   0.295   4.712
  430SOL    HW1 1826   0.222   0.265   4.798
  430SOL    HW2 1827   0.131   0.226   4.683
  431SOL     OW 1828   0.001   0.389   4.361
  431SOL    HW1 1829   4.424   0.424   4.406
  431SOL    HW2 1830   4.467   0.315   4.310
  432SOL     OW 1831   0.569   1.292   4.903
  432SOL    HW1 1832   0.482   1.297   4.863
  432SOL    HW2 1833   0.584   1.380   4.938
  433SOL     OW 1834   1.565   1.511   4.429
  433SOL    HW1 1835   1.520   1.489   4.511
  433SOL    HW2 1836   1.495   1.516   4.364
  434SOL     OW 1837   1.138   0.697   4.419
  434SOL    HW1 1838   1.182   0.781   4.410
  434SOL    HW2 1839   1.087   0.706   4.499
  435SOL     OW 1840   1.772   0.604   3.950
  435SOL    HW1 1841   1.748   0.597   3.858
  435SOL    HW2 1842   1.736   0.525   3.990
  436SOL     OW 1843   0.752   1.140   4.768
  436SOL    HW1 1844   0.684   1.176   4.825
  436SOL    HW2 1845   0.788   1.216   4.723
  437SOL     OW 1846   0.869   0.768   5.545
  437SOL    HW1 1847   0.854   0.837   5.609
  437SOL    HW2 1848   0.893   0.813   5.465
  438SOL     OW 1849   0.684   1.000   4.370
  438SOL    HW1 1850   0.751   0.990   4.438
  438SOL    HW2 1851   0.616   1.053   4.411
  439SOL     OW 1852   0.713   1.149   5.540
  439SOL    HW1 1853   0.760   1.227   5.568
  439SOL    HW2 1854   0.632   1.182   5.501
  440SOL     OW 1855   0.334   1.419   4.792
  440SOL    HW1 1856   0.253   1.398   4.746
  440SOL    HW2 1857   0.384   1.473   4.731
  441SOL     OW 1858   1.459   1.492   5.079
  441SOL    HW1 1859   1.481   1.585   5.082
  441SOL    HW2 1860   1.401   1.479   5.154
  442SOL     OW 1861   0.442   0.393   5.209
  442SOL    HW1 1862   0.532   0.358   5.209
  442SOL    HW2 1863   0.388   0.320   5.240
  443SOL     OW 1864   1.608   0.443   4.463
  443SOL    HW1 1865   1.529   0.463   4.414
  443SOL    HW2 1866   1.624   0.521   4.516
  444SOL     OW 1867   0.246   1.691   4.199
  444SOL    HW1 1868   0.228   1.777   4.239
  444SOL    HW2 1869   0.317   1.707   4.138
  445SOL     OW 1870   1.138   1.342   5.417
  445SOL    HW1 1871   1.179   1.336   5.503
  445SOL    HW2 1872   1.085   1.262   5.410
  446SOL     OW 1873   0.254   1.426   4.250
  446SOL    HW1 1874   0.242   1.521   4.252
  446SOL    HW2 1875   0.193   1.392   4.315
  447SOL     OW 1876   0.251   1.083   4.609
  447SOL    HW1 1877   0.266   0.992   4.634
  447SOL    HW2 1878   0.190   1.115   4.675
  448SOL     OW 1879   0.610   1.791   5.154
  448SOL    HW1 1880   0.527   1.773   5.198
  448SOL    HW2 1881   0.631   1.882   5.179
  449SOL     OW 1882   0.574   0.990   3.866
  449SOL    HW1 1883   0.624   1.030   3.794
  449SOL    HW2 1884   0.619   1.020   3.945
  450SOL     OW 1885   1.577   0.118   5.190
  450SOL    HW1 1886   1.610   0.185   5.132
  450SOL    HW2 1887   1.568   0.162   5.275
  451SOL     OW 1888   0.136   0.645   4.297
  451SOL    HW1 1889   0.086   0.567   4.319
  451SOL    HW2 1890   0.108   0.710   4.363
  452SOL     OW 1891   1.844   1.757   4.055
  452SOL    HW1 1892   1.907   1.730   4.121
  452SOL    HW2 1893   1.865   1.849   4.037
  453SOL     OW 1894   0.032   1.604   3.871
  453SOL    HW1 1895   0.019   1.509   3.863
  453SOL    HW2 1896   0.035   1.620   3.965
  454SOL     OW 1897   1.690   0.920   4.368
  454SOL    HW1 1898   1.772   0.876   4.345
  454SOL    HW2 1899   1.667   0.970   4.289
  455SOL     OW 1900   1.648   1.105   4.153
  455SOL    HW1 1901   1.734   1.109   4.111
  455SOL    HW2 1902   1.653   1.167   4.226
  456SOL     OW 1903   0.102   0.768   5.297
  456SOL    HW1 1904   0.190   0.758   5.261
  456SOL    HW2 1905   0.098   0.860   5.326
  457SOL     OW 1906   0.615   1.388   4.461
  457SOL    HW1 1907   0.568   1.305   4.470
  457SOL    HW2 1908   0.598   1.414   4.370
  458SOL     OW 1909   1.290   1.240   5.145
  458SOL    HW1 1910   1.318   1.170   5.086
  458SOL    HW2 1911   1.345   1.230   5.222
  459SOL     OW 1912   0.825   0.017   4.280
  459SOL    HW1 1913   0.860   0.102   4.253
  459SOL    HW2 1914   0.730   0.025   4.267
  460SOL     OW 1915   0.177   0.940   5.003
  460SOL    HW1 1916   0.269   0.920   4.983
  460SOL    HW2 1917   0.132   0.931   4.919
  461SOL     OW 1918   1.531   0.995   3.924
  461SOL    HW1 1919   1.461   0.939   3.957
  461SOL    HW2 1920   1.573   1.030   4.002
  462SOL     OW 1921   1.174   1.803   5.348
  462SOL    HW1 1922   1.193   1.868   5.280
  462SOL    HW2 1923   1.197   1.719   5.308
  463SOL     OW 1924   0.317   0.260   5.490
  463SOL    HW1 1925   0.385   0.310   5.536
  463SOL    HW2 1926   0.240   0.268   5.546
  464SOL     OW 1927   1.455   1.426   4.667
  464SOL    HW1 1928   1.392   1.437   4.738
  464SOL    HW2 1929   1.448   1.334   4.643
  465SOL     OW 1930   1.659   1.743   4.299
  465SOL    HW1 1931   1.637   1.711   4.212
  465SOL    HW2 1932   1.636   1.671   4.358
  466SOL     OW 1933   0.595   0.723   3.991
  466SOL    HW1 1934   0.594   0.805   3.943
  466SOL    HW2 1935   0.528   0.734   4.060
  467SOL     OW 1936   1.293   0.370   4.656
  467SOL    HW1 1937   1.204   0.340   4.638
  467SOL    HW2 1938   1.328   0.306   4.717
  468SOL     OW 1939   1.579   1.671   4.033
  468SOL    HW1 1940   1.670   1.700   4.025
  468SOL    HW2 1941   1.552   1.654   3.943
  469SOL     OW 1942   0.798   0.618   5.178
  469SOL    HW1 1943   0.769   0.591   5.265
  469SOL    HW2 1944   0.758   0.555   5.119
  470SOL     OW 1945   1.388   0.481   5.400
  470SOL    HW1 1946   1.392   0.525   5.485
  470SOL    HW2 1947   1.454   0.412   5.405
  471SOL     OW 1948   0.953   0.887   5.308
  471SOL    HW1 1949   1.007   0.817   5.272
  471SOL    HW2 1950   0.905   0.922   5.233
  472SOL     OW 1951   0.998   0.418   4.957
  472SOL    HW1 1952   0.909   0.422   4.992
  472SOL    HW2 1953   0.991   0.364   4.878
  473SOL     OW 1954   1.051   0.698   4.150
  473SOL    HW1 1955   1.069   0.689   4.243
  473SOL    HW2 1956   0.968   0.653   4.137
  474SOL     OW 1957   0.094   0.828   4.509
  474SOL    HW1 1958   0.180   0.817   4.549
  474SOL    HW2 1959   0.035   0.839   4.584
  475SOL     OW 1960   0.120   1.864   5.303
  475SOL    HW1 1961   0.115   1.839   5.395
  475SOL    HW2 1962   0.046   1.819   5.262
  476SOL     OW 1963   0.854   0.371   3.909
  476SOL    HW1 1964   0.924   0.404   3.852
  476SOL    HW2 1965   0.869   0.276   3.911
  477SOL     OW 1966   1.702   0.571   5.553
  477SOL    HW1 1967   1.667   0.645   5.504
  477SOL    HW2 1968   1.739   0.513   5.486
  478SOL     OW 1969   1.379   1.143   4.264
  478SOL    HW1 1970   1.458   1.131   4.211
  478SOL    HW2 1971   1.326   1.204   4.214
  479SOL     OW 1972   0.539   0.207   4.624
  479SOL    HW1 1973   0.560   0.225   4.715
  479SOL    HW2 1974   0.534   0.293   4.583
  480SOL     OW 1975   1.003   1.444   4.195
  480SOL    HW1 1976   0.969   1.518   4.144
  480SOL    HW2 1977   0.981   1.465   4.286
  481SOL     OW 1978   0.357   1.813   4.584
  481SOL    HW1 1979   0.398   1.728   4.595
  481SOL    HW2 1980   0.427   1.876   4.603
  482SOL     OW 1981   1.798   1.057   4.593
  482SOL    HW1 1982   1.745   1.035   4.516
  482SOL    HW2 1983   1.735   1.062   4.665
  483SOL     OW 1984   1.224   1.540   5.235
  483SOL    HW1 1985   1.213   1.469   5.298
  483SOL    HW2 1986   1.157   1.524   5.169
  484SOL     OW 1987   0.313   0.953   3.981
  484SOL    HW1 1988   0.396   0.977   3.941
  484SOL    HW2 1989   0.300   0.861   3.957
  485SOL     OW 1990   1.481   0.746   4.447
  485SOL    HW1 1991   1.473   0.704   4.533
  485SOL    HW2 1992   1.559   0.801   4.455
  486SOL     OW 1993   0.470   1.264   5.459
  486SOL    HW1 1994   0.443   1.270   5.367
  486SOL    HW2 1995   0.388   1.266   5.508
  487SOL     OW 1996   1.123   1.778   3.954
  487SOL    HW1 1997   1.048   1.737   3.998
  487SOL    HW2 1998   1.147   1.716   3.885
  488SOL     OW 1999   0.159   0.266   5.236
  488SOL    HW1 2000   0.134   0.353   5.204
  488SOL    HW2 2001   0.196   0.282   5.323
  489SOL     OW 2002   1.628   1.381   3.814
  489SOL    HW1 2003   1.587   1.466   3.797
  489SOL    HW2 2004   1.560   1.317   3.793
  490SOL     OW 2005   0.469   1.742   4.038
  490SOL    HW1 2006   0.513   1.796   4.103
  490SOL    HW2 2007   0.540   1.705   3.985
  491SOL     OW 2008   1.425   0.144   4.143
  491SOL    HW1 2009   1.409   0.089   4.067
  491SOL    HW2 2010   1.519   0.133   4.161
  492SOL     OW 2011   0.254   1.787   4.954
  492SOL    HW1 2012   0.301   1.711   4.988
  492SOL    HW2 2013   0.220   1.758   4.869
  493SOL     OW 2014   0.938   1.699   4.621
  493SOL    HW1 2015   1.017   1.648   4.640
  493SOL    HW2 2016   0.895   1.649   4.551
  494SOL     OW 2017   0.396   0.691   4.195
  494SOL    HW1 2018   0.420   0.599   4.210
  494SOL    HW2 2019   0.304   0.695   4.221
  495SOL     OW 2020   1.524   0.233   5.447
  495SOL    HW1 2021   1.524   0.255   5.540
  495SOL    HW2 2022   1.445   0.181   5.434
  496SOL     OW 2023   0.628   0.119   3.843
  496SOL    HW1 2024   0.716   0.084   3.855
  496SOL    HW2 2025   0.597   0.080   3.761
  497SOL     OW 2026   0.768   0.271   5.479
  497SOL    HW1 2027   0.837   0.204   5.480
  497SOL    HW2 2028   0.732   0.269   5.568
  498SOL     OW 2029   0.877   1.524   4.917
  498SOL    HW1 2030   0.860   1.486   4.831
  498SOL    HW2 2031   0.945   1.468   4.955
  499SOL     OW 2032   1.340   0.590   5.152
  499SOL    HW1 2033   1.368   0.561   5.239
  499SOL    HW2 2034   1.375   0.678   5.144
  500SOL     OW 2035   0.817   1.392   4.667
  500SOL    HW1 2036   0.901   1.380   4.623
  500SOL    HW2 2037   0.753   1.396   4.596
  501SOL     OW 2038   0.925   0.522   4.621
  501SOL    HW1 2039   0.908   0.520   4.527
  501SOL    HW2 2040   0.958   0.435   4.642
  502SOL     OW 2041   0.566   0.071   4.231
  502SOL    HW1 2042   0.480   0.057   4.272
  502SOL    HW2 2043   0.549   0.138   4.165
  503SOL     OW 2044   1.428   1.199   3.764
  503SOL    HW1 2045   1.457   1.124   3.815
  503SOL    HW2 2046   1.342   1.221   3.801
  504SOL     OW 2047   0.305   0.070   3.915
  504SOL    HW1 2048   0.389   0.117   3.915
  504SOL    HW2 2049   0.319   4.498   3.977
  505SOL     OW 2050   0.958   0.240   4.189
  505SOL    HW1 2051   0.904   0.303   4.140
  505SOL    HW2 2052   1.047   0.274   4.183
  506SOL     OW 2053   1.081   0.683   5.183
  506SOL    HW1 2054   1.011   0.618   5.182
  506SOL    HW2 2055   1.161   0.633   5.172
  507SOL     OW 2056   1.215   1.570   4.517
  507SOL    HW1 2057   1.233   1.637   4.450
  507SOL    HW2 2058   1.292   1.571   4.573
  508SOL     OW 2059   0.468   1.152   4.457
  508SOL    HW1 2060   0.399   1.132   4.521
  508SOL    HW2 2061   0.427   1.136   4.372
  509SOL     OW 2062   1.266   1.792   4.334
  509SOL    HW1 2063   1.315   1.853   4.279
  509SOL    HW2 2064   1.200   1.847   4.377
  510SOL     OW 2065   1.027   0.544   3.744
  510SOL    HW1 2066   0.979   0.625   3.728
  510SOL    HW2 2067   1.086   0.564   3.816
  511SOL     OW 2068   0.094   0.511   5.137
  511SOL    HW1 2069   0.148   0.517   5.058
  511SOL    HW2 2070   0.055   0.598   5.146
  512SOL     OW 2071   0.558   0.247   4.892
  512SOL    HW1 2072   0.588   0.166   4.931
  512SOL    HW2 2073   0.464   0.248   4.908
  513SOL     OW 2074   0.864   0.505   4.352
  513SOL    HW1 2075   0.826   0.541   4.273
  513SOL    HW2 2076   0.819   0.421   4.365
  514SOL     OW 2077   0.954   0.016   4.521
  514SOL    HW1 2078   0.910   0.019   4.436
  514SOL    HW2 2079   0.971   4.423   4.535
  515SOL     OW 2080   1.439   1.165   4.582
  515SOL    HW1 2081   1.369   1.099   4.581
  515SOL    HW2 2082   1.466   1.172   4.491
  516SOL     OW 2083   1.464   0.608   4.694
  516SOL    HW1 2084   1.409   0.530   4.695
  516SOL    HW2 2085   1.521   0.598   4.771
  517SOL     OW 2086   1.843   0.814   4.108
  517SOL    HW1 2087   1.901   0.764   4.166
  517SOL    HW2 2088   1.817   0.752   4.041
  518SOL     OW 2089   0.491   1.420   3.880
  518SOL    HW1 2090   0.413   1.392   3.928
  518SOL    HW2 2091   0.479   1.385   3.792
  519SOL     OW 2092   1.673   1.263   4.368
  519SOL    HW1 2093   1.768   1.264   4.383
  519SOL    HW2 2094   1.645   1.352   4.388
  520SOL     OW 2095   1.395   0.572   3.793
  520SOL    HW1 2096   1.332   0.556   3.864
  520SOL    HW2 2097   1.480   0.556   3.832
  521SOL     OW 2098   0.519   0.264   4.042
  521SOL    HW1 2099   0.571   0.215   3.978
  521SOL    HW2 2100   0.502   0.348   4.001
  522SOL     OW 2101   1.752   1.233   5.276
  522SOL    HW1 2102   1.841   1.206   5.251
  522SOL    HW2 2103   1.765   1.309   5.333
  523SOL     OW 2104   1.056   1.355   5.059
  523SOL    HW1 2105   0.981   1.323   5.109
  523SOL    HW2 2106   1.131   1.313   5.099
  524SOL     OW 2107   1.587   1.596   5.364
  524SOL    HW1 2108   1.630   1.666   5.315
  524SOL    HW2 2109   1.659   1.544   5.400
  525SOL     OW 2110   1.134   1.210   4.828
  525SOL    HW1 2111   1.069   1.242   4.891
  525SOL    HW2 2112   1.101   1.239   4.743
  526SOL     OW 2113   1.627   1.100   4.804
  526SOL    HW1 2114   1.624   1.163   4.876
  526SOL    HW2 2115   1.549   1.119   4.752
  527SOL     OW 2116   0.899   0.136   5.108
  527SOL    HW1 2117   0.921   0.089   5.028
  527SOL    HW2 2118   0.983   0.154   5.150
  528SOL     OW 2119   0.984   1.115   5.447
  528SOL    HW1 2120   0.893   1.131   5.471
  528SOL    HW2 2121   0.982   1.037   5.392
  529SOL     OW 2122   0.709   1.062   4.096
  529SOL    HW1 2123   0.696   1.044   4.189
  529SOL    HW2 2124   0.784   1.008   4.071
  530SOL     OW 2125   0.430   0.829   4.968
  530SOL    HW1 2126   0.499   0.839   5.035
  530SOL    HW2 2127   0.375   0.759   5.002
  531SOL     OW 2128   1.268   0.374   4.999
  531SOL    HW1 2129   1.301   0.453   5.043
  531SOL    HW2 2130   1.179   0.396   4.973
  532SOL     OW 2131   0.064   1.576   5.072
  532SOL    HW1 2132   0.039   1.665   5.049
  532SOL    HW2 2133   0.160   1.578   5.075
  533SOL     OW 2134   0.340   1.111   4.217
  533SOL    HW1 2135   0.352   1.185   4.158
  533SOL    HW2 2136   0.340   1.035   4.160
  534SOL     OW 2137   0.563   0.520   4.575
  534SOL    HW1 2138   0.573   0.583   4.503
  534SOL    HW2 2139   0.624   0.551   4.642
  535SOL     OW 2140   1.248   1.349   4.114
  535SOL    HW1 2141   1.303   1.420   4.144
  535SOL    HW2 2142   1.161   1.370   4.147
  536SOL     OW 2143   1.281   1.456   4.872
  536SOL    HW1 2144   1.335   1.454   4.951
  536SOL    HW2 2145   1.224   1.380   4.879
  537SOL     OW 2146   1.580   0.622   4.203
  537SOL    HW1 2147   1.531   0.670   4.271
  537SOL    HW2 2148   1.624   0.691   4.153
  538SOL     OW 2149   0.346   1.534   5.036
  538SOL    HW1 2150   0.333   1.485   4.954
  538SOL    HW2 2151   0.441   1.543   5.044
  539SOL     OW 2152   0.493   0.757   5.401
  539SOL    HW1 2153   0.518   0.795   5.316
  539SOL    HW2 2154   0.549   0.680   5.410
  540SOL     OW 2155   1.603   0.778   5.408
  540SOL    HW1 2156   1.517   0.820   5.402
  540SOL    HW2 2157   1.656   0.820   5.340
  541SOL     OW 2158   0.999   0.088   5.438
  541SOL    HW1 2159   1.040   0.166   5.402
  541SOL    HW2 2160   1.023   0.018   5.377
  542SOL     OW 2161   0.495   0.042   5.477
  542SOL    HW1 2162   0.482   4.496   5.395
  542SOL    HW2 2163   0.430   0.112   5.476
  543SOL     OW 2164   0.590   0.875   4.749
  543SOL    HW1 2165   0.622   0.966   4.751
  543SOL    HW2 2166   0.534   0.867   4.826
  544SOL     OW 2167   1.353   0.858   4.751
  544SOL    HW1 2168   1.268   0.846   4.708
  544SOL    HW2 2169   1.397   0.774   4.742
  545SOL     OW 2170   1.200   0.536   3.983
  545SOL    HW1 2171   1.207   0.456   4.036
  545SOL    HW2 2172   1.157   0.599   4.041
  546SOL     OW 2173   0.283   0.213   4.958
  546SOL    HW1 2174   0.242   0.231   5.042
  546SOL    HW2 2175   0.328   0.129   4.971
  547SOL     OW 2176   0.028   1.313   5.011
  547SOL    HW1 2177   0.070   1.264   5.083
  547SOL    HW2 2178   0.038   1.404   5.036
  548SOL     OW 2179   0.722   0.630   4.778
  548SOL    HW1 2180   0.798   0.611   4.723
  548SOL    HW2 2181   0.696   0.719   4.755
  549SOL     OW 2182   1.735   0.959   5.579
  549SOL    HW1 2183   1.690   0.894   5.525
  549SOL    HW2 2184   1.676   0.974   5.653
  550SOL     OW 2185   0.323   0.072   4.353
  550SOL    HW1 2186   0.303   0.161   4.382
  550SOL    HW2 2187   0.311   0.018   4.431
  551SOL     OW 2188   1.620   0.382   4.082
  551SOL    HW1 2189   1.645   0.317   4.147
  551SOL    HW2 2190   1.595   0.459   4.133
  552SOL     OW 2191   1.031   0.763   4.684
  552SOL    HW1 2192   1.024   0.779   4.778
  552SOL    HW2 2193   1.001   0.673   4.672
  553SOL     OW 2194   0.980   1.565   5.442
  553SOL    HW1 2195   0.966   1.610   5.359
  553SOL    HW2 2196   1.024   1.483   5.419
  554SOL     OW 2197   0.346   0.935   5.542
  554SOL    HW1 2198   0.417   0.968   5.598
  554SOL    HW2 2199   0.388   0.867   5.489
  555SOL     OW 2200   1.529   0.262   3.852
  555SOL    HW1 2201   1.459   0.205   3.884
  555SOL    HW2 2202   1.560   0.309   3.929
  556SOL     OW 2203   1.289   0.826   3.753
  556SOL    HW1 2204   1.331   0.740   3.756
  556SOL    HW2 2205   1.321   0.865   3.672
  557SOL     OW 2206   1.067   1.335   4.580
  557SOL    HW1 2207   1.070   1.263   4.517
  557SOL    HW2 2208   1.123   1.403   4.542
  558SOL     OW 2209   0.319   0.813   4.668
  558SOL    HW1 2210   0.413   0.830   4.667
  558SOL    HW2 2211   0.312   0.721   4.695
  559SOL     OW 2212   0.331   0.532   4.709
  559SOL    HW1 2213   0.287   0.449   4.692
  559SOL    HW2 2214   0.410   0.528   4.654
  560SOL     OW 2215   1.137   0.371   5.424
  560SOL    HW1 2216   1.085   0.434   5.474
  560SOL    HW2 2217   1.221   0.415   5.411
  561SOL     OW 2218   1.152   0.215   5.198
  561SOL    HW1 2219   1.149   0.279   5.269
  561SOL    HW2 2220   1.197   0.261   5.126
  562SOL     OW 2221   4.491   1.320   3.933
  562SOL    HW1 2222   4.398   1.337   3.914
  562SOL    HW2 2223   4.494   1.227   3.953
  563SOL     OW 2224   0.101   1.771   4.665
  563SOL    HW1 2225   0.061   1.725   4.591
  563SOL    HW2 2226   0.188   1.794   4.634
  564SOL     OW 2227   0.494   1.574   4.631
  564SOL    HW1 2228   0.563   1.637   4.655
  564SOL    HW2 2229   0.538   1.512   4.573
  565SOL     OW 2230   0.980   0.792   4.950
  565SOL    HW1 2231   1.037   0.770   5.023
  565SOL    HW2 2232   0.896   0.751   4.970
  566SOL     OW 2233   0.034   0.567   4.834
  566SOL    HW1 2234   0.111   0.529   4.792
  566SOL    HW2 2235   0.003   0.499   4.894
  567SOL     OW 2236   0.179   0.531   5.440
  567SOL    HW1 2237   0.267   0.513   5.407
  567SOL    HW2 2238   0.151   0.609   5.391
  568SOL     OW 2239   1.378   0.935   5.382
  568SOL    HW1 2240   1.399   1.029   5.379
  568SOL    HW2 2241   1.375   0.909   5.290
  569SOL     OW 2242   0.811   0.576   4.083
  569SOL    HW1 2243   0.816   0.505   4.019
  569SOL    HW2 2244   0.739   0.631   4.053
  570SOL     OW 2245   1.639   0.602   4.907
  570SOL    HW1 2246   1.629   0.543   4.982
  570SOL    HW2 2247   1.726   0.583   4.874
  571SOL     OW 2248   0.273   1.562   5.464
  571SOL    HW1 2249   0.214   1.613   5.519
  571SOL    HW2 2250   0.256   1.471   5.487
  572SOL     OW 2251   0.694   0.462   4.988
  572SOL    HW1 2252   0.650   0.384   4.956
  572SOL    HW2 2253   0.697   0.522   4.913
  573SOL     OW 2254   0.925   1.677   5.191
  573SOL    HW1 2255   0.899   1.642   5.106
  573SOL    HW2 2256   0.920   1.772   5.181
  574SOL     OW 2257   0.472   0.491   3.904
  574SOL    HW1 2258   0.533   0.560   3.928
  574SOL    HW2 2259   0.389   0.535   3.888
  575SOL     OW 2260   0.161   1.141   5.183
  575SOL    HW1 2261   0.144   1.097   5.266
  575SOL    HW2 2262   0.168   1.070   5.119
  576SOL     OW 2263   1.325   1.047   4.945
  576SOL    HW1 2264   1.346   0.982   4.878
  576SOL    HW2 2265   1.257   1.101   4.905
  577SOL     OW 2266   1.314   0.856   4.029
  577SOL    HW1 2267   1.239   0.827   4.081
  577SOL    HW2 2268   1.287   0.844   3.938
  578SOL     OW 2269   1.240   1.731   4.844
  578SOL    HW1 2270   1.329   1.756   4.821
  578SOL    HW2 2271   1.243   1.636   4.855
  579SOL     OW 2272   0.068   1.185   4.774
  579SOL    HW1 2273   0.059   1.214   4.865
  579SOL    HW2 2274   0.034   1.257   4.722
  580SOL     OW 2275   0.679   1.668   5.459
  580SOL    HW1 2276   0.620   1.743   5.449
  580SOL    HW2 2277   0.745   1.680   5.391
  581SOL     OW 2278   1.720   0.129   4.212
  581SOL    HW1 2279   1.788   0.141   4.146
  581SOL    HW2 2280   1.753   0.058   4.267
  582SOL     OW 2281   1.392   1.568   4.212
  582SOL    HW1 2282   1.450   1.600   4.144
  582SOL    HW2 2283   1.341   1.644   4.239
  583SOL     OW 2284   0.117   1.808   5.573
  583SOL    HW1 2285   0.076   1.736   5.621
  583SOL    HW2 2286   0.181   1.845   5.634
  584SOL     OW 2287   1.279   0.929   4.397
  584SOL    HW1 2288   1.352   0.868   4.404
  584SOL    HW2 2289   1.313   1.001   4.343
  585SOL     OW 2290   0.809   1.275   5.151
  585SOL    HW1 2291   0.782   1.315   5.234
  585SOL    HW2 2292   0.739   1.295   5.090
  586SOL     OW 2293   0.672   1.623   3.879
  586SOL    HW1 2294   0.683   1.635   3.785
  586SOL    HW2 2295   0.617   1.545   3.886
  587SOL     OW 2296   1.839   0.152   4.689
  587SOL    HW1 2297   1.869   0.074   4.643
  587SOL    HW2 2298   1.752   0.170   4.652
  588SOL     OW 2299   0.259   0.323   4.443
  588SOL    HW1 2300   0.176   0.357   4.411
  588SOL    HW2 2301   0.246   0.313   4.537
  589SOL     OW 2302   1.208   1.604   3.756
  589SOL    HW1 2303   1.197   1.513   3.782
  589SOL    HW2 2304   1.143   1.617   3.687
  590SOL     OW 2305   0.825   1.007   5.098
  590SOL    HW1 2306   0.867   1.002   5.012
  590SOL    HW2 2307   0.823   1.101   5.117
  591SOL     OW 2308   0.916   0.910   4.015
  591SOL    HW1 2309   0.977   0.943   3.948
  591SOL    HW2 2310   0.964   0.842   4.060
  592SOL     OW 2311   1.490   1.627   3.767
  592SOL    HW1 2312   1.396   1.618   3.752
  592SOL    HW2 2313   1.528   1.632   3.679
  593SOL     OW 2314   0.373   1.309   5.214
  593SOL    HW1 2315   0.355   1.388   5.163
  593SOL    HW2 2316   0.299   1.251   5.197
  594SOL     OW 2317   1.635   1.291   5.015
  594SOL    HW1 2318   1.677   1.267   5.098
  594SOL    HW2 2319   1.568   1.355   5.039
  595SOL     OW 2320   1.056   1.109   4.432
  595SOL    HW1 2321   0.984   1.058   4.470
  595SOL    HW2 2322   1.120   1.043   4.404
  596SOL     OW 2323   1.001   0.246   4.735
  596SOL    HW1 2324   1.008   0.229   4.642
  596SOL    HW2 2325   0.993   0.160   4.775
  597SOL     OW 2326   0.606   1.489   4.206
  597SOL    HW1 2327   0.651   1.440   4.138
  597SOL    HW2 2328   0.529   1.525   4.163
  598SOL     OW 2329   1.724   0.394   5.100
  598SOL    HW1 2330   1.797   0.456   5.100
  598SOL    HW2 2331   1.752   0.323   5.043
  599SOL     OW 2332   0.252   1.343   3.999
  599SOL    HW1 2333   0.157   1.340   3.986
  599SOL    HW2 2334   0.263   1.375   4.088
  600SOL     OW 2335   0.115   1.006   5.418
  600SOL    HW1 2336   0.053   1.053   5.473
  600SOL    HW2 2337   0.194   0.998   5.471
  601SOL     OW 2338   0.658   0.211   5.224
  601SOL    HW1 2339   0.737   0.184   5.177
  601SOL    HW2 2340   0.688   0.228   5.313
  602SOL     OW 2341   0.073   0.320   3.749
  602SOL    HW1 2342   4.480   0.326   3.768
  602SOL    HW2 2343   0.098   0.408   3.719
  603SOL     OW 2344   1.427   0.858   5.123
  603SOL    HW1 2345   1.379   0.919   5.067
  603SOL    HW2 2346   1.517   0.860   5.088
  604SOL     OW 2347   0.086   0.188   4.026
  604SOL    HW1 2348   0.074   0.262   3.967
  604SOL    HW2 2349   0.166   0.145   3.996
  605SOL     OW 2350   1.178   1.337   3.841
  605SOL    HW1 2351   1.087   1.307   3.843
  605SOL    HW2 2352   1.205   1.338   3.933
  606SOL     OW 2353   0.625   0.829   5.157
  606SOL    HW1 2354   0.680   0.906   5.143
  606SOL    HW2 2355   0.687   0.756   5.163
  607SOL     OW 2356   0.711   0.563   5.429
  607SOL    HW1 2357   0.757   0.625   5.486
  607SOL    HW2 2358   0.739   0.477   5.460
  608SOL     OW 2359   1.470   1.196   5.354
  608SOL    HW1 2360   1.459   1.212   5.448
  608SOL    HW2 2361   1.564   1.207   5.339
  609SOL     OW 2362   0.377   1.745   5.289
  609SOL    HW1 2363   0.292   1.787   5.270
  609SOL    HW2 2364   0.354   1.667   5.338
  610SOL     OW 2365   1.667   0.880   4.979
  610SOL    HW1 2366   1.661   0.795   4.936
  610SOL    HW2 2367   1.657   0.943   4.907
  611SOL     OW 2368   1.220   0.332   4.170
  611SOL    HW1 2369   1.287   0.265   4.157
  611SOL    HW2 2370   1.248   0.380   4.248
  612SOL     OW 2371   0.585   0.735   4.397
  612SOL    HW1 2372   0.626   0.821   4.382
  612SOL    HW2 2373   0.519   0.728   4.328
  613SOL     OW 2374   1.759   0.369   5.368
  613SOL    HW1 2375   1.744   0.383   5.275
  613SOL    HW2 2376   1.681   0.322   5.398
  614SOL     OW 2377   1.745   0.931   5.237
  614SOL    HW1 2378   1.747   1.026   5.250
  614SOL    HW2 2379   1.730   0.921   5.143
  615SOL     OW 2380   0.864   1.366   3.762
  615SOL    HW1 2381   0.825   1.394   3.845
  615SOL    HW2 2382   0.880   1.447   3.714
  616SOL     OW 2383   0.662   1.789   4.667
  616SOL    HW1 2384   0.643   1.879   4.644
  616SOL    HW2 2385   0.757   1.781   4.658
  617SOL     OW 2386   0.869   0.969   4.578
  617SOL    HW1 2387   0.919   0.897   4.615
  617SOL    HW2 2388   0.832   1.015   4.653
  618SOL     OW 2389   1.078   0.989   3.814
  618SOL    HW1 2390   1.056   1.040   3.736
  618SOL    HW2 2391   1.153   0.934   3.786
  619SOL     OW 2392   1.837   1.575   4.581
  619SOL    HW1 2393   1.774   1.541   4.517
  619SOL    HW2 2394   1.823   1.522   4.659
  620SOL     OW 2395   0.232   1.304   5.584
  620SOL    HW1 2396   0.152   1.256   5.565
  620SOL    HW2 2397   0.232   1.315   5.679
  621SOL     OW 2398   0.115   1.231   4.392
  621SOL    HW1 2399   0.132   1.189   4.477
  621SOL    HW2 2400   0.172   1.185   4.331
  622SOL     OW 2401   0.684   1.405   5.354
  622SOL    HW1 2402   0.604   1.361   5.383
  622SOL    HW2 2403   0.678   1.493   5.392
  623SOL     OW 2404   1.805   0.178   4.962
  623SOL    HW1 2405   1.802   0.085   4.982
  623SOL    HW2 2406   1.822   0.183   4.868
  624SOL     OW 2407   0.444   0.429   4.258
  624SOL    HW1 2408   0.457   0.360   4.193
  624SOL    HW2 2409   0.382   0.391   4.321
  625SOL     OW 2410   1.707   1.457   4.801
  625SOL    HW1 2411   1.619   1.458   4.761
  625SOL    HW2 2412   1.696   1.406   4.881
  626SOL     OW 2413   0.309   0.506   4.974
  626SOL    HW1 2414   0.381   0.456   5.012
  626SOL    HW2 2415   0.333   0.517   4.882
  627SOL     OW 2416   0.829   1.578   4.400
  627SOL    HW1 2417   0.812   1.637   4.327
  627SOL    HW2 2418   0.754   1.519   4.402
  628SOL     OW 2419   1.431   0.217   4.840
  628SOL    HW1 2420   1.466   0.145   4.893
  628SOL    HW2 2421   1.380   0.269   4.902
  629SOL     OW 2422   0.995   0.003   4.878
  629SOL    HW1 2423   0.956   4.416   4.869
  629SOL    HW2 2424   1.089   4.486   4.886
  630SOL     OW 2425   0.773   1.333   4.042
  630SOL    HW1 2426   0.744   1.242   4.048
  630SOL    HW2 2427   0.855   1.336   4.091
  631SOL     OW 2428   0.621   1.555   5.010
  631SOL    HW1 2429   0.622   1.637   5.060
  631SOL    HW2 2430   0.708   1.549   4.972
  632SOL     OW 2431   1.339   0.052   3.882
  632SOL    HW1 2432   1.377   4.476   3.837
  632SOL    HW2 2433   1.262   0.016   3.928
  633SOL     OW 2434   1.315   0.465   4.397
  633SOL    HW1 2435   1.258   0.542   4.398
  633SOL    HW2 2436   1.304   0.425   4.483
  634SOL     OW 2437   1.585   0.199   4.593
  634SOL    HW1 2438   1.527   0.214   4.667
  634SOL    HW2 2439   1.588   0.282   4.546
  635SOL     OW 2440   0.040   1.050   4.014
  635SOL    HW1 2441   0.133   1.029   4.002
  635SOL    HW2 2442   0.021   1.024   4.105
  636SOL     OW 2443   0.887   1.656   4.064
  636SOL    HW1 2444   0.814   1.639   4.005
  636SOL    HW2 2445   0.858   1.730   4.118
  637SOL     OW 2446   0.245   0.629   5.710
  637SOL    HW1 2447   0.171   0.603   5.765
  637SOL    HW2 2448   0.213   0.617   5.620
  638SOL     OW 2449   0.192   0.295   6.574
  638SOL    HW1 2450   0.222   0.265   6.660
  638SOL    HW2 2451   0.132   0.226   6.545
  639SOL     OW 2452   0.001   0.389   6.223
  639SOL    HW1 2453   4.424   0.424   6.268
  639SOL    HW2 2454   4.467   0.315   6.172
  640SOL     OW 2455   0.569   1.293   6.765
  640SOL    HW1 2456   0.482   1.297   6.725
  640SOL    HW2 2457   0.584   1.380   6.800
  641SOL     OW 2458   1.573   1.512   6.294
  641SOL    HW1 2459   1.525   1.493   6.374
  641SOL    HW2 2460   1.506   1.527   6.227
  642SOL     OW 2461   1.138   0.697   6.281
  642SOL    HW1 2462   1.182   0.781   6.272
  642SOL    HW2 2463   1.087   0.705   6.362
  643SOL     OW 2464   1.772   0.603   5.812
  643SOL    HW1 2465   1.748   0.595   5.719
  643SOL    HW2 2466   1.736   0.524   5.852
  644SOL     OW 2467   0.750   1.140   6.629
  644SOL    HW1 2468   0.683   1.176   6.687
  644SOL    HW2 2469   0.788   1.216   6.585
  645SOL     OW 2470   0.868   0.768   7.407
  645SOL    HW1 2471   0.854   0.837   7.471
  645SOL    HW2 2472   0.893   0.813   7.326
  646SOL     OW 2473   0.684   1.000   6.232
  646SOL    HW1 2474   0.751   0.990   6.300
  646SOL    HW2 2475   0.616   1.053   6.273
  647SOL     OW 2476   0.713   1.149   7.402
  647SOL    HW1 2477   0.760   1.227   7.430
  647SOL    HW2 2478   0.632   1.182   7.363
  648SOL     OW 2479   0.334   1.419   6.654
  648SOL    HW1 2480   0.253   1.399   6.608
  648SOL    HW2 2481   0.384   1.473   6.593
  649SOL     OW 2482   1.460   1.500   6.944
  649SOL    HW1 2483   1.513   1.579   6.953
  649SOL    HW2 2484   1.394   1.507   7.013
  650SOL     OW 2485   0.442   0.393   7.071
  650SOL    HW1 2486   0.531   0.358   7.071
  650SOL    HW2 2487   0.388   0.320   7.102
  651SOL     OW 2488   1.608   0.443   6.325
  651SOL    HW1 2489   1.529   0.463   6.276
  651SOL    HW2 2490   1.623   0.521   6.379
  652SOL     OW 2491   0.246   1.691   6.061
  652SOL    HW1 2492   0.229   1.776   6.101
  652SOL    HW2 2493   0.317   1.708   6.000
  653SOL     OW 2494   1.137   1.342   7.280
  653SOL    HW1 2495   1.177   1.336   7.366
  653SOL    HW2 2496   1.085   1.262   7.273
  654SOL     OW 2497   0.254   1.426   6.112
  654SOL    HW1 2498   0.242   1.521   6.115
  654SOL    HW2 2499   0.193   1.392   6.177
  655SOL     OW 2500   0.251   1.083   6.471
  655SOL    HW1 2501   0.267   0.992   6.496
  655SOL    HW2 2502   0.189   1.115   6.537
  656SOL     OW 2503   0.610   1.792   7.015
  656SOL    HW1 2504   0.527   1.773   7.060
  656SOL    HW2 2505   0.631   1.881   7.040
  657SOL     OW 2506   0.574   0.990   5.728
  657SOL    HW1 2507   0.624   1.030   5.656
  657SOL    HW2 2508   0.619   1.019   5.807
  658SOL     OW 2509   1.578   0.118   7.052
  658SOL    HW1 2510   1.610   0.187   6.994
  658SOL    HW2 2511   1.568   0.162   7.137
  659SOL     OW 2512   0.136   0.645   6.159
  659SOL    HW1 2513   0.086   0.567   6.181
  659SOL    HW2 2514   0.109   0.710   6.225
  660SOL     OW 2515   0.032   1.604   5.733
  660SOL    HW1 2516   0.019   1.509   5.726
  660SOL    HW2 2517   0.035   1.621   5.827
  661SOL     OW 2518   1.690   0.919   6.228
  661SOL    HW1 2519   1.772   0.877   6.205
  661SOL    HW2 2520   1.666   0.971   6.151
  662SOL     OW 2521   1.647   1.106   6.015
  662SOL    HW1 2522   1.734   1.109   5.974
  662SOL    HW2 2523   1.653   1.168   6.088
  663SOL     OW 2524   0.102   0.768   7.159
  663SOL    HW1 2525   0.189   0.758   7.123
  663SOL    HW2 2526   0.098   0.860   7.188
  664SOL     OW 2527   0.615   1.388   6.322
  664SOL    HW1 2528   0.568   1.305   6.332
  664SOL    HW2 2529   0.599   1.414   6.232
  665SOL     OW 2530   1.287   1.237   7.008
  665SOL    HW1 2531   1.319   1.169   6.948
  665SOL    HW2 2532   1.346   1.232   7.084
  666SOL     OW 2533   0.825   0.017   6.142
  666SOL    HW1 2534   0.860   0.102   6.115
  666SOL    HW2 2535   0.730   0.025   6.128
  667SOL     OW 2536   0.177   0.940   6.865
  667SOL    HW1 2537   0.269   0.920   6.846
  667SOL    HW2 2538   0.132   0.930   6.781
  668SOL     OW 2539   1.531   0.996   5.786
  668SOL    HW1 2540   1.461   0.939   5.819
  668SOL    HW2 2541   1.573   1.030   5.865
  669SOL     OW 2542   1.185   1.809   7.210
  669SOL    HW1 2543   1.193   1.869   7.135
  669SOL    HW2 2544   1.202   1.722   7.173
  670SOL     OW 2545   0.317   0.260   7.352
  670SOL    HW1 2546   0.385   0.310   7.398
  670SOL    HW2 2547   0.240   0.268   7.408
  671SOL     OW 2548   1.465   1.422   6.534
  671SOL    HW1 2549   1.398   1.435   6.602
  671SOL    HW2 2550   1.454   1.330   6.508
  672SOL     OW 2551   0.595   0.722   5.853
  672SOL    HW1 2552   0.594   0.805   5.806
  672SOL    HW2 2553   0.528   0.734   5.922
  673SOL     OW 2554   1.293   0.369   6.518
  673SOL    HW1 2555   1.204   0.339   6.500
  673SOL    HW2 2556   1.328   0.305   6.580
  674SOL     OW 2557   0.798   0.618   7.040
  674SOL    HW1 2558   0.769   0.591   7.127
  674SOL    HW2 2559   0.758   0.554   6.981
  675SOL     OW 2560   1.388   0.481   7.262
  675SOL    HW1 2561   1.392   0.525   7.347
  675SOL    HW2 2562   1.455   0.412   7.267
  676SOL     OW 2563   0.952   0.887   7.170
  676SOL    HW1 2564   1.007   0.817   7.134
  676SOL    HW2 2565   0.905   0.922   7.095
  677SOL     OW 2566   0.998   0.418   6.819
  677SOL    HW1 2567   0.909   0.423   6.854
  677SOL    HW2 2568   0.991   0.364   6.740
  678SOL     OW 2569   1.051   0.698   6.012
  678SOL    HW1 2570   1.069   0.690   6.105
  678SOL    HW2 2571   0.968   0.653   5.999
  679SOL     OW 2572   0.094   0.828   6.371
  679SOL    HW1 2573   0.181   0.817   6.411
  679SOL    HW2 2574   0.035   0.839   6.446
  680SOL     OW 2575   0.120   1.863   7.165
  680SOL    HW1 2576   0.115   1.838   7.257
  680SOL    HW2 2577   0.046   1.819   7.124
  681SOL     OW 2578   0.854   0.370   5.770
  681SOL    HW1 2579   0.924   0.404   5.714
  681SOL    HW2 2580   0.869   0.276   5.773
  682SOL     OW 2581   1.702   0.571   7.415
  682SOL    HW1 2582   1.667   0.646   7.366
  682SOL    HW2 2583   1.738   0.513   7.348
  683SOL     OW 2584   1.379   1.141   6.125
  683SOL    HW1 2585   1.459   1.131   6.074
  683SOL    HW2 2586   1.325   1.202   6.074
  684SOL     OW 2587   0.539   0.207   6.486
  684SOL    HW1 2588   0.560   0.225   6.577
  684SOL    HW2 2589   0.534   0.294   6.445
  685SOL     OW 2590   1.004   1.445   6.058
  685SOL    HW1 2591   0.967   1.517   6.008
  685SOL    HW2 2592   0.980   1.463   6.149
  686SOL     OW 2593   0.357   1.813   6.446
  686SOL    HW1 2594   0.398   1.728   6.457
  686SOL    HW2 2595   0.427   1.876   6.465
  687SOL     OW 2596   1.800   1.049   6.458
  687SOL    HW1 2597   1.748   1.035   6.379
  687SOL    HW2 2598   1.736   1.057   6.529
  688SOL     OW 2599   1.227   1.539   7.099
  688SOL    HW1 2600   1.214   1.467   7.160
  688SOL    HW2 2601   1.162   1.525   7.031
  689SOL     OW 2602   0.313   0.953   5.843
  689SOL    HW1 2603   0.396   0.977   5.803
  689SOL    HW2 2604   0.300   0.861   5.819
  690SOL     OW 2605   1.481   0.745   6.308
  690SOL    HW1 2606   1.473   0.704   6.395
  690SOL    HW2 2607   1.558   0.801   6.316
  691SOL     OW 2608   0.470   1.264   7.321
  691SOL    HW1 2609   0.443   1.271   7.229
  691SOL    HW2 2610   0.387   1.266   7.370
  692SOL     OW 2611   1.121   1.757   5.831
  692SOL    HW1 2612   1.040   1.721   5.867
  692SOL    HW2 2613   1.142   1.700   5.758
  693SOL     OW 2614   0.159   0.266   7.098
  693SOL    HW1 2615   0.134   0.353   7.066
  693SOL    HW2 2616   0.196   0.282   7.185
  694SOL     OW 2617   1.634   1.383   5.670
  694SOL    HW1 2618   1.589   1.467   5.666
  694SOL    HW2 2619   1.566   1.318   5.656
  695SOL     OW 2620   0.468   1.742   5.899
  695SOL    HW1 2621   0.512   1.796   5.965
  695SOL    HW2 2622   0.540   1.705   5.847
  696SOL     OW 2623   1.426   0.145   6.005
  696SOL    HW1 2624   1.409   0.089   5.929
  696SOL    HW2 2625   1.519   0.133   6.023
  697SOL     OW 2626   0.254   1.786   6.816
  697SOL    HW1 2627   0.301   1.710   6.850
  697SOL    HW2 2628   0.220   1.758   6.731
  698SOL     OW 2629   0.938   1.701   6.483
  698SOL    HW1 2630   1.014   1.649   6.508
  698SOL    HW2 2631   0.895   1.650   6.414
  699SOL     OW 2632   0.396   0.691   6.057
  699SOL    HW1 2633   0.420   0.599   6.072
  699SOL    HW2 2634   0.304   0.696   6.083
  700SOL     OW 2635   1.524   0.233   7.309
  700SOL    HW1 2636   1.524   0.255   7.402
  700SOL    HW2 2637   1.444   0.181   7.296
  701SOL     OW 2638   0.628   0.120   5.705
  701SOL    HW1 2639   0.716   0.084   5.717
  701SOL    HW2 2640   0.597   0.080   5.623
  702SOL     OW 2641   0.768   0.271   7.341
  702SOL    HW1 2642   0.837   0.204   7.342
  702SOL    HW2 2643   0.732   0.269   7.430
  703SOL     OW 2644   0.877   1.523   6.779
  703SOL    HW1 2645   0.859   1.485   6.693
  703SOL    HW2 2646   0.946   1.468   6.816
  704SOL     OW 2647   1.340   0.590   7.014
  704SOL    HW1 2648   1.368   0.562   7.101
  704SOL    HW2 2649   1.375   0.679   7.005
  705SOL     OW 2650   0.817   1.393   6.529
  705SOL    HW1 2651   0.901   1.380   6.485
  705SOL    HW2 2652   0.753   1.396   6.458
  706SOL     OW 2653   0.925   0.522   6.483
  706SOL    HW1 2654   0.908   0.520   6.389
  706SOL    HW2 2655   0.958   0.435   6.504
  707SOL     OW 2656   0.565   0.071   6.093
  707SOL    HW1 2657   0.480   0.057   6.134
  707SOL    HW2 2658   0.549   0.138   6.027
  708SOL     OW 2659   1.431   1.200   5.627
  708SOL    HW1 2660   1.459   1.124   5.678
  708SOL    HW2 2661   1.345   1.223   5.663
  709SOL     OW 2662   0.305   0.070   5.777
  709SOL    HW1 2663   0.389   0.117   5.778
  709SOL    HW2 2664   0.319   4.498   5.839
  710SOL     OW 2665   0.958   0.240   6.050
  710SOL    HW1 2666   0.904   0.303   6.002
  710SOL    HW2 2667   1.047   0.274   6.045
  711SOL     OW 2668   1.081   0.683   7.045
  711SOL    HW1 2669   1.011   0.618   7.044
  711SOL    HW2 2670   1.161   0.633   7.034
  712SOL     OW 2671   1.221   1.568   6.382
  712SOL    HW1 2672   1.240   1.635   6.316
  712SOL    HW2 2673   1.291   1.578   6.447
  713SOL     OW 2674   0.468   1.152   6.319
  713SOL    HW1 2675   0.399   1.132   6.383
  713SOL    HW2 2676   0.427   1.137   6.234
  714SOL     OW 2677   1.265   1.791   6.197
  714SOL    HW1 2678   1.303   1.859   6.141
  714SOL    HW2 2679   1.193   1.836   6.242
  715SOL     OW 2680   1.027   0.544   5.606
  715SOL    HW1 2681   0.979   0.625   5.590
  715SOL    HW2 2682   1.086   0.564   5.678
  716SOL     OW 2683   0.093   0.511   6.999
  716SOL    HW1 2684   0.148   0.517   6.921
  716SOL    HW2 2685   0.055   0.598   7.008
  717SOL     OW 2686   0.558   0.247   6.754
  717SOL    HW1 2687   0.588   0.166   6.794
  717SOL    HW2 2688   0.464   0.248   6.770
  718SOL     OW 2689   0.864   0.504   6.214
  718SOL    HW1 2690   0.826   0.541   6.135
  718SOL    HW2 2691   0.818   0.421   6.227
  719SOL     OW 2692   0.954   0.016   6.382
  719SOL    HW1 2693   0.910   0.019   6.297
  719SOL    HW2 2694   0.971   4.423   6.397
  720SOL     OW 2695   1.439   1.162   6.444
  720SOL    HW1 2696   1.369   1.097   6.441
  720SOL    HW2 2697   1.466   1.172   6.352
  721SOL     OW 2698   1.465   0.607   6.556
  721SOL    HW1 2699   1.409   0.529   6.557
  721SOL    HW2 2700   1.521   0.598   6.633
  722SOL     OW 2701   1.843   0.811   5.972
  722SOL    HW1 2702   1.900   0.760   6.029
  722SOL    HW2 2703   1.817   0.749   5.903
  723SOL     OW 2704   0.491   1.420   5.742
  723SOL    HW1 2705   0.413   1.392   5.790
  723SOL    HW2 2706   0.479   1.386   5.654
  724SOL     OW 2707   1.671   1.264   6.230
  724SOL    HW1 2708   1.766   1.264   6.242
  724SOL    HW2 2709   1.645   1.354   6.251
  725SOL     OW 2710   1.395   0.572   5.655
  725SOL    HW1 2711   1.332   0.556   5.726
  725SOL    HW2 2712   1.480   0.556   5.695
  726SOL     OW 2713   0.519   0.264   5.904
  726SOL    HW1 2714   0.571   0.216   5.840
  726SOL    HW2 2715   0.502   0.348   5.863
  727SOL     OW 2716   1.751   1.241   7.155
  727SOL    HW1 2717   1.839   1.203   7.148
  727SOL    HW2 2718   1.767   1.331   7.184
  728SOL     OW 2719   1.056   1.354   6.919
  728SOL    HW1 2720   0.981   1.323   6.969
  728SOL    HW2 2721   1.132   1.312   6.960
  729SOL     OW 2722   1.609   1.625   7.243
  729SOL    HW1 2723   1.601   1.660   7.154
  729SOL    HW2 2724   1.692   1.577   7.243
  730SOL     OW 2725   1.132   1.207   6.690
  730SOL    HW1 2726   1.072   1.244   6.755
  730SOL    HW2 2727   1.100   1.239   6.606
  731SOL     OW 2728   1.625   1.097   6.663
  731SOL    HW1 2729   1.619   1.158   6.736
  731SOL    HW2 2730   1.548   1.115   6.609
  732SOL     OW 2731   0.899   0.136   6.970
  732SOL    HW1 2732   0.922   0.090   6.890
  732SOL    HW2 2733   0.983   0.154   7.012
  733SOL     OW 2734   0.984   1.115   7.310
  733SOL    HW1 2735   0.893   1.131   7.333
  733SOL    HW2 2736   0.981   1.037   7.254
  734SOL     OW 2737   0.709   1.062   5.958
  734SOL    HW1 2738   0.696   1.044   6.051
  734SOL    HW2 2739   0.784   1.008   5.934
  735SOL     OW 2740   0.431   0.829   6.830
  735SOL    HW1 2741   0.499   0.839   6.897
  735SOL    HW2 2742   0.375   0.759   6.864
  736SOL     OW 2743   1.268   0.374   6.861
  736SOL    HW1 2744   1.301   0.453   6.905
  736SOL    HW2 2745   1.179   0.396   6.835
  737SOL     OW 2746   0.064   1.576   6.933
  737SOL    HW1 2747   0.039   1.665   6.912
  737SOL    HW2 2748   0.160   1.577   6.937
  738SOL     OW 2749   0.340   1.111   6.079
  738SOL    HW1 2750   0.352   1.185   6.020
  738SOL    HW2 2751   0.340   1.034   6.022
  739SOL     OW 2752   0.563   0.520   6.437
  739SOL    HW1 2753   0.573   0.582   6.365
  739SOL    HW2 2754   0.624   0.551   6.504
  740SOL     OW 2755   1.247   1.349   5.976
  740SOL    HW1 2756   1.304   1.417   6.012
  740SOL    HW2 2757   1.160   1.370   6.009
  741SOL     OW 2758   1.285   1.459   6.734
  741SOL    HW1 2759   1.340   1.462   6.812
  741SOL    HW2 2760   1.229   1.382   6.747
  742SOL     OW 2761   1.579   0.623   6.065
  742SOL    HW1 2762   1.532   0.669   6.134
  742SOL    HW2 2763   1.624   0.692   6.016
  743SOL     OW 2764   0.346   1.533   6.898
  743SOL    HW1 2765   0.333   1.485   6.816
  743SOL    HW2 2766   0.441   1.543   6.906
  744SOL     OW 2767   0.493   0.757   7.262
  744SOL    HW1 2768   0.519   0.795   7.178
  744SOL    HW2 2769   0.550   0.680   7.272
  745SOL     OW 2770   1.604   0.779   7.269
  745SOL    HW1 2771   1.519   0.821   7.263
  745SOL    HW2 2772   1.657   0.821   7.201
  746SOL     OW 2773   0.999   0.088   7.300
  746SOL    HW1 2774   1.040   0.166   7.264
  746SOL    HW2 2775   1.023   0.018   7.239
  747SOL     OW 2776   0.495   0.042   7.339
  747SOL    HW1 2777   0.482   4.496   7.256
  747SOL    HW2 2778   0.430   0.112   7.338
  748SOL     OW 2779   0.590   0.876   6.610
  748SOL    HW1 2780   0.623   0.965   6.613
  748SOL    HW2 2781   0.535   0.867   6.688
  749SOL     OW 2782   1.353   0.858   6.612
  749SOL    HW1 2783   1.268   0.846   6.570
  749SOL    HW2 2784   1.397   0.773   6.603
  750SOL     OW 2785   1.200   0.536   5.845
  750SOL    HW1 2786   1.207   0.456   5.897
  750SOL    HW2 2787   1.157   0.599   5.903
  751SOL     OW 2788   0.283   0.212   6.820
  751SOL    HW1 2789   0.242   0.231   6.904
  751SOL    HW2 2790   0.328   0.129   6.833
  752SOL     OW 2791   0.028   1.312   6.873
  752SOL    HW1 2792   0.070   1.264   6.944
  752SOL    HW2 2793   0.038   1.404   6.898
  753SOL     OW 2794   0.722   0.629   6.640
  753SOL    HW1 2795   0.798   0.611   6.585
  753SOL    HW2 2796   0.696   0.719   6.617
  754SOL     OW 2797   1.737   0.959   7.441
  754SOL    HW1 2798   1.691   0.895   7.386
  754SOL    HW2 2799   1.677   0.975   7.514
  755SOL     OW 2800   0.323   0.072   6.215
  755SOL    HW1 2801   0.303   0.161   6.244
  755SOL    HW2 2802   0.311   0.018   6.293
  756SOL     OW 2803   1.620   0.382   5.944
  756SOL    HW1 2804   1.645   0.317   6.009
  756SOL    HW2 2805   1.595   0.459   5.995
  757SOL     OW 2806   1.031   0.763   6.546
  757SOL    HW1 2807   1.024   0.779   6.640
  757SOL    HW2 2808   1.001   0.673   6.534
  758SOL     OW 2809   0.982   1.567   7.305
  758SOL    HW1 2810   0.967   1.610   7.221
  758SOL    HW2 2811   1.025   1.484   7.282
  759SOL     OW 2812   1.854   1.503   7.191
  759SOL    HW1 2813   1.873   1.529   7.101
  759SOL    HW2 2814   1.936   1.521   7.239
  760SOL     OW 2815   0.346   0.935   7.404
  760SOL    HW1 2816   0.417   0.967   7.460
  760SOL    HW2 2817   0.388   0.867   7.350
  761SOL     OW 2818   1.529   0.262   5.714
  761SOL    HW1 2819   1.459   0.205   5.746
  761SOL    HW2 2820   1.560   0.309   5.791
  762SOL     OW 2821   1.288   0.825   5.615
  762SOL    HW1 2822   1.331   0.740   5.618
  762SOL    HW2 2823   1.320   0.865   5.534
  763SOL     OW 2824   1.066   1.336   6.441
  763SOL    HW1 2825   1.070   1.264   6.378
  763SOL    HW2 2826   1.126   1.402   6.406
  764SOL     OW 2827   0.319   0.813   6.530
  764SOL    HW1 2828   0.413   0.830   6.529
  764SOL    HW2 2829   0.312   0.721   6.557
  765SOL     OW 2830   0.331   0.532   6.571
  765SOL    HW1 2831   0.287   0.449   6.554
  765SOL    HW2 2832   0.410   0.528   6.516
  766SOL     OW 2833   1.137   0.371   7.287
  766SOL    HW1 2834   1.085   0.434   7.336
  766SOL    HW2 2835   1.221   0.415   7.273
  767SOL     OW 2836   1.153   0.215   7.060
  767SOL    HW1 2837   1.149   0.279   7.131
  767SOL    HW2 2838   1.197   0.261   6.988
  768SOL     OW 2839   4.491   1.320   5.795
  768SOL    HW1 2840   4.398   1.337   5.776
  768SOL    HW2 2841   4.494   1.227   5.815
  769SOL     OW 2842   0.100   1.770   6.526
  769SOL    HW1 2843   0.061   1.724   6.452
  769SOL    HW2 2844   0.188   1.794   6.496
  770SOL     OW 2845   0.494   1.574   6.493
  770SOL    HW1 2846   0.562   1.637   6.517
  770SOL    HW2 2847   0.538   1.512   6.435
  771SOL     OW 2848   0.980   0.792   6.811
  771SOL    HW1 2849   1.037   0.771   6.885
  771SOL    HW2 2850   0.896   0.751   6.834
  772SOL     OW 2851   0.033   0.567   6.695
  772SOL    HW1 2852   0.111   0.529   6.654
  772SOL    HW2 2853   0.004   0.499   6.756
  773SOL     OW 2854   0.179   0.531   7.302
  773SOL    HW1 2855   0.267   0.513   7.269
  773SOL    HW2 2856   0.151   0.609   7.253
  774SOL     OW 2857   1.379   0.936   7.243
  774SOL    HW1 2858   1.400   1.030   7.241
  774SOL    HW2 2859   1.375   0.910   7.152
  775SOL     OW 2860   0.811   0.576   5.945
  775SOL    HW1 2861   0.816   0.505   5.881
  775SOL    HW2 2862   0.739   0.631   5.915
  776SOL     OW 2863   1.638   0.601   6.769
  776SOL    HW1 2864   1.629   0.543   6.844
  776SOL    HW2 2865   1.726   0.583   6.735
  777SOL     OW 2866   0.273   1.562   7.325
  777SOL    HW1 2867   0.214   1.613   7.381
  777SOL    HW2 2868   0.256   1.471   7.349
  778SOL     OW 2869   0.694   0.462   6.850
  778SOL    HW1 2870   0.650   0.384   6.818
  778SOL    HW2 2871   0.696   0.522   6.775
  779SOL     OW 2872   0.926   1.679   7.055
  779SOL    HW1 2873   0.900   1.642   6.971
  779SOL    HW2 2874   0.919   1.774   7.042
  780SOL     OW 2875   0.472   0.491   5.766
  780SOL    HW1 2876   0.533   0.560   5.790
  780SOL    HW2 2877   0.389   0.536   5.750
  781SOL     OW 2878   0.161   1.141   7.045
  781SOL    HW1 2879   0.144   1.097   7.128
  781SOL    HW2 2880   0.168   1.070   6.981
  782SOL     OW 2881   1.323   1.045   6.807
  782SOL    HW1 2882   1.346   0.981   6.739
  782SOL    HW2 2883   1.255   1.099   6.768
  783SOL     OW 2884   1.314   0.856   5.891
  783SOL    HW1 2885   1.240   0.827   5.944
  783SOL    HW2 2886   1.286   0.843   5.800
  784SOL     OW 2887   1.757   1.741   6.738
  784SOL    HW1 2888   1.818   1.774   6.671
  784SOL    HW2 2889   1.744   1.649   6.715
  785SOL     OW 2890   1.238   1.732   6.696
  785SOL    HW1 2891   1.322   1.755   6.655
  785SOL    HW2 2892   1.246   1.639   6.716
  786SOL     OW 2893   0.068   1.185   6.636
  786SOL    HW1 2894   0.059   1.214   6.727
  786SOL    HW2 2895   0.034   1.257   6.584
  787SOL     OW 2896   0.679   1.668   7.320
  787SOL    HW1 2897   0.621   1.743   7.312
  787SOL    HW2 2898   0.745   1.681   7.252
  788SOL     OW 2899   1.719   0.129   6.074
  788SOL    HW1 2900   1.788   0.141   6.008
  788SOL    HW2 2901   1.752   0.059   6.129
  789SOL     OW 2902   1.395   1.569   6.073
  789SOL    HW1 2903   1.427   1.598   5.988
  789SOL    HW2 2904   1.341   1.643   6.104
  790SOL     OW 2905   0.116   1.808   7.435
  790SOL    HW1 2906   0.076   1.736   7.484
  790SOL    HW2 2907   0.181   1.845   7.496
  791SOL     OW 2908   1.279   0.929   6.259
  791SOL    HW1 2909   1.352   0.867   6.266
  791SOL    HW2 2910   1.313   1.000   6.205
  792SOL     OW 2911   0.810   1.275   7.013
  792SOL    HW1 2912   0.782   1.315   7.096
  792SOL    HW2 2913   0.739   1.296   6.952
  793SOL     OW 2914   0.671   1.623   5.741
  793SOL    HW1 2915   0.682   1.635   5.647
  793SOL    HW2 2916   0.616   1.545   5.748
  794SOL     OW 2917   1.620   1.727   6.980
  794SOL    HW1 2918   1.669   1.731   6.898
  794SOL    HW2 2919   1.607   1.818   7.005
  795SOL     OW 2920   1.839   0.152   6.551
  795SOL    HW1 2921   1.868   0.074   6.505
  795SOL    HW2 2922   1.752   0.170   6.515
  796SOL     OW 2923   0.259   0.323   6.305
  796SOL    HW1 2924   0.176   0.357   6.273
  796SOL    HW2 2925   0.246   0.313   6.399
  797SOL     OW 2926   1.201   1.603   5.621
  797SOL    HW1 2927   1.193   1.510   5.642
  797SOL    HW2 2928   1.139   1.617   5.550
  798SOL     OW 2929   0.826   1.007   6.959
  798SOL    HW1 2930   0.869   1.002   6.874
  798SOL    HW2 2931   0.823   1.101   6.979
  799SOL     OW 2932   0.915   0.910   5.876
  799SOL    HW1 2933   0.977   0.943   5.810
  799SOL    HW2 2934   0.964   0.842   5.922
  800SOL     OW 2935   1.479   1.608   5.621
  800SOL    HW1 2936   1.384   1.616   5.621
  800SOL    HW2 2937   1.504   1.620   5.529
  801SOL     OW 2938   0.373   1.309   7.077
  801SOL    HW1 2939   0.355   1.388   7.025
  801SOL    HW2 2940   0.298   1.252   7.059
  802SOL     OW 2941   1.608   1.281   6.869
  802SOL    HW1 2942   1.669   1.269   6.941
  802SOL    HW2 2943   1.548   1.349   6.899
  803SOL     OW 2944   1.056   1.109   6.293
  803SOL    HW1 2945   0.985   1.058   6.332
  803SOL    HW2 2946   1.120   1.043   6.266
  804SOL     OW 2947   1.001   0.246   6.597
  804SOL    HW1 2948   1.008   0.229   6.503
  804SOL    HW2 2949   0.993   0.160   6.637
  805SOL     OW 2950   0.606   1.489   6.068
  805SOL    HW1 2951   0.650   1.440   5.999
  805SOL    HW2 2952   0.528   1.525   6.025
  806SOL     OW 2953   1.724   0.394   6.962
  806SOL    HW1 2954   1.797   0.455   6.962
  806SOL    HW2 2955   1.752   0.323   6.905
  807SOL     OW 2956   0.252   1.343   5.861
  807SOL    HW1 2957   0.157   1.340   5.848
  807SOL    HW2 2958   0.263   1.375   5.950
  808SOL     OW 2959   0.115   1.006   7.280
  808SOL    HW1 2960   0.053   1.053   7.335
  808SOL    HW2 2961   0.194   0.998   7.333
  809SOL     OW 2962   0.658   0.211   7.085
  809SOL    HW1 2963   0.737   0.184   7.039
  809SOL    HW2 2964   0.688   0.228   7.175
  810SOL     OW 2965   0.073   0.320   5.611
  810SOL    HW1 2966   4.480   0.326   5.630
  810SOL    HW2 2967   0.098   0.408   5.581
  811SOL     OW 2968   1.428   0.858   6.984
  811SOL    HW1 2969   1.378   0.919   6.929
  811SOL    HW2 2970   1.517   0.860   6.949
  812SOL     OW 2971   0.086   0.188   5.888
  812SOL    HW1 2972   0.074   0.262   5.829
  812SOL    HW2 2973   0.166   0.145   5.858
  813SOL     OW 2974   1.178   1.336   5.702
  813SOL    HW1 2975   1.087   1.306   5.704
  813SOL    HW2 2976   1.205   1.336   5.794
  814SOL     OW 2977   0.625   0.829   7.019
  814SOL    HW1 2978   0.680   0.906   7.005
  814SOL    HW2 2979   0.687   0.757   7.025
  815SOL     OW 2980   1.482   1.774   6.572
  815SOL    HW1 2981   1.511   1.817   6.492
  815SOL    HW2 2982   1.564   1.755   6.619
  816SOL     OW 2983   0.710   0.563   7.291
  816SOL    HW1 2984   0.757   0.625   7.348
  816SOL    HW2 2985   0.739   0.477   7.322
  817SOL     OW 2986   1.473   1.197   7.217
  817SOL    HW1 2987   1.461   1.212   7.310
  817SOL    HW2 2988   1.566   1.215   7.202
  818SOL     OW 2989   0.377   1.745   7.151
  818SOL    HW1 2990   0.293   1.787   7.132
  818SOL    HW2 2991   0.354   1.666   7.200
  819SOL     OW 2992   1.667   0.880   6.841
  819SOL    HW1 2993   1.660   0.795   6.797
  819SOL    HW2 2994   1.657   0.944   6.771
  820SOL     OW 2995   1.220   0.332   6.032
  820SOL    HW1 2996   1.287   0.265   6.019
  820SOL    HW2 2997   1.248   0.380   6.110
  821SOL     OW 2998   0.585   0.735   6.259
  821SOL    HW1 2999   0.626   0.820   6.244
  821SOL    HW2 3000   0.519   0.728   6.189
  822SOL     OW 3001   1.759   0.370   7.230
  822SOL    HW1 3002   1.744   0.383   7.137
  822SOL    HW2 3003   1.682   0.322   7.261
  823SOL     OW 3004   1.747   0.933   7.098
  823SOL    HW1 3005   1.740   1.028   7.111
  823SOL    HW2 3006   1.730   0.921   7.004
  824SOL     OW 3007   0.865   1.366   5.625
  824SOL    HW1 3008   0.825   1.394   5.707
  824SOL    HW2 3009   0.879   1.447   5.576
  825SOL     OW 3010   0.662   1.788   6.528
  825SOL    HW1 3011   0.642   1.880   6.506
  825SOL    HW2 3012   0.757   1.782   6.521
  826SOL     OW 3013   0.869   0.970   6.439
  826SOL    HW1 3014   0.919   0.897   6.477
  826SOL    HW2 3015   0.832   1.015   6.515
  827SOL     OW 3016   1.078   0.989   5.675
  827SOL    HW1 3017   1.056   1.040   5.597
  827SOL    HW2 3018   1.152   0.934   5.648
  828SOL     OW 3019   1.858   1.552   6.455
  828SOL    HW1 3020   1.791   1.520   6.394
  828SOL    HW2 3021   1.858   1.487   6.526
  829SOL     OW 3022   0.232   1.304   7.446
  829SOL    HW1 3023   0.152   1.256   7.428
  829SOL    HW2 3024   0.233   1.315   7.541
  830SOL     OW 3025   0.115   1.230   6.254
  830SOL    HW1 3026   0.133   1.189   6.339
  830SOL    HW2 3027   0.173   1.185   6.193
  831SOL     OW 3028   0.684   1.405   7.216
  831SOL    HW1 3029   0.604   1.362   7.245
  831SOL    HW2 3030   0.678   1.493   7.253
  832SOL     OW 3031   1.805   0.178   6.824
  832SOL    HW1 3032   1.801   0.085   6.844
  832SOL    HW2 3033   1.822   0.182   6.730
  833SOL     OW 3034   0.444   0.429   6.120
  833SOL    HW1 3035   0.457   0.360   6.055
  833SOL    HW2 3036   0.382   0.392   6.183
  834SOL     OW 3037   1.695   1.484   6.687
  834SOL    HW1 3038   1.617   1.463   6.636
  834SOL    HW2 3039   1.700   1.413   6.751
  835SOL     OW 3040   0.308   0.506   6.836
  835SOL    HW1 3041   0.381   0.457   6.874
  835SOL    HW2 3042   0.332   0.517   6.744
  836SOL     OW 3043   0.830   1.577   6.262
  836SOL    HW1 3044   0.811   1.637   6.189
  836SOL    HW2 3045   0.754   1.519   6.266
  837SOL     OW 3046   1.431   0.217   6.703
  837SOL    HW1 3047   1.466   0.145   6.755
  837SOL    HW2 3048   1.380   0.269   6.764
  838SOL     OW 3049   0.995   0.002   6.740
  838SOL    HW1 3050   0.956   4.415   6.732
  838SOL    HW2 3051   1.089   4.486   6.748
  839SOL     OW 3052   0.773   1.333   5.903
  839SOL    HW1 3053   0.743   1.242   5.910
  839SOL    HW2 3054   0.855   1.335   5.953
  840SOL     OW 3055   0.621   1.555   6.872
  840SOL    HW1 3056   0.622   1.637   6.922
  840SOL    HW2 3057   0.709   1.549   6.834
  841SOL     OW 3058   1.339   0.052   5.744
  841SOL    HW1 3059   1.377   4.476   5.699
  841SOL    HW2 3060   1.262   0.017   5.790
  842SOL     OW 3061   1.315   0.464   6.259
  842SOL    HW1 3062   1.258   0.541   6.260
  842SOL    HW2 3063   1.304   0.425   6.345
  843SOL     OW 3064   1.585   0.199   6.455
  843SOL    HW1 3065   1.527   0.214   6.529
  843SOL    HW2 3066   1.587   0.282   6.408
  844SOL     OW 3067   0.040   1.050   5.876
  844SOL    HW1 3068   0.133   1.029   5.864
  844SOL    HW2 3069   0.021   1.024   5.967
  845SOL     OW 3070   0.882   1.653   5.928
  845SOL    HW1 3071   0.808   1.637   5.869
  845SOL    HW2 3072   0.854   1.728   5.981
  846SOL     OW 3073   0.244   0.629   7.572
  846SOL    HW1 3074   0.171   0.603   7.627
  846SOL    HW2 3075   0.213   0.617   7.482
  847SOL     OW 3076   0.192   0.295   8.436
  847SOL    HW1 3077   0.222   0.265   8.522
  847SOL    HW2 3078   0.132   0.226   8.407
  848SOL     OW 3079   0.001   0.389   8.085
  848SOL    HW1 3080   4.424   0.424   8.130
  848SOL    HW2 3081   4.467   0.315   8.034
  849SOL     OW 3082   0.568   1.292   8.627
  849SOL    HW1 3083   0.482   1.298   8.587
  849SOL    HW2 3084   0.584   1.380   8.662
  850SOL     OW 3085   1.565   1.513   8.156
  850SOL    HW1 3086   1.522   1.492   8.239
  850SOL    HW2 3087   1.493   1.517   8.093
  851SOL     OW 3088   1.138   0.697   8.143
  851SOL    HW1 3089   1.182   0.781   8.134
  851SOL    HW2 3090   1.087   0.706   8.224
  852SOL     OW 3091   1.772   0.604   7.674
  852SOL    HW1 3092   1.748   0.596   7.582
  852SOL    HW2 3093   1.736   0.525   7.714
  853SOL     OW 3094   0.750   1.140   8.491
  853SOL    HW1 3095   0.683   1.176   8.549
  853SOL    HW2 3096   0.788   1.216   8.447
  854SOL     OW 3097   0.868   0.768   9.269
  854SOL    HW1 3098   0.854   0.837   9.333
  854SOL    HW2 3099   0.893   0.813   9.188
  855SOL     OW 3100   0.684   1.000   8.094
  855SOL    HW1 3101   0.751   0.990   8.162
  855SOL    HW2 3102   0.616   1.053   8.135
  856SOL     OW 3103   0.713   1.149   9.264
  856SOL    HW1 3104   0.760   1.227   9.292
  856SOL    HW2 3105   0.632   1.182   9.225
  857SOL     OW 3106   0.334   1.419   8.516
  857SOL    HW1 3107   0.253   1.399   8.470
  857SOL    HW2 3108   0.384   1.473   8.455
  858SOL     OW 3109   1.460   1.501   8.805
  858SOL    HW1 3110   1.514   1.580   8.814
  858SOL    HW2 3111   1.395   1.509   8.875
  859SOL     OW 3112   0.442   0.393   8.933
  859SOL    HW1 3113   0.531   0.359   8.933
  859SOL    HW2 3114   0.388   0.320   8.965
  860SOL     OW 3115   1.608   0.443   8.187
  860SOL    HW1 3116   1.529   0.463   8.138
  860SOL    HW2 3117   1.623   0.521   8.241
  861SOL     OW 3118   0.246   1.691   7.923
  861SOL    HW1 3119   0.229   1.776   7.963
  861SOL    HW2 3120   0.318   1.707   7.862
  862SOL     OW 3121   1.137   1.342   9.142
  862SOL    HW1 3122   1.178   1.336   9.228
  862SOL    HW2 3123   1.085   1.262   9.134
  863SOL     OW 3124   0.253   1.426   7.974
  863SOL    HW1 3125   0.242   1.521   7.976
  863SOL    HW2 3126   0.192   1.393   8.040
  864SOL     OW 3127   0.250   1.083   8.333
  864SOL    HW1 3128   0.266   0.992   8.357
  864SOL    HW2 3129   0.189   1.115   8.399
  865SOL     OW 3130   0.609   1.792   8.877
  865SOL    HW1 3131   0.526   1.774   8.922
  865SOL    HW2 3132   0.631   1.882   8.902
  866SOL     OW 3133   0.574   0.990   7.590
  866SOL    HW1 3134   0.624   1.030   7.519
  866SOL    HW2 3135   0.619   1.020   7.669
  867SOL     OW 3136   1.578   0.118   8.915
  867SOL    HW1 3137   1.610   0.187   8.856
  867SOL    HW2 3138   1.568   0.162   8.999
  868SOL     OW 3139   0.136   0.645   8.021
  868SOL    HW1 3140   0.086   0.566   8.043
  868SOL    HW2 3141   0.109   0.710   8.086
  869SOL     OW 3142   1.843   1.757   7.780
  869SOL    HW1 3143   1.907   1.730   7.846
  869SOL    HW2 3144   1.864   1.848   7.761
  870SOL     OW 3145   0.032   1.604   7.595
  870SOL    HW1 3146   0.019   1.509   7.588
  870SOL    HW2 3147   0.036   1.621   7.689
  871SOL     OW 3148   1.691   0.920   8.091
  871SOL    HW1 3149   1.772   0.876   8.067
  871SOL    HW2 3150   1.667   0.971   8.013
  872SOL     OW 3151   1.648   1.105   7.877
  872SOL    HW1 3152   1.734   1.109   7.836
  872SOL    HW2 3153   1.653   1.168   7.949
  873SOL     OW 3154   0.102   0.768   9.021
  873SOL    HW1 3155   0.190   0.758   8.985
  873SOL    HW2 3156   0.099   0.860   9.050
  874SOL     OW 3157   0.615   1.388   8.184
  874SOL    HW1 3158   0.568   1.305   8.194
  874SOL    HW2 3159   0.598   1.414   8.094
  875SOL     OW 3160   1.287   1.237   8.870
  875SOL    HW1 3161   1.319   1.169   8.810
  875SOL    HW2 3162   1.346   1.232   8.946
  876SOL     OW 3163   0.825   0.017   8.004
  876SOL    HW1 3164   0.860   0.102   7.977
  876SOL    HW2 3165   0.730   0.025   7.990
  877SOL     OW 3166   0.177   0.940   8.726
  877SOL    HW1 3167   0.269   0.920   8.708
  877SOL    HW2 3168   0.133   0.930   8.642
  878SOL     OW 3169   1.532   0.995   7.648
  878SOL    HW1 3170   1.461   0.939   7.680
  878SOL    HW2 3171   1.573   1.030   7.727
  879SOL     OW 3172   1.184   1.809   9.072
  879SOL    HW1 3173   1.194   1.869   8.998
  879SOL    HW2 3174   1.202   1.722   9.035
  880SOL     OW 3175   0.317   0.260   9.214
  880SOL    HW1 3176   0.385   0.310   9.260
  880SOL    HW2 3177   0.240   0.268   9.270
  881SOL     OW 3178   1.467   1.419   8.398
  881SOL    HW1 3179   1.399   1.435   8.463
  881SOL    HW2 3180   1.453   1.328   8.371
  882SOL     OW 3181   1.659   1.743   8.025
  882SOL    HW1 3182   1.637   1.712   7.937
  882SOL    HW2 3183   1.634   1.671   8.082
  883SOL     OW 3184   0.595   0.722   7.715
  883SOL    HW1 3185   0.595   0.805   7.668
  883SOL    HW2 3186   0.529   0.734   7.784
  884SOL     OW 3187   1.293   0.369   8.380
  884SOL    HW1 3188   1.204   0.339   8.362
  884SOL    HW2 3189   1.328   0.305   8.442
  885SOL     OW 3190   1.579   1.672   7.758
  885SOL    HW1 3191   1.670   1.701   7.749
  885SOL    HW2 3192   1.551   1.655   7.668
  886SOL     OW 3193   0.798   0.618   8.902
  886SOL    HW1 3194   0.769   0.591   8.989
  886SOL    HW2 3195   0.758   0.555   8.843
  887SOL     OW 3196   1.388   0.481   9.124
  887SOL    HW1 3197   1.392   0.525   9.209
  887SOL    HW2 3198   1.455   0.412   9.129
  888SOL     OW 3199   0.952   0.887   9.032
  888SOL    HW1 3200   1.007   0.817   8.995
  888SOL    HW2 3201   0.905   0.923   8.957
  889SOL     OW 3202   0.999   0.418   8.681
  889SOL    HW1 3203   0.909   0.423   8.716
  889SOL    HW2 3204   0.991   0.364   8.602
  890SOL     OW 3205   1.051   0.698   7.874
  890SOL    HW1 3206   1.069   0.690   7.967
  890SOL    HW2 3207   0.968   0.653   7.861
  891SOL     OW 3208   0.094   0.827   8.233
  891SOL    HW1 3209   0.181   0.817   8.273
  891SOL    HW2 3210   0.035   0.839   8.307
  892SOL     OW 3211   0.120   1.864   9.027
  892SOL    HW1 3212   0.115   1.838   9.119
  892SOL    HW2 3213   0.046   1.819   8.986
  893SOL     OW 3214   0.854   0.370   7.632
  893SOL    HW1 3215   0.924   0.404   7.576
  893SOL    HW2 3216   0.869   0.276   7.635
  894SOL     OW 3217   1.702   0.571   9.277
  894SOL    HW1 3218   1.667   0.646   9.228
  894SOL    HW2 3219   1.738   0.513   9.210
  895SOL     OW 3220   1.379   1.142   7.988
  895SOL    HW1 3221   1.458   1.131   7.935
  895SOL    HW2 3222   1.326   1.205   7.939
  896SOL     OW 3223   0.539   0.207   8.348
  896SOL    HW1 3224   0.560   0.225   8.439
  896SOL    HW2 3225   0.534   0.294   8.307
  897SOL     OW 3226   1.003   1.443   7.918
  897SOL    HW1 3227   0.969   1.518   7.869
  897SOL    HW2 3228   0.982   1.464   8.009
  898SOL     OW 3229   0.357   1.814   8.308
  898SOL    HW1 3230   0.399   1.728   8.319
  898SOL    HW2 3231   0.427   1.876   8.327
  899SOL     OW 3232   1.800   1.055   8.316
  899SOL    HW1 3233   1.747   1.034   8.240
  899SOL    HW2 3234   1.738   1.061   8.389
  900SOL     OW 3235   1.228   1.539   8.961
  900SOL    HW1 3236   1.215   1.466   9.022
  900SOL    HW2 3237   1.163   1.525   8.893
  901SOL     OW 3238   0.313   0.953   7.705
  901SOL    HW1 3239   0.397   0.977   7.665
  901SOL    HW2 3240   0.300   0.861   7.681
  902SOL     OW 3241   1.482   0.745   8.170
  902SOL    HW1 3242   1.473   0.704   8.256
  902SOL    HW2 3243   1.559   0.801   8.179
  903SOL     OW 3244   0.470   1.264   9.183
  903SOL    HW1 3245   0.443   1.271   9.092
  903SOL    HW2 3246   0.387   1.266   9.232
  904SOL     OW 3247   1.123   1.778   7.678
  904SOL    HW1 3248   1.048   1.737   7.722
  904SOL    HW2 3249   1.147   1.715   7.609
  905SOL     OW 3250   0.159   0.266   8.960
  905SOL    HW1 3251   0.134   0.353   8.929
  905SOL    HW2 3252   0.196   0.282   9.047
  906SOL     OW 3253   1.629   1.381   7.537
  906SOL    HW1 3254   1.587   1.466   7.522
  906SOL    HW2 3255   1.560   1.317   7.517
  907SOL     OW 3256   0.469   1.741   7.762
  907SOL    HW1 3257   0.513   1.796   7.827
  907SOL    HW2 3258   0.540   1.705   7.709
  908SOL     OW 3259   1.426   0.145   7.867
  908SOL    HW1 3260   1.409   0.089   7.791
  908SOL    HW2 3261   1.519   0.133   7.885
  909SOL     OW 3262   0.254   1.786   8.678
  909SOL    HW1 3263   0.301   1.711   8.712
  909SOL    HW2 3264   0.220   1.758   8.593
  910SOL     OW 3265   0.938   1.700   8.346
  910SOL    HW1 3266   1.016   1.649   8.368
  910SOL    HW2 3267   0.896   1.649   8.276
  911SOL     OW 3268   0.396   0.691   7.919
  911SOL    HW1 3269   0.420   0.599   7.934
  911SOL    HW2 3270   0.304   0.696   7.945
  912SOL     OW 3271   1.524   0.233   9.171
  912SOL    HW1 3272   1.524   0.255   9.264
  912SOL    HW2 3273   1.444   0.181   9.158
  913SOL     OW 3274   0.628   0.119   7.567
  913SOL    HW1 3275   0.716   0.084   7.579
  913SOL    HW2 3276   0.597   0.080   7.485
  914SOL     OW 3277   0.768   0.271   9.203
  914SOL    HW1 3278   0.837   0.204   9.204
  914SOL    HW2 3279   0.732   0.269   9.292
  915SOL     OW 3280   0.876   1.523   8.642
  915SOL    HW1 3281   0.860   1.485   8.555
  915SOL    HW2 3282   0.946   1.468   8.678
  916SOL     OW 3283   1.340   0.590   8.876
  916SOL    HW1 3284   1.368   0.562   8.963
  916SOL    HW2 3285   1.375   0.679   8.867
  917SOL     OW 3286   0.817   1.392   8.391
  917SOL    HW1 3287   0.901   1.380   8.347
  917SOL    HW2 3288   0.753   1.396   8.320
  918SOL     OW 3289   0.925   0.522   8.345
  918SOL    HW1 3290   0.908   0.520   8.251
  918SOL    HW2 3291   0.958   0.435   8.366
  919SOL     OW 3292   0.565   0.071   7.955
  919SOL    HW1 3293   0.480   0.056   7.996
  919SOL    HW2 3294   0.549   0.138   7.889
  920SOL     OW 3295   1.428   1.199   7.489
  920SOL    HW1 3296   1.457   1.124   7.539
  920SOL    HW2 3297   1.343   1.221   7.525
  921SOL     OW 3298   0.305   0.070   7.639
  921SOL    HW1 3299   0.389   0.117   7.639
  921SOL    HW2 3300   0.319   4.498   7.701
  922SOL     OW 3301   0.958   0.240   7.913
  922SOL    HW1 3302   0.904   0.303   7.864
  922SOL    HW2 3303   1.047   0.274   7.907
  923SOL     OW 3304   1.081   0.683   8.907
  923SOL    HW1 3305   1.011   0.618   8.906
  923SOL    HW2 3306   1.161   0.633   8.896
  924SOL     OW 3307   1.222   1.570   8.242
  924SOL    HW1 3308   1.237   1.637   8.175
  924SOL    HW2 3309   1.290   1.587   8.307
  925SOL     OW 3310   0.468   1.152   8.181
  925SOL    HW1 3311   0.399   1.132   8.245
  925SOL    HW2 3312   0.427   1.136   8.096
  926SOL     OW 3313   1.267   1.793   8.058
  926SOL    HW1 3314   1.314   1.854   8.002
  926SOL    HW2 3315   1.200   1.846   8.100
  927SOL     OW 3316   1.027   0.544   7.468
  927SOL    HW1 3317   0.979   0.625   7.452
  927SOL    HW2 3318   1.086   0.564   7.540
  928SOL     OW 3319   0.093   0.511   8.861
  928SOL    HW1 3320   0.148   0.517   8.783
  928SOL    HW2 3321   0.055   0.598   8.870
  929SOL     OW 3322   0.558   0.247   8.616
  929SOL    HW1 3323   0.589   0.166   8.656
  929SOL    HW2 3324   0.464   0.248   8.632
  930SOL     OW 3325   0.864   0.504   8.076
  930SOL    HW1 3326   0.826   0.541   7.997
  930SOL    HW2 3327   0.819   0.421   8.089
  931SOL     OW 3328   0.954   0.016   8.244
  931SOL    HW1 3329   0.910   0.019   8.159
  931SOL    HW2 3330   0.971   4.423   8.259
  932SOL     OW 3331   1.438   1.161   8.305
  932SOL    HW1 3332   1.367   1.096   8.305
  932SOL    HW2 3333   1.461   1.171   8.212
  933SOL     OW 3334   1.464   0.607   8.418
  933SOL    HW1 3335   1.409   0.529   8.419
  933SOL    HW2 3336   1.521   0.598   8.495
  934SOL     OW 3337   1.844   0.814   7.832
  934SOL    HW1 3338   1.901   0.764   7.890
  934SOL    HW2 3339   1.817   0.752   7.765
  935SOL     OW 3340   0.492   1.420   7.604
  935SOL    HW1 3341   0.414   1.392   7.652
  935SOL    HW2 3342   0.479   1.385   7.516
  936SOL     OW 3343   1.673   1.265   8.090
  936SOL    HW1 3344   1.768   1.267   8.106
  936SOL    HW2 3345   1.643   1.353   8.113
  937SOL     OW 3346   1.395   0.572   7.517
  937SOL    HW1 3347   1.332   0.556   7.588
  937SOL    HW2 3348   1.480   0.556   7.557
  938SOL     OW 3349   0.519   0.264   7.766
  938SOL    HW1 3350   0.571   0.215   7.702
  938SOL    HW2 3351   0.502   0.348   7.725
  939SOL     OW 3352   1.752   1.241   9.017
  939SOL    HW1 3353   1.839   1.202   9.011
  939SOL    HW2 3354   1.767   1.331   9.045
  940SOL     OW 3355   1.057   1.354   8.781
  940SOL    HW1 3356   0.982   1.323   8.831
  940SOL    HW2 3357   1.132   1.312   8.822
  941SOL     OW 3358   1.609   1.625   9.103
  941SOL    HW1 3359   1.602   1.661   9.015
  941SOL    HW2 3360   1.693   1.578   9.103
  942SOL     OW 3361   1.132   1.206   8.552
  942SOL    HW1 3362   1.072   1.244   8.616
  942SOL    HW2 3363   1.101   1.239   8.468
  943SOL     OW 3364   1.626   1.097   8.524
  943SOL    HW1 3365   1.621   1.160   8.596
  943SOL    HW2 3366   1.549   1.115   8.471
  944SOL     OW 3367   0.898   0.136   8.832
  944SOL    HW1 3368   0.922   0.090   8.752
  944SOL    HW2 3369   0.982   0.154   8.874
  945SOL     OW 3370   0.984   1.115   9.172
  945SOL    HW1 3371   0.893   1.131   9.195
  945SOL    HW2 3372   0.982   1.037   9.116
  946SOL     OW 3373   0.709   1.062   7.820
  946SOL    HW1 3374   0.696   1.044   7.913
  946SOL    HW2 3375   0.784   1.008   7.796
  947SOL     OW 3376   0.431   0.829   8.692
  947SOL    HW1 3377   0.499   0.840   8.759
  947SOL    HW2 3378   0.375   0.759   8.727
  948SOL     OW 3379   1.268   0.374   8.723
  948SOL    HW1 3380   1.301   0.453   8.767
  948SOL    HW2 3381   1.179   0.396   8.697
  949SOL     OW 3382   0.064   1.576   8.795
  949SOL    HW1 3383   0.040   1.665   8.773
  949SOL    HW2 3384   0.160   1.577   8.799
  950SOL     OW 3385   0.339   1.111   7.941
  950SOL    HW1 3386   0.352   1.185   7.882
  950SOL    HW2 3387   0.339   1.035   7.884
  951SOL     OW 3388   0.563   0.520   8.299
  951SOL    HW1 3389   0.573   0.582   8.227
  951SOL    HW2 3390   0.624   0.551   8.366
  952SOL     OW 3391   1.248   1.349   7.837
  952SOL    HW1 3392   1.303   1.420   7.869
  952SOL    HW2 3393   1.161   1.370   7.871
  953SOL     OW 3394   1.285   1.459   8.596
  953SOL    HW1 3395   1.341   1.463   8.673
  953SOL    HW2 3396   1.229   1.382   8.610
  954SOL     OW 3397   1.580   0.623   7.927
  954SOL    HW1 3398   1.532   0.669   7.996
  954SOL    HW2 3399   1.623   0.692   7.877
  955SOL     OW 3400   0.346   1.533   8.760
  955SOL    HW1 3401   0.333   1.485   8.678
  955SOL    HW2 3402   0.441   1.543   8.768
  956SOL     OW 3403   0.493   0.757   9.124
  956SOL    HW1 3404   0.519   0.795   9.040
  956SOL    HW2 3405   0.550   0.680   9.134
  957SOL     OW 3406   1.604   0.779   9.131
  957SOL    HW1 3407   1.519   0.821   9.125
  957SOL    HW2 3408   1.657   0.821   9.063
  958SOL     OW 3409   0.999   0.088   9.162
  958SOL    HW1 3410   1.040   0.166   9.126
  958SOL    HW2 3411   1.023   0.018   9.101
  959SOL     OW 3412   0.495   0.042   9.201
  959SOL    HW1 3413   0.482   4.496   9.118
  959SOL    HW2 3414   0.430   0.112   9.200
  960SOL     OW 3415   0.590   0.876   8.472
  960SOL    HW1 3416   0.623   0.965   8.475
  960SOL    HW2 3417   0.535   0.868   8.550
  961SOL     OW 3418   1.353   0.858   8.473
  961SOL    HW1 3419   1.268   0.846   8.432
  961SOL    HW2 3420   1.396   0.773   8.465
  962SOL     OW 3421   1.200   0.536   7.707
  962SOL    HW1 3422   1.207   0.457   7.760
  962SOL    HW2 3423   1.157   0.599   7.765
  963SOL     OW 3424   0.283   0.212   8.682
  963SOL    HW1 3425   0.242   0.231   8.766
  963SOL    HW2 3426   0.328   0.129   8.695
  964SOL     OW 3427   0.027   1.313   8.735
  964SOL    HW1 3428   0.069   1.264   8.806
  964SOL    HW2 3429   0.038   1.405   8.760
  965SOL     OW 3430   0.722   0.629   8.502
  965SOL    HW1 3431   0.798   0.611   8.447
  965SOL    HW2 3432   0.696   0.719   8.479
  966SOL     OW 3433   1.737   0.959   9.303
  966SOL    HW1 3434   1.691   0.895   9.248
  966SOL    HW2 3435   1.677   0.975   9.376
  967SOL     OW 3436   0.323   0.072   8.077
  967SOL    HW1 3437   0.303   0.161   8.106
  967SOL    HW2 3438   0.311   0.018   8.155
  968SOL     OW 3439   1.620   0.382   7.806
  968SOL    HW1 3440   1.645   0.317   7.871
  968SOL    HW2 3441   1.595   0.459   7.857
  969SOL     OW 3442   1.031   0.763   8.408
  969SOL    HW1 3443   1.024   0.779   8.502
  969SOL    HW2 3444   1.001   0.673   8.396
  970SOL     OW 3445   0.982   1.566   9.167
  970SOL    HW1 3446   0.967   1.610   9.083
  970SOL    HW2 3447   1.025   1.484   9.144
  971SOL     OW 3448   1.855   1.502   9.053
  971SOL    HW1 3449   1.871   1.531   8.963
  971SOL    HW2 3450   1.936   1.523   9.100
  972SOL     OW 3451   0.346   0.935   9.266
  972SOL    HW1 3452   0.417   0.967   9.322
  972SOL    HW2 3453   0.388   0.867   9.212
  973SOL     OW 3454   1.529   0.262   7.576
  973SOL    HW1 3455   1.459   0.205   7.608
  973SOL    HW2 3456   1.560   0.309   7.653
  974SOL     OW 3457   1.289   0.826   7.477
  974SOL    HW1 3458   1.331   0.740   7.480
  974SOL    HW2 3459   1.321   0.865   7.396
  975SOL     OW 3460   1.067   1.337   8.303
  975SOL    HW1 3461   1.071   1.265   8.240
  975SOL    HW2 3462   1.127   1.403   8.268
  976SOL     OW 3463   0.319   0.813   8.392
  976SOL    HW1 3464   0.413   0.830   8.392
  976SOL    HW2 3465   0.312   0.721   8.419
  977SOL     OW 3466   0.331   0.532   8.433
  977SOL    HW1 3467   0.287   0.449   8.416
  977SOL    HW2 3468   0.410   0.528   8.378
  978SOL     OW 3469   1.137   0.371   9.149
  978SOL    HW1 3470   1.085   0.434   9.198
  978SOL    HW2 3471   1.221   0.415   9.135
  979SOL     OW 3472   1.153   0.215   8.922
  979SOL    HW1 3473   1.149   0.279   8.993
  979SOL    HW2 3474   1.197   0.261   8.850
  980SOL     OW 3475   4.491   1.320   7.657
  980SOL    HW1 3476   4.398   1.337   7.638
  980SOL    HW2 3477   4.494   1.227   7.677
  981SOL     OW 3478   0.100   1.771   8.388
  981SOL    HW1 3479   0.061   1.725   8.313
  981SOL    HW2 3480   0.188   1.794   8.358
  982SOL     OW 3481   0.494   1.574   8.355
  982SOL    HW1 3482   0.562   1.637   8.379
  982SOL    HW2 3483   0.538   1.512   8.297
  983SOL     OW 3484   0.980   0.792   8.673
  983SOL    HW1 3485   1.037   0.771   8.747
  983SOL    HW2 3486   0.896   0.751   8.696
  984SOL     OW 3487   0.033   0.567   8.557
  984SOL    HW1 3488   0.111   0.530   8.516
  984SOL    HW2 3489   0.004   0.500   8.618
  985SOL     OW 3490   0.179   0.531   9.164
  985SOL    HW1 3491   0.267   0.513   9.131
  985SOL    HW2 3492   0.151   0.609   9.115
  986SOL     OW 3493   1.379   0.936   9.106
  986SOL    HW1 3494   1.400   1.030   9.103
  986SOL    HW2 3495   1.375   0.910   9.014
  987SOL     OW 3496   0.811   0.576   7.807
  987SOL    HW1 3497   0.816   0.505   7.743
  987SOL    HW2 3498   0.739   0.631   7.777
  988SOL     OW 3499   1.638   0.601   8.631
  988SOL    HW1 3500   1.629   0.543   8.706
  988SOL    HW2 3501   1.726   0.583   8.597
  989SOL     OW 3502   0.273   1.562   9.187
  989SOL    HW1 3503   0.214   1.613   9.243
  989SOL    HW2 3504   0.256   1.471   9.211
  990SOL     OW 3505   0.694   0.463   8.712
  990SOL    HW1 3506   0.650   0.384   8.680
  990SOL    HW2 3507   0.696   0.522   8.637
  991SOL     OW 3508   0.925   1.679   8.917
  991SOL    HW1 3509   0.900   1.642   8.833
  991SOL    HW2 3510   0.919   1.774   8.904
  992SOL     OW 3511   0.472   0.491   7.628
  992SOL    HW1 3512   0.532   0.560   7.652
  992SOL    HW2 3513   0.389   0.536   7.612
  993SOL     OW 3514   0.161   1.141   8.906
  993SOL    HW1 3515   0.144   1.097   8.990
  993SOL    HW2 3516   0.168   1.070   8.843
  994SOL     OW 3517   1.323   1.045   8.669
  994SOL    HW1 3518   1.346   0.981   8.601
  994SOL    HW2 3519   1.255   1.099   8.630
  995SOL     OW 3520   1.315   0.856   7.753
  995SOL    HW1 3521   1.240   0.828   7.805
  995SOL    HW2 3522   1.286   0.844   7.662
  996SOL     OW 3523   1.762   1.740   8.594
  996SOL    HW1 3524   1.828   1.769   8.530
  996SOL    HW2 3525   1.747   1.648   8.572
  997SOL     OW 3526   1.240   1.733   8.556
  997SOL    HW1 3527   1.323   1.756   8.514
  997SOL    HW2 3528   1.248   1.639   8.576
  998SOL     OW 3529   0.068   1.185   8.499
  998SOL    HW1 3530   0.059   1.215   8.589
  998SOL    HW2 3531   0.034   1.257   8.446
  999SOL     OW 3532   0.680   1.668   9.182
  999SOL    HW1 3533   0.621   1.743   9.173
  999SOL    HW2 3534   0.746   1.681   9.114
 1000SOL     OW 3535   1.719   0.129   7.936
 1000SOL    HW1 3536   1.788   0.141   7.870
 1000SOL    HW2 3537   1.752   0.059   7.992
 1001SOL     OW 3538   1.391   1.568   7.935
 1001SOL    HW1 3539   1.450   1.601   7.868
 1001SOL    HW2 3540   1.341   1.644   7.964
 1002SOL     OW 3541   0.116   1.808   9.297
 1002SOL    HW1 3542   0.076   1.736   9.346
 1002SOL    HW2 3543   0.181   1.845   9.357
 1003SOL     OW 3544   1.279   0.929   8.120
 1003SOL    HW1 3545   1.352   0.867   8.127
 1003SOL    HW2 3546   1.313   1.001   8.067
 1004SOL     OW 3547   0.810   1.275   8.875
 1004SOL    HW1 3548   0.782   1.315   8.958
 1004SOL    HW2 3549   0.740   1.296   8.814
 1005SOL     OW 3550   0.672   1.623   7.603
 1005SOL    HW1 3551   0.683   1.635   7.509
 1005SOL    HW2 3552   0.617   1.545   7.611
 1006SOL     OW 3553   1.621   1.727   8.837
 1006SOL    HW1 3554   1.671   1.734   8.756
 1006SOL    HW2 3555   1.607   1.817   8.865
 1007SOL     OW 3556   1.839   0.152   8.413
 1007SOL    HW1 3557   1.868   0.073   8.367
 1007SOL    HW2 3558   1.752   0.170   8.377
 1008SOL     OW 3559   0.259   0.323   8.167
 1008SOL    HW1 3560   0.176   0.357   8.135
 1008SOL    HW2 3561   0.247   0.313   8.261
 1009SOL     OW 3562   1.208   1.604   7.480
 1009SOL    HW1 3563   1.197   1.512   7.507
 1009SOL    HW2 3564   1.142   1.617   7.412
 1010SOL     OW 3565   0.826   1.007   8.821
 1010SOL    HW1 3566   0.869   1.002   8.736
 1010SOL    HW2 3567   0.823   1.101   8.841
 1011SOL     OW 3568   0.915   0.910   7.738
 1011SOL    HW1 3569   0.976   0.943   7.672
 1011SOL    HW2 3570   0.964   0.842   7.784
 1012SOL     OW 3571   1.490   1.626   7.492
 1012SOL    HW1 3572   1.396   1.618   7.477
 1012SOL    HW2 3573   1.528   1.632   7.404
 1013SOL     OW 3574   0.373   1.309   8.939
 1013SOL    HW1 3575   0.355   1.388   8.887
 1013SOL    HW2 3576   0.298   1.252   8.921
 1014SOL     OW 3577   1.609   1.284   8.727
 1014SOL    HW1 3578   1.670   1.272   8.800
 1014SOL    HW2 3579   1.549   1.352   8.758
 1015SOL     OW 3580   1.056   1.109   8.155
 1015SOL    HW1 3581   0.985   1.058   8.194
 1015SOL    HW2 3582   1.120   1.043   8.128
 1016SOL     OW 3583   1.001   0.246   8.459
 1016SOL    HW1 3584   1.008   0.229   8.365
 1016SOL    HW2 3585   0.993   0.160   8.499
 1017SOL     OW 3586   0.606   1.488   7.930
 1017SOL    HW1 3587   0.651   1.439   7.861
 1017SOL    HW2 3588   0.529   1.526   7.886
 1018SOL     OW 3589   1.724   0.394   8.824
 1018SOL    HW1 3590   1.797   0.455   8.824
 1018SOL    HW2 3591   1.752   0.323   8.767
 1019SOL     OW 3592   0.252   1.343   7.722
 1019SOL    HW1 3593   0.157   1.340   7.710
 1019SOL    HW2 3594   0.263   1.375   7.812
 1020SOL     OW 3595   0.115   1.006   9.142
 1020SOL    HW1 3596   0.053   1.053   9.197
 1020SOL    HW2 3597   0.194   0.998   9.195
 1021SOL     OW 3598   0.658   0.211   8.947
 1021SOL    HW1 3599   0.737   0.184   8.901
 1021SOL    HW2 3600   0.688   0.228   9.037
 1022SOL     OW 3601   0.073   0.320   7.473
 1022SOL    HW1 3602   4.480   0.326   7.492
 1022SOL    HW2 3603   0.098   0.408   7.442
 1023SOL     OW 3604   1.427   0.858   8.846
 1023SOL    HW1 3605   1.378   0.919   8.792
 1023SOL    HW2 3606   1.517   0.860   8.811
 1024SOL     OW 3607   0.086   0.188   7.750
 1024SOL    HW1 3608   0.074   0.262   7.691
 1024SOL    HW2 3609   0.166   0.145   7.720
 1025SOL     OW 3610   1.178   1.337   7.565
 1025SOL    HW1 3611   1.088   1.307   7.567
 1025SOL    HW2 3612   1.205   1.338   7.657
 1026SOL     OW 3613   0.626   0.829   8.881
 1026SOL    HW1 3614   0.680   0.906   8.867
 1026SOL    HW2 3615   0.687   0.757   8.887
 1027SOL     OW 3616   1.486   1.779   8.430
 1027SOL    HW1 3617   1.509   1.842   8.362
 1027SOL    HW2 3618   1.568   1.762   8.476
 1028SOL     OW 3619   0.710   0.564   9.153
 1028SOL    HW1 3620   0.757   0.626   9.210
 1028SOL    HW2 3621   0.739   0.477   9.184
 1029SOL     OW 3622   1.473   1.197   9.079
 1029SOL    HW1 3623   1.461   1.212   9.172
 1029SOL    HW2 3624   1.566   1.215   9.063
 1030SOL     OW 3625   0.377   1.745   9.013
 1030SOL    HW1 3626   0.292   1.787   8.994
 1030SOL    HW2 3627   0.354   1.667   9.062
 1031SOL     OW 3628   1.667   0.881   8.703
 1031SOL    HW1 3629   1.660   0.796   8.659
 1031SOL    HW2 3630   1.657   0.945   8.632
 1032SOL     OW 3631   1.220   0.332   7.894
 1032SOL    HW1 3632   1.287   0.265   7.881
 1032SOL    HW2 3633   1.248   0.380   7.972
 1033SOL     OW 3634   0.585   0.735   8.121
 1033SOL    HW1 3635   0.626   0.820   8.107
 1033SOL    HW2 3636   0.519   0.728   8.051
 1034SOL     OW 3637   1.759   0.370   9.092
 1034SOL    HW1 3638   1.744   0.383   8.999
 1034SOL    HW2 3639   1.682   0.322   9.123
 1035SOL     OW 3640   1.747   0.933   8.960
 1035SOL    HW1 3641   1.740   1.028   8.973
 1035SOL    HW2 3642   1.730   0.921   8.866
 1036SOL     OW 3643   0.864   1.366   7.486
 1036SOL    HW1 3644   0.825   1.393   7.569
 1036SOL    HW2 3645   0.879   1.448   7.439
 1037SOL     OW 3646   0.662   1.788   8.390
 1037SOL    HW1 3647   0.643   1.880   8.368
 1037SOL    HW2 3648   0.757   1.781   8.383
 1038SOL     OW 3649   0.869   0.969   8.301
 1038SOL    HW1 3650   0.919   0.897   8.339
 1038SOL    HW2 3651   0.832   1.015   8.377
 1039SOL     OW 3652   1.078   0.989   7.537
 1039SOL    HW1 3653   1.056   1.040   7.460
 1039SOL    HW2 3654   1.152   0.934   7.510
 1040SOL     OW 3655   1.852   1.553   8.292
 1040SOL    HW1 3656   1.773   1.544   8.239
 1040SOL    HW2 3657   1.838   1.495   8.366
 1041SOL     OW 3658   0.232   1.304   9.308
 1041SOL    HW1 3659   0.152   1.256   9.290
 1041SOL    HW2 3660   0.233   1.315   9.403
 1042SOL     OW 3661   0.115   1.230   8.116
 1042SOL    HW1 3662   0.134   1.189   8.201
 1042SOL    HW2 3663   0.173   1.185   8.055
 1043SOL     OW 3664   0.684   1.405   9.078
 1043SOL    HW1 3665   0.604   1.362   9.107
 1043SOL    HW2 3666   0.679   1.493   9.115
 1044SOL     OW 3667   1.805   0.178   8.686
 1044SOL    HW1 3668   1.801   0.085   8.706
 1044SOL    HW2 3669   1.822   0.182   8.592
 1045SOL     OW 3670   0.443   0.429   7.982
 1045SOL    HW1 3671   0.457   0.360   7.917
 1045SOL    HW2 3672   0.382   0.391   8.045
 1046SOL     OW 3673   1.704   1.481   8.534
 1046SOL    HW1 3674   1.620   1.463   8.491
 1046SOL    HW2 3675   1.710   1.416   8.604
 1047SOL     OW 3676   0.308   0.505   8.698
 1047SOL    HW1 3677   0.381   0.457   8.736
 1047SOL    HW2 3678   0.332   0.517   8.606
 1048SOL     OW 3679   0.830   1.578   8.124
 1048SOL    HW1 3680   0.812   1.638   8.052
 1048SOL    HW2 3681   0.754   1.519   8.126
 1049SOL     OW 3682   1.431   0.217   8.565
 1049SOL    HW1 3683   1.466   0.145   8.617
 1049SOL    HW2 3684   1.380   0.269   8.626
 1050SOL     OW 3685   0.995   0.002   8.602
 1050SOL    HW1 3686   0.956   4.415   8.594
 1050SOL    HW2 3687   1.089   4.486   8.610
 1051SOL     OW 3688   0.773   1.333   7.765
 1051SOL    HW1 3689   0.745   1.242   7.772
 1051SOL    HW2 3690   0.855   1.337   7.815
 1052SOL     OW 3691   0.621   1.555   8.734
 1052SOL    HW1 3692   0.622   1.637   8.784
 1052SOL    HW2 3693   0.708   1.549   8.697
 1053SOL     OW 3694   1.338   0.052   7.606
 1053SOL    HW1 3695   1.377   4.476   7.561
 1053SOL    HW2 3696   1.262   0.016   7.652
 1054SOL     OW 3697   1.315   0.465   8.121
 1054SOL    HW1 3698   1.258   0.541   8.122
 1054SOL    HW2 3699   1.304   0.425   8.207
 1055SOL     OW 3700   1.585   0.199   8.317
 1055SOL    HW1 3701   1.527   0.214   8.391
 1055SOL    HW2 3702   1.587   0.282   8.270
 1056SOL     OW 3703   0.040   1.050   7.738
 1056SOL    HW1 3704   0.133   1.029   7.726
 1056SOL    HW2 3705   0.021   1.024   7.829
 1057SOL     OW 3706   0.888   1.656   7.788
 1057SOL    HW1 3707   0.814   1.639   7.729
 1057SOL    HW2 3708   0.859   1.729   7.842
 1058SOL     OW 3709   0.244   0.629   9.434
 1058SOL    HW1 3710   0.171   0.603   9.489
 1058SOL    HW2 3711   0.213   0.616   9.344
 1059SOL     OW 3712   0.195   0.294  10.300
 1059SOL    HW1 3713   0.224   0.265  10.386
 1059SOL    HW2 3714   0.134   0.226  10.272
 1060SOL     OW 3715   0.001   0.389   9.947
 1060SOL    HW1 3716   4.424   0.425   9.992
 1060SOL    HW2 3717   4.467   0.316   9.896
 1061SOL     OW 3718   0.569   1.292  10.490
 1061SOL    HW1 3719   0.483   1.296  10.449
 1061SOL    HW2 3720   0.583   1.381  10.524
 1062SOL     OW 3721   1.565   1.513  10.018
 1062SOL    HW1 3722   1.523   1.491  10.101
 1062SOL    HW2 3723   1.494   1.517   9.954
 1063SOL     OW 3724   1.138   0.697  10.005
 1063SOL    HW1 3725   1.182   0.781   9.996
 1063SOL    HW2 3726   1.087   0.705  10.085
 1064SOL     OW 3727   1.772   0.604   9.536
 1064SOL    HW1 3728   1.748   0.596   9.444
 1064SOL    HW2 3729   1.736   0.525   9.577
 1065SOL     OW 3730   0.751   1.140  10.354
 1065SOL    HW1 3731   0.684   1.177  10.412
 1065SOL    HW2 3732   0.788   1.216  10.309
 1066SOL     OW 3733   0.859   0.769   0.023
 1066SOL    HW1 3734   0.865   0.823   0.101
 1066SOL    HW2 3735   0.891   0.824  11.052
 1067SOL     OW 3736   0.684   1.000   9.956
 1067SOL    HW1 3737   0.751   0.990  10.024
 1067SOL    HW2 3738   0.616   1.053   9.997
 1068SOL     OW 3739   0.335   1.418  10.377
 1068SOL    HW1 3740   0.253   1.398  10.331
 1068SOL    HW2 3741   0.384   1.473  10.316
 1069SOL     OW 3742   1.463   1.500  10.664
 1069SOL    HW1 3743   1.521   1.575  10.670
 1069SOL    HW2 3744   1.399   1.512  10.734
 1070SOL     OW 3745   0.442   0.386  10.782
 1070SOL    HW1 3746   0.527   0.343  10.777
 1070SOL    HW2 3747   0.402   0.352  10.863
 1071SOL     OW 3748   1.608   0.443  10.049
 1071SOL    HW1 3749   1.528   0.462  10.000
 1071SOL    HW2 3750   1.623   0.521  10.103
 1072SOL     OW 3751   0.246   1.691   9.785
 1072SOL    HW1 3752   0.229   1.776   9.825
 1072SOL    HW2 3753   0.317   1.707   9.724
 1073SOL     OW 3754   0.254   1.426   9.836
 1073SOL    HW1 3755   0.242   1.521   9.838
 1073SOL    HW2 3756   0.192   1.393   9.902
 1074SOL     OW 3757   0.251   1.083  10.196
 1074SOL    HW1 3758   0.266   0.992  10.220
 1074SOL    HW2 3759   0.189   1.115  10.261
 1075SOL     OW 3760   0.608   1.790  10.737
 1075SOL    HW1 3761   0.528   1.771  10.786
 1075SOL    HW2 3762   0.631   1.880  10.761
 1076SOL     OW 3763   0.574   0.990   9.452
 1076SOL    HW1 3764   0.624   1.030   9.380
 1076SOL    HW2 3765   0.619   1.020   9.531
 1077SOL     OW 3766   1.552   0.138  10.789
 1077SOL    HW1 3767   1.593   0.195  10.723
 1077SOL    HW2 3768   1.620   0.125  10.855
 1078SOL     OW 3769   0.135   0.645   9.883
 1078SOL    HW1 3770   0.086   0.566   9.905
 1078SOL    HW2 3771   0.108   0.710   9.948
 1079SOL     OW 3772   1.841   1.758   9.640
 1079SOL    HW1 3773   1.908   1.728   9.701
 1079SOL    HW2 3774   1.863   1.849   9.622
 1080SOL     OW 3775   0.032   1.604   9.457
 1080SOL    HW1 3776   0.019   1.509   9.450
 1080SOL    HW2 3777   0.036   1.621   9.551
 1081SOL     OW 3778   1.691   0.920   9.953
 1081SOL    HW1 3779   1.772   0.876   9.929
 1081SOL    HW2 3780   1.667   0.970   9.875
 1082SOL     OW 3781   1.648   1.105   9.739
 1082SOL    HW1 3782   1.734   1.109   9.698
 1082SOL    HW2 3783   1.653   1.168   9.811
 1083SOL     OW 3784   0.094   0.766  10.909
 1083SOL    HW1 3785   0.179   0.744  10.871
 1083SOL    HW2 3786   0.094   0.861  10.917
 1084SOL     OW 3787   0.615   1.388  10.047
 1084SOL    HW1 3788   0.568   1.305  10.056
 1084SOL    HW2 3789   0.598   1.414   9.956
 1085SOL     OW 3790   1.290   1.235  10.753
 1085SOL    HW1 3791   1.316   1.175  10.683
 1085SOL    HW2 3792   1.348   1.214  10.826
 1086SOL     OW 3793   0.824   0.017   9.866
 1086SOL    HW1 3794   0.860   0.101   9.839
 1086SOL    HW2 3795   0.730   0.025   9.853
 1087SOL     OW 3796   0.174   0.938  10.589
 1087SOL    HW1 3797   0.266   0.917  10.573
 1087SOL    HW2 3798   0.132   0.930  10.504
 1088SOL     OW 3799   1.531   0.995   9.510
 1088SOL    HW1 3800   1.461   0.939   9.542
 1088SOL    HW2 3801   1.573   1.030   9.589
 1089SOL     OW 3802   1.197   1.807  10.929
 1089SOL    HW1 3803   1.193   1.872  10.859
 1089SOL    HW2 3804   1.207   1.723  10.883
 1090SOL     OW 3805   0.324   0.300  11.049
 1090SOL    HW1 3806   0.387   0.337   0.010
 1090SOL    HW2 3807   0.243   0.292   0.000
 1091SOL     OW 3808   1.468   1.419  10.259
 1091SOL    HW1 3809   1.399   1.436  10.324
 1091SOL    HW2 3810   1.454   1.328  10.233
 1092SOL     OW 3811   1.658   1.744   9.887
 1092SOL    HW1 3812   1.637   1.713   9.799
 1092SOL    HW2 3813   1.634   1.672   9.944
 1093SOL     OW 3814   0.595   0.722   9.577
 1093SOL    HW1 3815   0.595   0.805   9.530
 1093SOL    HW2 3816   0.529   0.734   9.646
 1094SOL     OW 3817   1.293   0.369  10.242
 1094SOL    HW1 3818   1.203   0.340  10.225
 1094SOL    HW2 3819   1.328   0.305  10.304
 1095SOL     OW 3820   1.578   1.672   9.619
 1095SOL    HW1 3821   1.669   1.701   9.611
 1095SOL    HW2 3822   1.551   1.655   9.529
 1096SOL     OW 3823   0.799   0.618  10.763
 1096SOL    HW1 3824   0.769   0.591  10.849
 1096SOL    HW2 3825   0.762   0.553  10.703
 1097SOL     OW 3826   0.965   0.900  10.906
 1097SOL    HW1 3827   1.014   0.829  10.865
 1097SOL    HW2 3828   0.915   0.939  10.834
 1098SOL     OW 3829   0.999   0.420  10.540
 1098SOL    HW1 3830   0.910   0.423  10.576
 1098SOL    HW2 3831   0.992   0.365  10.463
 1099SOL     OW 3832   1.051   0.698   9.736
 1099SOL    HW1 3833   1.069   0.689   9.829
 1099SOL    HW2 3834   0.968   0.653   9.723
 1100SOL     OW 3835   0.094   0.828  10.095
 1100SOL    HW1 3836   0.180   0.817  10.134
 1100SOL    HW2 3837   0.035   0.838  10.169
 1101SOL     OW 3838   0.117   1.850  10.901
 1101SOL    HW1 3839   0.112   1.789  10.974
 1101SOL    HW2 3840   0.050   1.818  10.839
 1102SOL     OW 3841   0.854   0.370   9.494
 1102SOL    HW1 3842   0.924   0.404   9.438
 1102SOL    HW2 3843   0.869   0.276   9.497
 1103SOL     OW 3844   1.379   1.143   9.850
 1103SOL    HW1 3845   1.458   1.131   9.797
 1103SOL    HW2 3846   1.326   1.205   9.800
 1104SOL     OW 3847   0.540   0.208  10.210
 1104SOL    HW1 3848   0.559   0.226  10.302
 1104SOL    HW2 3849   0.534   0.295  10.170
 1105SOL     OW 3850   1.003   1.444   9.780
 1105SOL    HW1 3851   0.969   1.518   9.730
 1105SOL    HW2 3852   0.981   1.464   9.871
 1106SOL     OW 3853   0.357   1.814  10.170
 1106SOL    HW1 3854   0.399   1.728  10.181
 1106SOL    HW2 3855   0.426   1.877  10.189
 1107SOL     OW 3856   1.801   1.055  10.179
 1107SOL    HW1 3857   1.747   1.034  10.102
 1107SOL    HW2 3858   1.738   1.061  10.251
 1108SOL     OW 3859   1.231   1.535  10.821
 1108SOL    HW1 3860   1.239   1.446  10.854
 1108SOL    HW2 3861   1.162   1.530  10.754
 1109SOL     OW 3862   0.313   0.953   9.567
 1109SOL    HW1 3863   0.396   0.977   9.527
 1109SOL    HW2 3864   0.300   0.861   9.543
 1110SOL     OW 3865   1.481   0.745  10.033
 1110SOL    HW1 3866   1.472   0.704  10.118
 1110SOL    HW2 3867   1.559   0.801  10.041
 1111SOL     OW 3868   0.456   1.266  11.052
 1111SOL    HW1 3869   0.426   1.283  10.962
 1111SOL    HW2 3870   0.392   1.205  11.088
 1112SOL     OW 3871   1.123   1.778   9.540
 1112SOL    HW1 3872   1.048   1.737   9.584
 1112SOL    HW2 3873   1.147   1.715   9.472
 1113SOL     OW 3874   0.156   0.258  10.823
 1113SOL    HW1 3875   0.133   0.346  10.793
 1113SOL    HW2 3876   0.208   0.272  10.902
 1114SOL     OW 3877   1.628   1.381   9.400
 1114SOL    HW1 3878   1.587   1.466   9.383
 1114SOL    HW2 3879   1.560   1.317   9.379
 1115SOL     OW 3880   0.469   1.742   9.624
 1115SOL    HW1 3881   0.513   1.796   9.689
 1115SOL    HW2 3882   0.540   1.705   9.571
 1116SOL     OW 3883   1.426   0.145   9.729
 1116SOL    HW1 3884   1.409   0.088   9.653
 1116SOL    HW2 3885   1.519   0.133   9.747
 1117SOL     OW 3886   0.252   1.787  10.542
 1117SOL    HW1 3887   0.301   1.713  10.578
 1117SOL    HW2 3888   0.222   1.757  10.456
 1118SOL     OW 3889   0.939   1.699  10.208
 1118SOL    HW1 3890   1.018   1.649  10.228
 1118SOL    HW2 3891   0.896   1.649  10.138
 1119SOL     OW 3892   0.396   0.691   9.781
 1119SOL    HW1 3893   0.420   0.599   9.796
 1119SOL    HW2 3894   0.304   0.696   9.807
 1120SOL     OW 3895   0.628   0.120   9.429
 1120SOL    HW1 3896   0.716   0.085   9.441
 1120SOL    HW2 3897   0.597   0.080   9.347
 1121SOL     OW 3898   0.763   0.276  11.044
 1121SOL    HW1 3899   0.826   0.208  11.066
 1121SOL    HW2 3900   0.708   0.284   0.022
 1122SOL     OW 3901   0.876   1.522  10.504
 1122SOL    HW1 3902   0.859   1.486  10.417
 1122SOL    HW2 3903   0.948   1.470  10.538
 1123SOL     OW 3904   1.344   0.591  10.754
 1123SOL    HW1 3905   1.395   0.574  10.833
 1123SOL    HW2 3906   1.369   0.680  10.729
 1124SOL     OW 3907   0.817   1.392  10.253
 1124SOL    HW1 3908   0.901   1.380  10.209
 1124SOL    HW2 3909   0.753   1.396  10.182
 1125SOL     OW 3910   0.925   0.523  10.207
 1125SOL    HW1 3911   0.908   0.520  10.113
 1125SOL    HW2 3912   0.957   0.435  10.229
 1126SOL     OW 3913   0.565   0.071   9.817
 1126SOL    HW1 3914   0.480   0.056   9.858
 1126SOL    HW2 3915   0.549   0.138   9.751
 1127SOL     OW 3916   1.428   1.199   9.351
 1127SOL    HW1 3917   1.457   1.124   9.401
 1127SOL    HW2 3918   1.343   1.221   9.387
 1128SOL     OW 3919   0.305   0.070   9.502
 1128SOL    HW1 3920   0.389   0.117   9.502
 1128SOL    HW2 3921   0.319   4.498   9.563
 1129SOL     OW 3922   0.958   0.240   9.774
 1129SOL    HW1 3923   0.904   0.303   9.727
 1129SOL    HW2 3924   1.047   0.274   9.769
 1130SOL     OW 3925   1.080   0.689  10.772
 1130SOL    HW1 3926   1.008   0.626  10.772
 1130SOL    HW2 3927   1.159   0.635  10.769
 1131SOL     OW 3928   1.221   1.572  10.105
 1131SOL    HW1 3929   1.237   1.637  10.036
 1131SOL    HW2 3930   1.291   1.587  10.169
 1132SOL     OW 3931   0.468   1.152  10.043
 1132SOL    HW1 3932   0.399   1.132  10.107
 1132SOL    HW2 3933   0.427   1.136   9.958
 1133SOL     OW 3934   1.267   1.793   9.920
 1133SOL    HW1 3935   1.314   1.854   9.864
 1133SOL    HW2 3936   1.199   1.846   9.962
 1134SOL     OW 3937   1.027   0.544   9.330
 1134SOL    HW1 3938   0.979   0.625   9.314
 1134SOL    HW2 3939   1.086   0.564   9.402
 1135SOL     OW 3940   0.087   0.508  10.725
 1135SOL    HW1 3941   0.149   0.517  10.653
 1135SOL    HW2 3942   0.062   0.598  10.746
 1136SOL     OW 3943   0.557   0.248  10.478
 1136SOL    HW1 3944   0.585   0.162  10.511
 1136SOL    HW2 3945   0.463   0.252  10.499
 1137SOL     OW 3946   0.864   0.504   9.938
 1137SOL    HW1 3947   0.825   0.541   9.859
 1137SOL    HW2 3948   0.819   0.421   9.951
 1138SOL     OW 3949   0.955   0.016  10.106
 1138SOL    HW1 3950   0.910   0.019  10.021
 1138SOL    HW2 3951   0.971   4.423  10.121
 1139SOL     OW 3952   1.437   1.162  10.167
 1139SOL    HW1 3953   1.368   1.095  10.166
 1139SOL    HW2 3954   1.462   1.171  10.074
 1140SOL     OW 3955   1.464   0.608  10.280
 1140SOL    HW1 3956   1.409   0.530  10.281
 1140SOL    HW2 3957   1.521   0.598  10.357
 1141SOL     OW 3958   1.843   0.814   9.694
 1141SOL    HW1 3959   1.901   0.764   9.752
 1141SOL    HW2 3960   1.817   0.752   9.627
 1142SOL     OW 3961   0.492   1.420   9.466
 1142SOL    HW1 3962   0.414   1.392   9.514
 1142SOL    HW2 3963   0.479   1.385   9.378
 1143SOL     OW 3964   1.672   1.265   9.953
 1143SOL    HW1 3965   1.767   1.266   9.968
 1143SOL    HW2 3966   1.643   1.353   9.975
 1144SOL     OW 3967   1.395   0.572   9.379
 1144SOL    HW1 3968   1.332   0.556   9.450
 1144SOL    HW2 3969   1.480   0.556   9.419
 1145SOL     OW 3970   0.519   0.264   9.628
 1145SOL    HW1 3971   0.571   0.216   9.564
 1145SOL    HW2 3972   0.502   0.348   9.587
 1146SOL     OW 3973   1.758   1.229  10.860
 1146SOL    HW1 3974   1.850   1.202  10.859
 1146SOL    HW2 3975   1.759   1.315  10.901
 1147SOL     OW 3976   1.061   1.354  10.649
 1147SOL    HW1 3977   0.982   1.321  10.693
 1147SOL    HW2 3978   1.133   1.306  10.689
 1148SOL     OW 3979   1.133   1.210  10.413
 1148SOL    HW1 3980   1.066   1.242  10.474
 1148SOL    HW2 3981   1.104   1.240  10.327
 1149SOL     OW 3982   1.627   1.097  10.387
 1149SOL    HW1 3983   1.623   1.159  10.460
 1149SOL    HW2 3984   1.549   1.116  10.335
 1150SOL     OW 3985   0.894   0.128  10.694
 1150SOL    HW1 3986   0.922   0.088  10.611
 1150SOL    HW2 3987   0.976   0.156  10.735
 1151SOL     OW 3988   0.709   1.062   9.682
 1151SOL    HW1 3989   0.696   1.044   9.775
 1151SOL    HW2 3990   0.784   1.008   9.658
 1152SOL     OW 3991   0.428   0.827  10.555
 1152SOL    HW1 3992   0.497   0.835  10.622
 1152SOL    HW2 3993   0.372   0.757  10.587
 1153SOL     OW 3994   1.271   0.383  10.583
 1153SOL    HW1 3995   1.301   0.459  10.632
 1153SOL    HW2 3996   1.181   0.405  10.557
 1154SOL     OW 3997   0.065   1.579  10.662
 1154SOL    HW1 3998   0.042   1.665  10.629
 1154SOL    HW2 3999   0.161   1.577  10.662
 1155SOL     OW 4000   0.340   1.111   9.803
 1155SOL    HW1 4001   0.352   1.185   9.744
 1155SOL    HW2 4002   0.340   1.035   9.746
 1156SOL     OW 4003   0.563   0.520  10.161
 1156SOL    HW1 4004   0.573   0.582  10.089
 1156SOL    HW2 4005   0.623   0.551  10.228
 1157SOL     OW 4006   1.248   1.349   9.700
 1157SOL    HW1 4007   1.303   1.420   9.731
 1157SOL    HW2 4008   1.161   1.370   9.733
 1158SOL     OW 4009   1.284   1.461  10.456
 1158SOL    HW1 4010   1.341   1.463  10.532
 1158SOL    HW2 4011   1.231   1.382  10.468
 1159SOL     OW 4012   1.579   0.623   9.789
 1159SOL    HW1 4013   1.531   0.669   9.857
 1159SOL    HW2 4014   1.623   0.692   9.739
 1160SOL     OW 4015   0.345   1.530  10.621
 1160SOL    HW1 4016   0.333   1.483  10.538
 1160SOL    HW2 4017   0.440   1.542  10.628
 1161SOL     OW 4018   0.498   0.746  10.976
 1161SOL    HW1 4019   0.534   0.783  10.896
 1161SOL    HW2 4020   0.551   0.667  10.992
 1162SOL     OW 4021   1.599   0.755  10.966
 1162SOL    HW1 4022   1.521   0.811  10.960
 1162SOL    HW2 4023   1.668   0.806  10.924
 1163SOL     OW 4024   0.589   0.875  10.335
 1163SOL    HW1 4025   0.621   0.966  10.338
 1163SOL    HW2 4026   0.533   0.867  10.413
 1164SOL     OW 4027   1.354   0.861  10.341
 1164SOL    HW1 4028   1.269   0.849  10.298
 1164SOL    HW2 4029   1.397   0.776  10.331
 1165SOL     OW 4030   1.200   0.536   9.569
 1165SOL    HW1 4031   1.207   0.457   9.621
 1165SOL    HW2 4032   1.157   0.599   9.627
 1166SOL     OW 4033   0.283   0.210  10.546
 1166SOL    HW1 4034   0.251   0.229  10.634
 1166SOL    HW2 4035   0.326   0.125  10.554
 1167SOL     OW 4036   0.029   1.316  10.596
 1167SOL    HW1 4037   0.069   1.265  10.667
 1167SOL    HW2 4038   0.036   1.407  10.625
 1168SOL     OW 4039   0.722   0.630  10.364
 1168SOL    HW1 4040   0.797   0.611  10.308
 1168SOL    HW2 4041   0.695   0.719  10.340
 1169SOL     OW 4042   0.323   0.072   9.939
 1169SOL    HW1 4043   0.303   0.162   9.968
 1169SOL    HW2 4044   0.312   0.019  10.018
 1170SOL     OW 4045   1.620   0.382   9.667
 1170SOL    HW1 4046   1.645   0.317   9.732
 1170SOL    HW2 4047   1.595   0.459   9.719
 1171SOL     OW 4048   1.031   0.764  10.270
 1171SOL    HW1 4049   1.024   0.779  10.365
 1171SOL    HW2 4050   1.001   0.674  10.258
 1172SOL     OW 4051   0.973   1.573  11.003
 1172SOL    HW1 4052   0.959   1.623  10.923
 1172SOL    HW2 4053   0.999   1.486  10.973
 1173SOL     OW 4054   1.856   1.489  10.911
 1173SOL    HW1 4055   1.872   1.525  10.824
 1173SOL    HW2 4056   1.919   1.533  10.968
 1174SOL     OW 4057   0.348   0.936  11.089
 1174SOL    HW1 4058   0.419   0.965   0.048
 1174SOL    HW2 4059   0.386   0.862  11.041
 1175SOL     OW 4060   1.529   0.262   9.438
 1175SOL    HW1 4061   1.459   0.205   9.470
 1175SOL    HW2 4062   1.560   0.309   9.516
 1176SOL     OW 4063   1.289   0.826   9.339
 1176SOL    HW1 4064   1.331   0.740   9.342
 1176SOL    HW2 4065   1.321   0.865   9.258
 1177SOL     OW 4066   1.068   1.336  10.165
 1177SOL    HW1 4067   1.071   1.264  10.102
 1177SOL    HW2 4068   1.127   1.402  10.130
 1178SOL     OW 4069   0.319   0.812  10.254
 1178SOL    HW1 4070   0.413   0.830  10.253
 1178SOL    HW2 4071   0.312   0.721  10.281
 1179SOL     OW 4072   0.332   0.532  10.296
 1179SOL    HW1 4073   0.287   0.449  10.281
 1179SOL    HW2 4074   0.410   0.528  10.242
 1180SOL     OW 4075   1.143   0.219  10.768
 1180SOL    HW1 4076   1.185   0.240  10.851
 1180SOL    HW2 4077   1.190   0.271  10.703
 1181SOL     OW 4078   4.491   1.320   9.519
 1181SOL    HW1 4079   4.398   1.337   9.500
 1181SOL    HW2 4080   4.494   1.227   9.539
 1182SOL     OW 4081   0.100   1.769  10.249
 1182SOL    HW1 4082   0.061   1.724  10.174
 1182SOL    HW2 4083   0.187   1.794  10.220
 1183SOL     OW 4084   0.495   1.574  10.217
 1183SOL    HW1 4085   0.563   1.638  10.240
 1183SOL    HW2 4086   0.538   1.512  10.158
 1184SOL     OW 4087   0.978   0.795  10.536
 1184SOL    HW1 4088   1.036   0.773  10.610
 1184SOL    HW2 4089   0.897   0.749  10.556
 1185SOL     OW 4090   0.028   0.564  10.411
 1185SOL    HW1 4091   0.112   0.532  10.378
 1185SOL    HW2 4092   0.010   0.510  10.488
 1186SOL     OW 4093   0.811   0.576   9.669
 1186SOL    HW1 4094   0.816   0.505   9.604
 1186SOL    HW2 4095   0.739   0.631   9.639
 1187SOL     OW 4096   1.639   0.601  10.492
 1187SOL    HW1 4097   1.629   0.545  10.569
 1187SOL    HW2 4098   1.727   0.583  10.460
 1188SOL     OW 4099   0.261   1.576  11.052
 1188SOL    HW1 4100   0.206   1.595   0.028
 1188SOL    HW2 4101   0.247   1.483  11.035
 1189SOL     OW 4102   0.702   0.459  10.573
 1189SOL    HW1 4103   0.653   0.382  10.543
 1189SOL    HW2 4104   0.700   0.519  10.498
 1190SOL     OW 4105   0.939   1.682  10.755
 1190SOL    HW1 4106   0.904   1.646  10.673
 1190SOL    HW2 4107   0.922   1.776  10.749
 1191SOL     OW 4108   0.472   0.491   9.490
 1191SOL    HW1 4109   0.533   0.560   9.514
 1191SOL    HW2 4110   0.389   0.536   9.474
 1192SOL     OW 4111   0.163   1.144  10.764
 1192SOL    HW1 4112   0.136   1.106  10.848
 1192SOL    HW2 4113   0.167   1.069  10.705
 1193SOL     OW 4114   1.322   1.051  10.538
 1193SOL    HW1 4115   1.347   0.986  10.473
 1193SOL    HW2 4116   1.254   1.104  10.494
 1194SOL     OW 4117   1.315   0.856   9.615
 1194SOL    HW1 4118   1.240   0.827   9.667
 1194SOL    HW2 4119   1.286   0.844   9.524
 1195SOL     OW 4120   1.770   1.743  10.459
 1195SOL    HW1 4121   1.832   1.771  10.392
 1195SOL    HW2 4122   1.749   1.652  10.438
 1196SOL     OW 4123   1.240   1.734  10.419
 1196SOL    HW1 4124   1.323   1.757  10.376
 1196SOL    HW2 4125   1.248   1.641  10.438
 1197SOL     OW 4126   0.068   1.185  10.361
 1197SOL    HW1 4127   0.059   1.216  10.451
 1197SOL    HW2 4128   0.033   1.257  10.308
 1198SOL     OW 4129   1.719   0.129   9.797
 1198SOL    HW1 4130   1.788   0.141   9.732
 1198SOL    HW2 4131   1.752   0.059   9.854
 1199SOL     OW 4132   1.391   1.568   9.798
 1199SOL    HW1 4133   1.450   1.601   9.730
 1199SOL    HW2 4134   1.342   1.644   9.826
 1200SOL     OW 4135   1.279   0.929   9.983
 1200SOL    HW1 4136   1.352   0.868   9.990
 1200SOL    HW2 4137   1.313   1.001   9.929
 1201SOL     OW 4138   0.814   1.276  10.736
 1201SOL    HW1 4139   0.783   1.310  10.820
 1201SOL    HW2 4140   0.744   1.297  10.674
 1202SOL     OW 4141   0.672   1.623   9.465
 1202SOL    HW1 4142   0.683   1.635   9.371
 1202SOL    HW2 4143   0.617   1.545   9.473
 1203SOL     OW 4144   1.617   1.722  10.692
 1203SOL    HW1 4145   1.673   1.736  10.616
 1203SOL    HW2 4146   1.602   1.810  10.728
 1204SOL     OW 4147   1.839   0.153  10.275
 1204SOL    HW1 4148   1.868   0.073  10.231
 1204SOL    HW2 4149   1.752   0.170  10.239
 1205SOL     OW 4150   0.260   0.323  10.029
 1205SOL    HW1 4151   0.175   0.357   9.998
 1205SOL    HW2 4152   0.248   0.313  10.124
 1206SOL     OW 4153   1.208   1.604   9.342
 1206SOL    HW1 4154   1.197   1.513   9.369
 1206SOL    HW2 4155   1.143   1.617   9.274
 1207SOL     OW 4156   0.826   1.006  10.689
 1207SOL    HW1 4157   0.870   0.996  10.604
 1207SOL    HW2 4158   0.825   1.101  10.704
 1208SOL     OW 4159   0.915   0.910   9.600
 1208SOL    HW1 4160   0.977   0.943   9.534
 1208SOL    HW2 4161   0.964   0.842   9.646
 1209SOL     OW 4162   1.491   1.626   9.353
 1209SOL    HW1 4163   1.396   1.618   9.338
 1209SOL    HW2 4164   1.528   1.632   9.265
 1210SOL     OW 4165   0.365   1.318  10.808
 1210SOL    HW1 4166   0.352   1.391  10.747
 1210SOL    HW2 4167   0.296   1.255  10.785
 1211SOL     OW 4168   1.613   1.282  10.593
 1211SOL    HW1 4169   1.668   1.264  10.669
 1211SOL    HW2 4170   1.556   1.353  10.621
 1212SOL     OW 4171   1.056   1.109  10.018
 1212SOL    HW1 4172   0.984   1.058  10.056
 1212SOL    HW2 4173   1.120   1.043   9.990
 1213SOL     OW 4174   1.002   0.247  10.321
 1213SOL    HW1 4175   1.009   0.229  10.227
 1213SOL    HW2 4176   0.993   0.161  10.361
 1214SOL     OW 4177   0.606   1.489   9.792
 1214SOL    HW1 4178   0.651   1.439   9.723
 1214SOL    HW2 4179   0.529   1.526   9.748
 1215SOL     OW 4180   1.720   0.394  10.691
 1215SOL    HW1 4181   1.794   0.455  10.694
 1215SOL    HW2 4182   1.749   0.324  10.632
 1216SOL     OW 4183   0.252   1.343   9.584
 1216SOL    HW1 4184   0.157   1.340   9.572
 1216SOL    HW2 4185   0.263   1.375   9.674
 1217SOL     OW 4186   0.111   1.022  11.001
 1217SOL    HW1 4187   0.057   1.032  11.079
 1217SOL    HW2 4188   0.198   1.002  11.034
 1218SOL     OW 4189   0.653   0.199  10.803
 1218SOL    HW1 4190   0.732   0.171  10.755
 1218SOL    HW2 4191   0.686   0.228  10.888
 1219SOL     OW 4192   0.073   0.320   9.335
 1219SOL    HW1 4193   4.480   0.326   9.354
 1219SOL    HW2 4194   0.098   0.408   9.304
 1220SOL     OW 4195   1.427   0.850  10.710
 1220SOL    HW1 4196   1.379   0.918  10.663
 1220SOL    HW2 4197   1.517   0.858  10.676
 1221SOL     OW 4198   0.086   0.188   9.612
 1221SOL    HW1 4199   0.075   0.262   9.553
 1221SOL    HW2 4200   0.166   0.145   9.582
 1222SOL     OW 4201   1.178   1.337   9.427
 1222SOL    HW1 4202   1.088   1.307   9.429
 1222SOL    HW2 4203   1.205   1.338   9.519
 1223SOL     OW 4204   0.626   0.827  10.742
 1223SOL    HW1 4205   0.681   0.904  10.728
 1223SOL    HW2 4206   0.688   0.754  10.746
 1224SOL     OW 4207   1.484   1.780  10.291
 1224SOL    HW1 4208   1.508   1.843  10.223
 1224SOL    HW2 4209   1.567   1.760  10.335
 1225SOL     OW 4210   0.710   0.565  11.013
 1225SOL    HW1 4211   0.755   0.631  11.066
 1225SOL    HW2 4212   0.751   0.482  11.039
 1226SOL     OW 4213   0.382   1.743  10.875
 1226SOL    HW1 4214   0.306   1.799  10.865
 1226SOL    HW2 4215   0.354   1.675  10.936
 1227SOL     OW 4216   1.668   0.882  10.567
 1227SOL    HW1 4217   1.661   0.796  10.524
 1227SOL    HW2 4218   1.659   0.945  10.496
 1228SOL     OW 4219   1.220   0.333   9.756
 1228SOL    HW1 4220   1.287   0.265   9.743
 1228SOL    HW2 4221   1.248   0.380   9.834
 1229SOL     OW 4222   0.585   0.735   9.983
 1229SOL    HW1 4223   0.626   0.821   9.968
 1229SOL    HW2 4224   0.519   0.728   9.914
 1230SOL     OW 4225   1.745   0.312  10.956
 1230SOL    HW1 4226   1.729   0.351  10.871
 1230SOL    HW2 4227   1.669   0.336  11.009
 1231SOL     OW 4228   1.750   0.936  10.825
 1231SOL    HW1 4229   1.741   1.030  10.839
 1231SOL    HW2 4230   1.731   0.923  10.732
 1232SOL     OW 4231   0.864   1.366   9.348
 1232SOL    HW1 4232   0.825   1.394   9.431
 1232SOL    HW2 4233   0.880   1.447   9.300
 1233SOL     OW 4234   0.662   1.788  10.252
 1233SOL    HW1 4235   0.642   1.879  10.230
 1233SOL    HW2 4236   0.757   1.782  10.244
 1234SOL     OW 4237   0.869   0.970  10.164
 1234SOL    HW1 4238   0.919   0.897  10.201
 1234SOL    HW2 4239   0.832   1.015  10.240
 1235SOL     OW 4240   1.078   0.988   9.399
 1235SOL    HW1 4241   1.056   1.040   9.322
 1235SOL    HW2 4242   1.152   0.934   9.372
 1236SOL     OW 4243   1.853   1.554  10.153
 1236SOL    HW1 4244   1.773   1.544  10.101
 1236SOL    HW2 4245   1.842   1.493  10.226
 1237SOL     OW 4246   0.115   1.230   9.979
 1237SOL    HW1 4247   0.133   1.189  10.063
 1237SOL    HW2 4248   0.172   1.185   9.917
 1238SOL     OW 4249   0.681   1.397  10.942
 1238SOL    HW1 4250   0.611   1.345  10.982
 1238SOL    HW2 4251   0.640   1.481  10.923
 1239SOL     OW 4252   1.797   0.177  10.548
 1239SOL    HW1 4253   1.815   0.085  10.569
 1239SOL    HW2 4254   1.816   0.185  10.455
 1240SOL     OW 4255   0.443   0.429   9.844
 1240SOL    HW1 4256   0.457   0.360   9.779
 1240SOL    HW2 4257   0.382   0.392   9.907
 1241SOL     OW 4258   1.703   1.486  10.400
 1241SOL    HW1 4259   1.621   1.464  10.356
 1241SOL    HW2 4260   1.712   1.419  10.468
 1242SOL     OW 4261   0.302   0.506  10.563
 1242SOL    HW1 4262   0.369   0.455  10.608
 1242SOL    HW2 4263   0.334   0.514  10.474
 1243SOL     OW 4264   0.830   1.578   9.986
 1243SOL    HW1 4265   0.812   1.638   9.914
 1243SOL    HW2 4266   0.754   1.520   9.988
 1244SOL     OW 4267   1.430   0.217  10.427
 1244SOL    HW1 4268   1.470   0.149  10.482
 1244SOL    HW2 4269   1.381   0.272  10.489
 1245SOL     OW 4270   0.994   0.004  10.462
 1245SOL    HW1 4271   0.955   4.416  10.453
 1245SOL    HW2 4272   1.088   4.487  10.471
 1246SOL     OW 4273   0.773   1.333   9.628
 1246SOL    HW1 4274   0.744   1.242   9.634
 1246SOL    HW2 4275   0.855   1.336   9.677
 1247SOL     OW 4276   0.620   1.553  10.599
 1247SOL    HW1 4277   0.620   1.638  10.645
 1247SOL    HW2 4278   0.707   1.548  10.559
 1248SOL     OW 4279   1.338   0.052   9.468
 1248SOL    HW1 4280   1.377   4.476   9.423
 1248SOL    HW2 4281   1.262   0.017   9.514
 1249SOL     OW 4282   1.315   0.465   9.983
 1249SOL    HW1 4283   1.258   0.541   9.984
 1249SOL    HW2 4284   1.304   0.425  10.069
 1250SOL     OW 4285   1.585   0.198  10.179
 1250SOL    HW1 4286   1.526   0.214  10.253
 1250SOL    HW2 4287   1.587   0.282  10.132
 1251SOL     OW 4288   0.040   1.050   9.600
 1251SOL    HW1 4289   0.133   1.029   9.588
 1251SOL    HW2 4290   0.021   1.024   9.691
 1252SOL     OW 4291   0.887   1.656   9.650
 1252SOL    HW1 4292   0.814   1.639   9.591
 1252SOL    HW2 4293   0.858   1.730   9.704
 1253SOL     OW 4294   0.238   2.454   0.106
 1253SOL    HW1 4295   0.165   2.446   0.167
 1253SOL    HW2 4296   0.202   2.504   0.032
 1254SOL     OW 4297   0.212   2.136   0.991
 1254SOL    HW1 4298   0.249   2.110   1.076
 1254SOL    HW2 4299   0.138   2.078   0.978
 1255SOL     OW 4300   0.007   2.258   0.638
 1255SOL    HW1 4301   4.426   2.290   0.678
 1255SOL    HW2 4302   4.482   2.175   0.597
 1256SOL     OW 4303   0.569   3.154   1.179
 1256SOL    HW1 4304   0.482   3.159   1.139
 1256SOL    HW2 4305   0.584   3.242   1.214
 1257SOL     OW 4306   1.565   3.375   0.708
 1257SOL    HW1 4307   1.522   3.352   0.790
 1257SOL    HW2 4308   1.494   3.378   0.644
 1258SOL     OW 4309   1.131   2.561   0.698
 1258SOL    HW1 4310   1.180   2.642   0.686
 1258SOL    HW2 4311   1.084   2.573   0.781
 1259SOL     OW 4312   1.774   2.465   0.221
 1259SOL    HW1 4313   1.729   2.466   0.137
 1259SOL    HW2 4314   1.740   2.387   0.266
 1260SOL     OW 4315   0.751   3.002   1.043
 1260SOL    HW1 4316   0.683   3.038   1.101
 1260SOL    HW2 4317   0.788   3.078   0.999
 1261SOL     OW 4318   0.870   2.629   1.821
 1261SOL    HW1 4319   0.855   2.699   1.885
 1261SOL    HW2 4320   0.893   2.674   1.740
 1262SOL     OW 4321   0.685   2.862   0.646
 1262SOL    HW1 4322   0.751   2.852   0.715
 1262SOL    HW2 4323   0.616   2.915   0.687
 1263SOL     OW 4324   0.713   3.011   1.816
 1263SOL    HW1 4325   0.760   3.089   1.844
 1263SOL    HW2 4326   0.632   3.044   1.778
 1264SOL     OW 4327   0.334   3.281   1.068
 1264SOL    HW1 4328   0.252   3.261   1.022
 1264SOL    HW2 4329   0.384   3.335   1.007
 1265SOL     OW 4330   1.460   3.362   1.358
 1265SOL    HW1 4331   1.513   3.442   1.367
 1265SOL    HW2 4332   1.394   3.369   1.426
 1266SOL     OW 4333   0.447   2.266   1.486
 1266SOL    HW1 4334   0.526   2.213   1.493
 1266SOL    HW2 4335   0.375   2.203   1.495
 1267SOL     OW 4336   1.607   2.306   0.744
 1267SOL    HW1 4337   1.533   2.325   0.686
 1267SOL    HW2 4338   1.620   2.387   0.795
 1268SOL     OW 4339   0.245   3.554   0.480
 1268SOL    HW1 4340   0.231   3.640   0.518
 1268SOL    HW2 4341   0.310   3.567   0.411
 1269SOL     OW 4342   1.137   3.204   1.693
 1269SOL    HW1 4343   1.177   3.198   1.780
 1269SOL    HW2 4344   1.085   3.124   1.686
 1270SOL     OW 4345   0.248   3.289   0.527
 1270SOL    HW1 4346   0.240   3.384   0.527
 1270SOL    HW2 4347   0.185   3.260   0.594
 1271SOL     OW 4348   0.252   2.945   0.886
 1271SOL    HW1 4349   0.266   2.853   0.910
 1271SOL    HW2 4350   0.190   2.977   0.951
 1272SOL     OW 4351   0.610   3.653   1.430
 1272SOL    HW1 4352   0.527   3.635   1.474
 1272SOL    HW2 4353   0.631   3.743   1.455
 1273SOL     OW 4354   0.566   2.859   0.154
 1273SOL    HW1 4355   0.618   2.892   0.081
 1273SOL    HW2 4356   0.613   2.886   0.232
 1274SOL     OW 4357   1.590   1.987   1.464
 1274SOL    HW1 4358   1.613   2.067   1.416
 1274SOL    HW2 4359   1.579   2.017   1.555
 1275SOL     OW 4360   0.135   2.511   0.571
 1275SOL    HW1 4361   0.091   2.430   0.594
 1275SOL    HW2 4362   0.108   2.574   0.638
 1276SOL     OW 4363   1.843   3.619   0.331
 1276SOL    HW1 4364   1.910   3.591   0.393
 1276SOL    HW2 4365   1.866   3.711   0.312
 1277SOL     OW 4366   0.077   3.449   0.151
 1277SOL    HW1 4367   0.043   3.360   0.162
 1277SOL    HW2 4368   0.037   3.500   0.222
 1278SOL     OW 4369   1.689   2.781   0.643
 1278SOL    HW1 4370   1.770   2.736   0.617
 1278SOL    HW2 4371   1.665   2.833   0.567
 1279SOL     OW 4372   1.647   2.965   0.432
 1279SOL    HW1 4373   1.730   2.974   0.385
 1279SOL    HW2 4374   1.653   3.029   0.503
 1280SOL     OW 4375   0.111   2.628   1.577
 1280SOL    HW1 4376   0.199   2.621   1.540
 1280SOL    HW2 4377   0.104   2.720   1.603
 1281SOL     OW 4378   0.615   3.251   0.736
 1281SOL    HW1 4379   0.569   3.168   0.746
 1281SOL    HW2 4380   0.598   3.277   0.646
 1282SOL     OW 4381   1.287   3.099   1.422
 1282SOL    HW1 4382   1.319   3.031   1.362
 1282SOL    HW2 4383   1.346   3.094   1.498
 1283SOL     OW 4384   0.820   1.865   0.512
 1283SOL    HW1 4385   0.858   1.950   0.492
 1283SOL    HW2 4386   0.726   1.881   0.519
 1284SOL     OW 4387   0.177   2.800   1.279
 1284SOL    HW1 4388   0.269   2.781   1.260
 1284SOL    HW2 4389   0.133   2.794   1.194
 1285SOL     OW 4390   1.511   2.869   0.205
 1285SOL    HW1 4391   1.448   2.807   0.243
 1285SOL    HW2 4392   1.565   2.897   0.280
 1286SOL     OW 4393   1.186   3.671   1.624
 1286SOL    HW1 4394   1.193   3.730   1.549
 1286SOL    HW2 4395   1.202   3.584   1.588
 1287SOL     OW 4396   0.333   2.119   1.803
 1287SOL    HW1 4397   0.379   2.193   1.843
 1287SOL    HW2 4398   0.244   2.124   1.837
 1288SOL     OW 4399   1.467   3.281   0.950
 1288SOL    HW1 4400   1.399   3.297   1.015
 1288SOL    HW2 4401   1.454   3.190   0.923
 1289SOL     OW 4402   1.656   3.608   0.579
 1289SOL    HW1 4403   1.638   3.577   0.490
 1289SOL    HW2 4404   1.633   3.533   0.635
 1290SOL     OW 4405   0.595   2.577   0.267
 1290SOL    HW1 4406   0.598   2.661   0.220
 1290SOL    HW2 4407   0.532   2.591   0.337
 1291SOL     OW 4408   1.278   2.220   0.933
 1291SOL    HW1 4409   1.189   2.186   0.942
 1291SOL    HW2 4410   1.331   2.166   0.992
 1292SOL     OW 4411   1.582   3.534   0.313
 1292SOL    HW1 4412   1.673   3.561   0.305
 1292SOL    HW2 4413   1.554   3.515   0.223
 1293SOL     OW 4414   0.793   2.478   1.450
 1293SOL    HW1 4415   0.766   2.453   1.538
 1293SOL    HW2 4416   0.753   2.412   1.393
 1294SOL     OW 4417   1.393   2.336   1.678
 1294SOL    HW1 4418   1.397   2.380   1.763
 1294SOL    HW2 4419   1.452   2.262   1.686
 1295SOL     OW 4420   0.952   2.748   1.584
 1295SOL    HW1 4421   1.007   2.679   1.547
 1295SOL    HW2 4422   0.905   2.784   1.509
 1296SOL     OW 4423   0.992   2.276   1.237
 1296SOL    HW1 4424   0.905   2.294   1.272
 1296SOL    HW2 4425   0.976   2.229   1.155
 1297SOL     OW 4426   1.052   2.564   0.427
 1297SOL    HW1 4427   1.070   2.557   0.520
 1297SOL    HW2 4428   0.969   2.518   0.414
 1298SOL     OW 4429   0.094   2.690   0.785
 1298SOL    HW1 4430   0.180   2.679   0.827
 1298SOL    HW2 4431   0.034   2.702   0.858
 1299SOL     OW 4432   0.123   3.720   1.578
 1299SOL    HW1 4433   0.116   3.697   1.671
 1299SOL    HW2 4434   0.045   3.682   1.538
 1300SOL     OW 4435   0.891   2.216   0.211
 1300SOL    HW1 4436   0.935   2.275   0.150
 1300SOL    HW2 4437   0.904   2.129   0.175
 1301SOL     OW 4438   1.709   2.442   1.831
 1301SOL    HW1 4439   1.671   2.515   1.782
 1301SOL    HW2 4440   1.726   2.375   1.765
 1302SOL     OW 4441   1.379   3.003   0.541
 1302SOL    HW1 4442   1.457   2.990   0.487
 1302SOL    HW2 4443   1.326   3.065   0.492
 1303SOL     OW 4444   0.553   2.041   0.894
 1303SOL    HW1 4445   0.555   2.074   0.984
 1303SOL    HW2 4446   0.553   2.121   0.841
 1304SOL     OW 4447   1.001   3.305   0.473
 1304SOL    HW1 4448   0.968   3.379   0.423
 1304SOL    HW2 4449   0.980   3.325   0.564
 1305SOL     OW 4450   0.357   3.675   0.861
 1305SOL    HW1 4451   0.398   3.589   0.871
 1305SOL    HW2 4452   0.427   3.738   0.878
 1306SOL     OW 4453   1.801   2.914   0.869
 1306SOL    HW1 4454   1.748   2.897   0.792
 1306SOL    HW2 4455   1.737   2.922   0.941
 1307SOL     OW 4456   1.228   3.401   1.513
 1307SOL    HW1 4457   1.215   3.329   1.574
 1307SOL    HW2 4458   1.162   3.387   1.445
 1308SOL     OW 4459   0.309   2.816   0.281
 1308SOL    HW1 4460   0.391   2.843   0.241
 1308SOL    HW2 4461   0.312   2.720   0.281
 1309SOL     OW 4462   1.480   2.607   0.725
 1309SOL    HW1 4463   1.473   2.566   0.811
 1309SOL    HW2 4464   1.558   2.662   0.730
 1310SOL     OW 4465   0.470   3.126   1.735
 1310SOL    HW1 4466   0.443   3.133   1.643
 1310SOL    HW2 4467   0.388   3.128   1.784
 1311SOL     OW 4468   1.108   3.642   0.226
 1311SOL    HW1 4469   1.047   3.592   0.280
 1311SOL    HW2 4470   1.151   3.577   0.171
 1312SOL     OW 4471   0.198   2.138   1.484
 1312SOL    HW1 4472   0.142   2.215   1.492
 1312SOL    HW2 4473   0.181   2.087   1.564
 1313SOL     OW 4474   1.628   3.235   0.090
 1313SOL    HW1 4475   1.585   3.320   0.078
 1313SOL    HW2 4476   1.562   3.172   0.060
 1314SOL     OW 4477   0.468   3.604   0.317
 1314SOL    HW1 4478   0.509   3.661   0.382
 1314SOL    HW2 4479   0.541   3.571   0.264
 1315SOL     OW 4480   1.401   1.969   0.434
 1315SOL    HW1 4481   1.394   1.948   0.341
 1315SOL    HW2 4482   1.495   1.978   0.449
 1316SOL     OW 4483   0.259   3.655   1.227
 1316SOL    HW1 4484   0.303   3.578   1.263
 1316SOL    HW2 4485   0.221   3.624   1.145
 1317SOL     OW 4486   0.938   3.561   0.897
 1317SOL    HW1 4487   1.016   3.510   0.919
 1317SOL    HW2 4488   0.896   3.511   0.828
 1318SOL     OW 4489   0.392   2.557   0.466
 1318SOL    HW1 4490   0.417   2.465   0.481
 1318SOL    HW2 4491   0.302   2.563   0.498
 1319SOL     OW 4492   1.530   2.085   1.726
 1319SOL    HW1 4493   1.538   2.104   1.819
 1319SOL    HW2 4494   1.463   2.017   1.721
 1320SOL     OW 4495   0.617   1.967   0.124
 1320SOL    HW1 4496   0.706   1.932   0.121
 1320SOL    HW2 4497   0.581   1.948   0.038
 1321SOL     OW 4498   0.765   2.141   1.755
 1321SOL    HW1 4499   0.844   2.086   1.753
 1321SOL    HW2 4500   0.718   2.112   1.833
 1322SOL     OW 4501   0.877   3.385   1.194
 1322SOL    HW1 4502   0.860   3.348   1.107
 1322SOL    HW2 4503   0.946   3.330   1.230
 1323SOL     OW 4504   1.339   2.451   1.432
 1323SOL    HW1 4505   1.370   2.419   1.517
 1323SOL    HW2 4506   1.377   2.539   1.424
 1324SOL     OW 4507   0.817   3.254   0.943
 1324SOL    HW1 4508   0.901   3.243   0.899
 1324SOL    HW2 4509   0.753   3.258   0.872
 1325SOL     OW 4510   0.928   2.371   0.902
 1325SOL    HW1 4511   0.904   2.363   0.810
 1325SOL    HW2 4512   0.959   2.284   0.927
 1326SOL     OW 4513   0.556   1.923   0.502
 1326SOL    HW1 4514   0.474   1.920   0.552
 1326SOL    HW2 4515   0.549   2.002   0.449
 1327SOL     OW 4516   1.423   3.059   0.027
 1327SOL    HW1 4517   1.453   2.988   0.083
 1327SOL    HW2 4518   1.340   3.088   0.066
 1328SOL     OW 4519   0.286   1.911   0.191
 1328SOL    HW1 4520   0.333   1.961   0.125
 1328SOL    HW2 4521   0.349   1.847   0.223
 1329SOL     OW 4522   0.942   2.110   0.462
 1329SOL    HW1 4523   0.914   2.153   0.382
 1329SOL    HW2 4524   1.036   2.125   0.467
 1330SOL     OW 4525   1.080   2.544   1.458
 1330SOL    HW1 4526   1.014   2.476   1.462
 1330SOL    HW2 4527   1.163   2.497   1.452
 1331SOL     OW 4528   1.221   3.433   0.795
 1331SOL    HW1 4529   1.237   3.498   0.726
 1331SOL    HW2 4530   1.291   3.448   0.859
 1332SOL     OW 4531   0.471   3.014   0.737
 1332SOL    HW1 4532   0.401   2.994   0.800
 1332SOL    HW2 4533   0.429   3.003   0.651
 1333SOL     OW 4534   1.267   3.655   0.609
 1333SOL    HW1 4535   1.315   3.717   0.553
 1333SOL    HW2 4536   1.200   3.709   0.651
 1334SOL     OW 4537   1.010   2.396   0.043
 1334SOL    HW1 4538   0.976   2.485   0.027
 1334SOL    HW2 4539   1.091   2.410   0.092
 1335SOL     OW 4540   0.082   2.384   1.411
 1335SOL    HW1 4541   0.144   2.377   1.339
 1335SOL    HW2 4542   0.067   2.477   1.422
 1336SOL     OW 4543   0.559   2.090   1.168
 1336SOL    HW1 4544   0.604   2.013   1.204
 1336SOL    HW2 4545   0.468   2.079   1.194
 1337SOL     OW 4546   0.867   2.322   0.640
 1337SOL    HW1 4547   0.823   2.376   0.574
 1337SOL    HW2 4548   0.888   2.241   0.593
 1338SOL     OW 4549   1.016   1.916   0.750
 1338SOL    HW1 4550   0.957   1.909   0.674
 1338SOL    HW2 4551   0.994   1.841   0.804
 1339SOL     OW 4552   1.438   3.024   0.857
 1339SOL    HW1 4553   1.368   2.959   0.856
 1339SOL    HW2 4554   1.463   3.033   0.765
 1340SOL     OW 4555   1.464   2.470   0.973
 1340SOL    HW1 4556   1.411   2.390   0.975
 1340SOL    HW2 4557   1.522   2.462   1.050
 1341SOL     OW 4558   1.849   2.672   0.385
 1341SOL    HW1 4559   1.906   2.621   0.443
 1341SOL    HW2 4560   1.821   2.611   0.318
 1342SOL     OW 4561   0.496   3.285   0.174
 1342SOL    HW1 4562   0.416   3.260   0.221
 1342SOL    HW2 4563   0.493   3.234   0.093
 1343SOL     OW 4564   1.672   3.126   0.646
 1343SOL    HW1 4565   1.767   3.128   0.658
 1343SOL    HW2 4566   1.644   3.215   0.665
 1344SOL     OW 4567   1.390   2.434   0.081
 1344SOL    HW1 4568   1.329   2.415   0.152
 1344SOL    HW2 4569   1.452   2.361   0.082
 1345SOL     OW 4570   0.529   2.126   0.327
 1345SOL    HW1 4571   0.557   2.065   0.258
 1345SOL    HW2 4572   0.509   2.207   0.280
 1346SOL     OW 4573   1.750   3.103   1.568
 1346SOL    HW1 4574   1.838   3.064   1.565
 1346SOL    HW2 4575   1.766   3.193   1.597
 1347SOL     OW 4576   1.057   3.216   1.333
 1347SOL    HW1 4577   0.981   3.185   1.383
 1347SOL    HW2 4578   1.132   3.174   1.374
 1348SOL     OW 4579   1.609   3.489   1.656
 1348SOL    HW1 4580   1.602   3.522   1.567
 1348SOL    HW2 4581   1.691   3.440   1.657
 1349SOL     OW 4582   1.132   3.069   1.104
 1349SOL    HW1 4583   1.071   3.106   1.168
 1349SOL    HW2 4584   1.101   3.102   1.020
 1350SOL     OW 4585   1.626   2.960   1.076
 1350SOL    HW1 4586   1.621   3.022   1.148
 1350SOL    HW2 4587   1.549   2.977   1.023
 1351SOL     OW 4588   0.917   1.959   1.394
 1351SOL    HW1 4589   0.940   1.938   1.303
 1351SOL    HW2 4590   0.997   1.997   1.431
 1352SOL     OW 4591   0.984   2.977   1.723
 1352SOL    HW1 4592   0.893   2.993   1.746
 1352SOL    HW2 4593   0.982   2.898   1.668
 1353SOL     OW 4594   0.711   2.921   0.375
 1353SOL    HW1 4595   0.699   2.904   0.468
 1353SOL    HW2 4596   0.786   2.867   0.350
 1354SOL     OW 4597   0.432   2.691   1.245
 1354SOL    HW1 4598   0.502   2.704   1.309
 1354SOL    HW2 4599   0.376   2.624   1.284
 1355SOL     OW 4600   1.264   2.238   1.278
 1355SOL    HW1 4601   1.297   2.315   1.323
 1355SOL    HW2 4602   1.174   2.260   1.255
 1356SOL     OW 4603   0.064   3.438   1.345
 1356SOL    HW1 4604   0.038   3.528   1.328
 1356SOL    HW2 4605   0.160   3.441   1.350
 1357SOL     OW 4606   0.340   2.985   0.500
 1357SOL    HW1 4607   0.344   3.059   0.440
 1357SOL    HW2 4608   0.333   2.908   0.442
 1358SOL     OW 4609   0.559   2.392   0.854
 1358SOL    HW1 4610   0.572   2.452   0.781
 1358SOL    HW2 4611   0.622   2.421   0.920
 1359SOL     OW 4612   1.246   3.208   0.397
 1359SOL    HW1 4613   1.302   3.281   0.425
 1359SOL    HW2 4614   1.159   3.232   0.428
 1360SOL     OW 4615   1.285   3.321   1.147
 1360SOL    HW1 4616   1.340   3.324   1.225
 1360SOL    HW2 4617   1.229   3.244   1.160
 1361SOL     OW 4618   1.581   2.484   0.482
 1361SOL    HW1 4619   1.531   2.532   0.548
 1361SOL    HW2 4620   1.617   2.552   0.425
 1362SOL     OW 4621   0.345   3.397   1.312
 1362SOL    HW1 4622   0.332   3.349   1.230
 1362SOL    HW2 4623   0.440   3.406   1.319
 1363SOL     OW 4624   0.487   2.617   1.671
 1363SOL    HW1 4625   0.517   2.656   1.589
 1363SOL    HW2 4626   0.544   2.541   1.684
 1364SOL     OW 4627   1.604   2.644   1.685
 1364SOL    HW1 4628   1.518   2.685   1.678
 1364SOL    HW2 4629   1.656   2.685   1.616
 1365SOL     OW 4630   0.996   1.990   1.753
 1365SOL    HW1 4631   1.054   2.062   1.729
 1365SOL    HW2 4632   1.043   1.911   1.728
 1366SOL     OW 4633   0.497   1.904   1.748
 1366SOL    HW1 4634   0.454   1.847   1.684
 1366SOL    HW2 4635   0.439   1.979   1.756
 1367SOL     OW 4636   0.591   2.736   1.025
 1367SOL    HW1 4637   0.622   2.827   1.027
 1367SOL    HW2 4638   0.535   2.728   1.102
 1368SOL     OW 4639   1.354   2.721   1.027
 1368SOL    HW1 4640   1.269   2.709   0.983
 1368SOL    HW2 4641   1.397   2.635   1.019
 1369SOL     OW 4642   1.199   2.386   0.270
 1369SOL    HW1 4643   1.208   2.309   0.326
 1369SOL    HW2 4644   1.156   2.452   0.325
 1370SOL     OW 4645   0.301   2.050   1.242
 1370SOL    HW1 4646   0.262   2.083   1.323
 1370SOL    HW2 4647   0.284   1.956   1.243
 1371SOL     OW 4648   0.028   3.174   1.287
 1371SOL    HW1 4649   0.070   3.126   1.358
 1371SOL    HW2 4650   0.038   3.266   1.311
 1372SOL     OW 4651   0.723   2.492   1.056
 1372SOL    HW1 4652   0.800   2.476   1.000
 1372SOL    HW2 4653   0.696   2.581   1.034
 1373SOL     OW 4654   1.736   2.823   1.855
 1373SOL    HW1 4655   1.692   2.758   1.800
 1373SOL    HW2 4656   1.676   2.838   1.928
 1374SOL     OW 4657   0.314   1.932   0.620
 1374SOL    HW1 4658   0.288   2.020   0.645
 1374SOL    HW2 4659   0.313   1.882   0.702
 1375SOL     OW 4660   1.619   2.238   0.363
 1375SOL    HW1 4661   1.649   2.174   0.428
 1375SOL    HW2 4662   1.597   2.315   0.415
 1376SOL     OW 4663   1.028   2.620   0.959
 1376SOL    HW1 4664   1.023   2.638   1.053
 1376SOL    HW2 4665   1.002   2.529   0.950
 1377SOL     OW 4666   0.983   3.429   1.719
 1377SOL    HW1 4667   0.967   3.472   1.635
 1377SOL    HW2 4668   1.025   3.347   1.696
 1378SOL     OW 4669   1.853   3.365   1.605
 1378SOL    HW1 4670   1.873   3.392   1.515
 1378SOL    HW2 4671   1.934   3.381   1.653
 1379SOL     OW 4672   0.347   2.797   1.817
 1379SOL    HW1 4673   0.418   2.828   1.873
 1379SOL    HW2 4674   0.387   2.728   1.763
 1380SOL     OW 4675   1.528   2.161   0.114
 1380SOL    HW1 4676   1.472   2.084   0.129
 1380SOL    HW2 4677   1.565   2.181   0.200
 1381SOL     OW 4678   1.285   2.681   0.033
 1381SOL    HW1 4679   1.329   2.596   0.044
 1381SOL    HW2 4680   1.324   2.718  11.054
 1382SOL     OW 4681   1.067   3.198   0.855
 1382SOL    HW1 4682   1.071   3.127   0.792
 1382SOL    HW2 4683   1.127   3.264   0.820
 1383SOL     OW 4684   0.319   2.673   0.944
 1383SOL    HW1 4685   0.413   2.690   0.944
 1383SOL    HW2 4686   0.311   2.581   0.970
 1384SOL     OW 4687   0.327   2.388   0.986
 1384SOL    HW1 4688   0.289   2.302   0.971
 1384SOL    HW2 4689   0.406   2.390   0.933
 1385SOL     OW 4690   1.134   2.237   1.684
 1385SOL    HW1 4691   1.086   2.291   1.746
 1385SOL    HW2 4692   1.221   2.276   1.680
 1386SOL     OW 4693   1.160   2.063   1.471
 1386SOL    HW1 4694   1.149   2.126   1.542
 1386SOL    HW2 4695   1.203   2.112   1.401
 1387SOL     OW 4696   4.499   3.185   0.206
 1387SOL    HW1 4697   4.405   3.205   0.197
 1387SOL    HW2 4698   0.001   3.094   0.232
 1388SOL     OW 4699   0.100   3.634   0.940
 1388SOL    HW1 4700   0.060   3.589   0.866
 1388SOL    HW2 4701   0.188   3.656   0.910
 1389SOL     OW 4702   0.494   3.436   0.907
 1389SOL    HW1 4703   0.563   3.499   0.931
 1389SOL    HW2 4704   0.538   3.374   0.849
 1390SOL     OW 4705   0.979   2.652   1.225
 1390SOL    HW1 4706   1.037   2.631   1.298
 1390SOL    HW2 4707   0.895   2.614   1.249
 1391SOL     OW 4708   0.029   2.424   1.097
 1391SOL    HW1 4709   0.118   2.398   1.072
 1391SOL    HW2 4710   0.012   2.375   1.177
 1392SOL     OW 4711   0.179   2.387   1.717
 1392SOL    HW1 4712   0.261   2.356   1.677
 1392SOL    HW2 4713   0.158   2.467   1.668
 1393SOL     OW 4714   1.378   2.799   1.658
 1393SOL    HW1 4715   1.399   2.892   1.654
 1393SOL    HW2 4716   1.374   2.772   1.566
 1394SOL     OW 4717   0.817   2.437   0.369
 1394SOL    HW1 4718   0.826   2.361   0.311
 1394SOL    HW2 4719   0.742   2.485   0.334
 1395SOL     OW 4720   1.639   2.466   1.185
 1395SOL    HW1 4721   1.631   2.403   1.257
 1395SOL    HW2 4722   1.728   2.453   1.152
 1396SOL     OW 4723   0.275   3.424   1.740
 1396SOL    HW1 4724   0.214   3.475   1.794
 1396SOL    HW2 4725   0.256   3.333   1.764
 1397SOL     OW 4726   0.699   2.313   1.259
 1397SOL    HW1 4727   0.649   2.238   1.228
 1397SOL    HW2 4728   0.696   2.375   1.186
 1398SOL     OW 4729   0.926   3.541   1.469
 1398SOL    HW1 4730   0.900   3.503   1.384
 1398SOL    HW2 4731   0.918   3.636   1.456
 1399SOL     OW 4732   0.474   2.344   0.175
 1399SOL    HW1 4733   0.531   2.417   0.201
 1399SOL    HW2 4734   0.390   2.385   0.155
 1400SOL     OW 4735   0.161   3.003   1.458
 1400SOL    HW1 4736   0.144   2.960   1.542
 1400SOL    HW2 4737   0.168   2.932   1.395
 1401SOL     OW 4738   1.324   2.908   1.221
 1401SOL    HW1 4739   1.346   2.844   1.153
 1401SOL    HW2 4740   1.256   2.962   1.182
 1402SOL     OW 4741   1.308   2.714   0.311
 1402SOL    HW1 4742   1.232   2.679   0.359
 1402SOL    HW2 4743   1.287   2.698   0.219
 1403SOL     OW 4744   1.776   3.602   1.154
 1403SOL    HW1 4745   1.835   3.629   1.083
 1403SOL    HW2 4746   1.750   3.513   1.131
 1404SOL     OW 4747   1.241   3.596   1.110
 1404SOL    HW1 4748   1.323   3.618   1.067
 1404SOL    HW2 4749   1.248   3.502   1.129
 1405SOL     OW 4750   0.068   3.047   1.050
 1405SOL    HW1 4751   0.058   3.077   1.141
 1405SOL    HW2 4752   0.035   3.119   0.997
 1406SOL     OW 4753   0.679   3.530   1.735
 1406SOL    HW1 4754   0.620   3.605   1.725
 1406SOL    HW2 4755   0.745   3.543   1.666
 1407SOL     OW 4756   0.920   1.954   0.102
 1407SOL    HW1 4757   0.968   1.916   0.029
 1407SOL    HW2 4758   0.958   1.914   0.180
 1408SOL     OW 4759   1.721   2.011   0.508
 1408SOL    HW1 4760   1.791   1.995   0.444
 1408SOL    HW2 4761   1.705   1.925   0.547
 1409SOL     OW 4762   1.391   3.430   0.488
 1409SOL    HW1 4763   1.452   3.462   0.421
 1409SOL    HW2 4764   1.343   3.508   0.516
 1410SOL     OW 4765   0.117   3.669   1.848
 1410SOL    HW1 4766   0.076   3.597   1.897
 1410SOL    HW2 4767   0.181   3.706   1.909
 1411SOL     OW 4768   1.278   2.789   0.672
 1411SOL    HW1 4769   1.351   2.728   0.679
 1411SOL    HW2 4770   1.311   2.861   0.618
 1412SOL     OW 4771   0.810   3.137   1.427
 1412SOL    HW1 4772   0.782   3.177   1.510
 1412SOL    HW2 4773   0.739   3.158   1.366
 1413SOL     OW 4774   0.674   3.485   0.169
 1413SOL    HW1 4775   0.693   3.490   0.076
 1413SOL    HW2 4776   0.617   3.409   0.178
 1414SOL     OW 4777   1.623   3.589   1.391
 1414SOL    HW1 4778   1.674   3.594   1.311
 1414SOL    HW2 4779   1.609   3.680   1.418
 1415SOL     OW 4780   1.849   2.044   0.966
 1415SOL    HW1 4781   1.883   1.958   0.943
 1415SOL    HW2 4782   1.763   2.048   0.924
 1416SOL     OW 4783   0.262   2.182   0.718
 1416SOL    HW1 4784   0.179   2.220   0.691
 1416SOL    HW2 4785   0.253   2.168   0.813
 1417SOL     OW 4786   1.223   3.462   0.054
 1417SOL    HW1 4787   1.211   3.369   0.074
 1417SOL    HW2 4788   1.158   3.481  11.087
 1418SOL     OW 4789   0.826   2.869   1.373
 1418SOL    HW1 4790   0.869   2.865   1.287
 1418SOL    HW2 4791   0.823   2.963   1.394
 1419SOL     OW 4792   0.914   2.768   0.280
 1419SOL    HW1 4793   0.979   2.809   0.224
 1419SOL    HW2 4794   0.964   2.705   0.333
 1420SOL     OW 4795   1.498   3.484   0.049
 1420SOL    HW1 4796   1.402   3.477   0.047
 1420SOL    HW2 4797   1.522   3.498  11.057
 1421SOL     OW 4798   0.373   3.172   1.490
 1421SOL    HW1 4799   0.355   3.250   1.439
 1421SOL    HW2 4800   0.299   3.114   1.473
 1422SOL     OW 4801   1.611   3.146   1.280
 1422SOL    HW1 4802   1.668   3.131   1.356
 1422SOL    HW2 4803   1.549   3.213   1.310
 1423SOL     OW 4804   1.056   2.970   0.707
 1423SOL    HW1 4805   0.985   2.919   0.747
 1423SOL    HW2 4806   1.120   2.905   0.680
 1424SOL     OW 4807   1.022   2.103   0.966
 1424SOL    HW1 4808   1.018   2.056   0.883
 1424SOL    HW2 4809   1.017   2.034   1.033
 1425SOL     OW 4810   0.604   3.352   0.482
 1425SOL    HW1 4811   0.646   3.301   0.412
 1425SOL    HW2 4812   0.528   3.392   0.440
 1426SOL     OW 4813   1.720   2.258   1.381
 1426SOL    HW1 4814   1.795   2.318   1.383
 1426SOL    HW2 4815   1.749   2.186   1.325
 1427SOL     OW 4816   0.266   3.188   0.284
 1427SOL    HW1 4817   0.178   3.196   0.246
 1427SOL    HW2 4818   0.259   3.229   0.370
 1428SOL     OW 4819   0.116   2.869   1.693
 1428SOL    HW1 4820   0.052   2.913   1.749
 1428SOL    HW2 4821   0.194   2.861   1.747
 1429SOL     OW 4822   0.676   2.061   1.499
 1429SOL    HW1 4823   0.759   2.038   1.459
 1429SOL    HW2 4824   0.699   2.090   1.587
 1430SOL     OW 4825   0.059   2.205   0.002
 1430SOL    HW1 4826   4.474   2.183   0.042
 1430SOL    HW2 4827   0.076   2.295   0.030
 1431SOL     OW 4828   1.428   2.720   1.399
 1431SOL    HW1 4829   1.379   2.781   1.344
 1431SOL    HW2 4830   1.517   2.723   1.364
 1432SOL     OW 4831   0.078   2.029   0.308
 1432SOL    HW1 4832   0.085   2.116   0.269
 1432SOL    HW2 4833   0.154   1.981   0.274
 1433SOL     OW 4834   1.185   3.199   0.123
 1433SOL    HW1 4835   1.091   3.185   0.114
 1433SOL    HW2 4836   1.201   3.190   0.216
 1434SOL     OW 4837   0.626   2.693   1.434
 1434SOL    HW1 4838   0.683   2.769   1.420
 1434SOL    HW2 4839   0.686   2.619   1.439
 1435SOL     OW 4840   1.483   3.642   0.981
 1435SOL    HW1 4841   1.505   3.704   0.911
 1435SOL    HW2 4842   1.567   3.619   1.020
 1436SOL     OW 4843   0.711   2.426   1.704
 1436SOL    HW1 4844   0.759   2.486   1.761
 1436SOL    HW2 4845   0.736   2.338   1.734
 1437SOL     OW 4846   1.473   3.059   1.631
 1437SOL    HW1 4847   1.460   3.074   1.725
 1437SOL    HW2 4848   1.566   3.076   1.616
 1438SOL     OW 4849   0.378   3.607   1.565
 1438SOL    HW1 4850   0.293   3.648   1.547
 1438SOL    HW2 4851   0.356   3.528   1.615
 1439SOL     OW 4852   1.668   2.743   1.254
 1439SOL    HW1 4853   1.660   2.658   1.212
 1439SOL    HW2 4854   1.657   2.806   1.183
 1440SOL     OW 4855   1.215   2.179   0.460
 1440SOL    HW1 4856   1.279   2.108   0.451
 1440SOL    HW2 4857   1.245   2.229   0.536
 1441SOL     OW 4858   0.588   2.597   0.669
 1441SOL    HW1 4859   0.626   2.684   0.657
 1441SOL    HW2 4860   0.521   2.591   0.602
 1442SOL     OW 4861   1.746   2.237   1.659
 1442SOL    HW1 4862   1.745   2.240   1.563
 1442SOL    HW2 4863   1.677   2.175   1.682
 1443SOL     OW 4864   1.745   2.796   1.511
 1443SOL    HW1 4865   1.738   2.890   1.524
 1443SOL    HW2 4866   1.730   2.783   1.418
 1444SOL     OW 4867   0.910   3.217   0.075
 1444SOL    HW1 4868   0.842   3.212   0.142
 1444SOL    HW2 4869   0.890   3.297   0.026
 1445SOL     OW 4870   0.663   3.650   0.943
 1445SOL    HW1 4871   0.643   3.740   0.920
 1445SOL    HW2 4872   0.758   3.643   0.934
 1446SOL     OW 4873   0.869   2.831   0.854
 1446SOL    HW1 4874   0.918   2.758   0.892
 1446SOL    HW2 4875   0.832   2.877   0.929
 1447SOL     OW 4876   1.077   2.851   0.083
 1447SOL    HW1 4877   1.052   2.881  11.095
 1447SOL    HW2 4878   1.154   2.795   0.067
 1448SOL     OW 4879   1.851   3.416   0.844
 1448SOL    HW1 4880   1.773   3.404   0.789
 1448SOL    HW2 4881   1.842   3.350   0.913
 1449SOL     OW 4882   0.232   3.166   1.860
 1449SOL    HW1 4883   0.152   3.117   1.841
 1449SOL    HW2 4884   0.232   3.177   1.955
 1450SOL     OW 4885   0.112   3.088   0.670
 1450SOL    HW1 4886   0.135   3.049   0.754
 1450SOL    HW2 4887   0.176   3.052   0.608
 1451SOL     OW 4888   0.684   3.267   1.630
 1451SOL    HW1 4889   0.604   3.223   1.659
 1451SOL    HW2 4890   0.678   3.355   1.668
 1452SOL     OW 4891   1.808   2.058   1.231
 1452SOL    HW1 4892   1.842   1.974   1.262
 1452SOL    HW2 4893   1.821   2.056   1.136
 1453SOL     OW 4894   0.433   2.298   0.526
 1453SOL    HW1 4895   0.464   2.225   0.472
 1453SOL    HW2 4896   0.384   2.255   0.596
 1454SOL     OW 4897   1.698   3.350   1.094
 1454SOL    HW1 4898   1.618   3.329   1.046
 1454SOL    HW2 4899   1.705   3.280   1.160
 1455SOL     OW 4900   0.295   2.350   1.250
 1455SOL    HW1 4901   0.369   2.307   1.292
 1455SOL    HW2 4902   0.325   2.366   1.160
 1456SOL     OW 4903   0.829   3.440   0.677
 1456SOL    HW1 4904   0.810   3.497   0.603
 1456SOL    HW2 4905   0.754   3.380   0.681
 1457SOL     OW 4906   1.432   2.090   1.117
 1457SOL    HW1 4907   1.461   2.011   1.163
 1457SOL    HW2 4908   1.380   2.137   1.181
 1458SOL     OW 4909   1.009   1.879   1.140
 1458SOL    HW1 4910   0.954   1.812   1.098
 1458SOL    HW2 4911   1.097   1.841   1.142
 1459SOL     OW 4912   0.771   3.189   0.319
 1459SOL    HW1 4913   0.743   3.099   0.335
 1459SOL    HW2 4914   0.853   3.197   0.367
 1460SOL     OW 4915   0.621   3.417   1.287
 1460SOL    HW1 4916   0.622   3.499   1.336
 1460SOL    HW2 4917   0.708   3.411   1.248
 1461SOL     OW 4918   1.350   1.918   0.165
 1461SOL    HW1 4919   1.371   1.867   0.087
 1461SOL    HW2 4920   1.264   1.887   0.192
 1462SOL     OW 4921   1.296   2.324   0.680
 1462SOL    HW1 4922   1.243   2.404   0.686
 1462SOL    HW2 4923   1.291   2.285   0.767
 1463SOL     OW 4924   1.589   2.059   0.881
 1463SOL    HW1 4925   1.530   2.081   0.953
 1463SOL    HW2 4926   1.587   2.137   0.825
 1464SOL     OW 4927   0.037   2.915   0.286
 1464SOL    HW1 4928   0.131   2.900   0.284
 1464SOL    HW2 4929   0.010   2.888   0.374
 1465SOL     OW 4930   0.888   3.519   0.346
 1465SOL    HW1 4931   0.814   3.499   0.289
 1465SOL    HW2 4932   0.857   3.592   0.400
 1466SOL     OW 4933   0.246   2.492   1.984
 1466SOL    HW1 4934   0.172   2.467   2.040
 1466SOL    HW2 4935   0.216   2.475   1.895
 1467SOL     OW 4936   0.213   2.137   2.853
 1467SOL    HW1 4937   0.249   2.110   2.937
 1467SOL    HW2 4938   0.137   2.079   2.840
 1468SOL     OW 4939   0.007   2.258   2.502
 1468SOL    HW1 4940   4.425   2.291   2.540
 1468SOL    HW2 4941   4.481   2.178   2.456
 1469SOL     OW 4942   0.569   3.154   3.041
 1469SOL    HW1 4943   0.482   3.159   3.001
 1469SOL    HW2 4944   0.584   3.242   3.076
 1470SOL     OW 4945   1.565   3.375   2.570
 1470SOL    HW1 4946   1.522   3.353   2.653
 1470SOL    HW2 4947   1.494   3.378   2.506
 1471SOL     OW 4948   1.131   2.560   2.560
 1471SOL    HW1 4949   1.180   2.642   2.547
 1471SOL    HW2 4950   1.084   2.573   2.643
 1472SOL     OW 4951   1.776   2.465   2.089
 1472SOL    HW1 4952   1.749   2.460   1.998
 1472SOL    HW2 4953   1.737   2.387   2.130
 1473SOL     OW 4954   0.751   3.002   2.905
 1473SOL    HW1 4955   0.683   3.038   2.963
 1473SOL    HW2 4956   0.788   3.078   2.861
 1474SOL     OW 4957   0.870   2.629   3.683
 1474SOL    HW1 4958   0.855   2.699   3.746
 1474SOL    HW2 4959   0.893   2.674   3.602
 1475SOL     OW 4960   0.685   2.863   2.508
 1475SOL    HW1 4961   0.751   2.853   2.576
 1475SOL    HW2 4962   0.616   2.915   2.549
 1476SOL     OW 4963   0.713   3.011   3.678
 1476SOL    HW1 4964   0.760   3.090   3.706
 1476SOL    HW2 4965   0.632   3.044   3.640
 1477SOL     OW 4966   0.334   3.281   2.931
 1477SOL    HW1 4967   0.253   3.261   2.884
 1477SOL    HW2 4968   0.384   3.335   2.869
 1478SOL     OW 4969   1.460   3.362   3.220
 1478SOL    HW1 4970   1.513   3.442   3.229
 1478SOL    HW2 4971   1.394   3.369   3.288
 1479SOL     OW 4972   0.447   2.266   3.349
 1479SOL    HW1 4973   0.526   2.212   3.355
 1479SOL    HW2 4974   0.375   2.203   3.357
 1480SOL     OW 4975   1.604   2.308   2.605
 1480SOL    HW1 4976   1.529   2.330   2.549
 1480SOL    HW2 4977   1.620   2.388   2.655
 1481SOL     OW 4978   0.246   3.553   2.337
 1481SOL    HW1 4979   0.229   3.638   2.377
 1481SOL    HW2 4980   0.317   3.569   2.275
 1482SOL     OW 4981   1.137   3.204   3.555
 1482SOL    HW1 4982   1.177   3.198   3.642
 1482SOL    HW2 4983   1.085   3.124   3.548
 1483SOL     OW 4984   0.254   3.288   2.388
 1483SOL    HW1 4985   0.243   3.383   2.391
 1483SOL    HW2 4986   0.193   3.254   2.453
 1484SOL     OW 4987   0.252   2.945   2.748
 1484SOL    HW1 4988   0.266   2.853   2.772
 1484SOL    HW2 4989   0.190   2.977   2.813
 1485SOL     OW 4990   0.610   3.653   3.292
 1485SOL    HW1 4991   0.527   3.635   3.336
 1485SOL    HW2 4992   0.631   3.743   3.317
 1486SOL     OW 4993   0.575   2.851   2.003
 1486SOL    HW1 4994   0.624   2.892   1.932
 1486SOL    HW2 4995   0.618   2.881   2.083
 1487SOL     OW 4996   1.587   1.982   3.333
 1487SOL    HW1 4997   1.616   2.052   3.275
 1487SOL    HW2 4998   1.576   2.024   3.418
 1488SOL     OW 4999   0.137   2.511   2.435
 1488SOL    HW1 5000   0.090   2.430   2.456
 1488SOL    HW2 5001   0.107   2.573   2.501
 1489SOL     OW 5002   1.843   3.619   2.195
 1489SOL    HW1 5003   1.909   3.592   2.258
 1489SOL    HW2 5004   1.864   3.710   2.175
 1490SOL     OW 5005   0.032   3.465   2.008
 1490SOL    HW1 5006   0.019   3.371   2.002
 1490SOL    HW2 5007   0.033   3.483   2.102
 1491SOL     OW 5008   1.691   2.781   2.505
 1491SOL    HW1 5009   1.771   2.734   2.480
 1491SOL    HW2 5010   1.667   2.831   2.428
 1492SOL     OW 5011   1.647   2.967   2.291
 1492SOL    HW1 5012   1.733   2.970   2.250
 1492SOL    HW2 5013   1.652   3.029   2.363
 1493SOL     OW 5014   0.111   2.628   3.439
 1493SOL    HW1 5015   0.199   2.621   3.402
 1493SOL    HW2 5016   0.104   2.720   3.465
 1494SOL     OW 5017   0.615   3.250   2.598
 1494SOL    HW1 5018   0.568   3.167   2.608
 1494SOL    HW2 5019   0.599   3.276   2.508
 1495SOL     OW 5020   1.287   3.099   3.284
 1495SOL    HW1 5021   1.319   3.031   3.224
 1495SOL    HW2 5022   1.346   3.094   3.360
 1496SOL     OW 5023   0.820   1.863   2.373
 1496SOL    HW1 5024   0.859   1.948   2.352
 1496SOL    HW2 5025   0.726   1.882   2.380
 1497SOL     OW 5026   0.177   2.800   3.141
 1497SOL    HW1 5027   0.269   2.781   3.121
 1497SOL    HW2 5028   0.133   2.794   3.056
 1498SOL     OW 5029   1.531   2.858   2.061
 1498SOL    HW1 5030   1.461   2.801   2.093
 1498SOL    HW2 5031   1.573   2.892   2.141
 1499SOL     OW 5032   1.186   3.671   3.486
 1499SOL    HW1 5033   1.193   3.731   3.411
 1499SOL    HW2 5034   1.202   3.585   3.449
 1500SOL     OW 5035   0.333   2.119   3.665
 1500SOL    HW1 5036   0.379   2.193   3.704
 1500SOL    HW2 5037   0.244   2.124   3.700
 1501SOL     OW 5038   1.468   3.281   2.812
 1501SOL    HW1 5039   1.400   3.297   2.877
 1501SOL    HW2 5040   1.454   3.190   2.785
 1502SOL     OW 5041   1.657   3.607   2.440
 1502SOL    HW1 5042   1.638   3.576   2.351
 1502SOL    HW2 5043   1.633   3.533   2.496
 1503SOL     OW 5044   0.598   2.581   2.131
 1503SOL    HW1 5045   0.598   2.663   2.082
 1503SOL    HW2 5046   0.532   2.593   2.199
 1504SOL     OW 5047   1.277   2.221   2.796
 1504SOL    HW1 5048   1.188   2.187   2.804
 1504SOL    HW2 5049   1.329   2.167   2.856
 1505SOL     OW 5050   1.579   3.534   2.172
 1505SOL    HW1 5051   1.670   3.563   2.164
 1505SOL    HW2 5052   1.552   3.517   2.082
 1506SOL     OW 5053   0.793   2.478   3.312
 1506SOL    HW1 5054   0.766   2.453   3.400
 1506SOL    HW2 5055   0.753   2.412   3.255
 1507SOL     OW 5056   1.393   2.337   3.540
 1507SOL    HW1 5057   1.397   2.380   3.625
 1507SOL    HW2 5058   1.450   2.260   3.550
 1508SOL     OW 5059   0.952   2.748   3.446
 1508SOL    HW1 5060   1.007   2.679   3.409
 1508SOL    HW2 5061   0.905   2.784   3.371
 1509SOL     OW 5062   0.993   2.275   3.099
 1509SOL    HW1 5063   0.905   2.294   3.134
 1509SOL    HW2 5064   0.976   2.229   3.017
 1510SOL     OW 5065   1.052   2.560   2.287
 1510SOL    HW1 5066   1.069   2.553   2.381
 1510SOL    HW2 5067   0.970   2.514   2.274
 1511SOL     OW 5068   0.093   2.692   2.648
 1511SOL    HW1 5069   0.179   2.680   2.687
 1511SOL    HW2 5070   0.034   2.701   2.723
 1512SOL     OW 5071   0.123   3.719   3.440
 1512SOL    HW1 5072   0.116   3.697   3.532
 1512SOL    HW2 5073   0.044   3.682   3.400
 1513SOL     OW 5074   0.897   2.212   2.057
 1513SOL    HW1 5075   0.936   2.274   1.996
 1513SOL    HW2 5076   0.909   2.126   2.015
 1514SOL     OW 5077   1.707   2.438   3.692
 1514SOL    HW1 5078   1.670   2.512   3.644
 1514SOL    HW2 5079   1.732   2.375   3.624
 1515SOL     OW 5080   1.379   3.004   2.403
 1515SOL    HW1 5081   1.457   2.992   2.350
 1515SOL    HW2 5082   1.325   3.066   2.353
 1516SOL     OW 5083   0.553   2.042   2.756
 1516SOL    HW1 5084   0.555   2.074   2.846
 1516SOL    HW2 5085   0.553   2.121   2.703
 1517SOL     OW 5086   1.003   3.306   2.333
 1517SOL    HW1 5087   0.969   3.380   2.283
 1517SOL    HW2 5088   0.981   3.326   2.424
 1518SOL     OW 5089   0.357   3.675   2.722
 1518SOL    HW1 5090   0.399   3.589   2.733
 1518SOL    HW2 5091   0.427   3.738   2.740
 1519SOL     OW 5092   1.801   2.916   2.730
 1519SOL    HW1 5093   1.748   2.895   2.653
 1519SOL    HW2 5094   1.737   2.923   2.802
 1520SOL     OW 5095   1.228   3.401   3.375
 1520SOL    HW1 5096   1.215   3.329   3.436
 1520SOL    HW2 5097   1.162   3.387   3.307
 1521SOL     OW 5098   0.313   2.815   2.119
 1521SOL    HW1 5099   0.396   2.838   2.078
 1521SOL    HW2 5100   0.300   2.723   2.095
 1522SOL     OW 5101   1.481   2.607   2.587
 1522SOL    HW1 5102   1.473   2.566   2.673
 1522SOL    HW2 5103   1.559   2.663   2.594
 1523SOL     OW 5104   0.470   3.126   3.597
 1523SOL    HW1 5105   0.443   3.133   3.505
 1523SOL    HW2 5106   0.388   3.128   3.646
 1524SOL     OW 5107   1.123   3.640   2.092
 1524SOL    HW1 5108   1.048   3.600   2.136
 1524SOL    HW2 5109   1.147   3.577   2.023
 1525SOL     OW 5110   0.199   2.138   3.346
 1525SOL    HW1 5111   0.142   2.214   3.354
 1525SOL    HW2 5112   0.181   2.087   3.426
 1526SOL     OW 5113   1.629   3.243   1.951
 1526SOL    HW1 5114   1.587   3.328   1.936
 1526SOL    HW2 5115   1.561   3.179   1.931
 1527SOL     OW 5116   0.469   3.605   2.175
 1527SOL    HW1 5117   0.513   3.658   2.241
 1527SOL    HW2 5118   0.540   3.567   2.123
 1528SOL     OW 5119   1.400   1.969   2.298
 1528SOL    HW1 5120   1.391   1.944   2.206
 1528SOL    HW2 5121   1.494   1.977   2.312
 1529SOL     OW 5122   0.260   3.655   3.089
 1529SOL    HW1 5123   0.303   3.578   3.125
 1529SOL    HW2 5124   0.221   3.624   3.007
 1530SOL     OW 5125   0.938   3.561   2.759
 1530SOL    HW1 5126   1.016   3.510   2.782
 1530SOL    HW2 5127   0.896   3.511   2.690
 1531SOL     OW 5128   0.396   2.556   2.333
 1531SOL    HW1 5129   0.418   2.463   2.346
 1531SOL    HW2 5130   0.304   2.562   2.359
 1532SOL     OW 5131   1.533   2.090   3.588
 1532SOL    HW1 5132   1.540   2.108   3.682
 1532SOL    HW2 5133   1.469   2.020   3.582
 1533SOL     OW 5134   0.640   1.984   1.963
 1533SOL    HW1 5135   0.702   1.914   1.982
 1533SOL    HW2 5136   0.589   1.952   1.889
 1534SOL     OW 5137   0.766   2.141   3.617
 1534SOL    HW1 5138   0.844   2.086   3.615
 1534SOL    HW2 5139   0.718   2.112   3.695
 1535SOL     OW 5140   0.877   3.385   3.056
 1535SOL    HW1 5141   0.860   3.348   2.969
 1535SOL    HW2 5142   0.946   3.330   3.092
 1536SOL     OW 5143   1.339   2.451   3.294
 1536SOL    HW1 5144   1.371   2.419   3.379
 1536SOL    HW2 5145   1.376   2.539   3.286
 1537SOL     OW 5146   0.817   3.255   2.805
 1537SOL    HW1 5147   0.901   3.243   2.761
 1537SOL    HW2 5148   0.753   3.258   2.734
 1538SOL     OW 5149   0.928   2.371   2.764
 1538SOL    HW1 5150   0.904   2.363   2.672
 1538SOL    HW2 5151   0.959   2.284   2.789
 1539SOL     OW 5152   0.555   1.924   2.360
 1539SOL    HW1 5153   0.475   1.922   2.412
 1539SOL    HW2 5154   0.546   2.002   2.305
 1540SOL     OW 5155   1.428   3.061   1.903
 1540SOL    HW1 5156   1.458   2.986   1.953
 1540SOL    HW2 5157   1.343   3.083   1.939
 1541SOL     OW 5158   0.295   1.907   2.039
 1541SOL    HW1 5159   0.359   1.973   2.012
 1541SOL    HW2 5160   0.348   1.841   2.085
 1542SOL     OW 5161   0.940   2.111   2.320
 1542SOL    HW1 5162   0.915   2.150   2.237
 1542SOL    HW2 5163   1.035   2.125   2.325
 1543SOL     OW 5164   1.080   2.544   3.320
 1543SOL    HW1 5165   1.014   2.476   3.324
 1543SOL    HW2 5166   1.163   2.497   3.314
 1544SOL     OW 5167   1.222   3.432   2.656
 1544SOL    HW1 5168   1.237   3.499   2.588
 1544SOL    HW2 5169   1.291   3.449   2.721
 1545SOL     OW 5170   0.468   3.014   2.595
 1545SOL    HW1 5171   0.399   2.994   2.659
 1545SOL    HW2 5172   0.427   2.999   2.510
 1546SOL     OW 5173   1.267   3.655   2.473
 1546SOL    HW1 5174   1.314   3.716   2.416
 1546SOL    HW2 5175   1.199   3.708   2.514
 1547SOL     OW 5176   1.022   2.400   1.887
 1547SOL    HW1 5177   0.979   2.484   1.867
 1547SOL    HW2 5178   1.088   2.423   1.953
 1548SOL     OW 5179   0.083   2.383   3.274
 1548SOL    HW1 5180   0.144   2.377   3.201
 1548SOL    HW2 5181   0.066   2.477   3.284
 1549SOL     OW 5182   0.559   2.090   3.030
 1549SOL    HW1 5183   0.604   2.013   3.066
 1549SOL    HW2 5184   0.468   2.079   3.056
 1550SOL     OW 5185   0.868   2.321   2.501
 1550SOL    HW1 5186   0.822   2.375   2.437
 1550SOL    HW2 5187   0.889   2.241   2.453
 1551SOL     OW 5188   1.016   1.916   2.612
 1551SOL    HW1 5189   0.958   1.909   2.536
 1551SOL    HW2 5190   0.993   1.841   2.666
 1552SOL     OW 5191   1.438   3.023   2.718
 1552SOL    HW1 5192   1.367   2.959   2.719
 1552SOL    HW2 5193   1.461   3.033   2.626
 1553SOL     OW 5194   1.464   2.471   2.837
 1553SOL    HW1 5195   1.412   2.391   2.838
 1553SOL    HW2 5196   1.524   2.462   2.911
 1554SOL     OW 5197   1.845   2.675   2.248
 1554SOL    HW1 5198   1.901   2.623   2.306
 1554SOL    HW2 5199   1.818   2.614   2.179
 1555SOL     OW 5200   0.491   3.282   2.018
 1555SOL    HW1 5201   0.413   3.254   2.066
 1555SOL    HW2 5202   0.479   3.248   1.930
 1556SOL     OW 5203   1.672   3.127   2.505
 1556SOL    HW1 5204   1.767   3.129   2.519
 1556SOL    HW2 5205   1.643   3.215   2.527
 1557SOL     OW 5206   1.394   2.434   1.934
 1557SOL    HW1 5207   1.332   2.414   2.004
 1557SOL    HW2 5208   1.478   2.402   1.967
 1558SOL     OW 5209   0.524   2.122   2.175
 1558SOL    HW1 5210   0.574   2.077   2.106
 1558SOL    HW2 5211   0.503   2.207   2.138
 1559SOL     OW 5212   1.750   3.103   3.430
 1559SOL    HW1 5213   1.837   3.064   3.427
 1559SOL    HW2 5214   1.766   3.193   3.459
 1560SOL     OW 5215   1.056   3.216   3.195
 1560SOL    HW1 5216   0.981   3.185   3.245
 1560SOL    HW2 5217   1.132   3.174   3.236
 1561SOL     OW 5218   1.609   3.489   3.518
 1561SOL    HW1 5219   1.602   3.522   3.429
 1561SOL    HW2 5220   1.691   3.440   3.519
 1562SOL     OW 5221   1.133   3.069   2.966
 1562SOL    HW1 5222   1.072   3.105   3.030
 1562SOL    HW2 5223   1.101   3.101   2.882
 1563SOL     OW 5224   1.627   2.960   2.938
 1563SOL    HW1 5225   1.621   3.022   3.010
 1563SOL    HW2 5226   1.549   2.977   2.885
 1564SOL     OW 5227   0.917   1.959   3.256
 1564SOL    HW1 5228   0.940   1.938   3.165
 1564SOL    HW2 5229   0.997   1.997   3.293
 1565SOL     OW 5230   0.984   2.976   3.585
 1565SOL    HW1 5231   0.893   2.993   3.608
 1565SOL    HW2 5232   0.982   2.898   3.530
 1566SOL     OW 5233   0.709   2.924   2.234
 1566SOL    HW1 5234   0.696   2.906   2.327
 1566SOL    HW2 5235   0.785   2.871   2.209
 1567SOL     OW 5236   0.431   2.691   3.107
 1567SOL    HW1 5237   0.502   2.704   3.171
 1567SOL    HW2 5238   0.376   2.624   3.146
 1568SOL     OW 5239   1.265   2.238   3.140
 1568SOL    HW1 5240   1.297   2.315   3.185
 1568SOL    HW2 5241   1.174   2.259   3.117
 1569SOL     OW 5242   0.064   3.437   3.207
 1569SOL    HW1 5243   0.037   3.528   3.191
 1569SOL    HW2 5244   0.159   3.441   3.212
 1570SOL     OW 5245   0.341   2.973   2.355
 1570SOL    HW1 5246   0.351   3.047   2.295
 1570SOL    HW2 5247   0.340   2.896   2.298
 1571SOL     OW 5248   0.559   2.392   2.716
 1571SOL    HW1 5249   0.572   2.452   2.643
 1571SOL    HW2 5250   0.622   2.421   2.782
 1572SOL     OW 5251   1.248   3.211   2.252
 1572SOL    HW1 5252   1.304   3.282   2.283
 1572SOL    HW2 5253   1.161   3.232   2.285
 1573SOL     OW 5254   1.285   3.321   3.009
 1573SOL    HW1 5255   1.340   3.324   3.087
 1573SOL    HW2 5256   1.229   3.244   3.022
 1574SOL     OW 5257   1.578   2.483   2.341
 1574SOL    HW1 5258   1.530   2.533   2.407
 1574SOL    HW2 5259   1.627   2.549   2.292
 1575SOL     OW 5260   0.345   3.397   3.174
 1575SOL    HW1 5261   0.332   3.349   3.092
 1575SOL    HW2 5262   0.440   3.406   3.181
 1576SOL     OW 5263   0.487   2.617   3.534
 1576SOL    HW1 5264   0.517   2.656   3.451
 1576SOL    HW2 5265   0.543   2.540   3.545
 1577SOL     OW 5266   1.604   2.643   3.547
 1577SOL    HW1 5267   1.518   2.684   3.540
 1577SOL    HW2 5268   1.656   2.685   3.478
 1578SOL     OW 5269   0.996   1.990   3.615
 1578SOL    HW1 5270   1.054   2.062   3.591
 1578SOL    HW2 5271   1.043   1.911   3.590
 1579SOL     OW 5272   0.497   1.904   3.610
 1579SOL    HW1 5273   0.454   1.847   3.546
 1579SOL    HW2 5274   0.439   1.979   3.619
 1580SOL     OW 5275   0.591   2.736   2.888
 1580SOL    HW1 5276   0.621   2.827   2.889
 1580SOL    HW2 5277   0.534   2.728   2.964
 1581SOL     OW 5278   1.354   2.721   2.888
 1581SOL    HW1 5279   1.269   2.709   2.845
 1581SOL    HW2 5280   1.397   2.636   2.881
 1582SOL     OW 5281   1.202   2.390   2.126
 1582SOL    HW1 5282   1.211   2.312   2.181
 1582SOL    HW2 5283   1.159   2.454   2.183
 1583SOL     OW 5284   0.301   2.050   3.104
 1583SOL    HW1 5285   0.262   2.083   3.185
 1583SOL    HW2 5286   0.284   1.956   3.105
 1584SOL     OW 5287   0.028   3.174   3.149
 1584SOL    HW1 5288   0.070   3.126   3.221
 1584SOL    HW2 5289   0.038   3.266   3.173
 1585SOL     OW 5290   0.724   2.492   2.918
 1585SOL    HW1 5291   0.799   2.476   2.862
 1585SOL    HW2 5292   0.696   2.581   2.896
 1586SOL     OW 5293   1.736   2.822   3.717
 1586SOL    HW1 5294   1.692   2.758   3.662
 1586SOL    HW2 5295   1.675   2.838   3.790
 1587SOL     OW 5296   0.315   1.931   2.480
 1587SOL    HW1 5297   0.288   2.020   2.505
 1587SOL    HW2 5298   0.314   1.882   2.562
 1588SOL     OW 5299   1.618   2.238   2.227
 1588SOL    HW1 5300   1.647   2.175   2.293
 1588SOL    HW2 5301   1.596   2.316   2.277
 1589SOL     OW 5302   1.028   2.620   2.821
 1589SOL    HW1 5303   1.023   2.638   2.915
 1589SOL    HW2 5304   1.002   2.529   2.812
 1590SOL     OW 5305   0.983   3.429   3.581
 1590SOL    HW1 5306   0.967   3.473   3.497
 1590SOL    HW2 5307   1.025   3.347   3.558
 1591SOL     OW 5308   1.853   3.365   3.467
 1591SOL    HW1 5309   1.873   3.392   3.377
 1591SOL    HW2 5310   1.934   3.381   3.515
 1592SOL     OW 5311   0.347   2.797   3.679
 1592SOL    HW1 5312   0.418   2.828   3.735
 1592SOL    HW2 5313   0.387   2.728   3.626
 1593SOL     OW 5314   1.528   2.133   1.990
 1593SOL    HW1 5315   1.463   2.069   2.017
 1593SOL    HW2 5316   1.561   2.170   2.072
 1594SOL     OW 5317   1.290   2.687   1.892
 1594SOL    HW1 5318   1.332   2.602   1.896
 1594SOL    HW2 5319   1.321   2.726   1.810
 1595SOL     OW 5320   1.067   3.199   2.717
 1595SOL    HW1 5321   1.071   3.127   2.654
 1595SOL    HW2 5322   1.127   3.265   2.682
 1596SOL     OW 5323   0.319   2.673   2.806
 1596SOL    HW1 5324   0.413   2.690   2.805
 1596SOL    HW2 5325   0.311   2.581   2.832
 1597SOL     OW 5326   0.327   2.388   2.848
 1597SOL    HW1 5327   0.289   2.302   2.833
 1597SOL    HW2 5328   0.406   2.390   2.795
 1598SOL     OW 5329   1.134   2.237   3.545
 1598SOL    HW1 5330   1.086   2.291   3.608
 1598SOL    HW2 5331   1.221   2.276   3.541
 1599SOL     OW 5332   1.160   2.063   3.333
 1599SOL    HW1 5333   1.149   2.126   3.404
 1599SOL    HW2 5334   1.202   2.112   3.263
 1600SOL     OW 5335   4.491   3.182   2.071
 1600SOL    HW1 5336   4.399   3.199   2.052
 1600SOL    HW2 5337   4.495   3.089   2.091
 1601SOL     OW 5338   0.101   3.634   2.803
 1601SOL    HW1 5339   0.061   3.587   2.729
 1601SOL    HW2 5340   0.189   3.656   2.772
 1602SOL     OW 5341   0.494   3.436   2.769
 1602SOL    HW1 5342   0.563   3.499   2.793
 1602SOL    HW2 5343   0.538   3.374   2.711
 1603SOL     OW 5344   0.979   2.652   3.087
 1603SOL    HW1 5345   1.037   2.631   3.160
 1603SOL    HW2 5346   0.895   2.614   3.111
 1604SOL     OW 5347   0.029   2.424   2.959
 1604SOL    HW1 5348   0.118   2.398   2.933
 1604SOL    HW2 5349   0.012   2.375   3.039
 1605SOL     OW 5350   0.179   2.387   3.579
 1605SOL    HW1 5351   0.261   2.356   3.539
 1605SOL    HW2 5352   0.158   2.467   3.530
 1606SOL     OW 5353   1.378   2.798   3.520
 1606SOL    HW1 5354   1.399   2.892   3.517
 1606SOL    HW2 5355   1.375   2.771   3.428
 1607SOL     OW 5356   0.818   2.431   2.225
 1607SOL    HW1 5357   0.822   2.357   2.165
 1607SOL    HW2 5358   0.744   2.484   2.194
 1608SOL     OW 5359   1.648   2.465   3.042
 1608SOL    HW1 5360   1.638   2.405   3.116
 1608SOL    HW2 5361   1.735   2.446   3.007
 1609SOL     OW 5362   0.275   3.424   3.602
 1609SOL    HW1 5363   0.214   3.475   3.656
 1609SOL    HW2 5364   0.256   3.333   3.626
 1610SOL     OW 5365   0.699   2.313   3.121
 1610SOL    HW1 5366   0.649   2.238   3.090
 1610SOL    HW2 5367   0.696   2.375   3.048
 1611SOL     OW 5368   0.926   3.541   3.330
 1611SOL    HW1 5369   0.900   3.503   3.246
 1611SOL    HW2 5370   0.918   3.636   3.318
 1612SOL     OW 5371   0.471   2.352   2.043
 1612SOL    HW1 5372   0.532   2.421   2.069
 1612SOL    HW2 5373   0.388   2.397   2.028
 1613SOL     OW 5374   0.162   3.003   3.320
 1613SOL    HW1 5375   0.144   2.960   3.404
 1613SOL    HW2 5376   0.168   2.932   3.257
 1614SOL     OW 5377   1.324   2.908   3.083
 1614SOL    HW1 5378   1.346   2.844   3.015
 1614SOL    HW2 5379   1.256   2.962   3.044
 1615SOL     OW 5380   1.313   2.719   2.167
 1615SOL    HW1 5381   1.239   2.688   2.218
 1615SOL    HW2 5382   1.287   2.705   2.076
 1616SOL     OW 5383   1.775   3.602   3.015
 1616SOL    HW1 5384   1.835   3.629   2.945
 1616SOL    HW2 5385   1.750   3.513   2.992
 1617SOL     OW 5386   1.241   3.595   2.972
 1617SOL    HW1 5387   1.323   3.617   2.928
 1617SOL    HW2 5388   1.248   3.502   2.991
 1618SOL     OW 5389   0.068   3.047   2.912
 1618SOL    HW1 5390   0.058   3.077   3.003
 1618SOL    HW2 5391   0.034   3.119   2.859
 1619SOL     OW 5392   0.679   3.530   3.597
 1619SOL    HW1 5393   0.620   3.605   3.588
 1619SOL    HW2 5394   0.744   3.543   3.528
 1620SOL     OW 5395   1.719   2.009   2.371
 1620SOL    HW1 5396   1.788   1.991   2.307
 1620SOL    HW2 5397   1.701   1.924   2.411
 1621SOL     OW 5398   1.392   3.430   2.350
 1621SOL    HW1 5399   1.451   3.463   2.282
 1621SOL    HW2 5400   1.342   3.506   2.378
 1622SOL     OW 5401   0.117   3.669   3.710
 1622SOL    HW1 5402   0.076   3.597   3.759
 1622SOL    HW2 5403   0.181   3.706   3.771
 1623SOL     OW 5404   1.278   2.789   2.533
 1623SOL    HW1 5405   1.351   2.728   2.541
 1623SOL    HW2 5406   1.312   2.861   2.480
 1624SOL     OW 5407   0.810   3.137   3.289
 1624SOL    HW1 5408   0.782   3.177   3.372
 1624SOL    HW2 5409   0.739   3.158   3.228
 1625SOL     OW 5410   0.672   3.485   2.017
 1625SOL    HW1 5411   0.683   3.497   1.923
 1625SOL    HW2 5412   0.617   3.407   2.025
 1626SOL     OW 5413   1.623   3.589   3.253
 1626SOL    HW1 5414   1.674   3.595   3.173
 1626SOL    HW2 5415   1.609   3.680   3.280
 1627SOL     OW 5416   1.804   2.001   2.833
 1627SOL    HW1 5417   1.846   1.924   2.793
 1627SOL    HW2 5418   1.725   2.015   2.781
 1628SOL     OW 5419   0.262   2.181   2.579
 1628SOL    HW1 5420   0.179   2.220   2.553
 1628SOL    HW2 5421   0.253   2.167   2.674
 1629SOL     OW 5422   1.208   3.466   1.894
 1629SOL    HW1 5423   1.197   3.375   1.921
 1629SOL    HW2 5424   1.142   3.479   1.826
 1630SOL     OW 5425   0.826   2.870   3.235
 1630SOL    HW1 5426   0.869   2.865   3.149
 1630SOL    HW2 5427   0.823   2.963   3.256
 1631SOL     OW 5428   0.916   2.773   2.152
 1631SOL    HW1 5429   0.977   2.805   2.086
 1631SOL    HW2 5430   0.965   2.704   2.198
 1632SOL     OW 5431   1.490   3.489   1.906
 1632SOL    HW1 5432   1.396   3.480   1.891
 1632SOL    HW2 5433   1.527   3.495   1.818
 1633SOL     OW 5434   0.373   3.172   3.352
 1633SOL    HW1 5435   0.355   3.250   3.301
 1633SOL    HW2 5436   0.299   3.114   3.335
 1634SOL     OW 5437   1.611   3.146   3.142
 1634SOL    HW1 5438   1.668   3.131   3.218
 1634SOL    HW2 5439   1.549   3.213   3.172
 1635SOL     OW 5440   1.057   2.971   2.570
 1635SOL    HW1 5441   0.985   2.920   2.608
 1635SOL    HW2 5442   1.119   2.905   2.541
 1636SOL     OW 5443   1.022   2.103   2.829
 1636SOL    HW1 5444   1.018   2.056   2.745
 1636SOL    HW2 5445   1.017   2.034   2.895
 1637SOL     OW 5446   0.606   3.351   2.344
 1637SOL    HW1 5447   0.651   3.302   2.275
 1637SOL    HW2 5448   0.528   3.386   2.301
 1638SOL     OW 5449   1.721   2.261   3.248
 1638SOL    HW1 5450   1.796   2.319   3.240
 1638SOL    HW2 5451   1.742   2.187   3.191
 1639SOL     OW 5452   0.252   3.205   2.137
 1639SOL    HW1 5453   0.158   3.202   2.124
 1639SOL    HW2 5454   0.263   3.237   2.226
 1640SOL     OW 5455   0.116   2.869   3.555
 1640SOL    HW1 5456   0.052   2.913   3.611
 1640SOL    HW2 5457   0.194   2.861   3.609
 1641SOL     OW 5458   0.676   2.061   3.361
 1641SOL    HW1 5459   0.759   2.038   3.321
 1641SOL    HW2 5460   0.699   2.090   3.449
 1642SOL     OW 5461   0.072   2.187   1.892
 1642SOL    HW1 5462   4.479   2.202   1.907
 1642SOL    HW2 5463   0.103   2.269   1.852
 1643SOL     OW 5464   1.428   2.720   3.261
 1643SOL    HW1 5465   1.379   2.781   3.206
 1643SOL    HW2 5466   1.517   2.722   3.226
 1644SOL     OW 5467   0.087   2.036   2.164
 1644SOL    HW1 5468   0.080   2.111   2.105
 1644SOL    HW2 5469   0.162   1.986   2.133
 1645SOL     OW 5470   1.178   3.199   1.979
 1645SOL    HW1 5471   1.087   3.169   1.981
 1645SOL    HW2 5472   1.205   3.200   2.071
 1646SOL     OW 5473   0.626   2.693   3.296
 1646SOL    HW1 5474   0.683   2.769   3.281
 1646SOL    HW2 5475   0.686   2.619   3.301
 1647SOL     OW 5476   1.483   3.642   2.843
 1647SOL    HW1 5477   1.505   3.704   2.774
 1647SOL    HW2 5478   1.567   3.620   2.883
 1648SOL     OW 5479   0.711   2.425   3.566
 1648SOL    HW1 5480   0.759   2.485   3.623
 1648SOL    HW2 5481   0.736   2.338   3.596
 1649SOL     OW 5482   1.473   3.059   3.493
 1649SOL    HW1 5483   1.460   3.074   3.586
 1649SOL    HW2 5484   1.566   3.076   3.478
 1650SOL     OW 5485   0.378   3.607   3.427
 1650SOL    HW1 5486   0.293   3.648   3.409
 1650SOL    HW2 5487   0.356   3.528   3.477
 1651SOL     OW 5488   1.668   2.743   3.116
 1651SOL    HW1 5489   1.663   2.657   3.074
 1651SOL    HW2 5490   1.657   2.806   3.045
 1652SOL     OW 5491   1.216   2.181   2.320
 1652SOL    HW1 5492   1.278   2.109   2.312
 1652SOL    HW2 5493   1.245   2.231   2.396
 1653SOL     OW 5494   0.589   2.598   2.532
 1653SOL    HW1 5495   0.627   2.685   2.518
 1653SOL    HW2 5496   0.522   2.589   2.465
 1654SOL     OW 5497   1.760   2.228   3.517
 1654SOL    HW1 5498   1.738   2.249   3.426
 1654SOL    HW2 5499   1.688   2.173   3.547
 1655SOL     OW 5500   1.745   2.796   3.373
 1655SOL    HW1 5501   1.739   2.891   3.386
 1655SOL    HW2 5502   1.729   2.783   3.280
 1656SOL     OW 5503   0.864   3.228   1.901
 1656SOL    HW1 5504   0.825   3.255   1.983
 1656SOL    HW2 5505   0.879   3.310   1.853
 1657SOL     OW 5506   0.663   3.650   2.805
 1657SOL    HW1 5507   0.643   3.741   2.782
 1657SOL    HW2 5508   0.758   3.643   2.796
 1658SOL     OW 5509   0.869   2.831   2.716
 1658SOL    HW1 5510   0.918   2.758   2.754
 1658SOL    HW2 5511   0.832   2.877   2.791
 1659SOL     OW 5512   1.079   2.851   1.951
 1659SOL    HW1 5513   1.057   2.902   1.873
 1659SOL    HW2 5514   1.153   2.797   1.924
 1660SOL     OW 5515   1.851   3.415   2.705
 1660SOL    HW1 5516   1.772   3.404   2.652
 1660SOL    HW2 5517   1.841   3.351   2.775
 1661SOL     OW 5518   0.232   3.166   3.722
 1661SOL    HW1 5519   0.152   3.118   3.702
 1661SOL    HW2 5520   0.232   3.177   3.817
 1662SOL     OW 5521   0.115   3.093   2.530
 1662SOL    HW1 5522   0.132   3.051   2.615
 1662SOL    HW2 5523   0.172   3.047   2.469
 1663SOL     OW 5524   0.685   3.267   3.493
 1663SOL    HW1 5525   0.604   3.223   3.521
 1663SOL    HW2 5526   0.678   3.355   3.530
 1664SOL     OW 5527   1.771   2.041   3.106
 1664SOL    HW1 5528   1.833   1.976   3.138
 1664SOL    HW2 5529   1.777   2.034   3.010
 1665SOL     OW 5530   0.435   2.295   2.387
 1665SOL    HW1 5531   0.461   2.221   2.332
 1665SOL    HW2 5532   0.384   2.255   2.458
 1666SOL     OW 5533   1.699   3.349   2.955
 1666SOL    HW1 5534   1.619   3.329   2.907
 1666SOL    HW2 5535   1.706   3.280   3.021
 1667SOL     OW 5536   0.295   2.350   3.112
 1667SOL    HW1 5537   0.370   2.307   3.154
 1667SOL    HW2 5538   0.325   2.367   3.022
 1668SOL     OW 5539   0.830   3.440   2.538
 1668SOL    HW1 5540   0.811   3.499   2.465
 1668SOL    HW2 5541   0.754   3.381   2.541
 1669SOL     OW 5542   1.432   2.090   2.978
 1669SOL    HW1 5543   1.464   2.013   3.024
 1669SOL    HW2 5544   1.380   2.137   3.043
 1670SOL     OW 5545   1.009   1.879   3.002
 1670SOL    HW1 5546   0.954   1.812   2.960
 1670SOL    HW2 5547   1.096   1.841   3.004
 1671SOL     OW 5548   0.773   3.195   2.179
 1671SOL    HW1 5549   0.744   3.105   2.186
 1671SOL    HW2 5550   0.855   3.198   2.229
 1672SOL     OW 5551   0.621   3.417   3.149
 1672SOL    HW1 5552   0.622   3.499   3.198
 1672SOL    HW2 5553   0.708   3.411   3.110
 1673SOL     OW 5554   1.354   1.915   2.029
 1673SOL    HW1 5555   1.384   1.848   1.967
 1673SOL    HW2 5556   1.266   1.887   2.054
 1674SOL     OW 5557   1.296   2.324   2.542
 1674SOL    HW1 5558   1.243   2.403   2.547
 1674SOL    HW2 5559   1.291   2.286   2.629
 1675SOL     OW 5560   1.564   2.057   2.727
 1675SOL    HW1 5561   1.513   2.082   2.805
 1675SOL    HW2 5562   1.571   2.138   2.677
 1676SOL     OW 5563   0.040   2.912   2.153
 1676SOL    HW1 5564   0.133   2.890   2.140
 1676SOL    HW2 5565   0.021   2.885   2.243
 1677SOL     OW 5566   0.888   3.519   2.202
 1677SOL    HW1 5567   0.814   3.501   2.144
 1677SOL    HW2 5568   0.858   3.592   2.256
 1678SOL     OW 5569   0.246   2.492   3.846
 1678SOL    HW1 5570   0.172   2.467   3.902
 1678SOL    HW2 5571   0.216   2.475   3.757
 1679SOL     OW 5572   0.212   2.137   4.715
 1679SOL    HW1 5573   0.248   2.110   4.800
 1679SOL    HW2 5574   0.137   2.079   4.702
 1680SOL     OW 5575   0.006   2.258   4.364
 1680SOL    HW1 5576   4.425   2.291   4.402
 1680SOL    HW2 5577   4.480   2.178   4.318
 1681SOL     OW 5578   0.569   3.154   4.903
 1681SOL    HW1 5579   0.482   3.159   4.863
 1681SOL    HW2 5580   0.584   3.241   4.938
 1682SOL     OW 5581   1.564   3.375   4.432
 1682SOL    HW1 5582   1.522   3.353   4.515
 1682SOL    HW2 5583   1.493   3.379   4.368
 1683SOL     OW 5584   1.133   2.559   4.424
 1683SOL    HW1 5585   1.179   2.642   4.408
 1683SOL    HW2 5586   1.085   2.574   4.505
 1684SOL     OW 5587   1.774   2.465   3.952
 1684SOL    HW1 5588   1.748   2.459   3.860
 1684SOL    HW2 5589   1.738   2.386   3.992
 1685SOL     OW 5590   0.751   3.002   4.768
 1685SOL    HW1 5591   0.683   3.038   4.824
 1685SOL    HW2 5592   0.789   3.078   4.724
 1686SOL     OW 5593   0.870   2.630   5.546
 1686SOL    HW1 5594   0.854   2.699   5.611
 1686SOL    HW2 5595   0.893   2.677   5.466
 1687SOL     OW 5596   0.685   2.863   4.370
 1687SOL    HW1 5597   0.751   2.853   4.439
 1687SOL    HW2 5598   0.616   2.916   4.410
 1688SOL     OW 5599   0.713   3.011   5.539
 1688SOL    HW1 5600   0.760   3.090   5.568
 1688SOL    HW2 5601   0.632   3.044   5.501
 1689SOL     OW 5602   0.334   3.281   4.793
 1689SOL    HW1 5603   0.252   3.261   4.747
 1689SOL    HW2 5604   0.383   3.335   4.731
 1690SOL     OW 5605   1.457   3.364   5.081
 1690SOL    HW1 5606   1.511   3.443   5.090
 1690SOL    HW2 5607   1.391   3.373   5.150
 1691SOL     OW 5608   0.448   2.265   5.209
 1691SOL    HW1 5609   0.527   2.211   5.217
 1691SOL    HW2 5610   0.375   2.204   5.219
 1692SOL     OW 5611   1.613   2.328   4.463
 1692SOL    HW1 5612   1.535   2.336   4.408
 1692SOL    HW2 5613   1.648   2.417   4.468
 1693SOL     OW 5614   0.246   3.553   4.199
 1693SOL    HW1 5615   0.229   3.638   4.239
 1693SOL    HW2 5616   0.317   3.569   4.137
 1694SOL     OW 5617   1.137   3.204   5.418
 1694SOL    HW1 5618   1.175   3.199   5.505
 1694SOL    HW2 5619   1.084   3.124   5.410
 1695SOL     OW 5620   0.255   3.288   4.250
 1695SOL    HW1 5621   0.243   3.383   4.253
 1695SOL    HW2 5622   0.193   3.254   4.315
 1696SOL     OW 5623   0.253   2.945   4.610
 1696SOL    HW1 5624   0.266   2.853   4.634
 1696SOL    HW2 5625   0.191   2.978   4.675
 1697SOL     OW 5626   0.611   3.653   5.155
 1697SOL    HW1 5627   0.527   3.635   5.198
 1697SOL    HW2 5628   0.631   3.743   5.179
 1698SOL     OW 5629   0.575   2.851   3.865
 1698SOL    HW1 5630   0.624   2.892   3.794
 1698SOL    HW2 5631   0.618   2.881   3.945
 1699SOL     OW 5632   0.137   2.511   4.298
 1699SOL    HW1 5633   0.090   2.430   4.318
 1699SOL    HW2 5634   0.107   2.573   4.363
 1700SOL     OW 5635   1.843   3.619   4.057
 1700SOL    HW1 5636   1.909   3.592   4.120
 1700SOL    HW2 5637   1.864   3.710   4.037
 1701SOL     OW 5638   0.032   3.465   3.870
 1701SOL    HW1 5639   0.019   3.371   3.864
 1701SOL    HW2 5640   0.033   3.483   3.964
 1702SOL     OW 5641   1.692   2.782   4.363
 1702SOL    HW1 5642   1.770   2.736   4.331
 1702SOL    HW2 5643   1.664   2.835   4.289
 1703SOL     OW 5644   1.647   2.967   4.152
 1703SOL    HW1 5645   1.733   2.971   4.110
 1703SOL    HW2 5646   1.652   3.031   4.223
 1704SOL     OW 5647   0.111   2.629   5.299
 1704SOL    HW1 5648   0.200   2.622   5.264
 1704SOL    HW2 5649   0.102   2.720   5.326
 1705SOL     OW 5650   0.615   3.250   4.460
 1705SOL    HW1 5651   0.568   3.167   4.470
 1705SOL    HW2 5652   0.598   3.277   4.370
 1706SOL     OW 5653   1.285   3.099   5.148
 1706SOL    HW1 5654   1.317   3.033   5.086
 1706SOL    HW2 5655   1.346   3.094   5.222
 1707SOL     OW 5656   0.820   1.864   4.236
 1707SOL    HW1 5657   0.859   1.948   4.214
 1707SOL    HW2 5658   0.726   1.882   4.242
 1708SOL     OW 5659   0.177   2.800   5.003
 1708SOL    HW1 5660   0.268   2.781   4.983
 1708SOL    HW2 5661   0.132   2.795   4.919
 1709SOL     OW 5662   1.531   2.857   3.923
 1709SOL    HW1 5663   1.461   2.800   3.955
 1709SOL    HW2 5664   1.572   2.892   4.003
 1710SOL     OW 5665   1.186   3.672   5.348
 1710SOL    HW1 5666   1.193   3.731   5.273
 1710SOL    HW2 5667   1.202   3.585   5.311
 1711SOL     OW 5668   0.333   2.119   5.527
 1711SOL    HW1 5669   0.378   2.193   5.568
 1711SOL    HW2 5670   0.244   2.124   5.561
 1712SOL     OW 5671   1.466   3.284   4.671
 1712SOL    HW1 5672   1.399   3.298   4.738
 1712SOL    HW2 5673   1.455   3.192   4.645
 1713SOL     OW 5674   1.657   3.607   4.302
 1713SOL    HW1 5675   1.638   3.576   4.213
 1713SOL    HW2 5676   1.634   3.533   4.358
 1714SOL     OW 5677   0.598   2.581   3.993
 1714SOL    HW1 5678   0.598   2.663   3.944
 1714SOL    HW2 5679   0.532   2.594   4.061
 1715SOL     OW 5680   1.278   2.205   4.651
 1715SOL    HW1 5681   1.194   2.165   4.673
 1715SOL    HW2 5682   1.325   2.208   4.735
 1716SOL     OW 5683   1.579   3.534   4.034
 1716SOL    HW1 5684   1.670   3.563   4.026
 1716SOL    HW2 5685   1.552   3.517   3.944
 1717SOL     OW 5686   0.802   2.478   5.176
 1717SOL    HW1 5687   0.771   2.454   5.263
 1717SOL    HW2 5688   0.760   2.415   5.118
 1718SOL     OW 5689   0.957   2.747   5.306
 1718SOL    HW1 5690   1.012   2.678   5.269
 1718SOL    HW2 5691   0.911   2.784   5.231
 1719SOL     OW 5692   0.984   2.276   4.952
 1719SOL    HW1 5693   0.898   2.293   4.989
 1719SOL    HW2 5694   0.967   2.227   4.872
 1720SOL     OW 5695   1.052   2.560   4.150
 1720SOL    HW1 5696   1.069   2.552   4.244
 1720SOL    HW2 5697   0.969   2.514   4.136
 1721SOL     OW 5698   0.092   2.693   4.511
 1721SOL    HW1 5699   0.179   2.680   4.549
 1721SOL    HW2 5700   0.033   2.701   4.586
 1722SOL     OW 5701   0.123   3.719   5.302
 1722SOL    HW1 5702   0.116   3.696   5.395
 1722SOL    HW2 5703   0.044   3.682   5.262
 1723SOL     OW 5704   0.897   2.212   3.919
 1723SOL    HW1 5705   0.936   2.274   3.858
 1723SOL    HW2 5706   0.908   2.126   3.877
 1724SOL     OW 5707   1.781   2.431   5.532
 1724SOL    HW1 5708   1.732   2.514   5.535
 1724SOL    HW2 5709   1.733   2.377   5.469
 1725SOL     OW 5710   1.378   3.005   4.264
 1725SOL    HW1 5711   1.457   2.993   4.211
 1725SOL    HW2 5712   1.325   3.067   4.214
 1726SOL     OW 5713   0.554   2.042   4.619
 1726SOL    HW1 5714   0.555   2.075   4.709
 1726SOL    HW2 5715   0.552   2.121   4.564
 1727SOL     OW 5716   1.003   3.306   4.194
 1727SOL    HW1 5717   0.969   3.380   4.145
 1727SOL    HW2 5718   0.981   3.326   4.286
 1728SOL     OW 5719   0.357   3.675   4.584
 1728SOL    HW1 5720   0.399   3.589   4.595
 1728SOL    HW2 5721   0.427   3.738   4.602
 1729SOL     OW 5722   1.812   2.919   4.581
 1729SOL    HW1 5723   1.750   2.896   4.512
 1729SOL    HW2 5724   1.756   2.935   4.658
 1730SOL     OW 5725   1.227   3.401   5.237
 1730SOL    HW1 5726   1.214   3.328   5.298
 1730SOL    HW2 5727   1.161   3.388   5.169
 1731SOL     OW 5728   0.313   2.815   3.981
 1731SOL    HW1 5729   0.396   2.838   3.940
 1731SOL    HW2 5730   0.300   2.723   3.957
 1732SOL     OW 5731   1.481   2.614   4.438
 1732SOL    HW1 5732   1.472   2.574   4.524
 1732SOL    HW2 5733   1.557   2.672   4.446
 1733SOL     OW 5734   0.470   3.125   5.459
 1733SOL    HW1 5735   0.443   3.132   5.367
 1733SOL    HW2 5736   0.388   3.127   5.508
 1734SOL     OW 5737   1.123   3.640   3.954
 1734SOL    HW1 5738   1.048   3.600   3.998
 1734SOL    HW2 5739   1.147   3.577   3.885
 1735SOL     OW 5740   0.200   2.138   5.209
 1735SOL    HW1 5741   0.143   2.214   5.215
 1735SOL    HW2 5742   0.181   2.087   5.288
 1736SOL     OW 5743   1.629   3.243   3.813
 1736SOL    HW1 5744   1.587   3.328   3.798
 1736SOL    HW2 5745   1.560   3.179   3.793
 1737SOL     OW 5746   0.469   3.605   4.037
 1737SOL    HW1 5747   0.513   3.658   4.103
 1737SOL    HW2 5748   0.540   3.567   3.985
 1738SOL     OW 5749   1.401   1.969   4.160
 1738SOL    HW1 5750   1.394   1.944   4.068
 1738SOL    HW2 5751   1.495   1.975   4.176
 1739SOL     OW 5752   0.260   3.655   4.951
 1739SOL    HW1 5753   0.303   3.577   4.987
 1739SOL    HW2 5754   0.220   3.624   4.869
 1740SOL     OW 5755   0.939   3.561   4.621
 1740SOL    HW1 5756   1.017   3.511   4.642
 1740SOL    HW2 5757   0.896   3.511   4.552
 1741SOL     OW 5758   0.397   2.555   4.196
 1741SOL    HW1 5759   0.418   2.463   4.208
 1741SOL    HW2 5760   0.305   2.562   4.221
 1742SOL     OW 5761   0.640   1.984   3.825
 1742SOL    HW1 5762   0.702   1.913   3.843
 1742SOL    HW2 5763   0.589   1.952   3.751
 1743SOL     OW 5764   0.766   2.142   5.480
 1743SOL    HW1 5765   0.843   2.086   5.476
 1743SOL    HW2 5766   0.718   2.112   5.557
 1744SOL     OW 5767   0.877   3.385   4.918
 1744SOL    HW1 5768   0.860   3.348   4.831
 1744SOL    HW2 5769   0.946   3.330   4.954
 1745SOL     OW 5770   0.817   3.254   4.667
 1745SOL    HW1 5771   0.901   3.243   4.623
 1745SOL    HW2 5772   0.753   3.258   4.596
 1746SOL     OW 5773   0.929   2.372   4.625
 1746SOL    HW1 5774   0.904   2.364   4.533
 1746SOL    HW2 5775   0.959   2.285   4.650
 1747SOL     OW 5776   0.556   1.924   4.222
 1747SOL    HW1 5777   0.475   1.922   4.274
 1747SOL    HW2 5778   0.546   2.002   4.167
 1748SOL     OW 5779   1.428   3.061   3.764
 1748SOL    HW1 5780   1.457   2.985   3.815
 1748SOL    HW2 5781   1.342   3.083   3.801
 1749SOL     OW 5782   0.295   1.907   3.901
 1749SOL    HW1 5783   0.359   1.973   3.873
 1749SOL    HW2 5784   0.348   1.841   3.947
 1750SOL     OW 5785   0.941   2.111   4.182
 1750SOL    HW1 5786   0.916   2.150   4.099
 1750SOL    HW2 5787   1.035   2.125   4.188
 1751SOL     OW 5788   1.075   2.526   5.182
 1751SOL    HW1 5789   0.984   2.495   5.185
 1751SOL    HW2 5790   1.128   2.448   5.198
 1752SOL     OW 5791   1.221   3.433   4.519
 1752SOL    HW1 5792   1.237   3.499   4.451
 1752SOL    HW2 5793   1.292   3.446   4.582
 1753SOL     OW 5794   0.468   3.013   4.457
 1753SOL    HW1 5795   0.399   2.994   4.521
 1753SOL    HW2 5796   0.427   2.998   4.372
 1754SOL     OW 5797   1.267   3.655   4.334
 1754SOL    HW1 5798   1.314   3.716   4.278
 1754SOL    HW2 5799   1.199   3.708   4.376
 1755SOL     OW 5800   1.022   2.401   3.749
 1755SOL    HW1 5801   0.979   2.483   3.729
 1755SOL    HW2 5802   1.088   2.423   3.815
 1756SOL     OW 5803   0.085   2.384   5.137
 1756SOL    HW1 5804   0.145   2.379   5.063
 1756SOL    HW2 5805   0.063   2.477   5.145
 1757SOL     OW 5806   0.560   2.092   4.893
 1757SOL    HW1 5807   0.604   2.014   4.928
 1757SOL    HW2 5808   0.468   2.081   4.918
 1758SOL     OW 5809   0.868   2.322   4.363
 1758SOL    HW1 5810   0.822   2.376   4.299
 1758SOL    HW2 5811   0.890   2.242   4.316
 1759SOL     OW 5812   1.013   1.918   4.476
 1759SOL    HW1 5813   0.958   1.910   4.398
 1759SOL    HW2 5814   0.992   1.841   4.529
 1760SOL     OW 5815   1.428   3.029   4.573
 1760SOL    HW1 5816   1.362   2.960   4.577
 1760SOL    HW2 5817   1.451   3.036   4.481
 1761SOL     OW 5818   1.845   2.673   4.113
 1761SOL    HW1 5819   1.906   2.621   4.166
 1761SOL    HW2 5820   1.818   2.614   4.043
 1762SOL     OW 5821   0.491   3.282   3.880
 1762SOL    HW1 5822   0.413   3.254   3.928
 1762SOL    HW2 5823   0.478   3.249   3.792
 1763SOL     OW 5824   1.671   3.129   4.363
 1763SOL    HW1 5825   1.765   3.133   4.379
 1763SOL    HW2 5826   1.639   3.216   4.388
 1764SOL     OW 5827   1.394   2.434   3.796
 1764SOL    HW1 5828   1.332   2.414   3.866
 1764SOL    HW2 5829   1.478   2.399   3.827
 1765SOL     OW 5830   0.525   2.122   4.037
 1765SOL    HW1 5831   0.574   2.077   3.968
 1765SOL    HW2 5832   0.503   2.207   4.000
 1766SOL     OW 5833   1.740   3.123   5.299
 1766SOL    HW1 5834   1.806   3.064   5.334
 1766SOL    HW2 5835   1.773   3.211   5.321
 1767SOL     OW 5836   1.056   3.215   5.056
 1767SOL    HW1 5837   0.981   3.184   5.107
 1767SOL    HW2 5838   1.132   3.174   5.098
 1768SOL     OW 5839   1.610   3.488   5.380
 1768SOL    HW1 5840   1.602   3.522   5.291
 1768SOL    HW2 5841   1.694   3.441   5.380
 1769SOL     OW 5842   1.130   3.066   4.828
 1769SOL    HW1 5843   1.072   3.106   4.892
 1769SOL    HW2 5844   1.101   3.101   4.743
 1770SOL     OW 5845   1.650   3.019   4.782
 1770SOL    HW1 5846   1.635   3.051   4.871
 1770SOL    HW2 5847   1.562   2.996   4.750
 1771SOL     OW 5848   0.917   1.959   5.119
 1771SOL    HW1 5849   0.941   1.939   5.029
 1771SOL    HW2 5850   0.997   1.996   5.158
 1772SOL     OW 5851   0.984   2.976   5.447
 1772SOL    HW1 5852   0.893   2.993   5.471
 1772SOL    HW2 5853   0.981   2.898   5.392
 1773SOL     OW 5854   0.709   2.925   4.096
 1773SOL    HW1 5855   0.696   2.906   4.189
 1773SOL    HW2 5856   0.785   2.871   4.071
 1774SOL     OW 5857   0.432   2.690   4.969
 1774SOL    HW1 5858   0.502   2.703   5.033
 1774SOL    HW2 5859   0.376   2.623   5.008
 1775SOL     OW 5860   1.244   2.252   5.024
 1775SOL    HW1 5861   1.294   2.312   4.969
 1775SOL    HW2 5862   1.153   2.264   4.994
 1776SOL     OW 5863   0.064   3.437   5.069
 1776SOL    HW1 5864   0.037   3.528   5.054
 1776SOL    HW2 5865   0.159   3.441   5.074
 1777SOL     OW 5866   0.341   2.973   4.217
 1777SOL    HW1 5867   0.351   3.047   4.158
 1777SOL    HW2 5868   0.340   2.896   4.159
 1778SOL     OW 5869   0.560   2.392   4.578
 1778SOL    HW1 5870   0.572   2.452   4.505
 1778SOL    HW2 5871   0.622   2.422   4.645
 1779SOL     OW 5872   1.248   3.211   4.114
 1779SOL    HW1 5873   1.303   3.282   4.145
 1779SOL    HW2 5874   1.160   3.232   4.147
 1780SOL     OW 5875   1.284   3.321   4.871
 1780SOL    HW1 5876   1.340   3.325   4.949
 1780SOL    HW2 5877   1.229   3.243   4.885
 1781SOL     OW 5878   1.583   2.485   4.206
 1781SOL    HW1 5879   1.530   2.538   4.265
 1781SOL    HW2 5880   1.624   2.548   4.147
 1782SOL     OW 5881   0.345   3.397   5.036
 1782SOL    HW1 5882   0.332   3.349   4.954
 1782SOL    HW2 5883   0.440   3.406   5.043
 1783SOL     OW 5884   0.488   2.619   5.397
 1783SOL    HW1 5885   0.514   2.656   5.312
 1783SOL    HW2 5886   0.540   2.540   5.406
 1784SOL     OW 5887   0.993   1.987   5.476
 1784SOL    HW1 5888   1.059   2.054   5.459
 1784SOL    HW2 5889   1.036   1.905   5.454
 1785SOL     OW 5890   0.497   1.904   5.472
 1785SOL    HW1 5891   0.453   1.848   5.408
 1785SOL    HW2 5892   0.439   1.980   5.481
 1786SOL     OW 5893   0.592   2.735   4.750
 1786SOL    HW1 5894   0.620   2.827   4.750
 1786SOL    HW2 5895   0.534   2.728   4.826
 1787SOL     OW 5896   1.350   2.720   4.754
 1787SOL    HW1 5897   1.266   2.712   4.709
 1787SOL    HW2 5898   1.373   2.630   4.777
 1788SOL     OW 5899   1.203   2.390   3.989
 1788SOL    HW1 5900   1.211   2.312   4.043
 1788SOL    HW2 5901   1.159   2.454   4.045
 1789SOL     OW 5902   0.301   2.050   4.966
 1789SOL    HW1 5903   0.262   2.083   5.047
 1789SOL    HW2 5904   0.285   1.956   4.967
 1790SOL     OW 5905   0.029   3.174   5.011
 1790SOL    HW1 5906   0.070   3.127   5.083
 1790SOL    HW2 5907   0.038   3.266   5.035
 1791SOL     OW 5908   0.725   2.493   4.781
 1791SOL    HW1 5909   0.799   2.477   4.722
 1791SOL    HW2 5910   0.696   2.581   4.758
 1792SOL     OW 5911   1.690   2.809   5.573
 1792SOL    HW1 5912   1.633   2.800   5.497
 1792SOL    HW2 5913   1.633   2.839   5.644
 1793SOL     OW 5914   0.315   1.932   4.342
 1793SOL    HW1 5915   0.287   2.020   4.367
 1793SOL    HW2 5916   0.313   1.882   4.424
 1794SOL     OW 5917   1.620   2.239   4.087
 1794SOL    HW1 5918   1.649   2.172   4.150
 1794SOL    HW2 5919   1.599   2.315   4.141
 1795SOL     OW 5920   1.032   2.619   4.684
 1795SOL    HW1 5921   1.023   2.637   4.777
 1795SOL    HW2 5922   1.002   2.529   4.673
 1796SOL     OW 5923   0.983   3.430   5.443
 1796SOL    HW1 5924   0.967   3.473   5.359
 1796SOL    HW2 5925   1.025   3.347   5.419
 1797SOL     OW 5926   1.858   3.368   5.327
 1797SOL    HW1 5927   1.876   3.401   5.239
 1797SOL    HW2 5928   1.939   3.386   5.375
 1798SOL     OW 5929   0.347   2.798   5.541
 1798SOL    HW1 5930   0.417   2.829   5.598
 1798SOL    HW2 5931   0.387   2.730   5.488
 1799SOL     OW 5932   1.527   2.135   3.852
 1799SOL    HW1 5933   1.463   2.069   3.879
 1799SOL    HW2 5934   1.561   2.170   3.934
 1800SOL     OW 5935   1.290   2.687   3.754
 1800SOL    HW1 5936   1.333   2.602   3.758
 1800SOL    HW2 5937   1.321   2.726   3.672
 1801SOL     OW 5938   1.068   3.199   4.580
 1801SOL    HW1 5939   1.071   3.127   4.517
 1801SOL    HW2 5940   1.127   3.265   4.545
 1802SOL     OW 5941   0.318   2.672   4.668
 1802SOL    HW1 5942   0.413   2.689   4.666
 1802SOL    HW2 5943   0.311   2.581   4.694
 1803SOL     OW 5944   0.328   2.388   4.710
 1803SOL    HW1 5945   0.290   2.301   4.695
 1803SOL    HW2 5946   0.407   2.389   4.656
 1804SOL     OW 5947   1.147   2.252   5.407
 1804SOL    HW1 5948   1.088   2.300   5.464
 1804SOL    HW2 5949   1.234   2.266   5.446
 1805SOL     OW 5950   1.161   2.063   5.202
 1805SOL    HW1 5951   1.153   2.125   5.275
 1805SOL    HW2 5952   1.197   2.115   5.131
 1806SOL     OW 5953   4.491   3.182   3.933
 1806SOL    HW1 5954   4.399   3.199   3.914
 1806SOL    HW2 5955   4.495   3.089   3.953
 1807SOL     OW 5956   0.101   3.634   4.665
 1807SOL    HW1 5957   0.061   3.587   4.592
 1807SOL    HW2 5958   0.189   3.656   4.634
 1808SOL     OW 5959   0.494   3.436   4.631
 1808SOL    HW1 5960   0.563   3.499   4.655
 1808SOL    HW2 5961   0.538   3.374   4.573
 1809SOL     OW 5962   0.983   2.648   4.948
 1809SOL    HW1 5963   1.038   2.622   5.022
 1809SOL    HW2 5964   0.896   2.615   4.970
 1810SOL     OW 5965   0.030   2.426   4.823
 1810SOL    HW1 5966   0.118   2.397   4.796
 1810SOL    HW2 5967   0.011   2.373   4.900
 1811SOL     OW 5968   0.179   2.387   5.441
 1811SOL    HW1 5969   0.259   2.356   5.400
 1811SOL    HW2 5970   0.157   2.466   5.392
 1812SOL     OW 5971   1.381   2.808   5.385
 1812SOL    HW1 5972   1.408   2.899   5.380
 1812SOL    HW2 5973   1.348   2.788   5.297
 1813SOL     OW 5974   0.818   2.432   4.087
 1813SOL    HW1 5975   0.822   2.357   4.027
 1813SOL    HW2 5976   0.744   2.484   4.056
 1814SOL     OW 5977   0.275   3.424   5.465
 1814SOL    HW1 5978   0.214   3.476   5.517
 1814SOL    HW2 5979   0.256   3.333   5.488
 1815SOL     OW 5980   0.702   2.316   4.984
 1815SOL    HW1 5981   0.650   2.240   4.956
 1815SOL    HW2 5982   0.696   2.377   4.911
 1816SOL     OW 5983   0.927   3.541   5.192
 1816SOL    HW1 5984   0.900   3.503   5.108
 1816SOL    HW2 5985   0.919   3.636   5.180
 1817SOL     OW 5986   0.471   2.352   3.905
 1817SOL    HW1 5987   0.532   2.421   3.931
 1817SOL    HW2 5988   0.388   2.397   3.890
 1818SOL     OW 5989   0.162   3.003   5.183
 1818SOL    HW1 5990   0.144   2.960   5.266
 1818SOL    HW2 5991   0.168   2.932   5.119
 1819SOL     OW 5992   1.332   2.919   4.946
 1819SOL    HW1 5993   1.355   2.849   4.885
 1819SOL    HW2 5994   1.260   2.966   4.904
 1820SOL     OW 5995   1.314   2.718   4.029
 1820SOL    HW1 5996   1.238   2.688   4.080
 1820SOL    HW2 5997   1.288   2.705   3.938
 1821SOL     OW 5998   1.777   3.602   4.878
 1821SOL    HW1 5999   1.835   3.628   4.807
 1821SOL    HW2 6000   1.749   3.514   4.856
 1822SOL     OW 6001   1.241   3.595   4.835
 1822SOL    HW1 6002   1.322   3.618   4.791
 1822SOL    HW2 6003   1.248   3.502   4.853
 1823SOL     OW 6004   0.069   3.046   4.774
 1823SOL    HW1 6005   0.059   3.076   4.865
 1823SOL    HW2 6006   0.033   3.118   4.721
 1824SOL     OW 6007   0.679   3.530   5.458
 1824SOL    HW1 6008   0.619   3.605   5.450
 1824SOL    HW2 6009   0.744   3.544   5.389
 1825SOL     OW 6010   1.715   2.011   4.228
 1825SOL    HW1 6011   1.790   1.993   4.171
 1825SOL    HW2 6012   1.700   1.929   4.274
 1826SOL     OW 6013   1.391   3.430   4.211
 1826SOL    HW1 6014   1.451   3.463   4.144
 1826SOL    HW2 6015   1.342   3.506   4.240
 1827SOL     OW 6016   0.118   3.668   5.572
 1827SOL    HW1 6017   0.076   3.597   5.621
 1827SOL    HW2 6018   0.181   3.706   5.634
 1828SOL     OW 6019   1.275   2.790   4.392
 1828SOL    HW1 6020   1.349   2.730   4.397
 1828SOL    HW2 6021   1.307   2.864   4.340
 1829SOL     OW 6022   0.809   3.136   5.152
 1829SOL    HW1 6023   0.781   3.177   5.234
 1829SOL    HW2 6024   0.740   3.159   5.090
 1830SOL     OW 6025   0.672   3.485   3.879
 1830SOL    HW1 6026   0.683   3.497   3.785
 1830SOL    HW2 6027   0.617   3.407   3.887
 1831SOL     OW 6028   1.622   3.588   5.116
 1831SOL    HW1 6029   1.673   3.594   5.036
 1831SOL    HW2 6030   1.609   3.680   5.142
 1832SOL     OW 6031   0.262   2.181   4.442
 1832SOL    HW1 6032   0.179   2.220   4.415
 1832SOL    HW2 6033   0.253   2.167   4.536
 1833SOL     OW 6034   1.208   3.466   3.756
 1833SOL    HW1 6035   1.197   3.375   3.783
 1833SOL    HW2 6036   1.142   3.479   3.688
 1834SOL     OW 6037   0.830   2.869   5.097
 1834SOL    HW1 6038   0.866   2.869   5.008
 1834SOL    HW2 6039   0.823   2.962   5.120
 1835SOL     OW 6040   0.916   2.773   4.015
 1835SOL    HW1 6041   0.977   2.805   3.948
 1835SOL    HW2 6042   0.965   2.704   4.060
 1836SOL     OW 6043   1.490   3.489   3.768
 1836SOL    HW1 6044   1.396   3.480   3.753
 1836SOL    HW2 6045   1.528   3.495   3.680
 1837SOL     OW 6046   0.374   3.171   5.214
 1837SOL    HW1 6047   0.355   3.250   5.163
 1837SOL    HW2 6048   0.299   3.114   5.197
 1838SOL     OW 6049   1.621   3.151   5.026
 1838SOL    HW1 6050   1.655   3.133   5.113
 1838SOL    HW2 6051   1.554   3.218   5.040
 1839SOL     OW 6052   1.055   2.971   4.432
 1839SOL    HW1 6053   0.983   2.921   4.470
 1839SOL    HW2 6054   1.118   2.905   4.402
 1840SOL     OW 6055   1.019   2.101   4.695
 1840SOL    HW1 6056   1.016   2.056   4.611
 1840SOL    HW2 6057   1.013   2.030   4.760
 1841SOL     OW 6058   0.606   3.351   4.206
 1841SOL    HW1 6059   0.651   3.302   4.137
 1841SOL    HW2 6060   0.528   3.386   4.163
 1842SOL     OW 6061   0.252   3.205   3.999
 1842SOL    HW1 6062   0.158   3.202   3.986
 1842SOL    HW2 6063   0.263   3.237   4.088
 1843SOL     OW 6064   0.115   2.868   5.417
 1843SOL    HW1 6065   0.052   2.914   5.473
 1843SOL    HW2 6066   0.194   2.861   5.471
 1844SOL     OW 6067   0.676   2.062   5.223
 1844SOL    HW1 6068   0.759   2.037   5.183
 1844SOL    HW2 6069   0.698   2.090   5.312
 1845SOL     OW 6070   0.072   2.188   3.754
 1845SOL    HW1 6071   4.479   2.202   3.769
 1845SOL    HW2 6072   0.103   2.269   3.714
 1846SOL     OW 6073   0.087   2.036   4.027
 1846SOL    HW1 6074   0.080   2.110   3.967
 1846SOL    HW2 6075   0.162   1.987   3.995
 1847SOL     OW 6076   1.178   3.199   3.841
 1847SOL    HW1 6077   1.087   3.170   3.842
 1847SOL    HW2 6078   1.205   3.200   3.933
 1848SOL     OW 6079   0.628   2.692   5.156
 1848SOL    HW1 6080   0.684   2.769   5.143
 1848SOL    HW2 6081   0.689   2.619   5.164
 1849SOL     OW 6082   1.482   3.643   4.705
 1849SOL    HW1 6083   1.505   3.705   4.636
 1849SOL    HW2 6084   1.566   3.618   4.743
 1850SOL     OW 6085   0.713   2.425   5.426
 1850SOL    HW1 6086   0.757   2.484   5.487
 1850SOL    HW2 6087   0.736   2.337   5.457
 1851SOL     OW 6088   1.473   3.063   5.354
 1851SOL    HW1 6089   1.458   3.081   5.447
 1851SOL    HW2 6090   1.564   3.088   5.339
 1852SOL     OW 6091   0.378   3.607   5.289
 1852SOL    HW1 6092   0.293   3.648   5.271
 1852SOL    HW2 6093   0.356   3.528   5.339
 1853SOL     OW 6094   1.218   2.182   4.183
 1853SOL    HW1 6095   1.279   2.109   4.175
 1853SOL    HW2 6096   1.249   2.231   4.259
 1854SOL     OW 6097   0.589   2.598   4.395
 1854SOL    HW1 6098   0.627   2.685   4.380
 1854SOL    HW2 6099   0.522   2.589   4.327
 1855SOL     OW 6100   0.865   3.228   3.763
 1855SOL    HW1 6101   0.825   3.255   3.845
 1855SOL    HW2 6102   0.879   3.310   3.715
 1856SOL     OW 6103   0.663   3.650   4.667
 1856SOL    HW1 6104   0.643   3.741   4.644
 1856SOL    HW2 6105   0.758   3.643   4.658
 1857SOL     OW 6106   0.869   2.831   4.578
 1857SOL    HW1 6107   0.919   2.759   4.617
 1857SOL    HW2 6108   0.832   2.878   4.653
 1858SOL     OW 6109   1.079   2.851   3.813
 1858SOL    HW1 6110   1.057   2.902   3.735
 1858SOL    HW2 6111   1.153   2.797   3.786
 1859SOL     OW 6112   1.851   3.415   4.569
 1859SOL    HW1 6113   1.772   3.402   4.517
 1859SOL    HW2 6114   1.852   3.341   4.630
 1860SOL     OW 6115   0.233   3.166   5.584
 1860SOL    HW1 6116   0.152   3.118   5.565
 1860SOL    HW2 6117   0.232   3.177   5.679
 1861SOL     OW 6118   0.115   3.094   4.392
 1861SOL    HW1 6119   0.131   3.052   4.477
 1861SOL    HW2 6120   0.171   3.047   4.331
 1862SOL     OW 6121   0.685   3.267   5.355
 1862SOL    HW1 6122   0.604   3.223   5.383
 1862SOL    HW2 6123   0.678   3.355   5.392
 1863SOL     OW 6124   0.436   2.295   4.250
 1863SOL    HW1 6125   0.461   2.221   4.194
 1863SOL    HW2 6126   0.384   2.255   4.320
 1864SOL     OW 6127   1.693   3.351   4.824
 1864SOL    HW1 6128   1.619   3.328   4.768
 1864SOL    HW2 6129   1.701   3.277   4.885
 1865SOL     OW 6130   0.295   2.350   4.973
 1865SOL    HW1 6131   0.369   2.306   5.015
 1865SOL    HW2 6132   0.325   2.367   4.883
 1866SOL     OW 6133   0.829   3.440   4.400
 1866SOL    HW1 6134   0.812   3.499   4.327
 1866SOL    HW2 6135   0.754   3.381   4.403
 1867SOL     OW 6136   1.007   1.878   4.865
 1867SOL    HW1 6137   0.952   1.811   4.823
 1867SOL    HW2 6138   1.094   1.838   4.868
 1868SOL     OW 6139   0.773   3.196   4.041
 1868SOL    HW1 6140   0.744   3.105   4.048
 1868SOL    HW2 6141   0.855   3.198   4.091
 1869SOL     OW 6142   0.621   3.417   5.011
 1869SOL    HW1 6143   0.622   3.499   5.060
 1869SOL    HW2 6144   0.708   3.411   4.972
 1870SOL     OW 6145   1.354   1.915   3.891
 1870SOL    HW1 6146   1.384   1.848   3.830
 1870SOL    HW2 6147   1.266   1.887   3.916
 1871SOL     OW 6148   1.301   2.326   4.406
 1871SOL    HW1 6149   1.242   2.401   4.413
 1871SOL    HW2 6150   1.293   2.281   4.490
 1872SOL     OW 6151   1.557   2.083   4.573
 1872SOL    HW1 6152   1.474   2.110   4.614
 1872SOL    HW2 6153   1.589   2.162   4.529
 1873SOL     OW 6154   0.040   2.912   4.015
 1873SOL    HW1 6155   0.132   2.890   4.002
 1873SOL    HW2 6156   0.021   2.885   4.105
 1874SOL     OW 6157   0.888   3.518   4.064
 1874SOL    HW1 6158   0.814   3.501   4.006
 1874SOL    HW2 6159   0.858   3.592   4.118
 1875SOL     OW 6160   0.246   2.491   5.708
 1875SOL    HW1 6161   0.172   2.466   5.764
 1875SOL    HW2 6162   0.215   2.476   5.619
 1876SOL     OW 6163   0.213   2.136   6.577
 1876SOL    HW1 6164   0.249   2.110   6.661
 1876SOL    HW2 6165   0.137   2.079   6.564
 1877SOL     OW 6166   0.006   2.258   6.226
 1877SOL    HW1 6167   4.425   2.291   6.264
 1877SOL    HW2 6168   4.480   2.179   6.180
 1878SOL     OW 6169   0.569   3.154   6.765
 1878SOL    HW1 6170   0.482   3.159   6.726
 1878SOL    HW2 6171   0.584   3.242   6.800
 1879SOL     OW 6172   1.565   3.368   6.291
 1879SOL    HW1 6173   1.522   3.350   6.375
 1879SOL    HW2 6174   1.493   3.376   6.228
 1880SOL     OW 6175   1.121   2.562   6.280
 1880SOL    HW1 6176   1.172   2.641   6.266
 1880SOL    HW2 6177   1.079   2.574   6.366
 1881SOL     OW 6178   0.751   3.002   6.630
 1881SOL    HW1 6179   0.683   3.038   6.687
 1881SOL    HW2 6180   0.788   3.078   6.586
 1882SOL     OW 6181   0.870   2.629   7.407
 1882SOL    HW1 6182   0.856   2.699   7.471
 1882SOL    HW2 6183   0.893   2.674   7.326
 1883SOL     OW 6184   0.684   2.863   6.232
 1883SOL    HW1 6185   0.751   2.852   6.300
 1883SOL    HW2 6186   0.616   2.915   6.273
 1884SOL     OW 6187   0.713   3.011   7.402
 1884SOL    HW1 6188   0.760   3.089   7.430
 1884SOL    HW2 6189   0.632   3.044   7.364
 1885SOL     OW 6190   0.334   3.281   6.655
 1885SOL    HW1 6191   0.253   3.260   6.609
 1885SOL    HW2 6192   0.383   3.335   6.593
 1886SOL     OW 6193   1.459   3.363   6.944
 1886SOL    HW1 6194   1.512   3.443   6.954
 1886SOL    HW2 6195   1.393   3.370   7.013
 1887SOL     OW 6196   0.447   2.266   7.072
 1887SOL    HW1 6197   0.526   2.213   7.079
 1887SOL    HW2 6198   0.375   2.203   7.081
 1888SOL     OW 6199   0.246   3.553   6.061
 1888SOL    HW1 6200   0.229   3.638   6.101
 1888SOL    HW2 6201   0.317   3.570   5.999
 1889SOL     OW 6202   1.137   3.204   7.280
 1889SOL    HW1 6203   1.177   3.198   7.366
 1889SOL    HW2 6204   1.085   3.124   7.272
 1890SOL     OW 6205   0.255   3.288   6.112
 1890SOL    HW1 6206   0.243   3.383   6.115
 1890SOL    HW2 6207   0.194   3.254   6.177
 1891SOL     OW 6208   0.252   2.945   6.472
 1891SOL    HW1 6209   0.266   2.853   6.496
 1891SOL    HW2 6210   0.190   2.977   6.537
 1892SOL     OW 6211   0.610   3.653   7.016
 1892SOL    HW1 6212   0.527   3.635   7.060
 1892SOL    HW2 6213   0.631   3.743   7.041
 1893SOL     OW 6214   0.575   2.851   5.727
 1893SOL    HW1 6215   0.625   2.892   5.656
 1893SOL    HW2 6216   0.619   2.881   5.807
 1894SOL     OW 6217   1.598   1.989   7.052
 1894SOL    HW1 6218   1.609   2.071   7.004
 1894SOL    HW2 6219   1.580   2.017   7.142
 1895SOL     OW 6220   0.137   2.511   6.159
 1895SOL    HW1 6221   0.090   2.430   6.180
 1895SOL    HW2 6222   0.107   2.573   6.225
 1896SOL     OW 6223   1.844   3.618   5.919
 1896SOL    HW1 6224   1.909   3.591   5.984
 1896SOL    HW2 6225   1.866   3.710   5.900
 1897SOL     OW 6226   0.032   3.465   5.732
 1897SOL    HW1 6227   0.019   3.371   5.726
 1897SOL    HW2 6228   0.033   3.483   5.826
 1898SOL     OW 6229   1.629   2.983   6.008
 1898SOL    HW1 6230   1.717   2.977   5.969
 1898SOL    HW2 6231   1.643   3.030   6.090
 1899SOL     OW 6232   0.111   2.628   7.163
 1899SOL    HW1 6233   0.199   2.621   7.126
 1899SOL    HW2 6234   0.104   2.720   7.189
 1900SOL     OW 6235   0.615   3.250   6.322
 1900SOL    HW1 6236   0.568   3.167   6.332
 1900SOL    HW2 6237   0.599   3.276   6.232
 1901SOL     OW 6238   1.288   3.100   7.008
 1901SOL    HW1 6239   1.318   3.032   6.949
 1901SOL    HW2 6240   1.346   3.094   7.084
 1902SOL     OW 6241   0.819   1.863   6.098
 1902SOL    HW1 6242   0.858   1.948   6.075
 1902SOL    HW2 6243   0.725   1.881   6.105
 1903SOL     OW 6244   0.177   2.800   6.865
 1903SOL    HW1 6245   0.269   2.782   6.845
 1903SOL    HW2 6246   0.133   2.794   6.780
 1904SOL     OW 6247   1.513   2.867   5.783
 1904SOL    HW1 6248   1.442   2.812   5.815
 1904SOL    HW2 6249   1.553   2.903   5.862
 1905SOL     OW 6250   1.186   3.672   7.210
 1905SOL    HW1 6251   1.193   3.730   7.135
 1905SOL    HW2 6252   1.202   3.584   7.174
 1906SOL     OW 6253   0.333   2.119   7.388
 1906SOL    HW1 6254   0.379   2.193   7.429
 1906SOL    HW2 6255   0.244   2.124   7.423
 1907SOL     OW 6256   1.468   3.280   6.535
 1907SOL    HW1 6257   1.400   3.296   6.601
 1907SOL    HW2 6258   1.454   3.189   6.508
 1908SOL     OW 6259   1.658   3.604   6.163
 1908SOL    HW1 6260   1.636   3.575   6.075
 1908SOL    HW2 6261   1.635   3.530   6.220
 1909SOL     OW 6262   0.598   2.581   5.855
 1909SOL    HW1 6263   0.598   2.663   5.807
 1909SOL    HW2 6264   0.532   2.593   5.923
 1910SOL     OW 6265   1.288   2.211   6.514
 1910SOL    HW1 6266   1.198   2.181   6.528
 1910SOL    HW2 6267   1.341   2.159   6.575
 1911SOL     OW 6268   1.580   3.533   5.896
 1911SOL    HW1 6269   1.671   3.563   5.887
 1911SOL    HW2 6270   1.552   3.518   5.805
 1912SOL     OW 6271   0.793   2.478   7.036
 1912SOL    HW1 6272   0.767   2.453   7.124
 1912SOL    HW2 6273   0.753   2.412   6.979
 1913SOL     OW 6274   1.393   2.336   7.264
 1913SOL    HW1 6275   1.397   2.381   7.349
 1913SOL    HW2 6276   1.453   2.262   7.273
 1914SOL     OW 6277   0.952   2.748   7.170
 1914SOL    HW1 6278   1.007   2.679   7.133
 1914SOL    HW2 6279   0.905   2.784   7.095
 1915SOL     OW 6280   0.993   2.275   6.823
 1915SOL    HW1 6281   0.906   2.294   6.858
 1915SOL    HW2 6282   0.975   2.230   6.740
 1916SOL     OW 6283   1.052   2.562   6.010
 1916SOL    HW1 6284   1.068   2.557   6.104
 1916SOL    HW2 6285   0.969   2.515   5.997
 1917SOL     OW 6286   0.092   2.692   6.372
 1917SOL    HW1 6287   0.179   2.680   6.411
 1917SOL    HW2 6288   0.034   2.701   6.447
 1918SOL     OW 6289   0.123   3.719   7.164
 1918SOL    HW1 6290   0.116   3.697   7.256
 1918SOL    HW2 6291   0.044   3.682   7.124
 1919SOL     OW 6292   0.896   2.211   5.780
 1919SOL    HW1 6293   0.934   2.274   5.719
 1919SOL    HW2 6294   0.910   2.125   5.740
 1920SOL     OW 6295   1.703   2.437   7.417
 1920SOL    HW1 6296   1.668   2.510   7.366
 1920SOL    HW2 6297   1.733   2.374   7.351
 1921SOL     OW 6298   1.381   3.011   6.132
 1921SOL    HW1 6299   1.457   2.995   6.077
 1921SOL    HW2 6300   1.325   3.070   6.081
 1922SOL     OW 6301   0.554   2.042   6.480
 1922SOL    HW1 6302   0.555   2.073   6.571
 1922SOL    HW2 6303   0.553   2.122   6.427
 1923SOL     OW 6304   1.003   3.306   6.056
 1923SOL    HW1 6305   0.969   3.381   6.007
 1923SOL    HW2 6306   0.981   3.325   6.147
 1924SOL     OW 6307   0.357   3.675   6.446
 1924SOL    HW1 6308   0.398   3.589   6.457
 1924SOL    HW2 6309   0.427   3.738   6.464
 1925SOL     OW 6310   1.774   2.950   6.459
 1925SOL    HW1 6311   1.720   2.994   6.393
 1925SOL    HW2 6312   1.718   2.946   6.536
 1926SOL     OW 6313   1.227   3.401   7.099
 1926SOL    HW1 6314   1.215   3.329   7.161
 1926SOL    HW2 6315   1.161   3.387   7.031
 1927SOL     OW 6316   0.313   2.815   5.843
 1927SOL    HW1 6317   0.396   2.838   5.802
 1927SOL    HW2 6318   0.300   2.723   5.820
 1928SOL     OW 6319   1.421   2.619   6.355
 1928SOL    HW1 6320   1.430   2.549   6.419
 1928SOL    HW2 6321   1.511   2.644   6.334
 1929SOL     OW 6322   0.470   3.126   7.321
 1929SOL    HW1 6323   0.443   3.133   7.229
 1929SOL    HW2 6324   0.388   3.128   7.370
 1930SOL     OW 6325   1.123   3.640   5.816
 1930SOL    HW1 6326   1.048   3.600   5.861
 1930SOL    HW2 6327   1.146   3.577   5.748
 1931SOL     OW 6328   0.198   2.138   7.070
 1931SOL    HW1 6329   0.142   2.215   7.078
 1931SOL    HW2 6330   0.181   2.088   7.150
 1932SOL     OW 6331   1.626   3.244   5.671
 1932SOL    HW1 6332   1.587   3.330   5.658
 1932SOL    HW2 6333   1.555   3.182   5.653
 1933SOL     OW 6334   0.469   3.605   5.899
 1933SOL    HW1 6335   0.513   3.658   5.965
 1933SOL    HW2 6336   0.540   3.567   5.847
 1934SOL     OW 6337   0.260   3.655   6.813
 1934SOL    HW1 6338   0.303   3.578   6.849
 1934SOL    HW2 6339   0.221   3.624   6.731
 1935SOL     OW 6340   0.938   3.562   6.483
 1935SOL    HW1 6341   1.014   3.509   6.508
 1935SOL    HW2 6342   0.896   3.511   6.414
 1936SOL     OW 6343   0.396   2.556   6.057
 1936SOL    HW1 6344   0.418   2.463   6.070
 1936SOL    HW2 6345   0.304   2.562   6.082
 1937SOL     OW 6346   1.532   2.087   7.311
 1937SOL    HW1 6347   1.542   2.107   7.404
 1937SOL    HW2 6348   1.463   2.020   7.308
 1938SOL     OW 6349   0.640   1.984   5.687
 1938SOL    HW1 6350   0.702   1.913   5.705
 1938SOL    HW2 6351   0.589   1.952   5.613
 1939SOL     OW 6352   0.765   2.141   7.341
 1939SOL    HW1 6353   0.844   2.086   7.339
 1939SOL    HW2 6354   0.718   2.113   7.419
 1940SOL     OW 6355   0.877   3.386   6.780
 1940SOL    HW1 6356   0.859   3.348   6.693
 1940SOL    HW2 6357   0.946   3.330   6.816
 1941SOL     OW 6358   1.339   2.451   7.019
 1941SOL    HW1 6359   1.370   2.419   7.103
 1941SOL    HW2 6360   1.377   2.538   7.010
 1942SOL     OW 6361   0.817   3.255   6.529
 1942SOL    HW1 6362   0.901   3.243   6.485
 1942SOL    HW2 6363   0.753   3.258   6.458
 1943SOL     OW 6364   0.929   2.370   6.489
 1943SOL    HW1 6365   0.904   2.362   6.397
 1943SOL    HW2 6366   0.961   2.283   6.513
 1944SOL     OW 6367   0.555   1.924   6.084
 1944SOL    HW1 6368   0.475   1.922   6.136
 1944SOL    HW2 6369   0.546   2.002   6.029
 1945SOL     OW 6370   1.422   3.069   5.624
 1945SOL    HW1 6371   1.447   2.994   5.677
 1945SOL    HW2 6372   1.336   3.096   5.658
 1946SOL     OW 6373   0.295   1.907   5.763
 1946SOL    HW1 6374   0.359   1.974   5.736
 1946SOL    HW2 6375   0.348   1.841   5.808
 1947SOL     OW 6376   0.937   2.110   6.042
 1947SOL    HW1 6377   0.909   2.150   5.960
 1947SOL    HW2 6378   1.031   2.127   6.047
 1948SOL     OW 6379   1.081   2.544   7.044
 1948SOL    HW1 6380   1.014   2.476   7.049
 1948SOL    HW2 6381   1.164   2.497   7.038
 1949SOL     OW 6382   1.224   3.431   6.379
 1949SOL    HW1 6383   1.238   3.499   6.312
 1949SOL    HW2 6384   1.290   3.450   6.446
 1950SOL     OW 6385   0.468   3.014   6.319
 1950SOL    HW1 6386   0.399   2.995   6.383
 1950SOL    HW2 6387   0.427   2.999   6.234
 1951SOL     OW 6388   1.267   3.655   6.197
 1951SOL    HW1 6389   1.314   3.716   6.140
 1951SOL    HW2 6390   1.199   3.707   6.238
 1952SOL     OW 6391   1.019   2.402   5.609
 1952SOL    HW1 6392   0.974   2.484   5.590
 1952SOL    HW2 6393   1.082   2.424   5.677
 1953SOL     OW 6394   0.082   2.383   6.998
 1953SOL    HW1 6395   0.144   2.377   6.925
 1953SOL    HW2 6396   0.067   2.477   7.008
 1954SOL     OW 6397   0.559   2.090   6.754
 1954SOL    HW1 6398   0.604   2.014   6.792
 1954SOL    HW2 6399   0.468   2.079   6.779
 1955SOL     OW 6400   0.866   2.319   6.226
 1955SOL    HW1 6401   0.821   2.376   6.164
 1955SOL    HW2 6402   0.887   2.240   6.176
 1956SOL     OW 6403   1.023   1.910   6.330
 1956SOL    HW1 6404   0.959   1.908   6.259
 1956SOL    HW2 6405   0.997   1.839   6.388
 1957SOL     OW 6406   1.435   3.025   6.437
 1957SOL    HW1 6407   1.368   2.957   6.448
 1957SOL    HW2 6408   1.445   3.032   6.342
 1958SOL     OW 6409   1.455   2.458   6.574
 1958SOL    HW1 6410   1.409   2.374   6.577
 1958SOL    HW2 6411   1.521   2.452   6.644
 1959SOL     OW 6412   0.492   3.282   5.742
 1959SOL    HW1 6413   0.414   3.254   5.791
 1959SOL    HW2 6414   0.478   3.249   5.654
 1960SOL     OW 6415   1.680   3.118   6.241
 1960SOL    HW1 6416   1.774   3.132   6.251
 1960SOL    HW2 6417   1.641   3.204   6.254
 1961SOL     OW 6418   1.363   2.418   5.625
 1961SOL    HW1 6419   1.303   2.394   5.696
 1961SOL    HW2 6420   1.446   2.436   5.669
 1962SOL     OW 6421   0.525   2.121   5.899
 1962SOL    HW1 6422   0.574   2.077   5.830
 1962SOL    HW2 6423   0.503   2.207   5.862
 1963SOL     OW 6424   1.751   3.103   7.154
 1963SOL    HW1 6425   1.837   3.062   7.154
 1963SOL    HW2 6426   1.767   3.193   7.183
 1964SOL     OW 6427   1.057   3.216   6.919
 1964SOL    HW1 6428   0.981   3.185   6.969
 1964SOL    HW2 6429   1.132   3.175   6.960
 1965SOL     OW 6430   1.609   3.489   7.242
 1965SOL    HW1 6431   1.602   3.522   7.153
 1965SOL    HW2 6432   1.691   3.440   7.243
 1966SOL     OW 6433   1.133   3.070   6.689
 1966SOL    HW1 6434   1.072   3.105   6.754
 1966SOL    HW2 6435   1.100   3.102   6.605
 1967SOL     OW 6436   1.617   2.961   6.672
 1967SOL    HW1 6437   1.614   3.023   6.745
 1967SOL    HW2 6438   1.533   2.972   6.627
 1968SOL     OW 6439   0.918   1.958   6.980
 1968SOL    HW1 6440   0.941   1.939   6.889
 1968SOL    HW2 6441   0.997   1.997   7.017
 1969SOL     OW 6442   0.984   2.977   7.309
 1969SOL    HW1 6443   0.893   2.993   7.332
 1969SOL    HW2 6444   0.982   2.898   7.254
 1970SOL     OW 6445   0.709   2.925   5.958
 1970SOL    HW1 6446   0.696   2.906   6.051
 1970SOL    HW2 6447   0.784   2.870   5.933
 1971SOL     OW 6448   0.432   2.692   6.832
 1971SOL    HW1 6449   0.502   2.704   6.895
 1971SOL    HW2 6450   0.376   2.624   6.871
 1972SOL     OW 6451   1.265   2.237   6.864
 1972SOL    HW1 6452   1.297   2.315   6.909
 1972SOL    HW2 6453   1.174   2.259   6.841
 1973SOL     OW 6454   0.064   3.438   6.931
 1973SOL    HW1 6455   0.037   3.528   6.915
 1973SOL    HW2 6456   0.159   3.441   6.936
 1974SOL     OW 6457   0.341   2.973   6.079
 1974SOL    HW1 6458   0.351   3.047   6.020
 1974SOL    HW2 6459   0.340   2.896   6.022
 1975SOL     OW 6460   0.559   2.392   6.440
 1975SOL    HW1 6461   0.572   2.452   6.367
 1975SOL    HW2 6462   0.622   2.421   6.506
 1976SOL     OW 6463   1.247   3.212   5.975
 1976SOL    HW1 6464   1.303   3.283   6.007
 1976SOL    HW2 6465   1.160   3.232   6.009
 1977SOL     OW 6466   1.285   3.321   6.733
 1977SOL    HW1 6467   1.340   3.324   6.811
 1977SOL    HW2 6468   1.229   3.244   6.745
 1978SOL     OW 6469   0.345   3.397   6.898
 1978SOL    HW1 6470   0.332   3.349   6.816
 1978SOL    HW2 6471   0.440   3.406   6.906
 1979SOL     OW 6472   0.487   2.617   7.257
 1979SOL    HW1 6473   0.517   2.656   7.175
 1979SOL    HW2 6474   0.544   2.541   7.270
 1980SOL     OW 6475   1.604   2.643   7.270
 1980SOL    HW1 6476   1.518   2.684   7.264
 1980SOL    HW2 6477   1.656   2.685   7.201
 1981SOL     OW 6478   0.996   1.990   7.339
 1981SOL    HW1 6479   1.054   2.062   7.315
 1981SOL    HW2 6480   1.043   1.911   7.315
 1982SOL     OW 6481   0.497   1.903   7.334
 1982SOL    HW1 6482   0.454   1.847   7.270
 1982SOL    HW2 6483   0.439   1.979   7.342
 1983SOL     OW 6484   0.590   2.736   6.611
 1983SOL    HW1 6485   0.622   2.827   6.613
 1983SOL    HW2 6486   0.534   2.729   6.688
 1984SOL     OW 6487   1.353   2.717   6.626
 1984SOL    HW1 6488   1.282   2.710   6.562
 1984SOL    HW2 6489   1.401   2.635   6.617
 1985SOL     OW 6490   1.198   2.391   5.847
 1985SOL    HW1 6491   1.201   2.312   5.900
 1985SOL    HW2 6492   1.157   2.457   5.904
 1986SOL     OW 6493   0.301   2.050   6.828
 1986SOL    HW1 6494   0.262   2.083   6.909
 1986SOL    HW2 6495   0.284   1.956   6.829
 1987SOL     OW 6496   0.028   3.174   6.873
 1987SOL    HW1 6497   0.070   3.126   6.945
 1987SOL    HW2 6498   0.038   3.266   6.897
 1988SOL     OW 6499   0.723   2.492   6.641
 1988SOL    HW1 6500   0.800   2.476   6.586
 1988SOL    HW2 6501   0.696   2.581   6.620
 1989SOL     OW 6502   1.735   2.823   7.440
 1989SOL    HW1 6503   1.692   2.757   7.386
 1989SOL    HW2 6504   1.675   2.838   7.513
 1990SOL     OW 6505   0.315   1.931   6.204
 1990SOL    HW1 6506   0.288   2.020   6.229
 1990SOL    HW2 6507   0.314   1.882   6.286
 1991SOL     OW 6508   1.024   2.621   6.543
 1991SOL    HW1 6509   1.023   2.639   6.637
 1991SOL    HW2 6510   1.001   2.529   6.536
 1992SOL     OW 6511   0.983   3.429   7.305
 1992SOL    HW1 6512   0.967   3.472   7.221
 1992SOL    HW2 6513   1.025   3.347   7.282
 1993SOL     OW 6514   1.853   3.365   7.191
 1993SOL    HW1 6515   1.873   3.393   7.102
 1993SOL    HW2 6516   1.934   3.381   7.240
 1994SOL     OW 6517   0.347   2.797   7.403
 1994SOL    HW1 6518   0.418   2.828   7.459
 1994SOL    HW2 6519   0.387   2.728   7.349
 1995SOL     OW 6520   1.290   2.685   5.612
 1995SOL    HW1 6521   1.318   2.594   5.606
 1995SOL    HW2 6522   1.328   2.727   5.535
 1996SOL     OW 6523   1.067   3.200   6.441
 1996SOL    HW1 6524   1.069   3.128   6.378
 1996SOL    HW2 6525   1.127   3.265   6.405
 1997SOL     OW 6526   0.319   2.673   6.530
 1997SOL    HW1 6527   0.413   2.690   6.530
 1997SOL    HW2 6528   0.311   2.581   6.556
 1998SOL     OW 6529   0.327   2.388   6.572
 1998SOL    HW1 6530   0.290   2.302   6.557
 1998SOL    HW2 6531   0.407   2.390   6.519
 1999SOL     OW 6532   1.134   2.236   7.270
 1999SOL    HW1 6533   1.086   2.291   7.332
 1999SOL    HW2 6534   1.221   2.275   7.266
 2000SOL     OW 6535   1.160   2.063   7.056
 2000SOL    HW1 6536   1.150   2.126   7.128
 2000SOL    HW2 6537   1.202   2.113   6.986
 2001SOL     OW 6538   4.491   3.182   5.794
 2001SOL    HW1 6539   4.399   3.199   5.776
 2001SOL    HW2 6540   4.495   3.089   5.815
 2002SOL     OW 6541   0.101   3.634   6.527
 2002SOL    HW1 6542   0.061   3.587   6.453
 2002SOL    HW2 6543   0.189   3.656   6.496
 2003SOL     OW 6544   0.494   3.436   6.493
 2003SOL    HW1 6545   0.562   3.499   6.517
 2003SOL    HW2 6546   0.538   3.374   6.435
 2004SOL     OW 6547   0.979   2.653   6.811
 2004SOL    HW1 6548   1.038   2.631   6.884
 2004SOL    HW2 6549   0.895   2.614   6.835
 2005SOL     OW 6550   0.029   2.424   6.683
 2005SOL    HW1 6551   0.118   2.398   6.658
 2005SOL    HW2 6552   0.012   2.375   6.763
 2006SOL     OW 6553   0.179   2.387   7.303
 2006SOL    HW1 6554   0.261   2.356   7.263
 2006SOL    HW2 6555   0.158   2.467   7.254
 2007SOL     OW 6556   1.378   2.799   7.244
 2007SOL    HW1 6557   1.399   2.892   7.240
 2007SOL    HW2 6558   1.375   2.772   7.152
 2008SOL     OW 6559   0.818   2.432   5.948
 2008SOL    HW1 6560   0.821   2.357   5.889
 2008SOL    HW2 6561   0.744   2.484   5.918
 2009SOL     OW 6562   1.645   2.464   6.772
 2009SOL    HW1 6563   1.637   2.404   6.846
 2009SOL    HW2 6564   1.731   2.445   6.735
 2010SOL     OW 6565   0.275   3.424   7.326
 2010SOL    HW1 6566   0.214   3.475   7.380
 2010SOL    HW2 6567   0.256   3.333   7.350
 2011SOL     OW 6568   0.699   2.313   6.844
 2011SOL    HW1 6569   0.648   2.238   6.814
 2011SOL    HW2 6570   0.696   2.375   6.772
 2012SOL     OW 6571   0.926   3.541   7.055
 2012SOL    HW1 6572   0.900   3.503   6.970
 2012SOL    HW2 6573   0.918   3.636   7.042
 2013SOL     OW 6574   0.472   2.352   5.766
 2013SOL    HW1 6575   0.532   2.421   5.793
 2013SOL    HW2 6576   0.388   2.396   5.751
 2014SOL     OW 6577   0.162   3.003   7.044
 2014SOL    HW1 6578   0.144   2.960   7.128
 2014SOL    HW2 6579   0.168   2.932   6.981
 2015SOL     OW 6580   1.324   2.910   6.809
 2015SOL    HW1 6581   1.341   2.841   6.745
 2015SOL    HW2 6582   1.255   2.963   6.768
 2016SOL     OW 6583   1.301   2.725   5.889
 2016SOL    HW1 6584   1.227   2.695   5.942
 2016SOL    HW2 6585   1.276   2.704   5.799
 2017SOL     OW 6586   1.776   3.604   6.740
 2017SOL    HW1 6587   1.835   3.629   6.669
 2017SOL    HW2 6588   1.749   3.515   6.718
 2018SOL     OW 6589   1.240   3.595   6.695
 2018SOL    HW1 6590   1.323   3.617   6.652
 2018SOL    HW2 6591   1.248   3.502   6.715
 2019SOL     OW 6592   0.068   3.047   6.636
 2019SOL    HW1 6593   0.059   3.076   6.727
 2019SOL    HW2 6594   0.034   3.119   6.583
 2020SOL     OW 6595   0.679   3.530   7.321
 2020SOL    HW1 6596   0.620   3.605   7.312
 2020SOL    HW2 6597   0.745   3.543   7.252
 2021SOL     OW 6598   1.392   3.430   6.073
 2021SOL    HW1 6599   1.450   3.464   6.006
 2021SOL    HW2 6600   1.342   3.506   6.102
 2022SOL     OW 6601   0.117   3.669   7.434
 2022SOL    HW1 6602   0.076   3.597   7.483
 2022SOL    HW2 6603   0.181   3.706   7.495
 2023SOL     OW 6604   1.257   2.798   6.248
 2023SOL    HW1 6605   1.325   2.739   6.279
 2023SOL    HW2 6606   1.304   2.865   6.198
 2024SOL     OW 6607   0.810   3.137   7.013
 2024SOL    HW1 6608   0.782   3.177   7.096
 2024SOL    HW2 6609   0.739   3.157   6.952
 2025SOL     OW 6610   0.672   3.484   5.741
 2025SOL    HW1 6611   0.683   3.497   5.647
 2025SOL    HW2 6612   0.617   3.407   5.749
 2026SOL     OW 6613   1.623   3.589   6.977
 2026SOL    HW1 6614   1.674   3.595   6.897
 2026SOL    HW2 6615   1.609   3.680   7.004
 2027SOL     OW 6616   1.841   2.008   6.545
 2027SOL    HW1 6617   1.887   1.945   6.489
 2027SOL    HW2 6618   1.776   2.048   6.487
 2028SOL     OW 6619   0.262   2.181   6.303
 2028SOL    HW1 6620   0.179   2.220   6.277
 2028SOL    HW2 6621   0.253   2.168   6.398
 2029SOL     OW 6622   1.209   3.466   5.618
 2029SOL    HW1 6623   1.197   3.375   5.645
 2029SOL    HW2 6624   1.143   3.479   5.550
 2030SOL     OW 6625   0.826   2.869   6.959
 2030SOL    HW1 6626   0.869   2.864   6.874
 2030SOL    HW2 6627   0.823   2.963   6.979
 2031SOL     OW 6628   0.915   2.772   5.874
 2031SOL    HW1 6629   0.977   2.805   5.809
 2031SOL    HW2 6630   0.963   2.705   5.922
 2032SOL     OW 6631   1.490   3.489   5.629
 2032SOL    HW1 6632   1.396   3.481   5.615
 2032SOL    HW2 6633   1.527   3.495   5.541
 2033SOL     OW 6634   0.373   3.172   7.076
 2033SOL    HW1 6635   0.355   3.250   7.025
 2033SOL    HW2 6636   0.299   3.114   7.059
 2034SOL     OW 6637   1.610   3.148   6.870
 2034SOL    HW1 6638   1.668   3.133   6.944
 2034SOL    HW2 6639   1.549   3.216   6.899
 2035SOL     OW 6640   1.051   2.974   6.293
 2035SOL    HW1 6641   0.980   2.922   6.332
 2035SOL    HW2 6642   1.116   2.910   6.266
 2036SOL     OW 6643   1.025   2.102   6.552
 2036SOL    HW1 6644   1.022   2.055   6.469
 2036SOL    HW2 6645   1.019   2.034   6.619
 2037SOL     OW 6646   0.606   3.351   6.067
 2037SOL    HW1 6647   0.650   3.302   5.998
 2037SOL    HW2 6648   0.527   3.386   6.026
 2038SOL     OW 6649   1.729   2.254   6.969
 2038SOL    HW1 6650   1.800   2.318   6.968
 2038SOL    HW2 6651   1.758   2.184   6.911
 2039SOL     OW 6652   0.252   3.205   5.861
 2039SOL    HW1 6653   0.158   3.202   5.848
 2039SOL    HW2 6654   0.263   3.237   5.950
 2040SOL     OW 6655   0.116   2.869   7.279
 2040SOL    HW1 6656   0.052   2.913   7.335
 2040SOL    HW2 6657   0.194   2.861   7.333
 2041SOL     OW 6658   0.676   2.060   7.085
 2041SOL    HW1 6659   0.759   2.038   7.045
 2041SOL    HW2 6660   0.698   2.090   7.173
 2042SOL     OW 6661   0.072   2.187   5.616
 2042SOL    HW1 6662   4.479   2.201   5.631
 2042SOL    HW2 6663   0.103   2.269   5.577
 2043SOL     OW 6664   1.428   2.720   6.986
 2043SOL    HW1 6665   1.379   2.781   6.930
 2043SOL    HW2 6666   1.517   2.721   6.951
 2044SOL     OW 6667   0.087   2.036   5.889
 2044SOL    HW1 6668   0.080   2.111   5.829
 2044SOL    HW2 6669   0.162   1.986   5.857
 2045SOL     OW 6670   1.178   3.199   5.703
 2045SOL    HW1 6671   1.086   3.171   5.704
 2045SOL    HW2 6672   1.204   3.199   5.795
 2046SOL     OW 6673   0.626   2.693   7.020
 2046SOL    HW1 6674   0.683   2.769   7.006
 2046SOL    HW2 6675   0.686   2.619   7.025
 2047SOL     OW 6676   1.483   3.641   6.566
 2047SOL    HW1 6677   1.505   3.705   6.498
 2047SOL    HW2 6678   1.566   3.619   6.607
 2048SOL     OW 6679   0.711   2.426   7.290
 2048SOL    HW1 6680   0.759   2.486   7.347
 2048SOL    HW2 6681   0.736   2.339   7.320
 2049SOL     OW 6682   1.473   3.060   7.217
 2049SOL    HW1 6683   1.460   3.074   7.311
 2049SOL    HW2 6684   1.566   3.076   7.202
 2050SOL     OW 6685   0.378   3.607   7.151
 2050SOL    HW1 6686   0.293   3.648   7.133
 2050SOL    HW2 6687   0.356   3.528   7.201
 2051SOL     OW 6688   1.667   2.741   6.842
 2051SOL    HW1 6689   1.661   2.656   6.800
 2051SOL    HW2 6690   1.654   2.805   6.771
 2052SOL     OW 6691   1.207   2.184   6.038
 2052SOL    HW1 6692   1.278   2.120   6.030
 2052SOL    HW2 6693   1.228   2.232   6.118
 2053SOL     OW 6694   0.589   2.597   6.256
 2053SOL    HW1 6695   0.627   2.684   6.242
 2053SOL    HW2 6696   0.522   2.590   6.188
 2054SOL     OW 6697   1.761   2.227   7.246
 2054SOL    HW1 6698   1.755   2.238   7.152
 2054SOL    HW2 6699   1.688   2.169   7.268
 2055SOL     OW 6700   1.745   2.796   7.098
 2055SOL    HW1 6701   1.738   2.891   7.109
 2055SOL    HW2 6702   1.730   2.782   7.004
 2056SOL     OW 6703   0.867   3.228   5.625
 2056SOL    HW1 6704   0.826   3.254   5.708
 2056SOL    HW2 6705   0.879   3.310   5.578
 2057SOL     OW 6706   0.662   3.650   6.528
 2057SOL    HW1 6707   0.643   3.741   6.506
 2057SOL    HW2 6708   0.758   3.643   6.520
 2058SOL     OW 6709   0.868   2.831   6.439
 2058SOL    HW1 6710   0.917   2.758   6.476
 2058SOL    HW2 6711   0.832   2.877   6.516
 2059SOL     OW 6712   1.080   2.850   5.674
 2059SOL    HW1 6713   1.057   2.902   5.597
 2059SOL    HW2 6714   1.155   2.797   5.646
 2060SOL     OW 6715   1.854   3.413   6.429
 2060SOL    HW1 6716   1.772   3.401   6.381
 2060SOL    HW2 6717   1.852   3.345   6.496
 2061SOL     OW 6718   0.232   3.166   7.446
 2061SOL    HW1 6719   0.152   3.117   7.427
 2061SOL    HW2 6720   0.232   3.177   7.541
 2062SOL     OW 6721   0.115   3.094   6.254
 2062SOL    HW1 6722   0.131   3.052   6.339
 2062SOL    HW2 6723   0.172   3.046   6.193
 2063SOL     OW 6724   0.684   3.267   7.216
 2063SOL    HW1 6725   0.604   3.223   7.245
 2063SOL    HW2 6726   0.678   3.355   7.254
 2064SOL     OW 6727   1.820   2.052   6.816
 2064SOL    HW1 6728   1.834   1.963   6.846
 2064SOL    HW2 6729   1.829   2.047   6.721
 2065SOL     OW 6730   0.435   2.295   6.111
 2065SOL    HW1 6731   0.460   2.221   6.056
 2065SOL    HW2 6732   0.384   2.256   6.182
 2066SOL     OW 6733   1.695   3.353   6.683
 2066SOL    HW1 6734   1.617   3.330   6.633
 2066SOL    HW2 6735   1.703   3.283   6.748
 2067SOL     OW 6736   0.295   2.349   6.836
 2067SOL    HW1 6737   0.369   2.308   6.879
 2067SOL    HW2 6738   0.325   2.366   6.746
 2068SOL     OW 6739   0.830   3.440   6.262
 2068SOL    HW1 6740   0.810   3.498   6.189
 2068SOL    HW2 6741   0.754   3.381   6.266
 2069SOL     OW 6742   1.436   2.091   6.705
 2069SOL    HW1 6743   1.458   2.008   6.747
 2069SOL    HW2 6744   1.383   2.137   6.770
 2070SOL     OW 6745   1.008   1.880   6.725
 2070SOL    HW1 6746   0.953   1.812   6.685
 2070SOL    HW2 6747   1.096   1.841   6.728
 2071SOL     OW 6748   0.774   3.195   5.902
 2071SOL    HW1 6749   0.744   3.104   5.910
 2071SOL    HW2 6750   0.855   3.198   5.954
 2072SOL     OW 6751   0.621   3.417   6.872
 2072SOL    HW1 6752   0.622   3.499   6.922
 2072SOL    HW2 6753   0.709   3.411   6.834
 2073SOL     OW 6754   1.292   1.935   5.715
 2073SOL    HW1 6755   1.348   1.874   5.666
 2073SOL    HW2 6756   1.228   1.878   5.757
 2074SOL     OW 6757   1.271   2.320   6.260
 2074SOL    HW1 6758   1.230   2.406   6.270
 2074SOL    HW2 6759   1.283   2.288   6.349
 2075SOL     OW 6760   0.040   2.912   5.877
 2075SOL    HW1 6761   0.132   2.890   5.865
 2075SOL    HW2 6762   0.021   2.886   5.967
 2076SOL     OW 6763   0.888   3.519   5.926
 2076SOL    HW1 6764   0.814   3.501   5.867
 2076SOL    HW2 6765   0.858   3.592   5.980
 2077SOL     OW 6766   0.246   2.492   7.570
 2077SOL    HW1 6767   0.172   2.467   7.626
 2077SOL    HW2 6768   0.216   2.475   7.481
 2078SOL     OW 6769   0.213   2.136   8.439
 2078SOL    HW1 6770   0.249   2.110   8.523
 2078SOL    HW2 6771   0.138   2.079   8.426
 2079SOL     OW 6772   0.007   2.258   8.088
 2079SOL    HW1 6773   4.425   2.291   8.126
 2079SOL    HW2 6774   4.481   2.178   8.042
 2080SOL     OW 6775   0.569   3.154   8.627
 2080SOL    HW1 6776   0.482   3.159   8.588
 2080SOL    HW2 6777   0.584   3.242   8.662
 2081SOL     OW 6778   1.565   3.375   8.156
 2081SOL    HW1 6779   1.522   3.353   8.239
 2081SOL    HW2 6780   1.494   3.378   8.092
 2082SOL     OW 6781   1.131   2.560   8.146
 2082SOL    HW1 6782   1.180   2.642   8.133
 2082SOL    HW2 6783   1.084   2.573   8.229
 2083SOL     OW 6784   1.773   2.466   7.675
 2083SOL    HW1 6785   1.748   2.459   7.583
 2083SOL    HW2 6786   1.739   2.387   7.715
 2084SOL     OW 6787   0.751   3.002   8.491
 2084SOL    HW1 6788   0.683   3.038   8.549
 2084SOL    HW2 6789   0.788   3.078   8.447
 2085SOL     OW 6790   0.870   2.629   9.269
 2085SOL    HW1 6791   0.856   2.699   9.333
 2085SOL    HW2 6792   0.893   2.674   9.188
 2086SOL     OW 6793   0.685   2.863   8.094
 2086SOL    HW1 6794   0.751   2.853   8.162
 2086SOL    HW2 6795   0.616   2.915   8.135
 2087SOL     OW 6796   0.713   3.011   9.264
 2087SOL    HW1 6797   0.760   3.089   9.292
 2087SOL    HW2 6798   0.632   3.044   9.226
 2088SOL     OW 6799   0.334   3.281   8.517
 2088SOL    HW1 6800   0.253   3.261   8.470
 2088SOL    HW2 6801   0.384   3.335   8.455
 2089SOL     OW 6802   1.460   3.362   8.805
 2089SOL    HW1 6803   1.513   3.442   8.815
 2089SOL    HW2 6804   1.394   3.369   8.874
 2090SOL     OW 6805   0.447   2.266   8.935
 2090SOL    HW1 6806   0.526   2.213   8.941
 2090SOL    HW2 6807   0.375   2.203   8.943
 2091SOL     OW 6808   1.608   2.306   8.191
 2091SOL    HW1 6809   1.534   2.326   8.133
 2091SOL    HW2 6810   1.622   2.386   8.241
 2092SOL     OW 6811   0.246   3.553   7.923
 2092SOL    HW1 6812   0.230   3.638   7.963
 2092SOL    HW2 6813   0.317   3.569   7.861
 2093SOL     OW 6814   1.137   3.204   9.141
 2093SOL    HW1 6815   1.177   3.198   9.228
 2093SOL    HW2 6816   1.085   3.124   9.134
 2094SOL     OW 6817   0.254   3.288   7.974
 2094SOL    HW1 6818   0.242   3.383   7.977
 2094SOL    HW2 6819   0.193   3.254   8.040
 2095SOL     OW 6820   0.252   2.945   8.334
 2095SOL    HW1 6821   0.266   2.853   8.358
 2095SOL    HW2 6822   0.190   2.977   8.399
 2096SOL     OW 6823   0.610   3.653   8.878
 2096SOL    HW1 6824   0.527   3.635   8.922
 2096SOL    HW2 6825   0.631   3.743   8.903
 2097SOL     OW 6826   0.575   2.851   7.589
 2097SOL    HW1 6827   0.624   2.892   7.518
 2097SOL    HW2 6828   0.619   2.881   7.669
 2098SOL     OW 6829   1.591   1.987   8.913
 2098SOL    HW1 6830   1.615   2.066   8.864
 2098SOL    HW2 6831   1.577   2.017   9.002
 2099SOL     OW 6832   0.136   2.511   8.021
 2099SOL    HW1 6833   0.090   2.429   8.042
 2099SOL    HW2 6834   0.107   2.573   8.087
 2100SOL     OW 6835   1.843   3.619   7.781
 2100SOL    HW1 6836   1.909   3.592   7.844
 2100SOL    HW2 6837   1.864   3.710   7.761
 2101SOL     OW 6838   0.032   3.465   7.594
 2101SOL    HW1 6839   0.019   3.371   7.588
 2101SOL    HW2 6840   0.034   3.483   7.688
 2102SOL     OW 6841   1.692   2.781   8.091
 2102SOL    HW1 6842   1.770   2.734   8.065
 2102SOL    HW2 6843   1.667   2.831   8.014
 2103SOL     OW 6844   1.647   2.967   7.877
 2103SOL    HW1 6845   1.733   2.970   7.836
 2103SOL    HW2 6846   1.652   3.029   7.949
 2104SOL     OW 6847   0.111   2.628   9.025
 2104SOL    HW1 6848   0.199   2.621   8.988
 2104SOL    HW2 6849   0.104   2.720   9.051
 2105SOL     OW 6850   0.615   3.250   8.184
 2105SOL    HW1 6851   0.568   3.167   8.194
 2105SOL    HW2 6852   0.599   3.276   8.094
 2106SOL     OW 6853   1.288   3.100   8.870
 2106SOL    HW1 6854   1.319   3.031   8.810
 2106SOL    HW2 6855   1.346   3.094   8.946
 2107SOL     OW 6856   0.819   1.863   7.959
 2107SOL    HW1 6857   0.859   1.948   7.937
 2107SOL    HW2 6858   0.726   1.882   7.966
 2108SOL     OW 6859   0.177   2.800   8.727
 2108SOL    HW1 6860   0.269   2.782   8.708
 2108SOL    HW2 6861   0.133   2.794   8.642
 2109SOL     OW 6862   1.531   2.858   7.647
 2109SOL    HW1 6863   1.461   2.801   7.679
 2109SOL    HW2 6864   1.573   2.892   7.727
 2110SOL     OW 6865   1.186   3.671   9.072
 2110SOL    HW1 6866   1.193   3.730   8.997
 2110SOL    HW2 6867   1.202   3.584   9.035
 2111SOL     OW 6868   0.333   2.119   9.250
 2111SOL    HW1 6869   0.379   2.193   9.290
 2111SOL    HW2 6870   0.244   2.124   9.285
 2112SOL     OW 6871   1.468   3.281   8.398
 2112SOL    HW1 6872   1.400   3.297   8.463
 2112SOL    HW2 6873   1.454   3.190   8.371
 2113SOL     OW 6874   1.657   3.607   8.026
 2113SOL    HW1 6875   1.637   3.576   7.937
 2113SOL    HW2 6876   1.633   3.533   8.082
 2114SOL     OW 6877   0.598   2.580   7.717
 2114SOL    HW1 6878   0.599   2.663   7.668
 2114SOL    HW2 6879   0.532   2.593   7.785
 2115SOL     OW 6880   1.278   2.220   8.381
 2115SOL    HW1 6881   1.189   2.186   8.390
 2115SOL    HW2 6882   1.331   2.166   8.440
 2116SOL     OW 6883   1.579   3.534   7.758
 2116SOL    HW1 6884   1.670   3.563   7.750
 2116SOL    HW2 6885   1.552   3.517   7.668
 2117SOL     OW 6886   0.793   2.478   8.898
 2117SOL    HW1 6887   0.766   2.453   8.986
 2117SOL    HW2 6888   0.753   2.412   8.841
 2118SOL     OW 6889   1.392   2.336   9.126
 2118SOL    HW1 6890   1.397   2.380   9.211
 2118SOL    HW2 6891   1.453   2.263   9.133
 2119SOL     OW 6892   0.952   2.748   9.032
 2119SOL    HW1 6893   1.007   2.679   8.995
 2119SOL    HW2 6894   0.905   2.784   8.957
 2120SOL     OW 6895   0.992   2.276   8.685
 2120SOL    HW1 6896   0.905   2.294   8.720
 2120SOL    HW2 6897   0.976   2.229   8.603
 2121SOL     OW 6898   1.052   2.561   7.873
 2121SOL    HW1 6899   1.069   2.554   7.967
 2121SOL    HW2 6900   0.970   2.514   7.860
 2122SOL     OW 6901   0.093   2.692   8.234
 2122SOL    HW1 6902   0.179   2.679   8.273
 2122SOL    HW2 6903   0.034   2.701   8.309
 2123SOL     OW 6904   0.123   3.719   9.026
 2123SOL    HW1 6905   0.116   3.696   9.118
 2123SOL    HW2 6906   0.044   3.682   8.986
 2124SOL     OW 6907   0.896   2.212   7.643
 2124SOL    HW1 6908   0.936   2.274   7.582
 2124SOL    HW2 6909   0.910   2.126   7.601
 2125SOL     OW 6910   1.712   2.446   9.279
 2125SOL    HW1 6911   1.672   2.517   9.230
 2125SOL    HW2 6912   1.725   2.376   9.214
 2126SOL     OW 6913   1.379   3.004   7.989
 2126SOL    HW1 6914   1.457   2.992   7.936
 2126SOL    HW2 6915   1.325   3.066   7.939
 2127SOL     OW 6916   0.553   2.042   8.342
 2127SOL    HW1 6917   0.555   2.073   8.432
 2127SOL    HW2 6918   0.553   2.121   8.289
 2128SOL     OW 6919   1.003   3.306   7.918
 2128SOL    HW1 6920   0.969   3.380   7.869
 2128SOL    HW2 6921   0.981   3.326   8.010
 2129SOL     OW 6922   0.357   3.675   8.308
 2129SOL    HW1 6923   0.399   3.589   8.319
 2129SOL    HW2 6924   0.427   3.738   8.326
 2130SOL     OW 6925   1.801   2.917   8.316
 2130SOL    HW1 6926   1.748   2.895   8.239
 2130SOL    HW2 6927   1.738   2.923   8.388
 2131SOL     OW 6928   1.228   3.401   8.961
 2131SOL    HW1 6929   1.215   3.329   9.022
 2131SOL    HW2 6930   1.162   3.387   8.893
 2132SOL     OW 6931   0.313   2.815   7.705
 2132SOL    HW1 6932   0.396   2.838   7.664
 2132SOL    HW2 6933   0.300   2.723   7.681
 2133SOL     OW 6934   1.480   2.608   8.173
 2133SOL    HW1 6935   1.473   2.565   8.259
 2133SOL    HW2 6936   1.559   2.662   8.180
 2134SOL     OW 6937   0.470   3.126   9.183
 2134SOL    HW1 6938   0.443   3.133   9.091
 2134SOL    HW2 6939   0.388   3.128   9.232
 2135SOL     OW 6940   1.123   3.640   7.678
 2135SOL    HW1 6941   1.048   3.600   7.722
 2135SOL    HW2 6942   1.147   3.577   7.609
 2136SOL     OW 6943   0.198   2.138   8.932
 2136SOL    HW1 6944   0.142   2.215   8.940
 2136SOL    HW2 6945   0.181   2.088   9.012
 2137SOL     OW 6946   1.629   3.243   7.537
 2137SOL    HW1 6947   1.587   3.328   7.522
 2137SOL    HW2 6948   1.561   3.179   7.517
 2138SOL     OW 6949   0.469   3.605   7.761
 2138SOL    HW1 6950   0.513   3.658   7.827
 2138SOL    HW2 6951   0.540   3.567   7.709
 2139SOL     OW 6952   1.401   1.969   7.884
 2139SOL    HW1 6953   1.392   1.944   7.792
 2139SOL    HW2 6954   1.495   1.978   7.898
 2140SOL     OW 6955   0.260   3.655   8.675
 2140SOL    HW1 6956   0.303   3.578   8.711
 2140SOL    HW2 6957   0.221   3.623   8.593
 2141SOL     OW 6958   0.938   3.561   8.345
 2141SOL    HW1 6959   1.016   3.510   8.368
 2141SOL    HW2 6960   0.896   3.511   8.276
 2142SOL     OW 6961   0.396   2.556   7.919
 2142SOL    HW1 6962   0.418   2.463   7.932
 2142SOL    HW2 6963   0.304   2.562   7.945
 2143SOL     OW 6964   1.529   2.083   9.173
 2143SOL    HW1 6965   1.537   2.104   9.266
 2143SOL    HW2 6966   1.461   2.015   9.170
 2144SOL     OW 6967   0.640   1.984   7.549
 2144SOL    HW1 6968   0.702   1.914   7.568
 2144SOL    HW2 6969   0.589   1.952   7.475
 2145SOL     OW 6970   0.765   2.141   9.203
 2145SOL    HW1 6971   0.844   2.086   9.201
 2145SOL    HW2 6972   0.718   2.112   9.281
 2146SOL     OW 6973   0.877   3.385   8.642
 2146SOL    HW1 6974   0.860   3.348   8.555
 2146SOL    HW2 6975   0.946   3.330   8.678
 2147SOL     OW 6976   1.338   2.451   8.881
 2147SOL    HW1 6977   1.370   2.419   8.965
 2147SOL    HW2 6978   1.377   2.539   8.872
 2148SOL     OW 6979   0.817   3.255   8.391
 2148SOL    HW1 6980   0.901   3.243   8.347
 2148SOL    HW2 6981   0.753   3.258   8.320
 2149SOL     OW 6982   0.928   2.371   8.350
 2149SOL    HW1 6983   0.904   2.363   8.258
 2149SOL    HW2 6984   0.959   2.284   8.375
 2150SOL     OW 6985   0.555   1.924   7.946
 2150SOL    HW1 6986   0.475   1.922   7.998
 2150SOL    HW2 6987   0.546   2.002   7.891
 2151SOL     OW 6988   1.428   3.062   7.489
 2151SOL    HW1 6989   1.458   2.986   7.539
 2151SOL    HW2 6990   1.343   3.083   7.525
 2152SOL     OW 6991   0.296   1.907   7.625
 2152SOL    HW1 6992   0.359   1.973   7.598
 2152SOL    HW2 6993   0.348   1.841   7.671
 2153SOL     OW 6994   0.940   2.111   7.906
 2153SOL    HW1 6995   0.915   2.151   7.823
 2153SOL    HW2 6996   1.035   2.125   7.912
 2154SOL     OW 6997   1.080   2.545   8.906
 2154SOL    HW1 6998   1.014   2.475   8.910
 2154SOL    HW2 6999   1.164   2.498   8.900
 2155SOL     OW 7000   1.222   3.432   8.242
 2155SOL    HW1 7001   1.237   3.499   8.174
 2155SOL    HW2 7002   1.291   3.449   8.307
 2156SOL     OW 7003   0.468   3.014   8.181
 2156SOL    HW1 7004   0.399   2.994   8.245
 2156SOL    HW2 7005   0.427   2.999   8.096
 2157SOL     OW 7006   1.267   3.655   8.058
 2157SOL    HW1 7007   1.314   3.716   8.002
 2157SOL    HW2 7008   1.199   3.708   8.100
 2158SOL     OW 7009   1.022   2.400   7.473
 2158SOL    HW1 7010   0.979   2.483   7.453
 2158SOL    HW2 7011   1.088   2.422   7.539
 2159SOL     OW 7012   0.082   2.384   8.859
 2159SOL    HW1 7013   0.144   2.377   8.787
 2159SOL    HW2 7014   0.067   2.478   8.870
 2160SOL     OW 7015   0.559   2.090   8.616
 2160SOL    HW1 7016   0.604   2.014   8.653
 2160SOL    HW2 7017   0.468   2.079   8.642
 2161SOL     OW 7018   0.867   2.321   8.087
 2161SOL    HW1 7019   0.822   2.375   8.023
 2161SOL    HW2 7020   0.889   2.241   8.040
 2162SOL     OW 7021   1.016   1.916   8.198
 2162SOL    HW1 7022   0.958   1.909   8.122
 2162SOL    HW2 7023   0.993   1.841   8.253
 2163SOL     OW 7024   1.438   3.024   8.304
 2163SOL    HW1 7025   1.368   2.959   8.305
 2163SOL    HW2 7026   1.461   3.033   8.212
 2164SOL     OW 7027   1.464   2.470   8.422
 2164SOL    HW1 7028   1.412   2.390   8.423
 2164SOL    HW2 7029   1.522   2.462   8.498
 2165SOL     OW 7030   1.845   2.675   7.834
 2165SOL    HW1 7031   1.901   2.623   7.892
 2165SOL    HW2 7032   1.817   2.614   7.766
 2166SOL     OW 7033   0.491   3.282   7.605
 2166SOL    HW1 7034   0.413   3.254   7.652
 2166SOL    HW2 7035   0.479   3.248   7.516
 2167SOL     OW 7036   1.672   3.127   8.091
 2167SOL    HW1 7037   1.767   3.129   8.105
 2167SOL    HW2 7038   1.643   3.215   8.113
 2168SOL     OW 7039   1.394   2.435   7.519
 2168SOL    HW1 7040   1.333   2.414   7.590
 2168SOL    HW2 7041   1.479   2.404   7.550
 2169SOL     OW 7042   0.524   2.122   7.761
 2169SOL    HW1 7043   0.574   2.077   7.693
 2169SOL    HW2 7044   0.503   2.207   7.724
 2170SOL     OW 7045   1.750   3.103   9.016
 2170SOL    HW1 7046   1.837   3.063   9.013
 2170SOL    HW2 7047   1.766   3.193   9.045
 2171SOL     OW 7048   1.056   3.216   8.781
 2171SOL    HW1 7049   0.981   3.185   8.832
 2171SOL    HW2 7050   1.132   3.174   8.822
 2172SOL     OW 7051   1.609   3.489   9.104
 2172SOL    HW1 7052   1.602   3.522   9.015
 2172SOL    HW2 7053   1.691   3.440   9.105
 2173SOL     OW 7054   1.133   3.069   8.552
 2173SOL    HW1 7055   1.072   3.106   8.616
 2173SOL    HW2 7056   1.101   3.101   8.468
 2174SOL     OW 7057   1.627   2.960   8.524
 2174SOL    HW1 7058   1.621   3.022   8.596
 2174SOL    HW2 7059   1.549   2.977   8.471
 2175SOL     OW 7060   0.917   1.958   8.842
 2175SOL    HW1 7061   0.940   1.939   8.751
 2175SOL    HW2 7062   0.997   1.997   8.879
 2176SOL     OW 7063   0.984   2.977   9.171
 2176SOL    HW1 7064   0.893   2.993   9.194
 2176SOL    HW2 7065   0.982   2.898   9.116
 2177SOL     OW 7066   0.709   2.924   7.820
 2177SOL    HW1 7067   0.696   2.906   7.913
 2177SOL    HW2 7068   0.785   2.871   7.795
 2178SOL     OW 7069   0.432   2.692   8.693
 2178SOL    HW1 7070   0.502   2.704   8.757
 2178SOL    HW2 7071   0.376   2.624   8.733
 2179SOL     OW 7072   1.264   2.238   8.726
 2179SOL    HW1 7073   1.298   2.315   8.771
 2179SOL    HW2 7074   1.174   2.260   8.704
 2180SOL     OW 7075   0.064   3.437   8.793
 2180SOL    HW1 7076   0.037   3.528   8.777
 2180SOL    HW2 7077   0.159   3.441   8.798
 2181SOL     OW 7078   0.340   2.973   7.941
 2181SOL    HW1 7079   0.351   3.047   7.881
 2181SOL    HW2 7080   0.340   2.896   7.884
 2182SOL     OW 7081   0.559   2.392   8.302
 2182SOL    HW1 7082   0.572   2.452   8.229
 2182SOL    HW2 7083   0.622   2.421   8.368
 2183SOL     OW 7084   1.248   3.211   7.838
 2183SOL    HW1 7085   1.304   3.282   7.869
 2183SOL    HW2 7086   1.161   3.232   7.871
 2184SOL     OW 7087   1.285   3.321   8.595
 2184SOL    HW1 7088   1.340   3.324   8.673
 2184SOL    HW2 7089   1.229   3.244   8.608
 2185SOL     OW 7090   1.579   2.482   7.929
 2185SOL    HW1 7091   1.530   2.534   7.993
 2185SOL    HW2 7092   1.626   2.547   7.877
 2186SOL     OW 7093   0.345   3.397   8.760
 2186SOL    HW1 7094   0.332   3.349   8.678
 2186SOL    HW2 7095   0.440   3.406   8.768
 2187SOL     OW 7096   0.487   2.617   9.119
 2187SOL    HW1 7097   0.517   2.656   9.037
 2187SOL    HW2 7098   0.544   2.541   9.132
 2188SOL     OW 7099   1.604   2.645   9.133
 2188SOL    HW1 7100   1.517   2.686   9.125
 2188SOL    HW2 7101   1.655   2.685   9.063
 2189SOL     OW 7102   0.996   1.990   9.201
 2189SOL    HW1 7103   1.054   2.062   9.177
 2189SOL    HW2 7104   1.043   1.911   9.176
 2190SOL     OW 7105   0.497   1.904   9.196
 2190SOL    HW1 7106   0.454   1.847   9.132
 2190SOL    HW2 7107   0.439   1.979   9.204
 2191SOL     OW 7108   0.591   2.736   8.473
 2191SOL    HW1 7109   0.622   2.827   8.475
 2191SOL    HW2 7110   0.534   2.728   8.550
 2192SOL     OW 7111   1.354   2.721   8.474
 2192SOL    HW1 7112   1.269   2.709   8.431
 2192SOL    HW2 7113   1.397   2.636   8.467
 2193SOL     OW 7114   1.202   2.390   7.712
 2193SOL    HW1 7115   1.211   2.312   7.767
 2193SOL    HW2 7116   1.159   2.454   7.769
 2194SOL     OW 7117   0.301   2.050   8.690
 2194SOL    HW1 7118   0.262   2.083   8.771
 2194SOL    HW2 7119   0.284   1.956   8.691
 2195SOL     OW 7120   0.027   3.174   8.735
 2195SOL    HW1 7121   0.070   3.126   8.806
 2195SOL    HW2 7122   0.038   3.266   8.758
 2196SOL     OW 7123   0.723   2.492   8.504
 2196SOL    HW1 7124   0.800   2.475   8.448
 2196SOL    HW2 7125   0.696   2.581   8.482
 2197SOL     OW 7126   1.736   2.823   9.303
 2197SOL    HW1 7127   1.692   2.758   9.248
 2197SOL    HW2 7128   1.676   2.838   9.376
 2198SOL     OW 7129   0.314   1.931   8.066
 2198SOL    HW1 7130   0.288   2.019   8.091
 2198SOL    HW2 7131   0.314   1.882   8.148
 2199SOL     OW 7132   1.617   2.237   7.812
 2199SOL    HW1 7133   1.648   2.174   7.878
 2199SOL    HW2 7134   1.596   2.315   7.863
 2200SOL     OW 7135   1.028   2.621   8.407
 2200SOL    HW1 7136   1.023   2.638   8.501
 2200SOL    HW2 7137   1.002   2.529   8.398
 2201SOL     OW 7138   0.983   3.429   9.167
 2201SOL    HW1 7139   0.967   3.472   9.083
 2201SOL    HW2 7140   1.025   3.347   9.144
 2202SOL     OW 7141   1.853   3.365   9.053
 2202SOL    HW1 7142   1.873   3.392   8.963
 2202SOL    HW2 7143   1.934   3.382   9.101
 2203SOL     OW 7144   0.347   2.797   9.265
 2203SOL    HW1 7145   0.418   2.828   9.321
 2203SOL    HW2 7146   0.387   2.728   9.211
 2204SOL     OW 7147   1.527   2.134   7.574
 2204SOL    HW1 7148   1.463   2.069   7.602
 2204SOL    HW2 7149   1.562   2.170   7.656
 2205SOL     OW 7150   1.289   2.687   7.478
 2205SOL    HW1 7151   1.332   2.602   7.482
 2205SOL    HW2 7152   1.321   2.726   7.396
 2206SOL     OW 7153   1.067   3.199   8.303
 2206SOL    HW1 7154   1.071   3.127   8.240
 2206SOL    HW2 7155   1.127   3.265   8.268
 2207SOL     OW 7156   0.319   2.673   8.392
 2207SOL    HW1 7157   0.413   2.690   8.391
 2207SOL    HW2 7158   0.311   2.581   8.418
 2208SOL     OW 7159   0.327   2.388   8.434
 2208SOL    HW1 7160   0.289   2.302   8.419
 2208SOL    HW2 7161   0.406   2.390   8.381
 2209SOL     OW 7162   1.133   2.237   9.132
 2209SOL    HW1 7163   1.086   2.291   9.194
 2209SOL    HW2 7164   1.221   2.275   9.128
 2210SOL     OW 7165   1.160   2.063   8.919
 2210SOL    HW1 7166   1.149   2.126   8.990
 2210SOL    HW2 7167   1.203   2.112   8.849
 2211SOL     OW 7168   4.491   3.182   7.657
 2211SOL    HW1 7169   4.399   3.199   7.638
 2211SOL    HW2 7170   4.495   3.089   7.677
 2212SOL     OW 7171   0.101   3.634   8.388
 2212SOL    HW1 7172   0.061   3.587   8.315
 2212SOL    HW2 7173   0.188   3.656   8.358
 2213SOL     OW 7174   0.494   3.436   8.355
 2213SOL    HW1 7175   0.563   3.499   8.379
 2213SOL    HW2 7176   0.538   3.374   8.297
 2214SOL     OW 7177   0.979   2.652   8.673
 2214SOL    HW1 7178   1.037   2.631   8.746
 2214SOL    HW2 7179   0.895   2.614   8.697
 2215SOL     OW 7180   0.029   2.424   8.545
 2215SOL    HW1 7181   0.118   2.398   8.519
 2215SOL    HW2 7182   0.012   2.375   8.626
 2216SOL     OW 7183   0.179   2.387   9.165
 2216SOL    HW1 7184   0.261   2.356   9.125
 2216SOL    HW2 7185   0.158   2.467   9.116
 2217SOL     OW 7186   1.377   2.799   9.106
 2217SOL    HW1 7187   1.399   2.892   9.102
 2217SOL    HW2 7188   1.374   2.772   9.014
 2218SOL     OW 7189   0.818   2.431   7.811
 2218SOL    HW1 7190   0.822   2.357   7.751
 2218SOL    HW2 7191   0.744   2.484   7.780
 2219SOL     OW 7192   1.641   2.466   8.632
 2219SOL    HW1 7193   1.634   2.404   8.704
 2219SOL    HW2 7194   1.730   2.454   8.599
 2220SOL     OW 7195   0.275   3.424   9.188
 2220SOL    HW1 7196   0.214   3.475   9.242
 2220SOL    HW2 7197   0.256   3.333   9.212
 2221SOL     OW 7198   0.699   2.313   8.707
 2221SOL    HW1 7199   0.648   2.238   8.676
 2221SOL    HW2 7200   0.696   2.375   8.634
 2222SOL     OW 7201   0.926   3.541   8.917
 2222SOL    HW1 7202   0.900   3.503   8.833
 2222SOL    HW2 7203   0.918   3.636   8.904
 2223SOL     OW 7204   0.471   2.352   7.629
 2223SOL    HW1 7205   0.532   2.421   7.655
 2223SOL    HW2 7206   0.388   2.397   7.614
 2224SOL     OW 7207   0.161   3.003   8.906
 2224SOL    HW1 7208   0.144   2.960   8.990
 2224SOL    HW2 7209   0.168   2.932   8.843
 2225SOL     OW 7210   1.324   2.908   8.669
 2225SOL    HW1 7211   1.346   2.844   8.601
 2225SOL    HW2 7212   1.256   2.962   8.630
 2226SOL     OW 7213   1.313   2.720   7.753
 2226SOL    HW1 7214   1.239   2.688   7.804
 2226SOL    HW2 7215   1.287   2.705   7.662
 2227SOL     OW 7216   1.776   3.602   8.601
 2227SOL    HW1 7217   1.835   3.629   8.531
 2227SOL    HW2 7218   1.750   3.513   8.579
 2228SOL     OW 7219   1.241   3.595   8.558
 2228SOL    HW1 7220   1.323   3.617   8.514
 2228SOL    HW2 7221   1.248   3.502   8.577
 2229SOL     OW 7222   0.068   3.047   8.498
 2229SOL    HW1 7223   0.058   3.077   8.589
 2229SOL    HW2 7224   0.034   3.119   8.445
 2230SOL     OW 7225   0.679   3.530   9.183
 2230SOL    HW1 7226   0.620   3.605   9.174
 2230SOL    HW2 7227   0.744   3.543   9.114
 2231SOL     OW 7228   1.719   2.010   7.955
 2231SOL    HW1 7229   1.791   1.995   7.894
 2231SOL    HW2 7230   1.703   1.924   7.995
 2232SOL     OW 7231   1.392   3.430   7.935
 2232SOL    HW1 7232   1.451   3.463   7.868
 2232SOL    HW2 7233   1.342   3.506   7.964
 2233SOL     OW 7234   0.117   3.669   9.296
 2233SOL    HW1 7235   0.076   3.597   9.345
 2233SOL    HW2 7236   0.181   3.706   9.357
 2234SOL     OW 7237   1.278   2.789   8.119
 2234SOL    HW1 7238   1.351   2.728   8.128
 2234SOL    HW2 7239   1.312   2.861   8.066
 2235SOL     OW 7240   0.810   3.137   8.875
 2235SOL    HW1 7241   0.782   3.177   8.958
 2235SOL    HW2 7242   0.739   3.158   8.814
 2236SOL     OW 7243   0.672   3.485   7.603
 2236SOL    HW1 7244   0.683   3.497   7.509
 2236SOL    HW2 7245   0.617   3.407   7.611
 2237SOL     OW 7246   1.623   3.589   8.839
 2237SOL    HW1 7247   1.674   3.595   8.759
 2237SOL    HW2 7248   1.609   3.680   8.866
 2238SOL     OW 7249   1.850   2.044   8.414
 2238SOL    HW1 7250   1.883   1.958   8.390
 2238SOL    HW2 7251   1.763   2.049   8.372
 2239SOL     OW 7252   0.262   2.181   8.165
 2239SOL    HW1 7253   0.179   2.220   8.139
 2239SOL    HW2 7254   0.254   2.167   8.260
 2240SOL     OW 7255   1.208   3.466   7.480
 2240SOL    HW1 7256   1.197   3.375   7.507
 2240SOL    HW2 7257   1.142   3.478   7.412
 2241SOL     OW 7258   0.826   2.869   8.821
 2241SOL    HW1 7259   0.869   2.865   8.736
 2241SOL    HW2 7260   0.823   2.963   8.841
 2242SOL     OW 7261   0.916   2.773   7.738
 2242SOL    HW1 7262   0.977   2.805   7.672
 2242SOL    HW2 7263   0.965   2.704   7.784
 2243SOL     OW 7264   1.490   3.489   7.492
 2243SOL    HW1 7265   1.396   3.480   7.477
 2243SOL    HW2 7266   1.527   3.495   7.404
 2244SOL     OW 7267   0.373   3.172   8.938
 2244SOL    HW1 7268   0.355   3.250   8.887
 2244SOL    HW2 7269   0.299   3.114   8.921
 2245SOL     OW 7270   1.611   3.146   8.728
 2245SOL    HW1 7271   1.667   3.131   8.804
 2245SOL    HW2 7272   1.550   3.213   8.758
 2246SOL     OW 7273   1.056   2.971   8.156
 2246SOL    HW1 7274   0.985   2.920   8.194
 2246SOL    HW2 7275   1.119   2.905   8.127
 2247SOL     OW 7276   1.022   2.103   8.415
 2247SOL    HW1 7277   1.018   2.056   8.331
 2247SOL    HW2 7278   1.017   2.034   8.481
 2248SOL     OW 7279   0.606   3.351   7.930
 2248SOL    HW1 7280   0.651   3.302   7.861
 2248SOL    HW2 7281   0.528   3.386   7.887
 2249SOL     OW 7282   1.720   2.262   8.822
 2249SOL    HW1 7283   1.799   2.315   8.832
 2249SOL    HW2 7284   1.749   2.186   8.770
 2250SOL     OW 7285   0.252   3.205   7.723
 2250SOL    HW1 7286   0.158   3.202   7.710
 2250SOL    HW2 7287   0.263   3.237   7.812
 2251SOL     OW 7288   0.116   2.869   9.141
 2251SOL    HW1 7289   0.052   2.913   9.197
 2251SOL    HW2 7290   0.194   2.861   9.195
 2252SOL     OW 7291   0.676   2.061   8.947
 2252SOL    HW1 7292   0.759   2.038   8.907
 2252SOL    HW2 7293   0.699   2.090   9.035
 2253SOL     OW 7294   0.072   2.187   7.478
 2253SOL    HW1 7295   4.479   2.202   7.493
 2253SOL    HW2 7296   0.103   2.269   7.438
 2254SOL     OW 7297   1.428   2.721   8.847
 2254SOL    HW1 7298   1.379   2.782   8.792
 2254SOL    HW2 7299   1.517   2.722   8.812
 2255SOL     OW 7300   0.087   2.036   7.750
 2255SOL    HW1 7301   0.081   2.111   7.691
 2255SOL    HW2 7302   0.162   1.986   7.719
 2256SOL     OW 7303   1.178   3.200   7.565
 2256SOL    HW1 7304   1.087   3.169   7.567
 2256SOL    HW2 7305   1.205   3.200   7.657
 2257SOL     OW 7306   0.626   2.693   8.882
 2257SOL    HW1 7307   0.683   2.769   8.868
 2257SOL    HW2 7308   0.686   2.619   8.887
 2258SOL     OW 7309   1.483   3.642   8.429
 2258SOL    HW1 7310   1.505   3.704   8.360
 2258SOL    HW2 7311   1.567   3.619   8.469
 2259SOL     OW 7312   0.711   2.426   9.152
 2259SOL    HW1 7313   0.759   2.486   9.209
 2259SOL    HW2 7314   0.736   2.338   9.182
 2260SOL     OW 7315   1.473   3.060   9.079
 2260SOL    HW1 7316   1.460   3.074   9.173
 2260SOL    HW2 7317   1.566   3.076   9.064
 2261SOL     OW 7318   0.378   3.607   9.013
 2261SOL    HW1 7319   0.293   3.648   8.995
 2261SOL    HW2 7320   0.356   3.528   9.062
 2262SOL     OW 7321   1.668   2.743   8.703
 2262SOL    HW1 7322   1.660   2.657   8.661
 2262SOL    HW2 7323   1.657   2.806   8.631
 2263SOL     OW 7324   1.216   2.181   7.905
 2263SOL    HW1 7325   1.279   2.109   7.898
 2263SOL    HW2 7326   1.245   2.230   7.982
 2264SOL     OW 7327   0.589   2.598   8.118
 2264SOL    HW1 7328   0.627   2.684   8.104
 2264SOL    HW2 7329   0.522   2.590   8.050
 2265SOL     OW 7330   1.741   2.241   9.110
 2265SOL    HW1 7331   1.761   2.232   9.017
 2265SOL    HW2 7332   1.672   2.176   9.126
 2266SOL     OW 7333   1.747   2.795   8.959
 2266SOL    HW1 7334   1.739   2.890   8.972
 2266SOL    HW2 7335   1.730   2.782   8.866
 2267SOL     OW 7336   0.864   3.228   7.486
 2267SOL    HW1 7337   0.825   3.255   7.570
 2267SOL    HW2 7338   0.879   3.310   7.439
 2268SOL     OW 7339   0.663   3.650   8.391
 2268SOL    HW1 7340   0.643   3.741   8.368
 2268SOL    HW2 7341   0.758   3.643   8.382
 2269SOL     OW 7342   0.869   2.831   8.302
 2269SOL    HW1 7343   0.918   2.758   8.340
 2269SOL    HW2 7344   0.832   2.877   8.377
 2270SOL     OW 7345   1.078   2.851   7.537
 2270SOL    HW1 7346   1.057   2.902   7.459
 2270SOL    HW2 7347   1.153   2.797   7.511
 2271SOL     OW 7348   1.851   3.416   8.291
 2271SOL    HW1 7349   1.772   3.404   8.238
 2271SOL    HW2 7350   1.842   3.351   8.361
 2272SOL     OW 7351   0.232   3.166   9.308
 2272SOL    HW1 7352   0.152   3.117   9.289
 2272SOL    HW2 7353   0.232   3.177   9.403
 2273SOL     OW 7354   0.115   3.093   8.117
 2273SOL    HW1 7355   0.133   3.051   8.201
 2273SOL    HW2 7356   0.172   3.047   8.055
 2274SOL     OW 7357   0.684   3.267   9.078
 2274SOL    HW1 7358   0.604   3.223   9.107
 2274SOL    HW2 7359   0.678   3.355   9.116
 2275SOL     OW 7360   1.808   2.056   8.679
 2275SOL    HW1 7361   1.843   1.972   8.708
 2275SOL    HW2 7362   1.820   2.056   8.584
 2276SOL     OW 7363   0.435   2.295   7.973
 2276SOL    HW1 7364   0.461   2.221   7.918
 2276SOL    HW2 7365   0.384   2.255   8.044
 2277SOL     OW 7366   1.699   3.349   8.542
 2277SOL    HW1 7367   1.619   3.329   8.493
 2277SOL    HW2 7368   1.706   3.280   8.607
 2278SOL     OW 7369   0.295   2.350   8.698
 2278SOL    HW1 7370   0.369   2.307   8.740
 2278SOL    HW2 7371   0.325   2.366   8.608
 2279SOL     OW 7372   0.829   3.440   8.124
 2279SOL    HW1 7373   0.811   3.498   8.051
 2279SOL    HW2 7374   0.754   3.381   8.127
 2280SOL     OW 7375   1.432   2.089   8.564
 2280SOL    HW1 7376   1.463   2.012   8.611
 2280SOL    HW2 7377   1.380   2.137   8.629
 2281SOL     OW 7378   1.009   1.879   8.588
 2281SOL    HW1 7379   0.955   1.812   8.546
 2281SOL    HW2 7380   1.097   1.841   8.590
 2282SOL     OW 7381   0.773   3.195   7.765
 2282SOL    HW1 7382   0.744   3.105   7.772
 2282SOL    HW2 7383   0.855   3.198   7.815
 2283SOL     OW 7384   0.621   3.417   8.734
 2283SOL    HW1 7385   0.622   3.499   8.784
 2283SOL    HW2 7386   0.708   3.411   8.696
 2284SOL     OW 7387   1.354   1.915   7.616
 2284SOL    HW1 7388   1.384   1.848   7.554
 2284SOL    HW2 7389   1.265   1.887   7.640
 2285SOL     OW 7390   1.296   2.324   8.127
 2285SOL    HW1 7391   1.243   2.403   8.133
 2285SOL    HW2 7392   1.291   2.285   8.215
 2286SOL     OW 7393   1.589   2.059   8.329
 2286SOL    HW1 7394   1.530   2.081   8.401
 2286SOL    HW2 7395   1.587   2.137   8.273
 2287SOL     OW 7396   0.040   2.912   7.739
 2287SOL    HW1 7397   0.133   2.890   7.726
 2287SOL    HW2 7398   0.021   2.885   7.829
 2288SOL     OW 7399   0.888   3.519   7.788
 2288SOL    HW1 7400   0.814   3.501   7.730
 2288SOL    HW2 7401   0.858   3.592   7.842
 2289SOL     OW 7402   0.246   2.492   9.432
 2289SOL    HW1 7403   0.172   2.467   9.488
 2289SOL    HW2 7404   0.216   2.475   9.343
 2290SOL     OW 7405   0.214   2.136  10.300
 2290SOL    HW1 7406   0.249   2.111  10.386
 2290SOL    HW2 7407   0.137   2.081  10.289
 2291SOL     OW 7408   0.007   2.258   9.950
 2291SOL    HW1 7409   4.426   2.291   9.989
 2291SOL    HW2 7410   4.481   2.178   9.904
 2292SOL     OW 7411   0.569   3.154  10.490
 2292SOL    HW1 7412   0.482   3.158  10.449
 2292SOL    HW2 7413   0.583   3.243  10.524
 2293SOL     OW 7414   1.565   3.375  10.018
 2293SOL    HW1 7415   1.523   3.353  10.101
 2293SOL    HW2 7416   1.494   3.379   9.954
 2294SOL     OW 7417   1.131   2.560  10.008
 2294SOL    HW1 7418   1.180   2.642   9.995
 2294SOL    HW2 7419   1.084   2.573  10.091
 2295SOL     OW 7420   1.774   2.465   9.538
 2295SOL    HW1 7421   1.749   2.461   9.446
 2295SOL    HW2 7422   1.738   2.386   9.577
 2296SOL     OW 7423   0.752   3.003  10.354
 2296SOL    HW1 7424   0.684   3.039  10.411
 2296SOL    HW2 7425   0.788   3.079  10.309
 2297SOL     OW 7426   0.856   2.637   0.023
 2297SOL    HW1 7427   0.865   2.690   0.102
 2297SOL    HW2 7428   0.890   2.691  11.053
 2298SOL     OW 7429   0.685   2.863   9.956
 2298SOL    HW1 7430   0.751   2.853  10.024
 2298SOL    HW2 7431   0.616   2.915   9.997
 2299SOL     OW 7432   0.335   3.280  10.377
 2299SOL    HW1 7433   0.253   3.260  10.332
 2299SOL    HW2 7434   0.384   3.334  10.316
 2300SOL     OW 7435   1.463   3.361  10.663
 2300SOL    HW1 7436   1.521   3.437  10.670
 2300SOL    HW2 7437   1.399   3.374  10.734
 2301SOL     OW 7438   0.451   2.262  10.780
 2301SOL    HW1 7439   0.529   2.207  10.792
 2301SOL    HW2 7440   0.379   2.207  10.810
 2302SOL     OW 7441   1.606   2.306  10.054
 2302SOL    HW1 7442   1.533   2.327   9.996
 2302SOL    HW2 7443   1.621   2.387  10.103
 2303SOL     OW 7444   0.246   3.553   9.785
 2303SOL    HW1 7445   0.230   3.638   9.825
 2303SOL    HW2 7446   0.317   3.569   9.723
 2304SOL     OW 7447   0.255   3.288   9.836
 2304SOL    HW1 7448   0.243   3.383   9.838
 2304SOL    HW2 7449   0.193   3.254   9.901
 2305SOL     OW 7450   0.253   2.945  10.197
 2305SOL    HW1 7451   0.266   2.853  10.220
 2305SOL    HW2 7452   0.190   2.978  10.261
 2306SOL     OW 7453   0.608   3.652  10.737
 2306SOL    HW1 7454   0.529   3.633  10.787
 2306SOL    HW2 7455   0.631   3.741  10.762
 2307SOL     OW 7456   0.575   2.851   9.451
 2307SOL    HW1 7457   0.624   2.892   9.380
 2307SOL    HW2 7458   0.618   2.881   9.531
 2308SOL     OW 7459   1.590   1.982  10.779
 2308SOL    HW1 7460   1.609   2.060  10.727
 2308SOL    HW2 7461   1.607   2.007  10.869
 2309SOL     OW 7462   0.136   2.511   9.883
 2309SOL    HW1 7463   0.091   2.430   9.904
 2309SOL    HW2 7464   0.107   2.573   9.949
 2310SOL     OW 7465   1.843   3.619   9.642
 2310SOL    HW1 7466   1.909   3.592   9.706
 2310SOL    HW2 7467   1.864   3.710   9.623
 2311SOL     OW 7468   0.032   3.465   9.456
 2311SOL    HW1 7469   0.019   3.371   9.450
 2311SOL    HW2 7470   0.034   3.483   9.550
 2312SOL     OW 7471   1.691   2.781   9.953
 2312SOL    HW1 7472   1.770   2.734   9.928
 2312SOL    HW2 7473   1.667   2.831   9.875
 2313SOL     OW 7474   1.647   2.967   9.739
 2313SOL    HW1 7475   1.733   2.970   9.698
 2313SOL    HW2 7476   1.652   3.029   9.812
 2314SOL     OW 7477   0.102   2.626  10.910
 2314SOL    HW1 7478   0.188   2.608  10.871
 2314SOL    HW2 7479   0.099   2.722  10.916
 2315SOL     OW 7480   0.615   3.250  10.047
 2315SOL    HW1 7481   0.568   3.167  10.056
 2315SOL    HW2 7482   0.599   3.277   9.956
 2316SOL     OW 7483   1.290   3.097  10.753
 2316SOL    HW1 7484   1.316   3.037  10.683
 2316SOL    HW2 7485   1.347   3.075  10.826
 2317SOL     OW 7486   0.820   1.863   9.821
 2317SOL    HW1 7487   0.859   1.948   9.800
 2317SOL    HW2 7488   0.726   1.882   9.828
 2318SOL     OW 7489   0.174   2.799  10.589
 2318SOL    HW1 7490   0.266   2.780  10.572
 2318SOL    HW2 7491   0.131   2.793  10.504
 2319SOL     OW 7492   1.531   2.858   9.509
 2319SOL    HW1 7493   1.462   2.801   9.541
 2319SOL    HW2 7494   1.573   2.892   9.589
 2320SOL     OW 7495   1.198   3.670  10.929
 2320SOL    HW1 7496   1.193   3.735  10.859
 2320SOL    HW2 7497   1.208   3.586  10.883
 2321SOL     OW 7498   0.341   2.126   0.009
 2321SOL    HW1 7499   0.387   2.200   0.048
 2321SOL    HW2 7500   0.248   2.149   0.014
 2322SOL     OW 7501   1.468   3.281  10.259
 2322SOL    HW1 7502   1.400   3.298  10.324
 2322SOL    HW2 7503   1.454   3.190  10.233
 2323SOL     OW 7504   1.657   3.607   9.887
 2323SOL    HW1 7505   1.637   3.576   9.799
 2323SOL    HW2 7506   1.634   3.533   9.944
 2324SOL     OW 7507   0.598   2.581   9.579
 2324SOL    HW1 7508   0.598   2.663   9.530
 2324SOL    HW2 7509   0.532   2.593   9.647
 2325SOL     OW 7510   1.278   2.221  10.244
 2325SOL    HW1 7511   1.189   2.186  10.252
 2325SOL    HW2 7512   1.331   2.166  10.302
 2326SOL     OW 7513   1.579   3.534   9.620
 2326SOL    HW1 7514   1.670   3.563   9.612
 2326SOL    HW2 7515   1.552   3.517   9.530
 2327SOL     OW 7516   0.795   2.476  10.759
 2327SOL    HW1 7517   0.767   2.452  10.847
 2327SOL    HW2 7518   0.756   2.410  10.702
 2328SOL     OW 7519   0.966   2.763  10.905
 2328SOL    HW1 7520   1.015   2.692  10.864
 2328SOL    HW2 7521   0.916   2.802  10.834
 2329SOL     OW 7522   0.993   2.275  10.547
 2329SOL    HW1 7523   0.905   2.294  10.580
 2329SOL    HW2 7524   0.978   2.229  10.464
 2330SOL     OW 7525   1.052   2.560   9.735
 2330SOL    HW1 7526   1.069   2.553   9.829
 2330SOL    HW2 7527   0.970   2.514   9.722
 2331SOL     OW 7528   0.093   2.693  10.096
 2331SOL    HW1 7529   0.179   2.679  10.135
 2331SOL    HW2 7530   0.034   2.700  10.171
 2332SOL     OW 7531   0.117   3.710  10.900
 2332SOL    HW1 7532   0.111   3.650  10.974
 2332SOL    HW2 7533   0.049   3.681  10.840
 2333SOL     OW 7534   0.897   2.212   9.505
 2333SOL    HW1 7535   0.936   2.274   9.444
 2333SOL    HW2 7536   0.909   2.126   9.463
 2334SOL     OW 7537   1.379   3.004   9.851
 2334SOL    HW1 7538   1.457   2.992   9.798
 2334SOL    HW2 7539   1.325   3.066   9.801
 2335SOL     OW 7540   0.553   2.041  10.205
 2335SOL    HW1 7541   0.554   2.073  10.295
 2335SOL    HW2 7542   0.553   2.121  10.151
 2336SOL     OW 7543   1.003   3.306   9.781
 2336SOL    HW1 7544   0.969   3.380   9.730
 2336SOL    HW2 7545   0.981   3.326   9.871
 2337SOL     OW 7546   0.357   3.675  10.170
 2337SOL    HW1 7547   0.399   3.590  10.181
 2337SOL    HW2 7548   0.426   3.738  10.188
 2338SOL     OW 7549   1.801   2.916  10.178
 2338SOL    HW1 7550   1.747   2.895  10.101
 2338SOL    HW2 7551   1.738   2.922  10.250
 2339SOL     OW 7552   1.231   3.398  10.821
 2339SOL    HW1 7553   1.239   3.309  10.856
 2339SOL    HW2 7554   1.162   3.392  10.754
 2340SOL     OW 7555   0.313   2.815   9.567
 2340SOL    HW1 7556   0.396   2.838   9.526
 2340SOL    HW2 7557   0.300   2.723   9.543
 2341SOL     OW 7558   1.480   2.608  10.036
 2341SOL    HW1 7559   1.473   2.566  10.121
 2341SOL    HW2 7560   1.559   2.662  10.042
 2342SOL     OW 7561   0.456   3.128  11.052
 2342SOL    HW1 7562   0.426   3.145  10.962
 2342SOL    HW2 7563   0.392   3.068  11.088
 2343SOL     OW 7564   1.123   3.640   9.540
 2343SOL    HW1 7565   1.048   3.600   9.584
 2343SOL    HW2 7566   1.147   3.577   9.471
 2344SOL     OW 7567   0.195   2.138  10.797
 2344SOL    HW1 7568   0.142   2.217  10.804
 2344SOL    HW2 7569   0.186   2.095  10.882
 2345SOL     OW 7570   1.629   3.243   9.399
 2345SOL    HW1 7571   1.587   3.328   9.384
 2345SOL    HW2 7572   1.561   3.179   9.379
 2346SOL     OW 7573   0.469   3.605   9.623
 2346SOL    HW1 7574   0.513   3.658   9.689
 2346SOL    HW2 7575   0.540   3.567   9.571
 2347SOL     OW 7576   1.400   1.969   9.746
 2347SOL    HW1 7577   1.391   1.944   9.654
 2347SOL    HW2 7578   1.495   1.977   9.759
 2348SOL     OW 7579   0.255   3.653  10.540
 2348SOL    HW1 7580   0.302   3.578  10.578
 2348SOL    HW2 7581   0.223   3.622  10.456
 2349SOL     OW 7582   0.939   3.561  10.208
 2349SOL    HW1 7583   1.018   3.511  10.228
 2349SOL    HW2 7584   0.896   3.511  10.138
 2350SOL     OW 7585   0.396   2.556   9.781
 2350SOL    HW1 7586   0.418   2.463   9.794
 2350SOL    HW2 7587   0.304   2.562   9.807
 2351SOL     OW 7588   0.640   1.984   9.411
 2351SOL    HW1 7589   0.702   1.914   9.429
 2351SOL    HW2 7590   0.589   1.952   9.337
 2352SOL     OW 7591   0.767   2.141  11.047
 2352SOL    HW1 7592   0.832   2.082  11.085
 2352SOL    HW2 7593   0.703   2.155   0.017
 2353SOL     OW 7594   0.876   3.385  10.504
 2353SOL    HW1 7595   0.859   3.349  10.417
 2353SOL    HW2 7596   0.948   3.332  10.538
 2354SOL     OW 7597   1.343   2.453  10.756
 2354SOL    HW1 7598   1.397   2.433  10.832
 2354SOL    HW2 7599   1.369   2.542  10.730
 2355SOL     OW 7600   0.817   3.254  10.253
 2355SOL    HW1 7601   0.901   3.243  10.209
 2355SOL    HW2 7602   0.753   3.258  10.182
 2356SOL     OW 7603   0.928   2.371  10.212
 2356SOL    HW1 7604   0.904   2.363  10.120
 2356SOL    HW2 7605   0.959   2.284  10.237
 2357SOL     OW 7606   0.555   1.924   9.808
 2357SOL    HW1 7607   0.475   1.922   9.860
 2357SOL    HW2 7608   0.546   2.002   9.753
 2358SOL     OW 7609   1.428   3.062   9.350
 2358SOL    HW1 7610   1.458   2.986   9.401
 2358SOL    HW2 7611   1.343   3.083   9.387
 2359SOL     OW 7612   0.295   1.907   9.487
 2359SOL    HW1 7613   0.359   1.973   9.460
 2359SOL    HW2 7614   0.348   1.841   9.532
 2360SOL     OW 7615   0.940   2.111   9.768
 2360SOL    HW1 7616   0.915   2.150   9.685
 2360SOL    HW2 7617   1.035   2.125   9.773
 2361SOL     OW 7618   1.079   2.551  10.771
 2361SOL    HW1 7619   1.010   2.485  10.775
 2361SOL    HW2 7620   1.160   2.500  10.771
 2362SOL     OW 7621   1.222   3.433  10.105
 2362SOL    HW1 7622   1.237   3.499  10.036
 2362SOL    HW2 7623   1.291   3.450  10.169
 2363SOL     OW 7624   0.468   3.014  10.043
 2363SOL    HW1 7625   0.399   2.994  10.107
 2363SOL    HW2 7626   0.427   2.999   9.958
 2364SOL     OW 7627   1.267   3.655   9.920
 2364SOL    HW1 7628   1.314   3.716   9.864
 2364SOL    HW2 7629   1.199   3.708   9.962
 2365SOL     OW 7630   1.022   2.400   9.335
 2365SOL    HW1 7631   0.979   2.484   9.315
 2365SOL    HW2 7632   1.088   2.422   9.401
 2366SOL     OW 7633   0.074   2.383  10.718
 2366SOL    HW1 7634   0.143   2.380  10.652
 2366SOL    HW2 7635   0.070   2.475  10.744
 2367SOL     OW 7636   0.559   2.090  10.478
 2367SOL    HW1 7637   0.602   2.014  10.517
 2367SOL    HW2 7638   0.467   2.082  10.504
 2368SOL     OW 7639   0.868   2.321   9.949
 2368SOL    HW1 7640   0.822   2.375   9.885
 2368SOL    HW2 7641   0.889   2.241   9.901
 2369SOL     OW 7642   1.016   1.916  10.060
 2369SOL    HW1 7643   0.958   1.910   9.984
 2369SOL    HW2 7644   0.993   1.841  10.114
 2370SOL     OW 7645   1.437   3.024  10.166
 2370SOL    HW1 7646   1.368   2.958  10.167
 2370SOL    HW2 7647   1.461   3.033  10.074
 2371SOL     OW 7648   1.464   2.472  10.284
 2371SOL    HW1 7649   1.412   2.391  10.285
 2371SOL    HW2 7650   1.524   2.463  10.358
 2372SOL     OW 7651   1.845   2.676   9.695
 2372SOL    HW1 7652   1.899   2.624   9.754
 2372SOL    HW2 7653   1.817   2.614   9.627
 2373SOL     OW 7654   0.491   3.282   9.467
 2373SOL    HW1 7655   0.413   3.254   9.514
 2373SOL    HW2 7656   0.479   3.248   9.378
 2374SOL     OW 7657   1.672   3.127   9.953
 2374SOL    HW1 7658   1.767   3.129   9.968
 2374SOL    HW2 7659   1.643   3.215   9.975
 2375SOL     OW 7660   1.394   2.434   9.382
 2375SOL    HW1 7661   1.332   2.414   9.452
 2375SOL    HW2 7662   1.478   2.400   9.414
 2376SOL     OW 7663   0.525   2.122   9.623
 2376SOL    HW1 7664   0.574   2.077   9.554
 2376SOL    HW2 7665   0.503   2.207   9.586
 2377SOL     OW 7666   1.757   3.093  10.857
 2377SOL    HW1 7667   1.848   3.063  10.862
 2377SOL    HW2 7668   1.758   3.178  10.900
 2378SOL     OW 7669   1.061   3.216  10.649
 2378SOL    HW1 7670   0.983   3.183  10.693
 2378SOL    HW2 7671   1.133   3.168  10.689
 2379SOL     OW 7672   1.133   3.072  10.413
 2379SOL    HW1 7673   1.066   3.105  10.474
 2379SOL    HW2 7674   1.104   3.102  10.327
 2380SOL     OW 7675   1.628   2.960  10.386
 2380SOL    HW1 7676   1.624   3.022  10.460
 2380SOL    HW2 7677   1.549   2.978  10.335
 2381SOL     OW 7678   0.918   1.961  10.702
 2381SOL    HW1 7679   0.942   1.941  10.611
 2381SOL    HW2 7680   0.996   2.001  10.739
 2382SOL     OW 7681   0.709   2.924   9.682
 2382SOL    HW1 7682   0.696   2.906   9.775
 2382SOL    HW2 7683   0.785   2.871   9.657
 2383SOL     OW 7684   0.429   2.689  10.557
 2383SOL    HW1 7685   0.499   2.698  10.621
 2383SOL    HW2 7686   0.371   2.622  10.594
 2384SOL     OW 7687   1.265   2.240  10.592
 2384SOL    HW1 7688   1.297   2.318  10.637
 2384SOL    HW2 7689   1.175   2.262  10.567
 2385SOL     OW 7690   0.065   3.441  10.661
 2385SOL    HW1 7691   0.042   3.528  10.629
 2385SOL    HW2 7692   0.161   3.440  10.661
 2386SOL     OW 7693   0.341   2.973   9.803
 2386SOL    HW1 7694   0.351   3.047   9.743
 2386SOL    HW2 7695   0.340   2.896   9.746
 2387SOL     OW 7696   0.559   2.392  10.164
 2387SOL    HW1 7697   0.572   2.452  10.091
 2387SOL    HW2 7698   0.622   2.421  10.230
 2388SOL     OW 7699   1.248   3.211   9.700
 2388SOL    HW1 7700   1.304   3.282   9.731
 2388SOL    HW2 7701   1.161   3.232   9.733
 2389SOL     OW 7702   1.284   3.323  10.456
 2389SOL    HW1 7703   1.341   3.325  10.532
 2389SOL    HW2 7704   1.230   3.244  10.468
 2390SOL     OW 7705   1.579   2.482   9.791
 2390SOL    HW1 7706   1.530   2.534   9.855
 2390SOL    HW2 7707   1.626   2.547   9.739
 2391SOL     OW 7708   0.345   3.394  10.621
 2391SOL    HW1 7709   0.332   3.346  10.538
 2391SOL    HW2 7710   0.439   3.405  10.628
 2392SOL     OW 7711   0.493   2.605  10.972
 2392SOL    HW1 7712   0.532   2.643  10.894
 2392SOL    HW2 7713   0.546   2.527  10.990
 2393SOL     OW 7714   1.596   2.617  10.963
 2393SOL    HW1 7715   1.520   2.675  10.957
 2393SOL    HW2 7716   1.667   2.668  10.924
 2394SOL     OW 7717   0.590   2.736  10.337
 2394SOL    HW1 7718   0.620   2.827  10.338
 2394SOL    HW2 7719   0.533   2.728  10.413
 2395SOL     OW 7720   1.354   2.724  10.341
 2395SOL    HW1 7721   1.270   2.712  10.296
 2395SOL    HW2 7722   1.398   2.639  10.333
 2396SOL     OW 7723   1.202   2.390   9.574
 2396SOL    HW1 7724   1.210   2.312   9.629
 2396SOL    HW2 7725   1.159   2.454   9.631
 2397SOL     OW 7726   0.300   2.051  10.552
 2397SOL    HW1 7727   0.263   2.085  10.633
 2397SOL    HW2 7728   0.282   1.957  10.555
 2398SOL     OW 7729   0.029   3.177  10.596
 2398SOL    HW1 7730   0.069   3.128  10.667
 2398SOL    HW2 7731   0.036   3.269  10.624
 2399SOL     OW 7732   0.724   2.492  10.366
 2399SOL    HW1 7733   0.799   2.476  10.309
 2399SOL    HW2 7734   0.696   2.581  10.344
 2400SOL     OW 7735   0.315   1.931   9.928
 2400SOL    HW1 7736   0.288   2.020   9.953
 2400SOL    HW2 7737   0.313   1.882  10.010
 2401SOL     OW 7738   1.617   2.237   9.675
 2401SOL    HW1 7739   1.648   2.174   9.740
 2401SOL    HW2 7740   1.596   2.316   9.725
 2402SOL     OW 7741   1.027   2.621  10.269
 2402SOL    HW1 7742   1.022   2.638  10.363
 2402SOL    HW2 7743   1.002   2.529  10.260
 2403SOL     OW 7744   0.974   3.435  11.003
 2403SOL    HW1 7745   0.959   3.485  10.923
 2403SOL    HW2 7746   0.997   3.348  10.974
 2404SOL     OW 7747   1.853   3.353  10.911
 2404SOL    HW1 7748   1.873   3.389  10.825
 2404SOL    HW2 7749   1.920   3.390  10.969
 2405SOL     OW 7750   0.349   2.797  11.089
 2405SOL    HW1 7751   0.419   2.826   0.047
 2405SOL    HW2 7752   0.386   2.723  11.041
 2406SOL     OW 7753   1.527   2.135   9.437
 2406SOL    HW1 7754   1.462   2.070   9.464
 2406SOL    HW2 7755   1.561   2.170   9.519
 2407SOL     OW 7756   1.290   2.687   9.340
 2407SOL    HW1 7757   1.333   2.602   9.344
 2407SOL    HW2 7758   1.321   2.726   9.258
 2408SOL     OW 7759   1.068   3.198  10.165
 2408SOL    HW1 7760   1.071   3.127  10.102
 2408SOL    HW2 7761   1.127   3.264  10.130
 2409SOL     OW 7762   0.318   2.672  10.254
 2409SOL    HW1 7763   0.412   2.689  10.253
 2409SOL    HW2 7764   0.311   2.580  10.281
 2410SOL     OW 7765   0.328   2.388  10.297
 2410SOL    HW1 7766   0.290   2.302  10.283
 2410SOL    HW2 7767   0.407   2.389  10.243
 2411SOL     OW 7768   1.157   2.067  10.783
 2411SOL    HW1 7769   1.172   2.122  10.860
 2411SOL    HW2 7770   1.198   2.115  10.711
 2412SOL     OW 7771   4.491   3.182   9.519
 2412SOL    HW1 7772   4.399   3.199   9.500
 2412SOL    HW2 7773   4.495   3.089   9.539
 2413SOL     OW 7774   0.100   3.632  10.250
 2413SOL    HW1 7775   0.061   3.586  10.176
 2413SOL    HW2 7776   0.187   3.656  10.220
 2414SOL     OW 7777   0.495   3.436  10.217
 2414SOL    HW1 7778   0.563   3.500  10.240
 2414SOL    HW2 7779   0.538   3.374  10.158
 2415SOL     OW 7780   0.978   2.654  10.535
 2415SOL    HW1 7781   1.036   2.635  10.609
 2415SOL    HW2 7782   0.895   2.614  10.558
 2416SOL     OW 7783   0.028   2.421  10.405
 2416SOL    HW1 7784   0.118   2.398  10.383
 2416SOL    HW2 7785   0.014   2.383  10.492
 2417SOL     OW 7786   0.818   2.431   9.673
 2417SOL    HW1 7787   0.822   2.357   9.613
 2417SOL    HW2 7788   0.744   2.484   9.642
 2418SOL     OW 7789   1.644   2.465  10.491
 2418SOL    HW1 7790   1.638   2.406  10.566
 2418SOL    HW2 7791   1.732   2.451  10.457
 2419SOL     OW 7792   0.262   3.437  11.053
 2419SOL    HW1 7793   0.207   3.457   0.028
 2419SOL    HW2 7794   0.246   3.345  11.034
 2420SOL     OW 7795   0.706   2.311  10.567
 2420SOL    HW1 7796   0.650   2.238  10.540
 2420SOL    HW2 7797   0.699   2.374  10.495
 2421SOL     OW 7798   0.939   3.543  10.755
 2421SOL    HW1 7799   0.904   3.507  10.673
 2421SOL    HW2 7800   0.921   3.637  10.749
 2422SOL     OW 7801   0.471   2.352   9.491
 2422SOL    HW1 7802   0.532   2.421   9.517
 2422SOL    HW2 7803   0.388   2.397   9.476
 2423SOL     OW 7804   0.164   3.006  10.764
 2423SOL    HW1 7805   0.137   2.969  10.848
 2423SOL    HW2 7806   0.167   2.931  10.705
 2424SOL     OW 7807   1.322   2.914  10.537
 2424SOL    HW1 7808   1.347   2.848  10.473
 2424SOL    HW2 7809   1.255   2.966  10.494
 2425SOL     OW 7810   1.313   2.720   9.615
 2425SOL    HW1 7811   1.239   2.688   9.666
 2425SOL    HW2 7812   1.288   2.705   9.524
 2426SOL     OW 7813   1.777   3.604  10.463
 2426SOL    HW1 7814   1.837   3.629  10.392
 2426SOL    HW2 7815   1.751   3.514  10.441
 2427SOL     OW 7816   1.240   3.596  10.419
 2427SOL    HW1 7817   1.322   3.619  10.376
 2427SOL    HW2 7818   1.248   3.503  10.438
 2428SOL     OW 7819   0.068   3.047  10.361
 2428SOL    HW1 7820   0.059   3.078  10.451
 2428SOL    HW2 7821   0.033   3.118  10.307
 2429SOL     OW 7822   1.721   2.011   9.819
 2429SOL    HW1 7823   1.791   1.995   9.755
 2429SOL    HW2 7824   1.704   1.925   9.857
 2430SOL     OW 7825   1.391   3.430   9.797
 2430SOL    HW1 7826   1.451   3.463   9.730
 2430SOL    HW2 7827   1.342   3.506   9.826
 2431SOL     OW 7828   1.278   2.789   9.982
 2431SOL    HW1 7829   1.351   2.728   9.990
 2431SOL    HW2 7830   1.312   2.861   9.928
 2432SOL     OW 7831   0.813   3.138  10.736
 2432SOL    HW1 7832   0.783   3.172  10.820
 2432SOL    HW2 7833   0.744   3.159  10.674
 2433SOL     OW 7834   0.672   3.485   9.465
 2433SOL    HW1 7835   0.683   3.497   9.371
 2433SOL    HW2 7836   0.617   3.407   9.473
 2434SOL     OW 7837   1.618   3.583  10.692
 2434SOL    HW1 7838   1.676   3.597  10.617
 2434SOL    HW2 7839   1.603   3.671  10.727
 2435SOL     OW 7840   1.845   2.045  10.279
 2435SOL    HW1 7841   1.880   1.960  10.256
 2435SOL    HW2 7842   1.759   2.048  10.236
 2436SOL     OW 7843   0.262   2.181  10.027
 2436SOL    HW1 7844   0.179   2.220  10.001
 2436SOL    HW2 7845   0.254   2.168  10.122
 2437SOL     OW 7846   1.208   3.466   9.342
 2437SOL    HW1 7847   1.197   3.375   9.369
 2437SOL    HW2 7848   1.142   3.479   9.274
 2438SOL     OW 7849   0.827   2.869  10.688
 2438SOL    HW1 7850   0.870   2.860  10.603
 2438SOL    HW2 7851   0.825   2.963  10.704
 2439SOL     OW 7852   0.916   2.773   9.600
 2439SOL    HW1 7853   0.977   2.805   9.534
 2439SOL    HW2 7854   0.965   2.704   9.646
 2440SOL     OW 7855   1.490   3.489   9.354
 2440SOL    HW1 7856   1.396   3.480   9.339
 2440SOL    HW2 7857   1.527   3.495   9.266
 2441SOL     OW 7858   0.365   3.180  10.808
 2441SOL    HW1 7859   0.352   3.253  10.747
 2441SOL    HW2 7860   0.296   3.118  10.785
 2442SOL     OW 7861   1.615   3.144  10.594
 2442SOL    HW1 7862   1.668   3.126  10.671
 2442SOL    HW2 7863   1.556   3.215  10.621
 2443SOL     OW 7864   1.056   2.971  10.018
 2443SOL    HW1 7865   0.984   2.920  10.056
 2443SOL    HW2 7866   1.119   2.905   9.989
 2444SOL     OW 7867   1.022   2.103  10.277
 2444SOL    HW1 7868   1.018   2.056  10.193
 2444SOL    HW2 7869   1.017   2.034  10.343
 2445SOL     OW 7870   0.606   3.351   9.792
 2445SOL    HW1 7871   0.651   3.302   9.723
 2445SOL    HW2 7872   0.528   3.386   9.749
 2446SOL     OW 7873   1.722   2.257  10.692
 2446SOL    HW1 7874   1.796   2.318  10.696
 2446SOL    HW2 7875   1.753   2.185  10.637
 2447SOL     OW 7876   0.252   3.205   9.585
 2447SOL    HW1 7877   0.158   3.202   9.572
 2447SOL    HW2 7878   0.263   3.237   9.674
 2448SOL     OW 7879   0.111   2.884  11.000
 2448SOL    HW1 7880   0.056   2.892  11.078
 2448SOL    HW2 7881   0.198   2.864  11.035
 2449SOL     OW 7882   0.677   2.058  10.802
 2449SOL    HW1 7883   0.759   2.034  10.758
 2449SOL    HW2 7884   0.703   2.093  10.886
 2450SOL     OW 7885   0.072   2.187   9.340
 2450SOL    HW1 7886   4.479   2.202   9.355
 2450SOL    HW2 7887   0.103   2.269   9.300
 2451SOL     OW 7888   1.427   2.712  10.709
 2451SOL    HW1 7889   1.379   2.781  10.663
 2451SOL    HW2 7890   1.517   2.720  10.678
 2452SOL     OW 7891   0.087   2.036   9.612
 2452SOL    HW1 7892   0.081   2.111   9.553
 2452SOL    HW2 7893   0.162   1.986   9.581
 2453SOL     OW 7894   1.178   3.200   9.427
 2453SOL    HW1 7895   1.087   3.169   9.429
 2453SOL    HW2 7896   1.205   3.199   9.519
 2454SOL     OW 7897   0.627   2.690  10.743
 2454SOL    HW1 7898   0.683   2.766  10.729
 2454SOL    HW2 7899   0.688   2.616  10.746
 2455SOL     OW 7900   1.482   3.641  10.290
 2455SOL    HW1 7901   1.506   3.704  10.222
 2455SOL    HW2 7902   1.566   3.619  10.332
 2456SOL     OW 7903   0.713   2.429  11.013
 2456SOL    HW1 7904   0.755   2.498  11.065
 2456SOL    HW2 7905   0.758   2.349  11.040
 2457SOL     OW 7906   0.382   3.604  10.876
 2457SOL    HW1 7907   0.305   3.660  10.865
 2457SOL    HW2 7908   0.354   3.536  10.937
 2458SOL     OW 7909   1.670   2.744  10.567
 2458SOL    HW1 7910   1.662   2.659  10.525
 2458SOL    HW2 7911   1.659   2.807  10.496
 2459SOL     OW 7912   1.216   2.181   9.767
 2459SOL    HW1 7913   1.278   2.109   9.760
 2459SOL    HW2 7914   1.245   2.230   9.844
 2460SOL     OW 7915   0.589   2.598   9.981
 2460SOL    HW1 7916   0.627   2.685   9.966
 2460SOL    HW2 7917   0.522   2.589   9.913
 2461SOL     OW 7918   1.744   2.177  10.964
 2461SOL    HW1 7919   1.732   2.217  10.877
 2461SOL    HW2 7920   1.666   2.203  11.013
 2462SOL     OW 7921   1.747   2.802  10.825
 2462SOL    HW1 7922   1.738   2.896  10.838
 2462SOL    HW2 7923   1.730   2.788  10.732
 2463SOL     OW 7924   0.864   3.228   9.348
 2463SOL    HW1 7925   0.825   3.255   9.431
 2463SOL    HW2 7926   0.879   3.310   9.301
 2464SOL     OW 7927   0.663   3.650  10.253
 2464SOL    HW1 7928   0.642   3.741  10.230
 2464SOL    HW2 7929   0.758   3.644  10.244
 2465SOL     OW 7930   0.869   2.831  10.164
 2465SOL    HW1 7931   0.918   2.758  10.202
 2465SOL    HW2 7932   0.832   2.877  10.240
 2466SOL     OW 7933   1.079   2.851   9.399
 2466SOL    HW1 7934   1.057   2.902   9.321
 2466SOL    HW2 7935   1.153   2.797   9.373
 2467SOL     OW 7936   1.851   3.415  10.153
 2467SOL    HW1 7937   1.772   3.404  10.100
 2467SOL    HW2 7938   1.841   3.352  10.224
 2468SOL     OW 7939   0.115   3.093   9.979
 2468SOL    HW1 7940   0.132   3.051  10.063
 2468SOL    HW2 7941   0.172   3.047   9.917
 2469SOL     OW 7942   0.681   3.260  10.943
 2469SOL    HW1 7943   0.612   3.207  10.982
 2469SOL    HW2 7944   0.639   3.343  10.922
 2470SOL     OW 7945   1.815   2.051  10.548
 2470SOL    HW1 7946   1.832   1.958  10.564
 2470SOL    HW2 7947   1.827   2.062  10.453
 2471SOL     OW 7948   0.435   2.295   9.835
 2471SOL    HW1 7949   0.461   2.221   9.780
 2471SOL    HW2 7950   0.384   2.255   9.906
 2472SOL     OW 7951   1.701   3.350  10.403
 2472SOL    HW1 7952   1.620   3.328  10.357
 2472SOL    HW2 7953   1.710   3.282  10.470
 2473SOL     OW 7954   0.292   2.351  10.562
 2473SOL    HW1 7955   0.365   2.311  10.610
 2473SOL    HW2 7956   0.327   2.365  10.474
 2474SOL     OW 7957   0.830   3.440   9.987
 2474SOL    HW1 7958   0.812   3.499   9.913
 2474SOL    HW2 7959   0.754   3.381   9.988
 2475SOL     OW 7960   1.431   2.089  10.427
 2475SOL    HW1 7961   1.457   2.009  10.471
 2475SOL    HW2 7962   1.380   2.137  10.493
 2476SOL     OW 7963   1.009   1.879  10.449
 2476SOL    HW1 7964   0.955   1.813  10.406
 2476SOL    HW2 7965   1.097   1.841  10.451
 2477SOL     OW 7966   0.773   3.195   9.627
 2477SOL    HW1 7967   0.744   3.105   9.634
 2477SOL    HW2 7968   0.855   3.198   9.677
 2478SOL     OW 7969   0.621   3.415  10.599
 2478SOL    HW1 7970   0.620   3.499  10.645
 2478SOL    HW2 7971   0.707   3.410  10.559
 2479SOL     OW 7972   1.354   1.915   9.478
 2479SOL    HW1 7973   1.384   1.848   9.416
 2479SOL    HW2 7974   1.266   1.887   9.502
 2480SOL     OW 7975   1.296   2.324   9.990
 2480SOL    HW1 7976   1.243   2.403   9.995
 2480SOL    HW2 7977   1.291   2.286  10.077
 2481SOL     OW 7978   1.586   2.059  10.189
 2481SOL    HW1 7979   1.529   2.081  10.263
 2481SOL    HW2 7980   1.586   2.137  10.134
 2482SOL     OW 7981   0.040   2.912   9.601
 2482SOL    HW1 7982   0.133   2.890   9.588
 2482SOL    HW2 7983   0.021   2.885   9.691
 2483SOL     OW 7984   0.887   3.519   9.650
 2483SOL    HW1 7985   0.814   3.501   9.591
 2483SOL    HW2 7986   0.858   3.592   9.704
 2484SOL     OW 7987   0.201   4.283   0.088
 2484SOL    HW1 7988   0.143   4.306   0.160
 2484SOL    HW2 7989   0.229   4.368   0.052
 2485SOL     OW 7990   0.208   3.993   0.991
 2485SOL    HW1 7991   0.243   3.966   1.076
 2485SOL    HW2 7992   0.133   3.935   0.976
 2486SOL     OW 7993   4.497   4.102   0.628
 2486SOL    HW1 7994   4.412   4.127   0.666
 2486SOL    HW2 7995   4.483   4.015   0.593
 2487SOL     OW 7996   1.727   4.330   0.234
 2487SOL    HW1 7997   1.751   4.311   0.143
 2487SOL    HW2 7998   1.719   4.245   0.276
 2488SOL     OW 7999   0.737   0.275   0.686
 2488SOL    HW1 8000   0.721   0.207   0.752
 2488SOL    HW2 8001   0.652   0.288   0.645
 2489SOL     OW 8002   0.448   4.118   1.488
 2489SOL    HW1 8003   0.529   4.066   1.488
 2489SOL    HW2 8004   0.379   4.053   1.497
 2490SOL     OW 8005   1.614   4.170   0.743
 2490SOL    HW1 8006   1.554   4.197   0.673
 2490SOL    HW2 8007   1.603   4.235   0.811
 2491SOL     OW 8008   1.596   3.849   1.467
 2491SOL    HW1 8009   1.609   3.930   1.417
 2491SOL    HW2 8010   1.579   3.878   1.556
 2492SOL     OW 8011   0.158   4.321   0.638
 2492SOL    HW1 8012   0.098   4.247   0.627
 2492SOL    HW2 8013   0.115   4.394   0.593
 2493SOL     OW 8014   0.130   0.004   1.587
 2493SOL    HW1 8015   0.223   4.485   1.581
 2493SOL    HW2 8016   0.121   0.092   1.550
 2494SOL     OW 8017   0.820   3.728   0.512
 2494SOL    HW1 8018   0.858   3.814   0.493
 2494SOL    HW2 8019   0.726   3.744   0.518
 2495SOL     OW 8020   0.329   3.980   1.802
 2495SOL    HW1 8021   0.370   4.060   1.835
 2495SOL    HW2 8022   0.239   3.985   1.833
 2496SOL     OW 8023   1.277   4.078   0.934
 2496SOL    HW1 8024   1.187   4.044   0.944
 2496SOL    HW2 8025   1.329   4.025   0.993
 2497SOL     OW 8026   0.832   4.297   1.444
 2497SOL    HW1 8027   0.793   4.302   1.531
 2497SOL    HW2 8028   0.762   4.264   1.388
 2498SOL     OW 8029   1.394   4.200   1.676
 2498SOL    HW1 8030   1.399   4.245   1.761
 2498SOL    HW2 8031   1.451   4.123   1.687
 2499SOL     OW 8032   1.000   4.154   1.232
 2499SOL    HW1 8033   0.931   4.177   1.295
 2499SOL    HW2 8034   0.957   4.095   1.170
 2500SOL     OW 8035   1.060   4.404   0.419
 2500SOL    HW1 8036   1.054   4.465   0.493
 2500SOL    HW2 8037   0.969   4.382   0.400
 2501SOL     OW 8038   0.057   0.074   0.854
 2501SOL    HW1 8039   0.141   0.029   0.865
 2501SOL    HW2 8040   0.050   0.091   0.760
 2502SOL     OW 8041   0.891   4.074   0.210
 2502SOL    HW1 8042   0.933   4.134   0.148
 2502SOL    HW2 8043   0.903   3.987   0.172
 2503SOL     OW 8044   1.711   4.300   1.831
 2503SOL    HW1 8045   1.728   4.387   1.794
 2503SOL    HW2 8046   1.731   4.239   1.760
 2504SOL     OW 8047   0.553   3.902   0.894
 2504SOL    HW1 8048   0.555   3.934   0.984
 2504SOL    HW2 8049   0.547   3.981   0.841
 2505SOL     OW 8050   1.489   4.468   0.741
 2505SOL    HW1 8051   1.477   4.412   0.818
 2505SOL    HW2 8052   1.531   0.047   0.776
 2506SOL     OW 8053   0.189   4.001   1.484
 2506SOL    HW1 8054   0.142   4.084   1.496
 2506SOL    HW2 8055   0.181   3.957   1.568
 2507SOL     OW 8056   1.402   3.829   0.433
 2507SOL    HW1 8057   1.395   3.808   0.340
 2507SOL    HW2 8058   1.496   3.839   0.449
 2508SOL     OW 8059   0.345   4.378   0.401
 2508SOL    HW1 8060   0.389   4.303   0.442
 2508SOL    HW2 8061   0.303   4.424   0.474
 2509SOL     OW 8062   1.531   3.949   1.725
 2509SOL    HW1 8063   1.541   3.970   1.818
 2509SOL    HW2 8064   1.463   3.882   1.722
 2510SOL     OW 8065   0.619   3.834   0.122
 2510SOL    HW1 8066   0.706   3.793   0.120
 2510SOL    HW2 8067   0.578   3.807   0.040
 2511SOL     OW 8068   0.764   4.002   1.755
 2511SOL    HW1 8069   0.843   3.948   1.752
 2511SOL    HW2 8070   0.718   3.972   1.833
 2512SOL     OW 8071   1.339   4.314   1.431
 2512SOL    HW1 8072   1.362   4.276   1.516
 2512SOL    HW2 8073   1.389   4.395   1.427
 2513SOL     OW 8074   0.927   4.233   0.898
 2513SOL    HW1 8075   0.903   4.218   0.807
 2513SOL    HW2 8076   0.965   4.150   0.927
 2514SOL     OW 8077   0.556   3.786   0.501
 2514SOL    HW1 8078   0.474   3.783   0.551
 2514SOL    HW2 8079   0.547   3.865   0.447
 2515SOL     OW 8080   0.284   3.772   0.191
 2515SOL    HW1 8081   0.331   3.823   0.125
 2515SOL    HW2 8082   0.348   3.709   0.222
 2516SOL     OW 8083   0.941   3.976   0.463
 2516SOL    HW1 8084   0.916   4.014   0.379
 2516SOL    HW2 8085   1.036   3.989   0.468
 2517SOL     OW 8086   1.073   4.395   1.532
 2517SOL    HW1 8087   0.992   4.364   1.491
 2517SOL    HW2 8088   1.143   4.361   1.475
 2518SOL     OW 8089   1.009   4.262   0.041
 2518SOL    HW1 8090   1.029   4.310  11.061
 2518SOL    HW2 8091   1.088   4.270   0.094
 2519SOL     OW 8092   0.079   4.255   1.403
 2519SOL    HW1 8093   0.159   4.267   1.351
 2519SOL    HW2 8094   0.051   4.343   1.425
 2520SOL     OW 8095   0.559   3.951   1.167
 2520SOL    HW1 8096   0.601   3.874   1.204
 2520SOL    HW2 8097   0.468   3.945   1.195
 2521SOL     OW 8098   0.867   4.189   0.639
 2521SOL    HW1 8099   0.843   4.256   0.574
 2521SOL    HW2 8100   0.886   4.111   0.588
 2522SOL     OW 8101   1.015   3.778   0.749
 2522SOL    HW1 8102   0.957   3.771   0.674
 2522SOL    HW2 8103   0.993   3.702   0.804
 2523SOL     OW 8104   1.478   4.308   0.961
 2523SOL    HW1 8105   1.413   4.240   0.980
 2523SOL    HW2 8106   1.526   4.319   1.043
 2524SOL     OW 8107   1.403   4.291   0.074
 2524SOL    HW1 8108   1.335   4.275   0.139
 2524SOL    HW2 8109   1.463   4.217   0.082
 2525SOL     OW 8110   0.528   3.991   0.324
 2525SOL    HW1 8111   0.556   3.930   0.256
 2525SOL    HW2 8112   0.508   4.072   0.278
 2526SOL     OW 8113   0.917   3.821   1.393
 2526SOL    HW1 8114   0.941   3.800   1.303
 2526SOL    HW2 8115   0.997   3.859   1.431
 2527SOL     OW 8116   0.448   0.004   1.270
 2527SOL    HW1 8117   0.505   4.496   1.346
 2527SOL    HW2 8118   0.412   4.416   1.257
 2528SOL     OW 8119   1.265   4.099   1.278
 2528SOL    HW1 8120   1.298   4.177   1.323
 2528SOL    HW2 8121   1.176   4.122   1.252
 2529SOL     OW 8122   0.553   4.249   0.864
 2529SOL    HW1 8123   0.573   4.282   0.776
 2529SOL    HW2 8124   0.620   4.288   0.920
 2530SOL     OW 8125   1.573   4.334   0.485
 2530SOL    HW1 8126   1.537   4.401   0.542
 2530SOL    HW2 8127   1.620   4.383   0.417
 2531SOL     OW 8128   0.996   3.853   1.754
 2531SOL    HW1 8129   1.055   3.924   1.731
 2531SOL    HW2 8130   1.043   3.773   1.729
 2532SOL     OW 8131   0.496   3.766   1.749
 2532SOL    HW1 8132   0.453   3.710   1.684
 2532SOL    HW2 8133   0.437   3.841   1.757
 2533SOL     OW 8134   1.208   4.248   0.260
 2533SOL    HW1 8135   1.220   4.169   0.313
 2533SOL    HW2 8136   1.161   4.309   0.317
 2534SOL     OW 8137   0.298   3.921   1.244
 2534SOL    HW1 8138   0.256   3.949   1.326
 2534SOL    HW2 8139   0.286   3.826   1.242
 2535SOL     OW 8140   0.736   4.360   1.040
 2535SOL    HW1 8141   0.809   4.320   0.992
 2535SOL    HW2 8142   0.749   4.454   1.030
 2536SOL     OW 8143   1.753   0.130   1.851
 2536SOL    HW1 8144   1.683   0.148   1.788
 2536SOL    HW2 8145   1.714   0.148   1.937
 2537SOL     OW 8146   0.315   3.793   0.619
 2537SOL    HW1 8147   0.288   3.881   0.645
 2537SOL    HW2 8148   0.313   3.742   0.700
 2538SOL     OW 8149   1.619   4.092   0.364
 2538SOL    HW1 8150   1.648   4.028   0.429
 2538SOL    HW2 8151   1.592   4.168   0.416
 2539SOL     OW 8152   1.531   4.021   0.112
 2539SOL    HW1 8153   1.473   3.946   0.127
 2539SOL    HW2 8154   1.566   4.041   0.199
 2540SOL     OW 8155   0.320   0.013   0.906
 2540SOL    HW1 8156   0.398   0.067   0.915
 2540SOL    HW2 8157   0.337   4.436   0.960
 2541SOL     OW 8158   0.330   4.237   1.012
 2541SOL    HW1 8159   0.287   4.154   0.989
 2541SOL    HW2 8160   0.406   4.241   0.954
 2542SOL     OW 8161   1.137   4.091   1.688
 2542SOL    HW1 8162   1.084   4.150   1.741
 2542SOL    HW2 8163   1.221   4.136   1.679
 2543SOL     OW 8164   1.160   3.924   1.469
 2543SOL    HW1 8165   1.150   3.985   1.542
 2543SOL    HW2 8166   1.202   3.976   1.401
 2544SOL     OW 8167   0.017   4.273   1.098
 2544SOL    HW1 8168   0.108   4.265   1.067
 2544SOL    HW2 8169   0.019   4.235   1.186
 2545SOL     OW 8170   0.172   4.236   1.686
 2545SOL    HW1 8171   0.263   4.220   1.662
 2545SOL    HW2 8172   0.150   4.319   1.644
 2546SOL     OW 8173   0.813   4.312   0.326
 2546SOL    HW1 8174   0.826   4.225   0.288
 2546SOL    HW2 8175   0.721   4.313   0.352
 2547SOL     OW 8176   1.634   4.315   1.184
 2547SOL    HW1 8177   1.632   4.258   1.260
 2547SOL    HW2 8178   1.723   4.305   1.149
 2548SOL     OW 8179   0.672   4.191   1.253
 2548SOL    HW1 8180   0.636   4.108   1.220
 2548SOL    HW2 8181   0.683   4.245   1.175
 2549SOL     OW 8182   0.470   4.215   0.178
 2549SOL    HW1 8183   0.518   4.297   0.186
 2549SOL    HW2 8184   0.377   4.240   0.182
 2550SOL     OW 8185   0.921   3.814   0.099
 2550SOL    HW1 8186   0.968   3.776   0.026
 2550SOL    HW2 8187   0.960   3.773   0.177
 2551SOL     OW 8188   1.721   3.874   0.509
 2551SOL    HW1 8189   1.792   3.860   0.446
 2551SOL    HW2 8190   1.706   3.787   0.548
 2552SOL     OW 8191   1.277   0.135   0.680
 2552SOL    HW1 8192   1.334   0.060   0.701
 2552SOL    HW2 8193   1.326   0.184   0.614
 2553SOL     OW 8194   1.840   3.895   0.966
 2553SOL    HW1 8195   1.869   3.808   0.940
 2553SOL    HW2 8196   1.754   3.906   0.926
 2554SOL     OW 8197   0.269   4.041   0.721
 2554SOL    HW1 8198   0.192   4.091   0.693
 2554SOL    HW2 8199   0.255   4.027   0.815
 2555SOL     OW 8200   1.061   0.293   0.739
 2555SOL    HW1 8201   0.986   0.271   0.684
 2555SOL    HW2 8202   1.129   0.232   0.711
 2556SOL     OW 8203   1.021   3.964   0.964
 2556SOL    HW1 8204   1.017   3.915   0.882
 2556SOL    HW2 8205   1.017   3.896   1.032
 2557SOL     OW 8206   1.724   4.114   1.380
 2557SOL    HW1 8207   1.795   4.178   1.378
 2557SOL    HW2 8208   1.754   4.043   1.323
 2558SOL     OW 8209   0.675   3.923   1.499
 2558SOL    HW1 8210   0.759   3.900   1.458
 2558SOL    HW2 8211   0.698   3.953   1.587
 2559SOL     OW 8212   0.061   4.063   0.002
 2559SOL    HW1 8213   4.471   4.075   0.032
 2559SOL    HW2 8214   0.104   4.146   0.022
 2560SOL     OW 8215   0.081   3.895   0.311
 2560SOL    HW1 8216   0.077   3.971   0.253
 2560SOL    HW2 8217   0.155   3.844   0.279
 2561SOL     OW 8218   0.726   4.277   1.695
 2561SOL    HW1 8219   0.726   4.326   1.778
 2561SOL    HW2 8220   0.744   4.187   1.721
 2562SOL     OW 8221   1.216   4.038   0.455
 2562SOL    HW1 8222   1.280   3.967   0.447
 2562SOL    HW2 8223   1.245   4.088   0.532
 2563SOL     OW 8224   1.755   4.093   1.651
 2563SOL    HW1 8225   1.741   4.104   1.557
 2563SOL    HW2 8226   1.685   4.033   1.679
 2564SOL     OW 8227   1.100   0.205   0.050
 2564SOL    HW1 8228   1.093   0.294   0.014
 2564SOL    HW2 8229   1.189   0.177   0.027
 2565SOL     OW 8230   1.814   3.906   1.237
 2565SOL    HW1 8231   1.820   3.812   1.250
 2565SOL    HW2 8232   1.822   3.918   1.142
 2566SOL     OW 8233   0.450   4.159   0.535
 2566SOL    HW1 8234   0.472   4.085   0.479
 2566SOL    HW2 8235   0.393   4.122   0.602
 2567SOL     OW 8236   0.322   4.263   1.279
 2567SOL    HW1 8237   0.376   4.195   1.320
 2567SOL    HW2 8238   0.329   4.245   1.185
 2568SOL     OW 8239   1.431   3.950   1.117
 2568SOL    HW1 8240   1.451   3.867   1.161
 2568SOL    HW2 8241   1.380   3.999   1.182
 2569SOL     OW 8242   1.009   3.741   1.140
 2569SOL    HW1 8243   0.954   3.675   1.098
 2569SOL    HW2 8244   1.096   3.703   1.142
 2570SOL     OW 8245   1.350   3.780   0.164
 2570SOL    HW1 8246   1.372   3.726   0.088
 2570SOL    HW2 8247   1.264   3.750   0.191
 2571SOL     OW 8248   1.299   4.173   0.678
 2571SOL    HW1 8249   1.269   4.263   0.691
 2571SOL    HW2 8250   1.297   4.135   0.766
 2572SOL     OW 8251   1.585   3.923   0.879
 2572SOL    HW1 8252   1.528   3.947   0.952
 2572SOL    HW2 8253   1.586   4.001   0.823
 2573SOL     OW 8254   0.224   4.274   1.971
 2573SOL    HW1 8255   0.161   4.301   2.037
 2573SOL    HW2 8256   0.210   4.333   1.898
 2574SOL     OW 8257   0.209   3.992   2.852
 2574SOL    HW1 8258   0.243   3.966   2.937
 2574SOL    HW2 8259   0.133   3.936   2.838
 2575SOL     OW 8260   4.497   4.103   2.492
 2575SOL    HW1 8261   4.413   4.131   2.527
 2575SOL    HW2 8262   4.479   4.019   2.451
 2576SOL     OW 8263   1.723   4.335   2.102
 2576SOL    HW1 8264   1.727   4.326   2.007
 2576SOL    HW2 8265   1.729   4.245   2.135
 2577SOL     OW 8266   0.729   0.276   2.547
 2577SOL    HW1 8267   0.716   0.211   2.616
 2577SOL    HW2 8268   0.642   0.290   2.509
 2578SOL     OW 8269   0.448   4.117   3.350
 2578SOL    HW1 8270   0.529   4.066   3.349
 2578SOL    HW2 8271   0.379   4.052   3.359
 2579SOL     OW 8272   1.614   4.170   2.603
 2579SOL    HW1 8273   1.551   4.196   2.536
 2579SOL    HW2 8274   1.603   4.235   2.673
 2580SOL     OW 8275   1.596   3.849   3.329
 2580SOL    HW1 8276   1.610   3.930   3.279
 2580SOL    HW2 8277   1.579   3.878   3.418
 2581SOL     OW 8278   0.158   4.324   2.501
 2581SOL    HW1 8279   0.099   4.250   2.488
 2581SOL    HW2 8280   0.115   4.397   2.457
 2582SOL     OW 8281   0.130   0.004   3.449
 2582SOL    HW1 8282   0.223   4.485   3.443
 2582SOL    HW2 8283   0.121   0.092   3.412
 2583SOL     OW 8284   0.820   3.726   2.373
 2583SOL    HW1 8285   0.859   3.811   2.352
 2583SOL    HW2 8286   0.726   3.744   2.380
 2584SOL     OW 8287   0.329   3.979   3.664
 2584SOL    HW1 8288   0.370   4.060   3.697
 2584SOL    HW2 8289   0.239   3.985   3.695
 2585SOL     OW 8290   1.277   4.077   2.795
 2585SOL    HW1 8291   1.187   4.044   2.806
 2585SOL    HW2 8292   1.329   4.024   2.855
 2586SOL     OW 8293   0.833   4.297   3.306
 2586SOL    HW1 8294   0.793   4.302   3.393
 2586SOL    HW2 8295   0.762   4.264   3.249
 2587SOL     OW 8296   1.394   4.200   3.538
 2587SOL    HW1 8297   1.399   4.245   3.623
 2587SOL    HW2 8298   1.451   4.123   3.549
 2588SOL     OW 8299   1.000   4.154   3.094
 2588SOL    HW1 8300   0.932   4.178   3.157
 2588SOL    HW2 8301   0.956   4.095   3.033
 2589SOL     OW 8302   1.056   4.412   2.275
 2589SOL    HW1 8303   1.050   4.459   2.358
 2589SOL    HW2 8304   0.970   4.369   2.265
 2590SOL     OW 8305   0.060   0.082   2.716
 2590SOL    HW1 8306   0.142   0.034   2.728
 2590SOL    HW2 8307   0.046   0.083   2.622
 2591SOL     OW 8308   0.896   4.066   2.051
 2591SOL    HW1 8309   0.936   4.129   1.991
 2591SOL    HW2 8310   0.910   3.981   2.009
 2592SOL     OW 8311   1.711   4.300   3.693
 2592SOL    HW1 8312   1.729   4.387   3.657
 2592SOL    HW2 8313   1.732   4.240   3.622
 2593SOL     OW 8314   0.553   3.902   2.756
 2593SOL    HW1 8315   0.555   3.934   2.846
 2593SOL    HW2 8316   0.547   3.982   2.703
 2594SOL     OW 8317   1.492   4.469   2.601
 2594SOL    HW1 8318   1.478   4.412   2.677
 2594SOL    HW2 8319   1.533   0.048   2.637
 2595SOL     OW 8320   0.189   4.001   3.346
 2595SOL    HW1 8321   0.142   4.084   3.357
 2595SOL    HW2 8322   0.181   3.958   3.431
 2596SOL     OW 8323   1.400   3.829   2.297
 2596SOL    HW1 8324   1.392   3.805   2.205
 2596SOL    HW2 8325   1.495   3.839   2.311
 2597SOL     OW 8326   0.346   4.382   2.263
 2597SOL    HW1 8327   0.387   4.306   2.303
 2597SOL    HW2 8328   0.304   4.428   2.336
 2598SOL     OW 8329   1.531   3.949   3.587
 2598SOL    HW1 8330   1.541   3.970   3.680
 2598SOL    HW2 8331   1.463   3.882   3.584
 2599SOL     OW 8332   0.640   3.846   1.963
 2599SOL    HW1 8333   0.701   3.775   1.982
 2599SOL    HW2 8334   0.588   3.814   1.889
 2600SOL     OW 8335   0.764   4.002   3.617
 2600SOL    HW1 8336   0.843   3.948   3.614
 2600SOL    HW2 8337   0.718   3.972   3.695
 2601SOL     OW 8338   1.339   4.314   3.293
 2601SOL    HW1 8339   1.362   4.276   3.378
 2601SOL    HW2 8340   1.389   4.395   3.289
 2602SOL     OW 8341   0.926   4.233   2.758
 2602SOL    HW1 8342   0.902   4.217   2.666
 2602SOL    HW2 8343   0.965   4.150   2.787
 2603SOL     OW 8344   0.555   3.787   2.359
 2603SOL    HW1 8345   0.475   3.784   2.411
 2603SOL    HW2 8346   0.545   3.865   2.304
 2604SOL     OW 8347   0.294   3.769   2.039
 2604SOL    HW1 8348   0.356   3.835   2.009
 2604SOL    HW2 8349   0.348   3.704   2.084
 2605SOL     OW 8350   0.940   3.974   2.320
 2605SOL    HW1 8351   0.915   4.011   2.235
 2605SOL    HW2 8352   1.035   3.988   2.325
 2606SOL     OW 8353   1.073   4.394   3.394
 2606SOL    HW1 8354   0.992   4.364   3.353
 2606SOL    HW2 8355   1.143   4.362   3.337
 2607SOL     OW 8356   1.025   4.262   1.891
 2607SOL    HW1 8357   1.011   4.350   1.856
 2607SOL    HW2 8358   1.090   4.275   1.961
 2608SOL     OW 8359   0.080   4.254   3.265
 2608SOL    HW1 8360   0.159   4.267   3.213
 2608SOL    HW2 8361   0.050   4.343   3.286
 2609SOL     OW 8362   0.559   3.951   3.028
 2609SOL    HW1 8363   0.601   3.874   3.067
 2609SOL    HW2 8364   0.468   3.945   3.056
 2610SOL     OW 8365   0.869   4.190   2.497
 2610SOL    HW1 8366   0.838   4.250   2.430
 2610SOL    HW2 8367   0.888   4.109   2.450
 2611SOL     OW 8368   1.015   3.778   2.611
 2611SOL    HW1 8369   0.957   3.770   2.535
 2611SOL    HW2 8370   0.993   3.702   2.666
 2612SOL     OW 8371   1.479   4.308   2.821
 2612SOL    HW1 8372   1.413   4.241   2.841
 2612SOL    HW2 8373   1.527   4.319   2.903
 2613SOL     OW 8374   1.405   4.296   1.935
 2613SOL    HW1 8375   1.342   4.267   2.001
 2613SOL    HW2 8376   1.487   4.255   1.961
 2614SOL     OW 8377   0.525   3.985   2.174
 2614SOL    HW1 8378   0.572   3.939   2.105
 2614SOL    HW2 8379   0.510   4.073   2.138
 2615SOL     OW 8380   0.917   3.821   3.255
 2615SOL    HW1 8381   0.941   3.800   3.165
 2615SOL    HW2 8382   0.997   3.859   3.293
 2616SOL     OW 8383   0.448   0.004   3.131
 2616SOL    HW1 8384   0.505   4.496   3.208
 2616SOL    HW2 8385   0.412   4.416   3.119
 2617SOL     OW 8386   1.265   4.099   3.140
 2617SOL    HW1 8387   1.298   4.177   3.185
 2617SOL    HW2 8388   1.176   4.122   3.114
 2618SOL     OW 8389   0.554   4.249   2.726
 2618SOL    HW1 8390   0.572   4.283   2.638
 2618SOL    HW2 8391   0.620   4.288   2.782
 2619SOL     OW 8392   1.566   4.334   2.345
 2619SOL    HW1 8393   1.544   4.400   2.410
 2619SOL    HW2 8394   1.626   4.378   2.285
 2620SOL     OW 8395   0.996   3.853   3.616
 2620SOL    HW1 8396   1.055   3.924   3.594
 2620SOL    HW2 8397   1.043   3.773   3.591
 2621SOL     OW 8398   0.496   3.766   3.611
 2621SOL    HW1 8399   0.453   3.710   3.546
 2621SOL    HW2 8400   0.437   3.841   3.620
 2622SOL     OW 8401   1.208   4.252   2.122
 2622SOL    HW1 8402   1.218   4.173   2.175
 2622SOL    HW2 8403   1.160   4.312   2.179
 2623SOL     OW 8404   0.298   3.921   3.106
 2623SOL    HW1 8405   0.256   3.949   3.188
 2623SOL    HW2 8406   0.286   3.826   3.104
 2624SOL     OW 8407   0.736   4.360   2.901
 2624SOL    HW1 8408   0.809   4.321   2.853
 2624SOL    HW2 8409   0.749   4.454   2.893
 2625SOL     OW 8410   1.753   0.129   3.713
 2625SOL    HW1 8411   1.683   0.148   3.650
 2625SOL    HW2 8412   1.714   0.148   3.798
 2626SOL     OW 8413   0.315   3.792   2.480
 2626SOL    HW1 8414   0.288   3.881   2.505
 2626SOL    HW2 8415   0.313   3.742   2.561
 2627SOL     OW 8416   1.615   4.090   2.228
 2627SOL    HW1 8417   1.646   4.029   2.295
 2627SOL    HW2 8418   1.589   4.168   2.277
 2628SOL     OW 8419   1.524   3.999   1.988
 2628SOL    HW1 8420   1.461   3.931   2.014
 2628SOL    HW2 8421   1.560   4.031   2.071
 2629SOL     OW 8422   0.321   0.012   2.769
 2629SOL    HW1 8423   0.400   0.066   2.778
 2629SOL    HW2 8424   0.339   4.435   2.824
 2630SOL     OW 8425   0.331   4.236   2.874
 2630SOL    HW1 8426   0.287   4.154   2.851
 2630SOL    HW2 8427   0.407   4.240   2.816
 2631SOL     OW 8428   1.137   4.091   3.550
 2631SOL    HW1 8429   1.084   4.150   3.602
 2631SOL    HW2 8430   1.221   4.136   3.541
 2632SOL     OW 8431   1.160   3.924   3.331
 2632SOL    HW1 8432   1.150   3.985   3.404
 2632SOL    HW2 8433   1.202   3.976   3.262
 2633SOL     OW 8434   0.018   4.273   2.960
 2633SOL    HW1 8435   0.108   4.266   2.929
 2633SOL    HW2 8436   0.019   4.235   3.047
 2634SOL     OW 8437   0.172   4.236   3.548
 2634SOL    HW1 8438   0.264   4.221   3.524
 2634SOL    HW2 8439   0.150   4.319   3.506
 2635SOL     OW 8440   0.820   4.279   2.218
 2635SOL    HW1 8441   0.825   4.206   2.156
 2635SOL    HW2 8442   0.732   4.314   2.208
 2636SOL     OW 8443   1.634   4.315   3.045
 2636SOL    HW1 8444   1.631   4.258   3.122
 2636SOL    HW2 8445   1.723   4.304   3.011
 2637SOL     OW 8446   0.672   4.190   3.115
 2637SOL    HW1 8447   0.636   4.108   3.082
 2637SOL    HW2 8448   0.683   4.245   3.037
 2638SOL     OW 8449   0.483   4.225   2.048
 2638SOL    HW1 8450   0.508   4.309   2.087
 2638SOL    HW2 8451   0.391   4.235   2.027
 2639SOL     OW 8452   1.723   3.873   2.373
 2639SOL    HW1 8453   1.793   3.858   2.309
 2639SOL    HW2 8454   1.706   3.787   2.411
 2640SOL     OW 8455   1.279   0.135   2.541
 2640SOL    HW1 8456   1.337   0.061   2.559
 2640SOL    HW2 8457   1.329   0.191   2.481
 2641SOL     OW 8458   1.840   3.895   2.829
 2641SOL    HW1 8459   1.868   3.807   2.802
 2641SOL    HW2 8460   1.754   3.906   2.788
 2642SOL     OW 8461   0.267   4.040   2.582
 2642SOL    HW1 8462   0.189   4.088   2.554
 2642SOL    HW2 8463   0.255   4.027   2.676
 2643SOL     OW 8464   0.901   0.090   2.070
 2643SOL    HW1 8465   0.983   0.127   2.036
 2643SOL    HW2 8466   0.924   0.057   2.157
 2644SOL     OW 8467   1.065   0.292   2.611
 2644SOL    HW1 8468   0.996   0.289   2.544
 2644SOL    HW2 8469   1.131   0.230   2.580
 2645SOL     OW 8470   1.021   3.964   2.826
 2645SOL    HW1 8471   1.017   3.915   2.743
 2645SOL    HW2 8472   1.017   3.897   2.894
 2646SOL     OW 8473   1.724   4.114   3.242
 2646SOL    HW1 8474   1.795   4.178   3.241
 2646SOL    HW2 8475   1.754   4.044   3.185
 2647SOL     OW 8476   0.675   3.923   3.361
 2647SOL    HW1 8477   0.759   3.900   3.320
 2647SOL    HW2 8478   0.698   3.953   3.449
 2648SOL     OW 8479   0.066   4.045   1.904
 2648SOL    HW1 8480   4.474   4.069   1.890
 2648SOL    HW2 8481   0.113   4.128   1.902
 2649SOL     OW 8482   0.087   3.900   2.165
 2649SOL    HW1 8483   0.075   3.966   2.096
 2649SOL    HW2 8484   0.162   3.849   2.135
 2650SOL     OW 8485   0.726   4.277   3.557
 2650SOL    HW1 8486   0.726   4.326   3.640
 2650SOL    HW2 8487   0.744   4.187   3.583
 2651SOL     OW 8488   1.217   4.042   2.315
 2651SOL    HW1 8489   1.279   3.969   2.309
 2651SOL    HW2 8490   1.246   4.090   2.393
 2652SOL     OW 8491   1.756   4.092   3.513
 2652SOL    HW1 8492   1.741   4.104   3.419
 2652SOL    HW2 8493   1.685   4.033   3.541
 2653SOL     OW 8494   1.113   0.224   1.963
 2653SOL    HW1 8495   1.106   0.268   1.878
 2653SOL    HW2 8496   1.201   0.187   1.964
 2654SOL     OW 8497   1.814   3.907   3.099
 2654SOL    HW1 8498   1.820   3.812   3.112
 2654SOL    HW2 8499   1.822   3.918   3.005
 2655SOL     OW 8500   0.448   4.158   2.394
 2655SOL    HW1 8501   0.467   4.082   2.339
 2655SOL    HW2 8502   0.391   4.123   2.464
 2656SOL     OW 8503   0.322   4.262   3.141
 2656SOL    HW1 8504   0.376   4.195   3.183
 2656SOL    HW2 8505   0.329   4.244   3.047
 2657SOL     OW 8506   1.431   3.950   2.979
 2657SOL    HW1 8507   1.452   3.868   3.024
 2657SOL    HW2 8508   1.380   4.000   3.043
 2658SOL     OW 8509   1.009   3.741   3.002
 2658SOL    HW1 8510   0.954   3.675   2.960
 2658SOL    HW2 8511   1.096   3.703   3.004
 2659SOL     OW 8512   1.354   3.777   2.028
 2659SOL    HW1 8513   1.384   3.709   1.968
 2659SOL    HW2 8514   1.266   3.749   2.053
 2660SOL     OW 8515   1.299   4.174   2.541
 2660SOL    HW1 8516   1.268   4.264   2.555
 2660SOL    HW2 8517   1.297   4.135   2.628
 2661SOL     OW 8518   1.585   3.923   2.741
 2661SOL    HW1 8519   1.528   3.947   2.814
 2661SOL    HW2 8520   1.586   4.001   2.685
 2662SOL     OW 8521   0.224   4.274   3.833
 2662SOL    HW1 8522   0.161   4.301   3.899
 2662SOL    HW2 8523   0.210   4.334   3.760
 2663SOL     OW 8524   0.209   3.993   4.714
 2663SOL    HW1 8525   0.243   3.966   4.799
 2663SOL    HW2 8526   0.133   3.936   4.700
 2664SOL     OW 8527   4.497   4.103   4.354
 2664SOL    HW1 8528   4.413   4.131   4.389
 2664SOL    HW2 8529   4.479   4.019   4.312
 2665SOL     OW 8530   1.723   4.335   3.964
 2665SOL    HW1 8531   1.727   4.326   3.869
 2665SOL    HW2 8532   1.729   4.245   3.997
 2666SOL     OW 8533   0.729   0.277   4.409
 2666SOL    HW1 8534   0.716   0.211   4.478
 2666SOL    HW2 8535   0.643   0.289   4.371
 2667SOL     OW 8536   0.448   4.118   5.212
 2667SOL    HW1 8537   0.529   4.066   5.211
 2667SOL    HW2 8538   0.379   4.053   5.221
 2668SOL     OW 8539   1.614   4.170   4.465
 2668SOL    HW1 8540   1.551   4.196   4.398
 2668SOL    HW2 8541   1.603   4.235   4.535
 2669SOL     OW 8542   1.596   3.849   5.191
 2669SOL    HW1 8543   1.610   3.929   5.141
 2669SOL    HW2 8544   1.579   3.879   5.280
 2670SOL     OW 8545   0.158   4.324   4.363
 2670SOL    HW1 8546   0.099   4.250   4.350
 2670SOL    HW2 8547   0.115   4.397   4.319
 2671SOL     OW 8548   0.130   0.004   5.311
 2671SOL    HW1 8549   0.223   4.485   5.305
 2671SOL    HW2 8550   0.121   0.092   5.274
 2672SOL     OW 8551   0.820   3.726   4.235
 2672SOL    HW1 8552   0.859   3.811   4.214
 2672SOL    HW2 8553   0.726   3.744   4.242
 2673SOL     OW 8554   0.330   3.979   5.527
 2673SOL    HW1 8555   0.370   4.060   5.559
 2673SOL    HW2 8556   0.239   3.984   5.557
 2674SOL     OW 8557   1.277   4.077   4.657
 2674SOL    HW1 8558   1.187   4.044   4.668
 2674SOL    HW2 8559   1.329   4.024   4.717
 2675SOL     OW 8560   0.833   4.297   5.168
 2675SOL    HW1 8561   0.793   4.302   5.255
 2675SOL    HW2 8562   0.762   4.264   5.111
 2676SOL     OW 8563   1.394   4.200   5.400
 2676SOL    HW1 8564   1.399   4.245   5.485
 2676SOL    HW2 8565   1.451   4.124   5.411
 2677SOL     OW 8566   1.000   4.154   4.956
 2677SOL    HW1 8567   0.931   4.178   5.019
 2677SOL    HW2 8568   0.956   4.095   4.894
 2678SOL     OW 8569   1.055   4.412   4.137
 2678SOL    HW1 8570   1.050   4.459   4.220
 2678SOL    HW2 8571   0.970   4.369   4.127
 2679SOL     OW 8572   0.060   0.082   4.578
 2679SOL    HW1 8573   0.142   0.034   4.590
 2679SOL    HW2 8574   0.045   0.082   4.484
 2680SOL     OW 8575   0.896   4.066   3.913
 2680SOL    HW1 8576   0.936   4.129   3.853
 2680SOL    HW2 8577   0.910   3.981   3.871
 2681SOL     OW 8578   1.711   4.300   5.555
 2681SOL    HW1 8579   1.729   4.387   5.519
 2681SOL    HW2 8580   1.732   4.240   5.484
 2682SOL     OW 8581   0.553   3.902   4.618
 2682SOL    HW1 8582   0.555   3.934   4.708
 2682SOL    HW2 8583   0.547   3.981   4.565
 2683SOL     OW 8584   1.492   4.469   4.464
 2683SOL    HW1 8585   1.478   4.412   4.540
 2683SOL    HW2 8586   1.533   0.048   4.499
 2684SOL     OW 8587   0.189   4.001   5.208
 2684SOL    HW1 8588   0.142   4.084   5.219
 2684SOL    HW2 8589   0.181   3.958   5.293
 2685SOL     OW 8590   1.400   3.829   4.159
 2685SOL    HW1 8591   1.392   3.805   4.067
 2685SOL    HW2 8592   1.495   3.839   4.173
 2686SOL     OW 8593   0.346   4.382   4.125
 2686SOL    HW1 8594   0.387   4.306   4.165
 2686SOL    HW2 8595   0.304   4.428   4.198
 2687SOL     OW 8596   1.531   3.950   5.449
 2687SOL    HW1 8597   1.541   3.970   5.542
 2687SOL    HW2 8598   1.463   3.883   5.446
 2688SOL     OW 8599   0.640   3.846   3.825
 2688SOL    HW1 8600   0.701   3.775   3.844
 2688SOL    HW2 8601   0.588   3.814   3.751
 2689SOL     OW 8602   0.764   4.002   5.479
 2689SOL    HW1 8603   0.843   3.948   5.476
 2689SOL    HW2 8604   0.718   3.972   5.557
 2690SOL     OW 8605   1.339   4.314   5.155
 2690SOL    HW1 8606   1.362   4.276   5.240
 2690SOL    HW2 8607   1.389   4.395   5.151
 2691SOL     OW 8608   0.926   4.233   4.620
 2691SOL    HW1 8609   0.902   4.217   4.528
 2691SOL    HW2 8610   0.965   4.150   4.649
 2692SOL     OW 8611   0.555   3.787   4.221
 2692SOL    HW1 8612   0.475   3.784   4.273
 2692SOL    HW2 8613   0.545   3.865   4.166
 2693SOL     OW 8614   0.294   3.769   3.901
 2693SOL    HW1 8615   0.356   3.835   3.871
 2693SOL    HW2 8616   0.348   3.704   3.946
 2694SOL     OW 8617   0.940   3.974   4.182
 2694SOL    HW1 8618   0.915   4.011   4.097
 2694SOL    HW2 8619   1.035   3.988   4.187
 2695SOL     OW 8620   1.073   4.394   5.256
 2695SOL    HW1 8621   0.992   4.364   5.215
 2695SOL    HW2 8622   1.143   4.362   5.199
 2696SOL     OW 8623   1.025   4.262   3.753
 2696SOL    HW1 8624   1.011   4.350   3.718
 2696SOL    HW2 8625   1.090   4.275   3.823
 2697SOL     OW 8626   0.080   4.254   5.128
 2697SOL    HW1 8627   0.159   4.268   5.075
 2697SOL    HW2 8628   0.050   4.343   5.148
 2698SOL     OW 8629   0.559   3.951   4.890
 2698SOL    HW1 8630   0.601   3.874   4.929
 2698SOL    HW2 8631   0.468   3.945   4.918
 2699SOL     OW 8632   0.869   4.190   4.359
 2699SOL    HW1 8633   0.838   4.250   4.292
 2699SOL    HW2 8634   0.888   4.109   4.312
 2700SOL     OW 8635   1.015   3.778   4.473
 2700SOL    HW1 8636   0.957   3.770   4.397
 2700SOL    HW2 8637   0.993   3.702   4.528
 2701SOL     OW 8638   1.478   4.308   4.683
 2701SOL    HW1 8639   1.413   4.241   4.703
 2701SOL    HW2 8640   1.527   4.319   4.765
 2702SOL     OW 8641   1.405   4.296   3.797
 2702SOL    HW1 8642   1.342   4.267   3.863
 2702SOL    HW2 8643   1.487   4.256   3.823
 2703SOL     OW 8644   0.525   3.986   4.036
 2703SOL    HW1 8645   0.572   3.939   3.967
 2703SOL    HW2 8646   0.510   4.073   4.000
 2704SOL     OW 8647   0.917   3.821   5.117
 2704SOL    HW1 8648   0.941   3.800   5.027
 2704SOL    HW2 8649   0.997   3.859   5.155
 2705SOL     OW 8650   0.448   0.004   4.993
 2705SOL    HW1 8651   0.504   4.496   5.070
 2705SOL    HW2 8652   0.412   4.416   4.981
 2706SOL     OW 8653   1.265   4.099   5.002
 2706SOL    HW1 8654   1.298   4.177   5.047
 2706SOL    HW2 8655   1.176   4.122   4.976
 2707SOL     OW 8656   0.554   4.248   4.588
 2707SOL    HW1 8657   0.572   4.283   4.500
 2707SOL    HW2 8658   0.620   4.288   4.644
 2708SOL     OW 8659   1.566   4.334   4.207
 2708SOL    HW1 8660   1.544   4.401   4.272
 2708SOL    HW2 8661   1.626   4.378   4.147
 2709SOL     OW 8662   0.996   3.853   5.478
 2709SOL    HW1 8663   1.055   3.924   5.456
 2709SOL    HW2 8664   1.043   3.774   5.453
 2710SOL     OW 8665   0.496   3.766   5.473
 2710SOL    HW1 8666   0.453   3.710   5.408
 2710SOL    HW2 8667   0.437   3.841   5.482
 2711SOL     OW 8668   1.208   4.252   3.984
 2711SOL    HW1 8669   1.218   4.173   4.037
 2711SOL    HW2 8670   1.160   4.312   4.041
 2712SOL     OW 8671   0.298   3.921   4.968
 2712SOL    HW1 8672   0.256   3.949   5.050
 2712SOL    HW2 8673   0.286   3.826   4.966
 2713SOL     OW 8674   0.736   4.360   4.763
 2713SOL    HW1 8675   0.809   4.321   4.715
 2713SOL    HW2 8676   0.749   4.454   4.755
 2714SOL     OW 8677   1.753   0.129   5.575
 2714SOL    HW1 8678   1.683   0.148   5.512
 2714SOL    HW2 8679   1.714   0.148   5.660
 2715SOL     OW 8680   0.315   3.792   4.342
 2715SOL    HW1 8681   0.288   3.881   4.367
 2715SOL    HW2 8682   0.313   3.742   4.423
 2716SOL     OW 8683   1.615   4.090   4.090
 2716SOL    HW1 8684   1.646   4.029   4.157
 2716SOL    HW2 8685   1.589   4.168   4.139
 2717SOL     OW 8686   1.524   3.999   3.850
 2717SOL    HW1 8687   1.461   3.931   3.876
 2717SOL    HW2 8688   1.560   4.031   3.933
 2718SOL     OW 8689   0.321   0.012   4.631
 2718SOL    HW1 8690   0.400   0.066   4.640
 2718SOL    HW2 8691   0.339   4.435   4.686
 2719SOL     OW 8692   0.331   4.236   4.736
 2719SOL    HW1 8693   0.287   4.154   4.713
 2719SOL    HW2 8694   0.407   4.240   4.678
 2720SOL     OW 8695   1.137   4.091   5.412
 2720SOL    HW1 8696   1.084   4.150   5.464
 2720SOL    HW2 8697   1.221   4.136   5.403
 2721SOL     OW 8698   1.160   3.924   5.193
 2721SOL    HW1 8699   1.150   3.985   5.267
 2721SOL    HW2 8700   1.202   3.975   5.125
 2722SOL     OW 8701   0.018   4.273   4.822
 2722SOL    HW1 8702   0.108   4.265   4.791
 2722SOL    HW2 8703   0.019   4.234   4.909
 2723SOL     OW 8704   0.172   4.236   5.410
 2723SOL    HW1 8705   0.264   4.221   5.386
 2723SOL    HW2 8706   0.150   4.319   5.368
 2724SOL     OW 8707   0.820   4.279   4.080
 2724SOL    HW1 8708   0.825   4.206   4.018
 2724SOL    HW2 8709   0.732   4.314   4.069
 2725SOL     OW 8710   1.634   4.315   4.907
 2725SOL    HW1 8711   1.631   4.258   4.984
 2725SOL    HW2 8712   1.723   4.304   4.873
 2726SOL     OW 8713   0.672   4.190   4.977
 2726SOL    HW1 8714   0.636   4.108   4.944
 2726SOL    HW2 8715   0.683   4.245   4.899
 2727SOL     OW 8716   0.483   4.225   3.910
 2727SOL    HW1 8717   0.508   4.309   3.949
 2727SOL    HW2 8718   0.391   4.235   3.889
 2728SOL     OW 8719   1.723   3.873   4.235
 2728SOL    HW1 8720   1.793   3.858   4.171
 2728SOL    HW2 8721   1.706   3.787   4.273
 2729SOL     OW 8722   1.279   0.136   4.403
 2729SOL    HW1 8723   1.337   0.061   4.422
 2729SOL    HW2 8724   1.329   0.190   4.342
 2730SOL     OW 8725   1.840   3.895   4.691
 2730SOL    HW1 8726   1.869   3.807   4.664
 2730SOL    HW2 8727   1.754   3.906   4.650
 2731SOL     OW 8728   0.267   4.040   4.444
 2731SOL    HW1 8729   0.189   4.088   4.416
 2731SOL    HW2 8730   0.255   4.027   4.538
 2732SOL     OW 8731   0.902   0.090   3.932
 2732SOL    HW1 8732   0.983   0.127   3.898
 2732SOL    HW2 8733   0.924   0.057   4.019
 2733SOL     OW 8734   1.065   0.292   4.473
 2733SOL    HW1 8735   0.997   0.289   4.406
 2733SOL    HW2 8736   1.131   0.230   4.442
 2734SOL     OW 8737   1.021   3.964   4.688
 2734SOL    HW1 8738   1.017   3.915   4.606
 2734SOL    HW2 8739   1.017   3.897   4.756
 2735SOL     OW 8740   1.724   4.114   5.105
 2735SOL    HW1 8741   1.795   4.178   5.103
 2735SOL    HW2 8742   1.754   4.044   5.047
 2736SOL     OW 8743   0.675   3.922   5.223
 2736SOL    HW1 8744   0.759   3.900   5.182
 2736SOL    HW2 8745   0.698   3.953   5.311
 2737SOL     OW 8746   0.066   4.045   3.766
 2737SOL    HW1 8747   4.475   4.069   3.751
 2737SOL    HW2 8748   0.113   4.129   3.764
 2738SOL     OW 8749   0.087   3.900   4.027
 2738SOL    HW1 8750   0.075   3.966   3.959
 2738SOL    HW2 8751   0.162   3.849   3.997
 2739SOL     OW 8752   0.726   4.277   5.419
 2739SOL    HW1 8753   0.725   4.326   5.502
 2739SOL    HW2 8754   0.744   4.187   5.445
 2740SOL     OW 8755   1.217   4.042   4.177
 2740SOL    HW1 8756   1.279   3.969   4.171
 2740SOL    HW2 8757   1.246   4.090   4.255
 2741SOL     OW 8758   1.756   4.092   5.375
 2741SOL    HW1 8759   1.742   4.104   5.281
 2741SOL    HW2 8760   1.685   4.033   5.403
 2742SOL     OW 8761   1.113   0.224   3.825
 2742SOL    HW1 8762   1.106   0.268   3.740
 2742SOL    HW2 8763   1.201   0.187   3.825
 2743SOL     OW 8764   1.814   3.906   4.961
 2743SOL    HW1 8765   1.820   3.812   4.974
 2743SOL    HW2 8766   1.822   3.918   4.867
 2744SOL     OW 8767   0.448   4.158   4.257
 2744SOL    HW1 8768   0.467   4.082   4.201
 2744SOL    HW2 8769   0.391   4.123   4.326
 2745SOL     OW 8770   0.322   4.262   5.003
 2745SOL    HW1 8771   0.376   4.195   5.044
 2745SOL    HW2 8772   0.329   4.245   4.909
 2746SOL     OW 8773   1.431   3.950   4.841
 2746SOL    HW1 8774   1.451   3.867   4.885
 2746SOL    HW2 8775   1.380   3.999   4.906
 2747SOL     OW 8776   1.009   3.741   4.864
 2747SOL    HW1 8777   0.955   3.675   4.822
 2747SOL    HW2 8778   1.097   3.703   4.866
 2748SOL     OW 8779   1.354   3.777   3.891
 2748SOL    HW1 8780   1.384   3.709   3.830
 2748SOL    HW2 8781   1.266   3.749   3.915
 2749SOL     OW 8782   1.298   4.174   4.403
 2749SOL    HW1 8783   1.268   4.264   4.417
 2749SOL    HW2 8784   1.297   4.135   4.490
 2750SOL     OW 8785   1.585   3.923   4.603
 2750SOL    HW1 8786   1.528   3.947   4.676
 2750SOL    HW2 8787   1.586   4.001   4.547
 2751SOL     OW 8788   0.224   4.274   5.695
 2751SOL    HW1 8789   0.161   4.301   5.761
 2751SOL    HW2 8790   0.210   4.333   5.622
 2752SOL     OW 8791   0.209   3.992   6.576
 2752SOL    HW1 8792   0.243   3.966   6.661
 2752SOL    HW2 8793   0.133   3.936   6.562
 2753SOL     OW 8794   4.497   4.103   6.216
 2753SOL    HW1 8795   4.413   4.131   6.251
 2753SOL    HW2 8796   4.479   4.019   6.175
 2754SOL     OW 8797   1.723   4.335   5.826
 2754SOL    HW1 8798   1.727   4.326   5.731
 2754SOL    HW2 8799   1.729   4.246   5.859
 2755SOL     OW 8800   0.729   0.276   6.271
 2755SOL    HW1 8801   0.716   0.211   6.340
 2755SOL    HW2 8802   0.642   0.289   6.233
 2756SOL     OW 8803   0.448   4.118   7.074
 2756SOL    HW1 8804   0.529   4.066   7.073
 2756SOL    HW2 8805   0.379   4.052   7.083
 2757SOL     OW 8806   1.614   4.170   6.327
 2757SOL    HW1 8807   1.551   4.196   6.260
 2757SOL    HW2 8808   1.603   4.234   6.397
 2758SOL     OW 8809   1.596   3.849   7.053
 2758SOL    HW1 8810   1.609   3.931   7.004
 2758SOL    HW2 8811   1.579   3.878   7.142
 2759SOL     OW 8812   0.158   4.324   6.225
 2759SOL    HW1 8813   0.099   4.250   6.212
 2759SOL    HW2 8814   0.115   4.397   6.181
 2760SOL     OW 8815   0.130   0.004   7.173
 2760SOL    HW1 8816   0.223   4.485   7.167
 2760SOL    HW2 8817   0.121   0.092   7.136
 2761SOL     OW 8818   0.820   3.726   6.097
 2761SOL    HW1 8819   0.859   3.811   6.076
 2761SOL    HW2 8820   0.726   3.744   6.104
 2762SOL     OW 8821   0.329   3.980   7.388
 2762SOL    HW1 8822   0.370   4.060   7.421
 2762SOL    HW2 8823   0.239   3.985   7.419
 2763SOL     OW 8824   1.277   4.077   6.519
 2763SOL    HW1 8825   1.187   4.044   6.530
 2763SOL    HW2 8826   1.329   4.024   6.579
 2764SOL     OW 8827   0.833   4.297   7.030
 2764SOL    HW1 8828   0.793   4.302   7.117
 2764SOL    HW2 8829   0.762   4.264   6.974
 2765SOL     OW 8830   1.394   4.200   7.262
 2765SOL    HW1 8831   1.399   4.245   7.347
 2765SOL    HW2 8832   1.451   4.123   7.273
 2766SOL     OW 8833   1.000   4.155   6.818
 2766SOL    HW1 8834   0.932   4.178   6.881
 2766SOL    HW2 8835   0.956   4.095   6.757
 2767SOL     OW 8836   1.056   4.412   5.999
 2767SOL    HW1 8837   1.050   4.459   6.082
 2767SOL    HW2 8838   0.970   4.369   5.989
 2768SOL     OW 8839   0.060   0.082   6.440
 2768SOL    HW1 8840   0.142   0.034   6.452
 2768SOL    HW2 8841   0.045   0.082   6.345
 2769SOL     OW 8842   0.896   4.066   5.775
 2769SOL    HW1 8843   0.936   4.129   5.715
 2769SOL    HW2 8844   0.910   3.981   5.733
 2770SOL     OW 8845   1.711   4.300   7.417
 2770SOL    HW1 8846   1.728   4.387   7.380
 2770SOL    HW2 8847   1.731   4.239   7.346
 2771SOL     OW 8848   0.553   3.902   6.480
 2771SOL    HW1 8849   0.555   3.934   6.570
 2771SOL    HW2 8850   0.547   3.982   6.427
 2772SOL     OW 8851   1.492   4.469   6.325
 2772SOL    HW1 8852   1.479   4.412   6.401
 2772SOL    HW2 8853   1.533   0.048   6.361
 2773SOL     OW 8854   0.189   4.001   7.070
 2773SOL    HW1 8855   0.142   4.084   7.081
 2773SOL    HW2 8856   0.181   3.958   7.155
 2774SOL     OW 8857   1.401   3.829   6.021
 2774SOL    HW1 8858   1.392   3.805   5.929
 2774SOL    HW2 8859   1.495   3.840   6.035
 2775SOL     OW 8860   0.346   4.382   5.987
 2775SOL    HW1 8861   0.387   4.305   6.027
 2775SOL    HW2 8862   0.304   4.428   6.060
 2776SOL     OW 8863   1.531   3.949   7.311
 2776SOL    HW1 8864   1.541   3.970   7.404
 2776SOL    HW2 8865   1.463   3.882   7.308
 2777SOL     OW 8866   0.640   3.846   5.687
 2777SOL    HW1 8867   0.701   3.775   5.706
 2777SOL    HW2 8868   0.588   3.814   5.613
 2778SOL     OW 8869   0.764   4.002   7.341
 2778SOL    HW1 8870   0.843   3.948   7.338
 2778SOL    HW2 8871   0.718   3.972   7.419
 2779SOL     OW 8872   1.339   4.313   7.017
 2779SOL    HW1 8873   1.362   4.276   7.102
 2779SOL    HW2 8874   1.388   4.395   7.013
 2780SOL     OW 8875   0.926   4.233   6.481
 2780SOL    HW1 8876   0.902   4.217   6.390
 2780SOL    HW2 8877   0.965   4.151   6.511
 2781SOL     OW 8878   0.555   3.787   6.083
 2781SOL    HW1 8879   0.475   3.784   6.135
 2781SOL    HW2 8880   0.545   3.865   6.028
 2782SOL     OW 8881   0.294   3.769   5.763
 2782SOL    HW1 8882   0.356   3.836   5.734
 2782SOL    HW2 8883   0.348   3.704   5.808
 2783SOL     OW 8884   0.940   3.974   6.044
 2783SOL    HW1 8885   0.915   4.011   5.959
 2783SOL    HW2 8886   1.035   3.988   6.049
 2784SOL     OW 8887   1.073   4.395   7.118
 2784SOL    HW1 8888   0.992   4.364   7.077
 2784SOL    HW2 8889   1.143   4.361   7.061
 2785SOL     OW 8890   1.025   4.262   5.615
 2785SOL    HW1 8891   1.011   4.350   5.580
 2785SOL    HW2 8892   1.089   4.275   5.685
 2786SOL     OW 8893   0.080   4.255   6.989
 2786SOL    HW1 8894   0.159   4.268   6.937
 2786SOL    HW2 8895   0.050   4.343   7.010
 2787SOL     OW 8896   0.559   3.951   6.753
 2787SOL    HW1 8897   0.601   3.874   6.791
 2787SOL    HW2 8898   0.468   3.945   6.780
 2788SOL     OW 8899   0.869   4.190   6.221
 2788SOL    HW1 8900   0.838   4.250   6.154
 2788SOL    HW2 8901   0.888   4.109   6.174
 2789SOL     OW 8902   1.016   3.777   6.335
 2789SOL    HW1 8903   0.957   3.770   6.259
 2789SOL    HW2 8904   0.993   3.702   6.390
 2790SOL     OW 8905   1.479   4.308   6.545
 2790SOL    HW1 8906   1.413   4.241   6.565
 2790SOL    HW2 8907   1.527   4.319   6.627
 2791SOL     OW 8908   1.405   4.296   5.659
 2791SOL    HW1 8909   1.342   4.267   5.725
 2791SOL    HW2 8910   1.487   4.256   5.685
 2792SOL     OW 8911   0.525   3.985   5.898
 2792SOL    HW1 8912   0.572   3.939   5.829
 2792SOL    HW2 8913   0.510   4.073   5.862
 2793SOL     OW 8914   0.917   3.821   6.979
 2793SOL    HW1 8915   0.941   3.800   6.889
 2793SOL    HW2 8916   0.997   3.859   7.017
 2794SOL     OW 8917   0.448   0.004   6.855
 2794SOL    HW1 8918   0.504   4.496   6.932
 2794SOL    HW2 8919   0.412   4.416   6.843
 2795SOL     OW 8920   1.265   4.099   6.863
 2795SOL    HW1 8921   1.298   4.177   6.909
 2795SOL    HW2 8922   1.176   4.123   6.837
 2796SOL     OW 8923   0.554   4.248   6.450
 2796SOL    HW1 8924   0.572   4.283   6.362
 2796SOL    HW2 8925   0.620   4.288   6.506
 2797SOL     OW 8926   1.566   4.334   6.069
 2797SOL    HW1 8927   1.544   4.400   6.134
 2797SOL    HW2 8928   1.626   4.378   6.009
 2798SOL     OW 8929   0.995   3.853   7.340
 2798SOL    HW1 8930   1.055   3.924   7.317
 2798SOL    HW2 8931   1.043   3.773   7.315
 2799SOL     OW 8932   0.496   3.766   7.334
 2799SOL    HW1 8933   0.453   3.710   7.270
 2799SOL    HW2 8934   0.437   3.841   7.343
 2800SOL     OW 8935   1.208   4.252   5.846
 2800SOL    HW1 8936   1.218   4.173   5.899
 2800SOL    HW2 8937   1.160   4.312   5.903
 2801SOL     OW 8938   0.298   3.921   6.830
 2801SOL    HW1 8939   0.256   3.949   6.912
 2801SOL    HW2 8940   0.286   3.826   6.828
 2802SOL     OW 8941   0.736   4.360   6.625
 2802SOL    HW1 8942   0.809   4.321   6.577
 2802SOL    HW2 8943   0.749   4.454   6.617
 2803SOL     OW 8944   1.753   0.130   7.437
 2803SOL    HW1 8945   1.683   0.148   7.374
 2803SOL    HW2 8946   1.714   0.148   7.522
 2804SOL     OW 8947   0.315   3.792   6.204
 2804SOL    HW1 8948   0.288   3.881   6.229
 2804SOL    HW2 8949   0.313   3.742   6.285
 2805SOL     OW 8950   1.615   4.090   5.952
 2805SOL    HW1 8951   1.646   4.030   6.020
 2805SOL    HW2 8952   1.589   4.169   6.001
 2806SOL     OW 8953   1.524   3.999   5.712
 2806SOL    HW1 8954   1.461   3.931   5.739
 2806SOL    HW2 8955   1.560   4.031   5.795
 2807SOL     OW 8956   0.321   0.012   6.493
 2807SOL    HW1 8957   0.400   0.066   6.502
 2807SOL    HW2 8958   0.339   4.435   6.548
 2808SOL     OW 8959   0.331   4.236   6.598
 2808SOL    HW1 8960   0.287   4.154   6.575
 2808SOL    HW2 8961   0.407   4.240   6.540
 2809SOL     OW 8962   1.137   4.091   7.273
 2809SOL    HW1 8963   1.084   4.150   7.326
 2809SOL    HW2 8964   1.221   4.136   7.265
 2810SOL     OW 8965   1.160   3.924   7.055
 2810SOL    HW1 8966   1.150   3.985   7.128
 2810SOL    HW2 8967   1.202   3.976   6.986
 2811SOL     OW 8968   0.018   4.273   6.684
 2811SOL    HW1 8969   0.108   4.265   6.653
 2811SOL    HW2 8970   0.019   4.235   6.771
 2812SOL     OW 8971   0.172   4.236   7.272
 2812SOL    HW1 8972   0.264   4.221   7.248
 2812SOL    HW2 8973   0.150   4.319   7.230
 2813SOL     OW 8974   0.820   4.279   5.942
 2813SOL    HW1 8975   0.825   4.206   5.880
 2813SOL    HW2 8976   0.732   4.314   5.932
 2814SOL     OW 8977   1.634   4.315   6.769
 2814SOL    HW1 8978   1.631   4.258   6.846
 2814SOL    HW2 8979   1.723   4.304   6.735
 2815SOL     OW 8980   0.672   4.190   6.839
 2815SOL    HW1 8981   0.636   4.108   6.806
 2815SOL    HW2 8982   0.683   4.245   6.761
 2816SOL     OW 8983   0.483   4.225   5.772
 2816SOL    HW1 8984   0.507   4.309   5.812
 2816SOL    HW2 8985   0.391   4.235   5.750
 2817SOL     OW 8986   1.723   3.873   6.096
 2817SOL    HW1 8987   1.793   3.858   6.033
 2817SOL    HW2 8988   1.706   3.786   6.135
 2818SOL     OW 8989   1.279   0.135   6.265
 2818SOL    HW1 8990   1.337   0.061   6.283
 2818SOL    HW2 8991   1.329   0.191   6.205
 2819SOL     OW 8992   1.840   3.895   6.552
 2819SOL    HW1 8993   1.868   3.807   6.526
 2819SOL    HW2 8994   1.754   3.906   6.512
 2820SOL     OW 8995   0.267   4.040   6.306
 2820SOL    HW1 8996   0.189   4.088   6.278
 2820SOL    HW2 8997   0.255   4.027   6.400
 2821SOL     OW 8998   0.901   0.090   5.794
 2821SOL    HW1 8999   0.983   0.127   5.760
 2821SOL    HW2 9000   0.924   0.057   5.881
 2822SOL     OW 9001   1.065   0.292   6.335
 2822SOL    HW1 9002   0.996   0.289   6.268
 2822SOL    HW2 9003   1.131   0.230   6.304
 2823SOL     OW 9004   1.021   3.964   6.550
 2823SOL    HW1 9005   1.017   3.915   6.467
 2823SOL    HW2 9006   1.017   3.897   6.618
 2824SOL     OW 9007   1.724   4.114   6.966
 2824SOL    HW1 9008   1.795   4.178   6.965
 2824SOL    HW2 9009   1.754   4.044   6.909
 2825SOL     OW 9010   0.675   3.923   7.085
 2825SOL    HW1 9011   0.759   3.900   7.045
 2825SOL    HW2 9012   0.698   3.953   7.173
 2826SOL     OW 9013   0.066   4.045   5.628
 2826SOL    HW1 9014   4.475   4.068   5.614
 2826SOL    HW2 9015   0.113   4.128   5.626
 2827SOL     OW 9016   0.087   3.900   5.889
 2827SOL    HW1 9017   0.075   3.966   5.821
 2827SOL    HW2 9018   0.162   3.849   5.859
 2828SOL     OW 9019   0.726   4.277   7.281
 2828SOL    HW1 9020   0.725   4.326   7.364
 2828SOL    HW2 9021   0.744   4.187   7.307
 2829SOL     OW 9022   1.218   4.042   6.039
 2829SOL    HW1 9023   1.279   3.969   6.033
 2829SOL    HW2 9024   1.246   4.090   6.117
 2830SOL     OW 9025   1.755   4.092   7.237
 2830SOL    HW1 9026   1.741   4.104   7.143
 2830SOL    HW2 9027   1.685   4.033   7.265
 2831SOL     OW 9028   1.113   0.224   5.687
 2831SOL    HW1 9029   1.106   0.268   5.602
 2831SOL    HW2 9030   1.201   0.187   5.687
 2832SOL     OW 9031   1.814   3.907   6.823
 2832SOL    HW1 9032   1.820   3.812   6.836
 2832SOL    HW2 9033   1.822   3.918   6.728
 2833SOL     OW 9034   0.448   4.158   6.119
 2833SOL    HW1 9035   0.467   4.082   6.063
 2833SOL    HW2 9036   0.391   4.124   6.188
 2834SOL     OW 9037   0.322   4.262   6.865
 2834SOL    HW1 9038   0.376   4.195   6.907
 2834SOL    HW2 9039   0.329   4.244   6.771
 2835SOL     OW 9040   1.431   3.950   6.703
 2835SOL    HW1 9041   1.452   3.868   6.748
 2835SOL    HW2 9042   1.380   4.000   6.767
 2836SOL     OW 9043   1.009   3.742   6.726
 2836SOL    HW1 9044   0.954   3.675   6.685
 2836SOL    HW2 9045   1.097   3.703   6.728
 2837SOL     OW 9046   1.354   3.777   5.753
 2837SOL    HW1 9047   1.383   3.710   5.690
 2837SOL    HW2 9048   1.266   3.749   5.778
 2838SOL     OW 9049   1.299   4.174   6.265
 2838SOL    HW1 9050   1.268   4.264   6.279
 2838SOL    HW2 9051   1.297   4.134   6.352
 2839SOL     OW 9052   1.585   3.923   6.465
 2839SOL    HW1 9053   1.528   3.947   6.538
 2839SOL    HW2 9054   1.586   4.001   6.409
 2840SOL     OW 9055   0.224   4.274   7.557
 2840SOL    HW1 9056   0.161   4.301   7.623
 2840SOL    HW2 9057   0.210   4.333   7.484
 2841SOL     OW 9058   0.209   3.992   8.438
 2841SOL    HW1 9059   0.243   3.966   8.523
 2841SOL    HW2 9060   0.133   3.936   8.424
 2842SOL     OW 9061   4.497   4.103   8.078
 2842SOL    HW1 9062   4.413   4.131   8.113
 2842SOL    HW2 9063   4.479   4.019   8.037
 2843SOL     OW 9064   1.724   4.335   7.688
 2843SOL    HW1 9065   1.727   4.325   7.593
 2843SOL    HW2 9066   1.728   4.245   7.721
 2844SOL     OW 9067   0.729   0.276   8.133
 2844SOL    HW1 9068   0.716   0.211   8.202
 2844SOL    HW2 9069   0.642   0.289   8.095
 2845SOL     OW 9070   0.448   4.117   8.936
 2845SOL    HW1 9071   0.529   4.066   8.935
 2845SOL    HW2 9072   0.379   4.052   8.945
 2846SOL     OW 9073   1.614   4.170   8.189
 2846SOL    HW1 9074   1.550   4.195   8.122
 2846SOL    HW2 9075   1.603   4.235   8.259
 2847SOL     OW 9076   1.596   3.849   8.915
 2847SOL    HW1 9077   1.609   3.930   8.866
 2847SOL    HW2 9078   1.579   3.878   9.004
 2848SOL     OW 9079   0.158   4.324   8.087
 2848SOL    HW1 9080   0.099   4.250   8.074
 2848SOL    HW2 9081   0.115   4.397   8.043
 2849SOL     OW 9082   0.130   0.004   9.034
 2849SOL    HW1 9083   0.223   4.485   9.029
 2849SOL    HW2 9084   0.121   0.092   8.998
 2850SOL     OW 9085   0.820   3.726   7.959
 2850SOL    HW1 9086   0.859   3.811   7.938
 2850SOL    HW2 9087   0.726   3.744   7.966
 2851SOL     OW 9088   0.329   3.980   9.250
 2851SOL    HW1 9089   0.370   4.060   9.283
 2851SOL    HW2 9090   0.239   3.985   9.281
 2852SOL     OW 9091   1.277   4.077   8.381
 2852SOL    HW1 9092   1.187   4.044   8.392
 2852SOL    HW2 9093   1.329   4.024   8.441
 2853SOL     OW 9094   0.833   4.297   8.892
 2853SOL    HW1 9095   0.793   4.302   8.979
 2853SOL    HW2 9096   0.762   4.264   8.836
 2854SOL     OW 9097   1.394   4.200   9.124
 2854SOL    HW1 9098   1.399   4.245   9.209
 2854SOL    HW2 9099   1.451   4.123   9.135
 2855SOL     OW 9100   1.000   4.155   8.680
 2855SOL    HW1 9101   0.932   4.178   8.743
 2855SOL    HW2 9102   0.956   4.095   8.619
 2856SOL     OW 9103   1.056   4.412   7.861
 2856SOL    HW1 9104   1.050   4.459   7.944
 2856SOL    HW2 9105   0.970   4.369   7.851
 2857SOL     OW 9106   0.060   0.082   8.302
 2857SOL    HW1 9107   0.142   0.034   8.314
 2857SOL    HW2 9108   0.046   0.083   8.208
 2858SOL     OW 9109   0.896   4.066   7.637
 2858SOL    HW1 9110   0.936   4.129   7.577
 2858SOL    HW2 9111   0.910   3.981   7.595
 2859SOL     OW 9112   1.711   4.300   9.279
 2859SOL    HW1 9113   1.728   4.387   9.242
 2859SOL    HW2 9114   1.731   4.239   9.208
 2860SOL     OW 9115   0.553   3.902   8.342
 2860SOL    HW1 9116   0.555   3.934   8.432
 2860SOL    HW2 9117   0.547   3.982   8.289
 2861SOL     OW 9118   1.492   4.469   8.187
 2861SOL    HW1 9119   1.478   4.412   8.263
 2861SOL    HW2 9120   1.533   0.048   8.223
 2862SOL     OW 9121   0.189   4.001   8.932
 2862SOL    HW1 9122   0.142   4.084   8.943
 2862SOL    HW2 9123   0.181   3.958   9.017
 2863SOL     OW 9124   1.400   3.829   7.883
 2863SOL    HW1 9125   1.392   3.805   7.791
 2863SOL    HW2 9126   1.495   3.838   7.897
 2864SOL     OW 9127   0.346   4.382   7.849
 2864SOL    HW1 9128   0.387   4.306   7.889
 2864SOL    HW2 9129   0.304   4.428   7.922
 2865SOL     OW 9130   1.531   3.949   9.173
 2865SOL    HW1 9131   1.541   3.970   9.266
 2865SOL    HW2 9132   1.463   3.882   9.170
 2866SOL     OW 9133   0.640   3.846   7.549
 2866SOL    HW1 9134   0.701   3.775   7.568
 2866SOL    HW2 9135   0.588   3.814   7.475
 2867SOL     OW 9136   0.764   4.002   9.203
 2867SOL    HW1 9137   0.843   3.948   9.200
 2867SOL    HW2 9138   0.718   3.972   9.281
 2868SOL     OW 9139   1.339   4.313   8.879
 2868SOL    HW1 9140   1.362   4.276   8.964
 2868SOL    HW2 9141   1.389   4.395   8.875
 2869SOL     OW 9142   0.926   4.233   8.344
 2869SOL    HW1 9143   0.902   4.217   8.252
 2869SOL    HW2 9144   0.965   4.151   8.373
 2870SOL     OW 9145   0.555   3.787   7.945
 2870SOL    HW1 9146   0.475   3.784   7.997
 2870SOL    HW2 9147   0.545   3.865   7.890
 2871SOL     OW 9148   0.294   3.769   7.625
 2871SOL    HW1 9149   0.356   3.835   7.595
 2871SOL    HW2 9150   0.348   3.704   7.670
 2872SOL     OW 9151   0.940   3.974   7.906
 2872SOL    HW1 9152   0.915   4.011   7.821
 2872SOL    HW2 9153   1.035   3.988   7.911
 2873SOL     OW 9154   1.073   4.394   8.980
 2873SOL    HW1 9155   0.992   4.364   8.939
 2873SOL    HW2 9156   1.143   4.361   8.923
 2874SOL     OW 9157   1.026   4.262   7.477
 2874SOL    HW1 9158   1.011   4.350   7.442
 2874SOL    HW2 9159   1.089   4.275   7.547
 2875SOL     OW 9160   0.079   4.255   8.850
 2875SOL    HW1 9161   0.159   4.267   8.799
 2875SOL    HW2 9162   0.051   4.343   8.873
 2876SOL     OW 9163   0.559   3.951   8.615
 2876SOL    HW1 9164   0.601   3.874   8.653
 2876SOL    HW2 9165   0.468   3.945   8.642
 2877SOL     OW 9166   0.869   4.190   8.083
 2877SOL    HW1 9167   0.838   4.250   8.016
 2877SOL    HW2 9168   0.888   4.109   8.036
 2878SOL     OW 9169   1.015   3.778   8.197
 2878SOL    HW1 9170   0.957   3.770   8.121
 2878SOL    HW2 9171   0.993   3.702   8.252
 2879SOL     OW 9172   1.479   4.308   8.407
 2879SOL    HW1 9173   1.413   4.241   8.427
 2879SOL    HW2 9174   1.527   4.319   8.489
 2880SOL     OW 9175   1.405   4.296   7.521
 2880SOL    HW1 9176   1.342   4.267   7.587
 2880SOL    HW2 9177   1.487   4.255   7.547
 2881SOL     OW 9178   0.525   3.986   7.760
 2881SOL    HW1 9179   0.572   3.939   7.691
 2881SOL    HW2 9180   0.510   4.073   7.724
 2882SOL     OW 9181   0.917   3.821   8.841
 2882SOL    HW1 9182   0.941   3.800   8.751
 2882SOL    HW2 9183   0.997   3.859   8.879
 2883SOL     OW 9184   0.448   0.004   8.717
 2883SOL    HW1 9185   0.505   4.496   8.794
 2883SOL    HW2 9186   0.412   4.416   8.705
 2884SOL     OW 9187   1.265   4.099   8.725
 2884SOL    HW1 9188   1.298   4.177   8.771
 2884SOL    HW2 9189   1.176   4.122   8.700
 2885SOL     OW 9190   0.554   4.249   8.312
 2885SOL    HW1 9191   0.572   4.283   8.224
 2885SOL    HW2 9192   0.620   4.288   8.368
 2886SOL     OW 9193   1.566   4.334   7.931
 2886SOL    HW1 9194   1.544   4.400   7.996
 2886SOL    HW2 9195   1.626   4.379   7.871
 2887SOL     OW 9196   0.996   3.853   9.202
 2887SOL    HW1 9197   1.055   3.924   9.179
 2887SOL    HW2 9198   1.043   3.773   9.177
 2888SOL     OW 9199   0.496   3.766   9.196
 2888SOL    HW1 9200   0.453   3.710   9.132
 2888SOL    HW2 9201   0.437   3.841   9.205
 2889SOL     OW 9202   1.208   4.252   7.708
 2889SOL    HW1 9203   1.218   4.173   7.761
 2889SOL    HW2 9204   1.160   4.312   7.765
 2890SOL     OW 9205   0.298   3.921   8.692
 2890SOL    HW1 9206   0.256   3.949   8.774
 2890SOL    HW2 9207   0.286   3.826   8.690
 2891SOL     OW 9208   0.736   4.360   8.487
 2891SOL    HW1 9209   0.809   4.321   8.439
 2891SOL    HW2 9210   0.749   4.454   8.479
 2892SOL     OW 9211   1.753   0.129   9.299
 2892SOL    HW1 9212   1.683   0.148   9.236
 2892SOL    HW2 9213   1.714   0.148   9.384
 2893SOL     OW 9214   0.314   3.792   8.066
 2893SOL    HW1 9215   0.288   3.880   8.091
 2893SOL    HW2 9216   0.313   3.742   8.147
 2894SOL     OW 9217   1.615   4.090   7.814
 2894SOL    HW1 9218   1.646   4.029   7.881
 2894SOL    HW2 9219   1.589   4.168   7.863
 2895SOL     OW 9220   1.524   3.999   7.574
 2895SOL    HW1 9221   1.461   3.931   7.600
 2895SOL    HW2 9222   1.560   4.031   7.657
 2896SOL     OW 9223   0.321   0.012   8.355
 2896SOL    HW1 9224   0.400   0.066   8.364
 2896SOL    HW2 9225   0.339   4.435   8.410
 2897SOL     OW 9226   0.331   4.236   8.460
 2897SOL    HW1 9227   0.287   4.154   8.437
 2897SOL    HW2 9228   0.407   4.240   8.402
 2898SOL     OW 9229   1.137   4.091   9.136
 2898SOL    HW1 9230   1.084   4.150   9.189
 2898SOL    HW2 9231   1.221   4.136   9.127
 2899SOL     OW 9232   1.160   3.924   8.917
 2899SOL    HW1 9233   1.150   3.985   8.990
 2899SOL    HW2 9234   1.202   3.976   8.848
 2900SOL     OW 9235   0.018   4.273   8.545
 2900SOL    HW1 9236   0.108   4.265   8.515
 2900SOL    HW2 9237   0.019   4.235   8.634
 2901SOL     OW 9238   0.172   4.236   9.134
 2901SOL    HW1 9239   0.264   4.221   9.110
 2901SOL    HW2 9240   0.150   4.319   9.092
 2902SOL     OW 9241   0.820   4.279   7.804
 2902SOL    HW1 9242   0.825   4.206   7.742
 2902SOL    HW2 9243   0.732   4.314   7.794
 2903SOL     OW 9244   1.634   4.315   8.631
 2903SOL    HW1 9245   1.631   4.258   8.708
 2903SOL    HW2 9246   1.723   4.305   8.597
 2904SOL     OW 9247   0.672   4.190   8.701
 2904SOL    HW1 9248   0.636   4.108   8.668
 2904SOL    HW2 9249   0.683   4.245   8.623
 2905SOL     OW 9250   0.483   4.225   7.634
 2905SOL    HW1 9251   0.508   4.309   7.673
 2905SOL    HW2 9252   0.391   4.235   7.613
 2906SOL     OW 9253   1.723   3.873   7.958
 2906SOL    HW1 9254   1.793   3.858   7.895
 2906SOL    HW2 9255   1.706   3.787   7.997
 2907SOL     OW 9256   1.279   0.135   8.127
 2907SOL    HW1 9257   1.337   0.061   8.145
 2907SOL    HW2 9258   1.329   0.190   8.067
 2908SOL     OW 9259   1.840   3.895   8.414
 2908SOL    HW1 9260   1.868   3.807   8.388
 2908SOL    HW2 9261   1.754   3.906   8.374
 2909SOL     OW 9262   0.267   4.040   8.168
 2909SOL    HW1 9263   0.189   4.088   8.140
 2909SOL    HW2 9264   0.255   4.027   8.262
 2910SOL     OW 9265   0.901   0.090   7.656
 2910SOL    HW1 9266   0.983   0.127   7.622
 2910SOL    HW2 9267   0.924   0.057   7.743
 2911SOL     OW 9268   1.065   0.292   8.197
 2911SOL    HW1 9269   0.996   0.289   8.130
 2911SOL    HW2 9270   1.131   0.230   8.166
 2912SOL     OW 9271   1.021   3.964   8.412
 2912SOL    HW1 9272   1.017   3.915   8.329
 2912SOL    HW2 9273   1.017   3.897   8.480
 2913SOL     OW 9274   1.724   4.114   8.828
 2913SOL    HW1 9275   1.795   4.178   8.826
 2913SOL    HW2 9276   1.754   4.044   8.771
 2914SOL     OW 9277   0.675   3.923   8.947
 2914SOL    HW1 9278   0.759   3.900   8.906
 2914SOL    HW2 9279   0.698   3.953   9.035
 2915SOL     OW 9280   0.066   4.045   7.490
 2915SOL    HW1 9281   4.475   4.069   7.476
 2915SOL    HW2 9282   0.113   4.128   7.488
 2916SOL     OW 9283   0.087   3.900   7.751
 2916SOL    HW1 9284   0.075   3.966   7.682
 2916SOL    HW2 9285   0.162   3.849   7.721
 2917SOL     OW 9286   0.726   4.277   9.143
 2917SOL    HW1 9287   0.725   4.326   9.226
 2917SOL    HW2 9288   0.744   4.187   9.169
 2918SOL     OW 9289   1.218   4.042   7.901
 2918SOL    HW1 9290   1.279   3.969   7.895
 2918SOL    HW2 9291   1.246   4.090   7.979
 2919SOL     OW 9292   1.755   4.092   9.099
 2919SOL    HW1 9293   1.741   4.104   9.005
 2919SOL    HW2 9294   1.685   4.033   9.127
 2920SOL     OW 9295   1.113   0.224   7.549
 2920SOL    HW1 9296   1.106   0.268   7.464
 2920SOL    HW2 9297   1.201   0.187   7.549
 2921SOL     OW 9298   1.814   3.907   8.685
 2921SOL    HW1 9299   1.820   3.812   8.698
 2921SOL    HW2 9300   1.822   3.918   8.591
 2922SOL     OW 9301   0.448   4.158   7.980
 2922SOL    HW1 9302   0.467   4.082   7.925
 2922SOL    HW2 9303   0.391   4.123   8.050
 2923SOL     OW 9304   0.322   4.262   8.727
 2923SOL    HW1 9305   0.376   4.195   8.769
 2923SOL    HW2 9306   0.329   4.244   8.633
 2924SOL     OW 9307   1.431   3.950   8.565
 2924SOL    HW1 9308   1.452   3.867   8.609
 2924SOL    HW2 9309   1.380   3.999   8.629
 2925SOL     OW 9310   1.009   3.742   8.588
 2925SOL    HW1 9311   0.954   3.675   8.546
 2925SOL    HW2 9312   1.096   3.703   8.590
 2926SOL     OW 9313   1.354   3.777   7.614
 2926SOL    HW1 9314   1.385   3.709   7.554
 2926SOL    HW2 9315   1.266   3.749   7.639
 2927SOL     OW 9316   1.299   4.174   8.127
 2927SOL    HW1 9317   1.268   4.264   8.141
 2927SOL    HW2 9318   1.297   4.134   8.214
 2928SOL     OW 9319   1.585   3.923   8.327
 2928SOL    HW1 9320   1.528   3.947   8.400
 2928SOL    HW2 9321   1.586   4.001   8.271
 2929SOL     OW 9322   0.224   4.274   9.419
 2929SOL    HW1 9323   0.161   4.301   9.485
 2929SOL    HW2 9324   0.210   4.334   9.346
 2930SOL     OW 9325   0.211   3.992  10.299
 2930SOL    HW1 9326   0.245   3.967  10.385
 2930SOL    HW2 9327   0.133   3.937  10.288
 2931SOL     OW 9328   4.497   4.103   9.940
 2931SOL    HW1 9329   4.412   4.131   9.976
 2931SOL    HW2 9330   4.479   4.019   9.899
 2932SOL     OW 9331   1.724   4.335   9.550
 2932SOL    HW1 9332   1.727   4.325   9.455
 2932SOL    HW2 9333   1.729   4.245   9.583
 2933SOL     OW 9334   0.730   0.276   9.995
 2933SOL    HW1 9335   0.716   0.212  10.065
 2933SOL    HW2 9336   0.642   0.290   9.958
 2934SOL     OW 9337   0.449   4.122  10.784
 2934SOL    HW1 9338   0.529   4.070  10.791
 2934SOL    HW2 9339   0.379   4.063  10.813
 2935SOL     OW 9340   1.614   4.170  10.051
 2935SOL    HW1 9341   1.551   4.196   9.985
 2935SOL    HW2 9342   1.603   4.235  10.121
 2936SOL     OW 9343   1.590   3.842  10.776
 2936SOL    HW1 9344   1.611   3.922  10.729
 2936SOL    HW2 9345   1.593   3.867  10.869
 2937SOL     OW 9346   0.159   4.323   9.948
 2937SOL    HW1 9347   0.099   4.249   9.935
 2937SOL    HW2 9348   0.116   4.397   9.904
 2938SOL     OW 9349   0.103   4.498  10.930
 2938SOL    HW1 9350   0.196   4.480  10.942
 2938SOL    HW2 9351   0.100   0.085  10.890
 2939SOL     OW 9352   0.820   3.726   9.822
 2939SOL    HW1 9353   0.859   3.811   9.800
 2939SOL    HW2 9354   0.726   3.744   9.828
 2940SOL     OW 9355   0.341   3.986   0.009
 2940SOL    HW1 9356   0.384   4.066   0.039
 2940SOL    HW2 9357   0.248   4.005   0.012
 2941SOL     OW 9358   1.277   4.077  10.244
 2941SOL    HW1 9359   1.188   4.044  10.254
 2941SOL    HW2 9360   1.329   4.024  10.303
 2942SOL     OW 9361   0.827   4.296  10.759
 2942SOL    HW1 9362   0.781   4.308  10.843
 2942SOL    HW2 9363   0.760   4.261  10.700
 2943SOL     OW 9364   1.000   4.154  10.544
 2943SOL    HW1 9365   0.928   4.177  10.603
 2943SOL    HW2 9366   0.960   4.097  10.478
 2944SOL     OW 9367   1.056   4.412   9.723
 2944SOL    HW1 9368   1.050   4.459   9.806
 2944SOL    HW2 9369   0.970   4.369   9.713
 2945SOL     OW 9370   0.059   0.080  10.164
 2945SOL    HW1 9371   0.142   0.034  10.177
 2945SOL    HW2 9372   0.048   0.084  10.069
 2946SOL     OW 9373   0.896   4.065   9.499
 2946SOL    HW1 9374   0.936   4.129   9.439
 2946SOL    HW2 9375   0.910   3.981   9.457
 2947SOL     OW 9376   0.553   3.902  10.204
 2947SOL    HW1 9377   0.554   3.933  10.294
 2947SOL    HW2 9378   0.549   3.982  10.151
 2948SOL     OW 9379   1.493   4.469  10.049
 2948SOL    HW1 9380   1.478   4.412  10.125
 2948SOL    HW2 9381   1.533   0.048  10.085
 2949SOL     OW 9382   0.191   4.000  10.796
 2949SOL    HW1 9383   0.146   4.084  10.804
 2949SOL    HW2 9384   0.181   3.960  10.883
 2950SOL     OW 9385   1.400   3.829   9.745
 2950SOL    HW1 9386   1.392   3.805   9.653
 2950SOL    HW2 9387   1.495   3.839   9.759
 2951SOL     OW 9388   0.346   4.382   9.711
 2951SOL    HW1 9389   0.386   4.306   9.751
 2951SOL    HW2 9390   0.304   4.428   9.784
 2952SOL     OW 9391   0.640   3.846   9.411
 2952SOL    HW1 9392   0.701   3.775   9.430
 2952SOL    HW2 9393   0.588   3.814   9.336
 2953SOL     OW 9394   0.767   4.006  11.046
 2953SOL    HW1 9395   0.834   3.946  11.080
 2953SOL    HW2 9396   0.702   4.012   0.015
 2954SOL     OW 9397   1.350   4.311  10.742
 2954SOL    HW1 9398   1.365   4.294  10.836
 2954SOL    HW2 9399   1.383   4.400  10.728
 2955SOL     OW 9400   0.927   4.234  10.205
 2955SOL    HW1 9401   0.903   4.218  10.114
 2955SOL    HW2 9402   0.965   4.151  10.235
 2956SOL     OW 9403   0.555   3.787   9.807
 2956SOL    HW1 9404   0.475   3.784   9.859
 2956SOL    HW2 9405   0.545   3.864   9.752
 2957SOL     OW 9406   0.294   3.769   9.487
 2957SOL    HW1 9407   0.356   3.835   9.458
 2957SOL    HW2 9408   0.348   3.704   9.532
 2958SOL     OW 9409   0.940   3.974   9.768
 2958SOL    HW1 9410   0.915   4.010   9.683
 2958SOL    HW2 9411   1.035   3.988   9.773
 2959SOL     OW 9412   1.078   4.364  10.842
 2959SOL    HW1 9413   0.991   4.358  10.803
 2959SOL    HW2 9414   1.138   4.351  10.768
 2960SOL     OW 9415   1.025   4.262   9.339
 2960SOL    HW1 9416   1.011   4.350   9.304
 2960SOL    HW2 9417   1.089   4.275   9.409
 2961SOL     OW 9418   0.088   4.252  10.725
 2961SOL    HW1 9419   0.158   4.261  10.661
 2961SOL    HW2 9420   0.051   4.341  10.732
 2962SOL     OW 9421   0.558   3.951  10.476
 2962SOL    HW1 9422   0.600   3.875  10.517
 2962SOL    HW2 9423   0.466   3.945  10.504
 2963SOL     OW 9424   0.869   4.190   9.945
 2963SOL    HW1 9425   0.838   4.250   9.878
 2963SOL    HW2 9426   0.888   4.109   9.897
 2964SOL     OW 9427   1.015   3.778  10.059
 2964SOL    HW1 9428   0.957   3.771   9.984
 2964SOL    HW2 9429   0.993   3.702  10.114
 2965SOL     OW 9430   1.478   4.308  10.269
 2965SOL    HW1 9431   1.414   4.240  10.289
 2965SOL    HW2 9432   1.527   4.319  10.351
 2966SOL     OW 9433   1.405   4.296   9.383
 2966SOL    HW1 9434   1.342   4.267   9.449
 2966SOL    HW2 9435   1.487   4.255   9.409
 2967SOL     OW 9436   0.525   3.985   9.622
 2967SOL    HW1 9437   0.572   3.939   9.552
 2967SOL    HW2 9438   0.510   4.073   9.586
 2968SOL     OW 9439   0.918   3.823  10.701
 2968SOL    HW1 9440   0.943   3.802  10.611
 2968SOL    HW2 9441   0.997   3.863  10.739
 2969SOL     OW 9442   0.447   4.495  10.565
 2969SOL    HW1 9443   0.498   4.496  10.646
 2969SOL    HW2 9444   0.398   4.413  10.568
 2970SOL     OW 9445   1.266   4.098  10.590
 2970SOL    HW1 9446   1.302   4.175  10.634
 2970SOL    HW2 9447   1.177   4.124  10.564
 2971SOL     OW 9448   0.559   4.244  10.170
 2971SOL    HW1 9449   0.577   4.284  10.084
 2971SOL    HW2 9450   0.622   4.286  10.229
 2972SOL     OW 9451   1.566   4.334   9.793
 2972SOL    HW1 9452   1.544   4.400   9.858
 2972SOL    HW2 9453   1.626   4.379   9.733
 2973SOL     OW 9454   0.497   0.003  11.008
 2973SOL    HW1 9455   0.483   0.054  10.928
 2973SOL    HW2 9456   0.500   4.412  10.979
 2974SOL     OW 9457   1.208   4.252   9.570
 2974SOL    HW1 9458   1.218   4.173   9.623
 2974SOL    HW2 9459   1.160   4.312   9.627
 2975SOL     OW 9460   0.297   3.919  10.554
 2975SOL    HW1 9461   0.260   3.949  10.637
 2975SOL    HW2 9462   0.283   3.825  10.554
 2976SOL     OW 9463   0.735   4.359  10.349
 2976SOL    HW1 9464   0.809   4.322  10.300
 2976SOL    HW2 9465   0.747   4.454  10.342
 2977SOL     OW 9466   0.314   3.792   9.927
 2977SOL    HW1 9467   0.288   3.880   9.953
 2977SOL    HW2 9468   0.313   3.742  10.009
 2978SOL     OW 9469   1.615   4.090   9.676
 2978SOL    HW1 9470   1.646   4.030   9.743
 2978SOL    HW2 9471   1.589   4.169   9.725
 2979SOL     OW 9472   1.524   3.999   9.436
 2979SOL    HW1 9473   1.461   3.931   9.462
 2979SOL    HW2 9474   1.560   4.031   9.519
 2980SOL     OW 9475   0.321   0.012  10.217
 2980SOL    HW1 9476   0.399   0.066  10.228
 2980SOL    HW2 9477   0.337   4.435  10.270
 2981SOL     OW 9478   0.331   4.237  10.308
 2981SOL    HW1 9479   0.288   4.154  10.288
 2981SOL    HW2 9480   0.408   4.239  10.252
 2982SOL     OW 9481   1.157   3.929  10.783
 2982SOL    HW1 9482   1.166   3.988  10.857
 2982SOL    HW2 9483   1.199   3.975  10.710
 2983SOL     OW 9484   0.018   4.272  10.405
 2983SOL    HW1 9485   0.109   4.270  10.375
 2983SOL    HW2 9486   0.022   4.233  10.493
 2984SOL     OW 9487   1.341   0.206  10.979
 2984SOL    HW1 9488   1.413   0.253  11.022
 2984SOL    HW2 9489   1.382   0.160  10.906
 2985SOL     OW 9490   0.820   4.279   9.666
 2985SOL    HW1 9491   0.825   4.206   9.603
 2985SOL    HW2 9492   0.732   4.314   9.656
 2986SOL     OW 9493   1.634   4.314  10.494
 2986SOL    HW1 9494   1.632   4.256  10.570
 2986SOL    HW2 9495   1.723   4.306  10.459
 2987SOL     OW 9496   0.682   4.185  10.561
 2987SOL    HW1 9497   0.638   4.106  10.529
 2987SOL    HW2 9498   0.685   4.244  10.485
 2988SOL     OW 9499   0.483   4.225   9.496
 2988SOL    HW1 9500   0.507   4.309   9.536
 2988SOL    HW2 9501   0.390   4.235   9.475
 2989SOL     OW 9502   1.723   3.873   9.820
 2989SOL    HW1 9503   1.793   3.858   9.757
 2989SOL    HW2 9504   1.706   3.787   9.859
 2990SOL     OW 9505   1.279   0.135   9.989
 2990SOL    HW1 9506   1.337   0.061  10.007
 2990SOL    HW2 9507   1.330   0.190   9.929
 2991SOL     OW 9508   1.840   3.895  10.277
 2991SOL    HW1 9509   1.869   3.808  10.251
 2991SOL    HW2 9510   1.754   3.905  10.236
 2992SOL     OW 9511   0.268   4.040  10.029
 2992SOL    HW1 9512   0.190   4.089  10.002
 2992SOL    HW2 9513   0.255   4.025  10.123
 2993SOL     OW 9514   0.901   0.090   9.518
 2993SOL    HW1 9515   0.983   0.127   9.484
 2993SOL    HW2 9516   0.924   0.058   9.605
 2994SOL     OW 9517   1.065   0.293  10.058
 2994SOL    HW1 9518   0.996   0.288   9.992
 2994SOL    HW2 9519   1.131   0.230  10.028
 2995SOL     OW 9520   1.022   3.964  10.274
 2995SOL    HW1 9521   1.017   3.916  10.192
 2995SOL    HW2 9522   1.017   3.897  10.342
 2996SOL     OW 9523   1.719   4.115  10.693
 2996SOL    HW1 9524   1.791   4.178  10.696
 2996SOL    HW2 9525   1.749   4.045  10.635
 2997SOL     OW 9526   0.676   3.919  10.802
 2997SOL    HW1 9527   0.758   3.897  10.758
 2997SOL    HW2 9528   0.703   3.957  10.885
 2998SOL     OW 9529   0.066   4.045   9.352
 2998SOL    HW1 9530   4.475   4.069   9.337
 2998SOL    HW2 9531   0.113   4.128   9.350
 2999SOL     OW 9532   0.087   3.900   9.612
 2999SOL    HW1 9533   0.075   3.966   9.545
 2999SOL    HW2 9534   0.162   3.848   9.583
 3000SOL     OW 9535   0.723   4.290  11.019
 3000SOL    HW1 9536   0.767   4.341  11.087
 3000SOL    HW2 9537   0.760   4.202  11.027
 3001SOL     OW 9538   1.217   4.042   9.763
 3001SOL    HW1 9539   1.279   3.969   9.757
 3001SOL    HW2 9540   1.246   4.090   9.841
 3002SOL     OW 9541   1.751   4.053  10.962
 3002SOL    HW1 9542   1.729   4.083  10.874
 3002SOL    HW2 9543   1.669   4.060  11.011
 3003SOL     OW 9544   1.113   0.224   9.411
 3003SOL    HW1 9545   1.106   0.268   9.326
 3003SOL    HW2 9546   1.201   0.187   9.412
 3004SOL     OW 9547   1.807   3.907  10.548
 3004SOL    HW1 9548   1.818   3.812  10.560
 3004SOL    HW2 9549   1.819   3.920  10.453
 3005SOL     OW 9550   0.448   4.158   9.841
 3005SOL    HW1 9551   0.467   4.082   9.787
 3005SOL    HW2 9552   0.392   4.124   9.911
 3006SOL     OW 9553   0.311   4.245  10.572
 3006SOL    HW1 9554   0.370   4.182  10.614
 3006SOL    HW2 9555   0.329   4.234  10.478
 3007SOL     OW 9556   1.431   3.949  10.427
 3007SOL    HW1 9557   1.456   3.868  10.472
 3007SOL    HW2 9558   1.381   3.998  10.492
 3008SOL     OW 9559   1.009   3.741  10.450
 3008SOL    HW1 9560   0.955   3.676  10.406
 3008SOL    HW2 9561   1.096   3.703  10.452
 3009SOL     OW 9562   1.354   3.777   9.476
 3009SOL    HW1 9563   1.384   3.709   9.416
 3009SOL    HW2 9564   1.266   3.749   9.501
 3010SOL     OW 9565   1.299   4.174   9.989
 3010SOL    HW1 9566   1.268   4.264  10.003
 3010SOL    HW2 9567   1.297   4.135  10.077
 3011SOL     OW 9568   1.585   3.923  10.189
 3011SOL    HW1 9569   1.528   3.947  10.262
 3011SOL    HW2 9570   1.586   4.001  10.133
 3012SOL     OW 9571   2.078   0.609   0.111
 3012SOL    HW1 9572   1.996   0.618   0.160
 3012SOL    HW2 9573   2.061   0.654   0.028
 3013SOL     OW 9574   2.068   0.302   0.990
 3013SOL    HW1 9575   2.099   0.270   1.075
 3013SOL    HW2 9576   1.987   0.253   0.975
 3014SOL     OW 9577   1.867   0.389   0.636
 3014SOL    HW1 9578   1.781   0.407   0.674
 3014SOL    HW2 9579   1.852   0.315   0.577
 3015SOL     OW 9580   2.430   1.292   1.178
 3015SOL    HW1 9581   2.342   1.294   1.141
 3015SOL    HW2 9582   2.445   1.381   1.211
 3016SOL     OW 9583   3.427   1.513   0.708
 3016SOL    HW1 9584   3.385   1.490   0.791
 3016SOL    HW2 9585   3.356   1.515   0.644
 3017SOL     OW 9586   3.000   0.698   0.694
 3017SOL    HW1 9587   3.045   0.782   0.687
 3017SOL    HW2 9588   2.948   0.705   0.774
 3018SOL     OW 9589   3.642   0.600   0.212
 3018SOL    HW1 9590   3.579   0.614   0.141
 3018SOL    HW2 9591   3.604   0.530   0.265
 3019SOL     OW 9592   2.614   1.141   1.044
 3019SOL    HW1 9593   2.546   1.176   1.101
 3019SOL    HW2 9594   2.651   1.217   1.000
 3020SOL     OW 9595   2.732   0.769   1.823
 3020SOL    HW1 9596   2.718   0.839   1.886
 3020SOL    HW2 9597   2.755   0.814   1.742
 3021SOL     OW 9598   2.548   1.000   0.645
 3021SOL    HW1 9599   2.614   0.989   0.714
 3021SOL    HW2 9600   2.479   1.052   0.686
 3022SOL     OW 9601   2.574   1.150   1.815
 3022SOL    HW1 9602   2.621   1.228   1.844
 3022SOL    HW2 9603   2.492   1.184   1.778
 3023SOL     OW 9604   2.192   1.420   1.069
 3023SOL    HW1 9605   2.118   1.382   1.022
 3023SOL    HW2 9606   2.240   1.469   1.002
 3024SOL     OW 9607   3.322   1.501   1.358
 3024SOL    HW1 9608   3.375   1.580   1.367
 3024SOL    HW2 9609   3.256   1.508   1.427
 3025SOL     OW 9610   2.306   0.394   1.485
 3025SOL    HW1 9611   2.388   0.344   1.488
 3025SOL    HW2 9612   2.238   0.328   1.500
 3026SOL     OW 9613   3.469   0.443   0.739
 3026SOL    HW1 9614   3.387   0.460   0.693
 3026SOL    HW2 9615   3.483   0.521   0.793
 3027SOL     OW 9616   2.078   1.713   0.470
 3027SOL    HW1 9617   2.101   1.786   0.527
 3027SOL    HW2 9618   2.154   1.704   0.411
 3028SOL     OW 9619   2.999   1.342   1.694
 3028SOL    HW1 9620   3.039   1.337   1.780
 3028SOL    HW2 9621   2.947   1.262   1.686
 3029SOL     OW 9622   2.091   1.442   0.535
 3029SOL    HW1 9623   2.070   1.535   0.535
 3029SOL    HW2 9624   2.031   1.404   0.599
 3030SOL     OW 9625   2.125   1.091   0.893
 3030SOL    HW1 9626   2.119   1.003   0.931
 3030SOL    HW2 9627   2.066   1.144   0.945
 3031SOL     OW 9628   2.467   1.790   1.420
 3031SOL    HW1 9629   2.388   1.771   1.470
 3031SOL    HW2 9630   2.495   1.876   1.452
 3032SOL     OW 9631   2.442   0.990   0.146
 3032SOL    HW1 9632   2.489   1.038   0.078
 3032SOL    HW2 9633   2.483   1.017   0.228
 3033SOL     OW 9634   3.440   0.117   1.468
 3033SOL    HW1 9635   3.472   0.185   1.408
 3033SOL    HW2 9636   3.430   0.162   1.551
 3034SOL     OW 9637   1.979   0.654   0.560
 3034SOL    HW1 9638   1.948   0.566   0.582
 3034SOL    HW2 9639   1.971   0.704   0.641
 3035SOL     OW 9640   3.705   1.757   0.331
 3035SOL    HW1 9641   3.772   1.729   0.394
 3035SOL    HW2 9642   3.727   1.849   0.313
 3036SOL     OW 9643   1.914   1.599   0.118
 3036SOL    HW1 9644   1.884   1.512   0.143
 3036SOL    HW2 9645   1.884   1.656   0.190
 3037SOL     OW 9646   3.551   0.919   0.644
 3037SOL    HW1 9647   3.635   0.878   0.623
 3037SOL    HW2 9648   3.530   0.971   0.567
 3038SOL     OW 9649   3.510   1.103   0.431
 3038SOL    HW1 9650   3.593   1.113   0.384
 3038SOL    HW2 9651   3.516   1.167   0.503
 3039SOL     OW 9652   1.984   0.746   1.583
 3039SOL    HW1 9653   2.075   0.776   1.588
 3039SOL    HW2 9654   1.933   0.827   1.589
 3040SOL     OW 9655   2.479   1.387   0.734
 3040SOL    HW1 9656   2.433   1.304   0.744
 3040SOL    HW2 9657   2.461   1.414   0.644
 3041SOL     OW 9658   3.149   1.238   1.422
 3041SOL    HW1 9659   3.181   1.170   1.362
 3041SOL    HW2 9660   3.208   1.232   1.497
 3042SOL     OW 9661   2.682   0.013   0.555
 3042SOL    HW1 9662   2.721   0.089   0.513
 3042SOL    HW2 9663   2.588   0.027   0.548
 3043SOL     OW 9664   2.051   0.963   1.276
 3043SOL    HW1 9665   2.136   0.923   1.260
 3043SOL    HW2 9666   1.990   0.914   1.221
 3044SOL     OW 9667   3.374   1.005   0.206
 3044SOL    HW1 9668   3.310   0.945   0.243
 3044SOL    HW2 9669   3.427   1.034   0.281
 3045SOL     OW 9670   3.047   1.809   1.624
 3045SOL    HW1 9671   3.056   1.869   1.549
 3045SOL    HW2 9672   3.065   1.722   1.587
 3046SOL     OW 9673   2.178   0.252   1.779
 3046SOL    HW1 9674   2.241   0.316   1.812
 3046SOL    HW2 9675   2.104   0.258   1.840
 3047SOL     OW 9676   3.329   1.419   0.949
 3047SOL    HW1 9677   3.261   1.435   1.015
 3047SOL    HW2 9678   3.316   1.328   0.923
 3048SOL     OW 9679   3.517   1.746   0.579
 3048SOL    HW1 9680   3.500   1.715   0.490
 3048SOL    HW2 9681   3.495   1.672   0.635
 3049SOL     OW 9682   2.451   0.716   0.263
 3049SOL    HW1 9683   2.459   0.801   0.221
 3049SOL    HW2 9684   2.389   0.730   0.335
 3050SOL     OW 9685   3.152   0.368   0.933
 3050SOL    HW1 9686   3.061   0.338   0.924
 3050SOL    HW2 9687   3.191   0.305   0.994
 3051SOL     OW 9688   3.443   1.672   0.313
 3051SOL    HW1 9689   3.535   1.699   0.306
 3051SOL    HW2 9690   3.416   1.653   0.223
 3052SOL     OW 9691   2.657   0.621   1.453
 3052SOL    HW1 9692   2.629   0.594   1.541
 3052SOL    HW2 9693   2.621   0.554   1.395
 3053SOL     OW 9694   3.250   0.481   1.676
 3053SOL    HW1 9695   3.254   0.525   1.761
 3053SOL    HW2 9696   3.316   0.412   1.682
 3054SOL     OW 9697   2.815   0.887   1.585
 3054SOL    HW1 9698   2.869   0.817   1.548
 3054SOL    HW2 9699   2.766   0.921   1.510
 3055SOL     OW 9700   2.860   0.417   1.233
 3055SOL    HW1 9701   2.770   0.424   1.267
 3055SOL    HW2 9702   2.851   0.366   1.152
 3056SOL     OW 9703   2.912   0.701   0.427
 3056SOL    HW1 9704   2.932   0.693   0.520
 3056SOL    HW2 9705   2.829   0.656   0.415
 3057SOL     OW 9706   1.951   0.822   0.775
 3057SOL    HW1 9707   2.031   0.815   0.828
 3057SOL    HW2 9708   1.906   0.898   0.811
 3058SOL     OW 9709   1.984   1.817   1.570
 3058SOL    HW1 9710   1.976   1.812   1.666
 3058SOL    HW2 9711   1.939   1.898   1.546
 3059SOL     OW 9712   2.735   0.362   0.198
 3059SOL    HW1 9713   2.790   0.417   0.142
 3059SOL    HW2 9714   2.772   0.275   0.190
 3060SOL     OW 9715   3.565   0.571   1.829
 3060SOL    HW1 9716   3.529   0.646   1.779
 3060SOL    HW2 9717   3.600   0.513   1.761
 3061SOL     OW 9718   3.242   1.142   0.540
 3061SOL    HW1 9719   3.320   1.129   0.487
 3061SOL    HW2 9720   3.188   1.204   0.491
 3062SOL     OW 9721   2.399   0.207   0.901
 3062SOL    HW1 9722   2.421   0.225   0.993
 3062SOL    HW2 9723   2.394   0.293   0.860
 3063SOL     OW 9724   2.864   1.442   0.472
 3063SOL    HW1 9725   2.830   1.517   0.423
 3063SOL    HW2 9726   2.844   1.463   0.564
 3064SOL     OW 9727   2.219   1.797   0.871
 3064SOL    HW1 9728   2.247   1.706   0.874
 3064SOL    HW2 9729   2.297   1.847   0.896
 3065SOL     OW 9730   3.661   1.056   0.871
 3065SOL    HW1 9731   3.608   1.037   0.794
 3065SOL    HW2 9732   3.598   1.062   0.943
 3066SOL     OW 9733   3.089   1.539   1.513
 3066SOL    HW1 9734   3.077   1.467   1.575
 3066SOL    HW2 9735   3.024   1.524   1.445
 3067SOL     OW 9736   2.175   0.960   0.278
 3067SOL    HW1 9737   2.254   0.983   0.228
 3067SOL    HW2 9738   2.150   0.874   0.244
 3068SOL     OW 9739   3.343   0.743   0.721
 3068SOL    HW1 9740   3.335   0.703   0.808
 3068SOL    HW2 9741   3.420   0.800   0.729
 3069SOL     OW 9742   2.330   1.265   1.737
 3069SOL    HW1 9743   2.303   1.270   1.646
 3069SOL    HW2 9744   2.248   1.262   1.786
 3070SOL     OW 9745   2.970   1.780   0.227
 3070SOL    HW1 9746   2.909   1.729   0.280
 3070SOL    HW2 9747   3.012   1.715   0.171
 3071SOL     OW 9748   2.049   0.268   1.515
 3071SOL    HW1 9749   1.983   0.337   1.504
 3071SOL    HW2 9750   2.069   0.270   1.609
 3072SOL     OW 9751   3.489   1.374   0.090
 3072SOL    HW1 9752   3.447   1.459   0.078
 3072SOL    HW2 9753   3.424   1.310   0.060
 3073SOL     OW 9754   2.325   1.732   0.328
 3073SOL    HW1 9755   2.368   1.795   0.385
 3073SOL    HW2 9756   2.394   1.702   0.269
 3074SOL     OW 9757   3.286   0.145   0.425
 3074SOL    HW1 9758   3.267   0.106   0.339
 3074SOL    HW2 9759   3.381   0.136   0.435
 3075SOL     OW 9760   2.118   1.788   1.232
 3075SOL    HW1 9761   2.167   1.717   1.275
 3075SOL    HW2 9762   2.106   1.757   1.142
 3076SOL     OW 9763   2.795   1.699   0.899
 3076SOL    HW1 9764   2.874   1.649   0.922
 3076SOL    HW2 9765   2.756   1.649   0.828
 3077SOL     OW 9766   2.256   0.692   0.471
 3077SOL    HW1 9767   2.277   0.600   0.488
 3077SOL    HW2 9768   2.163   0.699   0.493
 3078SOL     OW 9769   3.386   0.233   1.723
 3078SOL    HW1 9770   3.386   0.255   1.816
 3078SOL    HW2 9771   3.306   0.182   1.710
 3079SOL     OW 9772   2.462   0.090   0.126
 3079SOL    HW1 9773   2.557   0.077   0.132
 3079SOL    HW2 9774   2.446   0.102   0.032
 3080SOL     OW 9775   2.630   0.271   1.755
 3080SOL    HW1 9776   2.698   0.204   1.757
 3080SOL    HW2 9777   2.590   0.268   1.843
 3081SOL     OW 9778   2.739   1.523   1.193
 3081SOL    HW1 9779   2.722   1.485   1.107
 3081SOL    HW2 9780   2.808   1.469   1.231
 3082SOL     OW 9781   3.202   0.590   1.428
 3082SOL    HW1 9782   3.230   0.561   1.515
 3082SOL    HW2 9783   3.236   0.678   1.420
 3083SOL     OW 9784   2.679   1.394   0.942
 3083SOL    HW1 9785   2.763   1.381   0.900
 3083SOL    HW2 9786   2.615   1.394   0.871
 3084SOL     OW 9787   2.789   0.521   0.898
 3084SOL    HW1 9788   2.771   0.521   0.804
 3084SOL    HW2 9789   2.823   0.433   0.915
 3085SOL     OW 9790   2.419   0.078   0.527
 3085SOL    HW1 9791   2.332   0.050   0.554
 3085SOL    HW2 9792   2.403   0.139   0.454
 3086SOL     OW 9793   3.286   1.197   0.028
 3086SOL    HW1 9794   3.315   1.126   0.084
 3086SOL    HW2 9795   3.203   1.225   0.066
 3087SOL     OW 9796   2.146   0.053   0.202
 3087SOL    HW1 9797   2.218   0.098   0.158
 3087SOL    HW2 9798   2.187   0.003   0.272
 3088SOL     OW 9799   2.817   0.225   0.443
 3088SOL    HW1 9800   2.767   0.292   0.396
 3088SOL    HW2 9801   2.906   0.260   0.449
 3089SOL     OW 9802   2.942   0.683   1.459
 3089SOL    HW1 9803   2.872   0.618   1.459
 3089SOL    HW2 9804   3.022   0.632   1.448
 3090SOL     OW 9805   3.082   1.571   0.795
 3090SOL    HW1 9806   3.099   1.637   0.727
 3090SOL    HW2 9807   3.152   1.585   0.859
 3091SOL     OW 9808   2.335   1.152   0.734
 3091SOL    HW1 9809   2.267   1.131   0.799
 3091SOL    HW2 9810   2.292   1.140   0.649
 3092SOL     OW 9811   3.129   1.794   0.608
 3092SOL    HW1 9812   3.177   1.855   0.553
 3092SOL    HW2 9813   3.063   1.847   0.652
 3093SOL     OW 9814   2.882   0.528   0.040
 3093SOL    HW1 9815   2.845   0.614   0.019
 3093SOL    HW2 9816   2.955   0.547   0.098
 3094SOL     OW 9817   1.947   0.549   1.396
 3094SOL    HW1 9818   2.038   0.554   1.366
 3094SOL    HW2 9819   1.939   0.621   1.459
 3095SOL     OW 9820   2.423   0.246   1.169
 3095SOL    HW1 9821   2.448   0.165   1.212
 3095SOL    HW2 9822   2.331   0.258   1.191
 3096SOL     OW 9823   2.721   0.513   0.631
 3096SOL    HW1 9824   2.686   0.543   0.547
 3096SOL    HW2 9825   2.683   0.426   0.643
 3097SOL     OW 9826   2.813   0.025   0.793
 3097SOL    HW1 9827   2.768   0.021   0.709
 3097SOL    HW2 9828   2.839   4.435   0.811
 3098SOL     OW 9829   3.300   1.162   0.856
 3098SOL    HW1 9830   3.230   1.096   0.856
 3098SOL    HW2 9831   3.325   1.171   0.764
 3099SOL     OW 9832   3.327   0.607   0.970
 3099SOL    HW1 9833   3.271   0.530   0.971
 3099SOL    HW2 9834   3.383   0.598   1.047
 3100SOL     OW 9835   3.711   0.811   0.377
 3100SOL    HW1 9836   3.763   0.762   0.441
 3100SOL    HW2 9837   3.684   0.746   0.312
 3101SOL     OW 9838   2.356   1.424   0.172
 3101SOL    HW1 9839   2.279   1.399   0.223
 3101SOL    HW2 9840   2.352   1.369   0.094
 3102SOL     OW 9841   3.535   1.264   0.645
 3102SOL    HW1 9842   3.630   1.265   0.659
 3102SOL    HW2 9843   3.507   1.353   0.665
 3103SOL     OW 9844   3.254   0.571   0.079
 3103SOL    HW1 9845   3.190   0.555   0.148
 3103SOL    HW2 9846   3.315   0.497   0.085
 3104SOL     OW 9847   2.382   0.261   0.324
 3104SOL    HW1 9848   2.416   0.201   0.258
 3104SOL    HW2 9849   2.364   0.342   0.277
 3105SOL     OW 9850   3.613   1.241   1.569
 3105SOL    HW1 9851   3.700   1.202   1.564
 3105SOL    HW2 9852   3.628   1.331   1.598
 3106SOL     OW 9853   2.918   1.355   1.334
 3106SOL    HW1 9854   2.843   1.323   1.384
 3106SOL    HW2 9855   2.994   1.313   1.374
 3107SOL     OW 9856   3.471   1.627   1.656
 3107SOL    HW1 9857   3.464   1.660   1.567
 3107SOL    HW2 9858   3.553   1.577   1.656
 3108SOL     OW 9859   2.995   1.208   1.104
 3108SOL    HW1 9860   2.933   1.243   1.168
 3108SOL    HW2 9861   2.962   1.239   1.020
 3109SOL     OW 9862   3.487   1.097   1.077
 3109SOL    HW1 9863   3.482   1.159   1.149
 3109SOL    HW2 9864   3.409   1.114   1.024
 3110SOL     OW 9865   2.761   0.136   1.385
 3110SOL    HW1 9866   2.784   0.090   1.304
 3110SOL    HW2 9867   2.845   0.154   1.427
 3111SOL     OW 9868   2.846   1.115   1.723
 3111SOL    HW1 9869   2.755   1.131   1.746
 3111SOL    HW2 9870   2.844   1.037   1.668
 3112SOL     OW 9871   2.574   1.060   0.374
 3112SOL    HW1 9872   2.560   1.042   0.467
 3112SOL    HW2 9873   2.649   1.005   0.350
 3113SOL     OW 9874   2.283   0.818   1.251
 3113SOL    HW1 9875   2.351   0.827   1.318
 3113SOL    HW2 9876   2.248   0.730   1.264
 3114SOL     OW 9877   3.130   0.374   1.275
 3114SOL    HW1 9878   3.162   0.453   1.319
 3114SOL    HW2 9879   3.040   0.396   1.249
 3115SOL     OW 9880   1.931   1.570   1.350
 3115SOL    HW1 9881   1.900   1.652   1.310
 3115SOL    HW2 9882   2.026   1.579   1.353
 3116SOL     OW 9883   2.205   1.123   0.497
 3116SOL    HW1 9884   2.205   1.196   0.436
 3116SOL    HW2 9885   2.200   1.045   0.442
 3117SOL     OW 9886   2.416   0.525   0.857
 3117SOL    HW1 9887   2.428   0.586   0.783
 3117SOL    HW2 9888   2.481   0.553   0.921
 3118SOL     OW 9889   3.109   1.346   0.397
 3118SOL    HW1 9890   3.164   1.419   0.424
 3118SOL    HW2 9891   3.021   1.369   0.428
 3119SOL     OW 9892   3.147   1.459   1.147
 3119SOL    HW1 9893   3.202   1.462   1.225
 3119SOL    HW2 9894   3.092   1.382   1.160
 3120SOL     OW 9895   3.445   0.628   0.477
 3120SOL    HW1 9896   3.394   0.664   0.549
 3120SOL    HW2 9897   3.477   0.704   0.430
 3121SOL     OW 9898   2.210   1.527   1.315
 3121SOL    HW1 9899   2.195   1.484   1.231
 3121SOL    HW2 9900   2.305   1.538   1.320
 3122SOL     OW 9901   2.279   0.742   1.604
 3122SOL    HW1 9902   2.338   0.789   1.545
 3122SOL    HW2 9903   2.324   0.660   1.622
 3123SOL     OW 9904   3.467   0.779   1.683
 3123SOL    HW1 9905   3.381   0.821   1.677
 3123SOL    HW2 9906   3.519   0.821   1.615
 3124SOL     OW 9907   2.862   0.087   1.715
 3124SOL    HW1 9908   2.902   0.166   1.678
 3124SOL    HW2 9909   2.885   0.017   1.654
 3125SOL     OW 9910   2.362   0.042   1.763
 3125SOL    HW1 9911   2.369   0.010   1.673
 3125SOL    HW2 9912   2.295   0.111   1.758
 3126SOL     OW 9913   2.445   0.874   1.030
 3126SOL    HW1 9914   2.477   0.965   1.033
 3126SOL    HW2 9915   2.389   0.866   1.108
 3127SOL     OW 9916   3.215   0.858   1.026
 3127SOL    HW1 9917   3.130   0.846   0.984
 3127SOL    HW2 9918   3.259   0.774   1.017
 3128SOL     OW 9919   3.057   0.532   0.263
 3128SOL    HW1 9920   3.068   0.454   0.318
 3128SOL    HW2 9921   3.016   0.596   0.320
 3129SOL     OW 9922   2.152   0.232   1.242
 3129SOL    HW1 9923   2.105   0.248   1.324
 3129SOL    HW2 9924   2.191   0.145   1.254
 3130SOL     OW 9925   1.908   1.309   1.275
 3130SOL    HW1 9926   1.941   1.257   1.348
 3130SOL    HW2 9927   1.914   1.400   1.306
 3131SOL     OW 9928   2.583   0.630   1.053
 3131SOL    HW1 9929   2.659   0.613   0.998
 3131SOL    HW2 9930   2.556   0.719   1.031
 3132SOL     OW 9931   3.598   0.959   1.855
 3132SOL    HW1 9932   3.553   0.895   1.800
 3132SOL    HW2 9933   3.539   0.975   1.928
 3133SOL     OW 9934   2.162   0.053   0.652
 3133SOL    HW1 9935   2.148   0.148   0.654
 3133SOL    HW2 9936   2.171   0.029   0.745
 3134SOL     OW 9937   3.487   0.383   0.357
 3134SOL    HW1 9938   3.508   0.315   0.420
 3134SOL    HW2 9939   3.459   0.458   0.409
 3135SOL     OW 9940   2.893   0.763   0.960
 3135SOL    HW1 9941   2.886   0.778   1.054
 3135SOL    HW2 9942   2.864   0.673   0.948
 3136SOL     OW 9943   2.845   1.567   1.719
 3136SOL    HW1 9944   2.829   1.610   1.635
 3136SOL    HW2 9945   2.887   1.484   1.696
 3137SOL     OW 9946   3.715   1.503   1.605
 3137SOL    HW1 9947   3.735   1.530   1.515
 3137SOL    HW2 9948   3.796   1.520   1.653
 3138SOL     OW 9949   2.216   0.917   1.809
 3138SOL    HW1 9950   2.297   0.936   1.856
 3138SOL    HW2 9951   2.241   0.853   1.742
 3139SOL     OW 9952   3.389   0.301   0.106
 3139SOL    HW1 9953   3.335   0.224   0.126
 3139SOL    HW2 9954   3.429   0.323   0.190
 3140SOL     OW 9955   3.147   0.818   0.032
 3140SOL    HW1 9956   3.191   0.734   0.041
 3140SOL    HW2 9957   3.184   0.856  11.052
 3141SOL     OW 9958   2.928   1.337   0.854
 3141SOL    HW1 9959   2.932   1.264   0.792
 3141SOL    HW2 9960   2.988   1.402   0.820
 3142SOL     OW 9961   2.170   0.810   0.946
 3142SOL    HW1 9962   2.263   0.832   0.940
 3142SOL    HW2 9963   2.169   0.720   0.979
 3143SOL     OW 9964   2.197   0.534   1.014
 3143SOL    HW1 9965   2.154   0.451   0.996
 3143SOL    HW2 9966   2.274   0.535   0.956
 3144SOL     OW 9967   2.999   0.371   1.700
 3144SOL    HW1 9968   2.947   0.434   1.750
 3144SOL    HW2 9969   3.083   0.415   1.686
 3145SOL     OW 9970   3.016   0.214   1.474
 3145SOL    HW1 9971   3.011   0.278   1.545
 3145SOL    HW2 9972   3.059   0.261   1.402
 3146SOL     OW 9973   1.871   1.327   0.194
 3146SOL    HW1 9974   1.785   1.340   0.156
 3146SOL    HW2 9975   1.870   1.237   0.226
 3147SOL     OW 9976   1.949   1.789   0.938
 3147SOL    HW1 9977   1.918   1.709   0.894
 3147SOL    HW2 9978   2.041   1.796   0.911
 3148SOL     OW 9979   2.360   1.568   0.904
 3148SOL    HW1 9980   2.428   1.632   0.926
 3148SOL    HW2 9981   2.403   1.505   0.847
 3149SOL     OW 9982   2.841   0.792   1.226
 3149SOL    HW1 9983   2.898   0.771   1.299
 3149SOL    HW2 9984   2.757   0.750   1.248
 3150SOL     OW 9985   1.895   0.545   1.119
 3150SOL    HW1 9986   1.971   0.526   1.065
 3150SOL    HW2 9987   1.929   0.548   1.209
 3151SOL     OW 9988   2.046   0.522   1.723
 3151SOL    HW1 9989   2.124   0.503   1.670
 3151SOL    HW2 9990   2.006   0.598   1.681
 3152SOL     OW 9991   3.241   0.936   1.658
 3152SOL    HW1 9992   3.262   1.030   1.655
 3152SOL    HW2 9993   3.237   0.910   1.566
 3153SOL     OW 9994   2.673   0.577   0.361
 3153SOL    HW1 9995   2.680   0.502   0.302
 3153SOL    HW2 9996   2.598   0.627   0.327
 3154SOL     OW 9997   3.501   0.602   1.183
 3154SOL    HW1 9998   3.491   0.543   1.258
 3154SOL    HW2 9999   3.588   0.584   1.149
 3155SOL     OW10000   2.108   1.547   1.729
 3155SOL    HW110001   2.083   1.610   1.796
 3155SOL    HW210002   2.109   1.462   1.774
 3156SOL     OW10003   2.569   0.457   1.261
 3156SOL    HW110004   2.519   0.381   1.232
 3156SOL    HW210005   2.566   0.518   1.187
 3157SOL     OW10006   2.786   1.679   1.470
 3157SOL    HW110007   2.763   1.642   1.385
 3157SOL    HW210008   2.784   1.773   1.456
 3158SOL     OW10009   2.321   0.483   0.175
 3158SOL    HW110010   2.380   0.555   0.197
 3158SOL    HW210011   2.236   0.526   0.164
 3159SOL     OW10012   2.006   1.142   1.474
 3159SOL    HW110013   2.007   1.092   1.556
 3159SOL    HW210014   2.023   1.077   1.406
 3160SOL     OW10015   3.186   1.045   1.221
 3160SOL    HW110016   3.208   0.981   1.153
 3160SOL    HW210017   3.118   1.100   1.182
 3161SOL     OW10018   3.171   0.851   0.310
 3161SOL    HW110019   3.096   0.819   0.360
 3161SOL    HW210020   3.148   0.836   0.219
 3162SOL     OW10021   3.639   1.740   1.154
 3162SOL    HW110022   3.698   1.767   1.083
 3162SOL    HW210023   3.612   1.651   1.130
 3163SOL     OW10024   3.103   1.733   1.109
 3163SOL    HW110025   3.185   1.755   1.066
 3163SOL    HW210026   3.110   1.639   1.129
 3164SOL     OW10027   1.950   1.265   1.012
 3164SOL    HW110028   1.933   1.280   1.105
 3164SOL    HW210029   1.874   1.214   0.982
 3165SOL     OW10030   2.542   1.665   1.732
 3165SOL    HW110031   2.488   1.745   1.730
 3165SOL    HW210032   2.610   1.680   1.666
 3166SOL     OW10033   2.740   0.066   0.129
 3166SOL    HW110034   2.826   0.094   0.098
 3166SOL    HW210035   2.759   0.006   0.202
 3167SOL     OW10036   3.581   0.133   0.490
 3167SOL    HW110037   3.651   0.143   0.426
 3167SOL    HW210038   3.608   0.059   0.545
 3168SOL     OW10039   3.253   1.568   0.488
 3168SOL    HW110040   3.313   1.600   0.421
 3168SOL    HW210041   3.205   1.646   0.517
 3169SOL     OW10042   2.000   1.801   1.846
 3169SOL    HW110043   1.950   1.730   1.887
 3169SOL    HW210044   2.035   1.851   1.920
 3170SOL     OW10045   3.141   0.929   0.674
 3170SOL    HW110046   3.214   0.867   0.679
 3170SOL    HW210047   3.175   1.001   0.620
 3171SOL     OW10048   2.672   1.275   1.426
 3171SOL    HW110049   2.644   1.314   1.509
 3171SOL    HW210050   2.601   1.294   1.365
 3172SOL     OW10051   2.532   1.626   0.170
 3172SOL    HW110052   2.559   1.628   0.078
 3172SOL    HW210053   2.476   1.548   0.177
 3173SOL     OW10054   3.485   1.727   1.391
 3173SOL    HW110055   3.536   1.733   1.311
 3173SOL    HW210056   3.471   1.818   1.418
 3174SOL     OW10057   3.702   0.153   0.965
 3174SOL    HW110058   3.732   0.073   0.921
 3174SOL    HW210059   3.615   0.169   0.928
 3175SOL     OW10060   2.123   0.320   0.715
 3175SOL    HW110061   2.037   0.354   0.689
 3175SOL    HW210062   2.119   0.314   0.810
 3176SOL     OW10063   3.086   1.600   0.055
 3176SOL    HW110064   3.073   1.508   0.074
 3176SOL    HW210065   3.022   1.619  11.086
 3177SOL     OW10066   2.685   1.006   1.374
 3177SOL    HW110067   2.729   0.999   1.289
 3177SOL    HW210068   2.684   1.100   1.393
 3178SOL     OW10069   2.776   0.905   0.280
 3178SOL    HW110070   2.842   0.946   0.224
 3178SOL    HW210071   2.825   0.843   0.334
 3179SOL     OW10072   3.360   1.622   0.049
 3179SOL    HW110073   3.264   1.615   0.047
 3179SOL    HW210074   3.384   1.636  11.057
 3180SOL     OW10075   2.231   1.303   1.491
 3180SOL    HW110076   2.217   1.381   1.437
 3180SOL    HW210077   2.154   1.249   1.477
 3181SOL     OW10078   3.472   1.284   1.280
 3181SOL    HW110079   3.530   1.269   1.355
 3181SOL    HW210080   3.411   1.351   1.310
 3182SOL     OW10081   2.918   1.108   0.707
 3182SOL    HW110082   2.847   1.057   0.746
 3182SOL    HW210083   2.982   1.043   0.681
 3183SOL     OW10084   2.872   0.244   1.004
 3183SOL    HW110085   2.871   0.219   0.912
 3183SOL    HW210086   2.861   0.161   1.051
 3184SOL     OW10087   2.466   1.490   0.481
 3184SOL    HW110088   2.511   1.438   0.414
 3184SOL    HW210089   2.392   1.530   0.435
 3185SOL     OW10090   3.585   0.395   1.376
 3185SOL    HW110091   3.659   0.456   1.375
 3185SOL    HW210092   3.614   0.323   1.319
 3186SOL     OW10093   2.130   1.335   0.294
 3186SOL    HW110094   2.043   1.337   0.253
 3186SOL    HW210095   2.117   1.376   0.380
 3187SOL     OW10096   1.975   1.025   1.721
 3187SOL    HW110097   1.899   1.001   1.773
 3187SOL    HW210098   2.050   0.986   1.767
 3188SOL     OW10099   2.519   0.205   1.502
 3188SOL    HW110100   2.598   0.181   1.453
 3188SOL    HW210101   2.550   0.229   1.589
 3189SOL     OW10102   1.938   0.336   0.055
 3189SOL    HW110103   1.866   0.312  11.096
 3189SOL    HW210104   1.953   0.429   0.038
 3190SOL     OW10105   3.290   0.858   1.398
 3190SOL    HW110106   3.240   0.919   1.344
 3190SOL    HW210107   3.378   0.860   1.363
 3191SOL     OW10108   1.927   0.186   0.320
 3191SOL    HW110109   1.921   0.250   0.248
 3191SOL    HW210110   1.998   0.127   0.294
 3192SOL     OW10111   3.047   1.337   0.122
 3192SOL    HW110112   2.953   1.322   0.113
 3192SOL    HW210113   3.064   1.329   0.216
 3193SOL     OW10114   2.482   0.830   1.434
 3193SOL    HW110115   2.538   0.906   1.419
 3193SOL    HW210116   2.543   0.757   1.443
 3194SOL     OW10117   3.345   1.780   0.981
 3194SOL    HW110118   3.368   1.842   0.911
 3194SOL    HW210119   3.428   1.756   1.021
 3195SOL     OW10120   2.578   0.562   1.704
 3195SOL    HW110121   2.620   0.624   1.763
 3195SOL    HW210122   2.605   0.476   1.738
 3196SOL     OW10123   3.335   1.197   1.631
 3196SOL    HW110124   3.322   1.212   1.725
 3196SOL    HW210125   3.428   1.215   1.616
 3197SOL     OW10126   2.242   1.734   1.566
 3197SOL    HW110127   2.156   1.769   1.545
 3197SOL    HW210128   2.224   1.650   1.608
 3198SOL     OW10129   3.529   0.880   1.255
 3198SOL    HW110130   3.523   0.795   1.212
 3198SOL    HW210131   3.519   0.944   1.184
 3199SOL     OW10132   3.079   0.329   0.447
 3199SOL    HW110133   3.148   0.264   0.434
 3199SOL    HW210134   3.105   0.376   0.526
 3200SOL     OW10135   2.445   0.736   0.674
 3200SOL    HW110136   2.488   0.820   0.659
 3200SOL    HW210137   2.381   0.730   0.603
 3201SOL     OW10138   3.621   0.370   1.644
 3201SOL    HW110139   3.605   0.383   1.550
 3201SOL    HW210140   3.544   0.321   1.674
 3202SOL     OW10141   3.610   0.933   1.511
 3202SOL    HW110142   3.601   1.028   1.524
 3202SOL    HW210143   3.593   0.920   1.418
 3203SOL     OW10144   2.772   1.355   0.076
 3203SOL    HW110145   2.703   1.351   0.142
 3203SOL    HW210146   2.752   1.433   0.025
 3204SOL     OW10147   2.518   1.807   0.942
 3204SOL    HW110148   2.521   1.889   0.991
 3204SOL    HW210149   2.610   1.780   0.934
 3205SOL     OW10150   2.730   0.969   0.854
 3205SOL    HW110151   2.781   0.897   0.892
 3205SOL    HW210152   2.694   1.015   0.930
 3206SOL     OW10153   2.940   0.989   0.083
 3206SOL    HW110154   2.913   1.018  11.096
 3206SOL    HW210155   3.016   0.933   0.067
 3207SOL     OW10156   3.714   1.555   0.844
 3207SOL    HW110157   3.636   1.542   0.790
 3207SOL    HW210158   3.708   1.487   0.911
 3208SOL     OW10159   2.088   1.299   1.855
 3208SOL    HW110160   2.021   1.238   1.824
 3208SOL    HW210161   2.067   1.311   1.948
 3209SOL     OW10162   1.948   1.231   0.666
 3209SOL    HW110163   1.952   1.184   0.749
 3209SOL    HW210164   2.018   1.193   0.614
 3210SOL     OW10165   2.544   1.405   1.628
 3210SOL    HW110166   2.465   1.361   1.661
 3210SOL    HW210167   2.541   1.492   1.666
 3211SOL     OW10168   3.666   0.178   1.238
 3211SOL    HW110169   3.664   0.085   1.257
 3211SOL    HW210170   3.684   0.183   1.144
 3212SOL     OW10171   2.298   0.432   0.530
 3212SOL    HW110172   2.320   0.362   0.469
 3212SOL    HW210173   2.242   0.390   0.596
 3213SOL     OW10174   3.559   1.488   1.095
 3213SOL    HW110175   3.480   1.466   1.046
 3213SOL    HW210176   3.568   1.418   1.159
 3214SOL     OW10177   2.195   0.560   1.293
 3214SOL    HW110178   2.249   0.502   1.346
 3214SOL    HW210179   2.213   0.533   1.203
 3215SOL     OW10180   2.689   1.578   0.677
 3215SOL    HW110181   2.671   1.632   0.600
 3215SOL    HW210182   2.616   1.517   0.681
 3216SOL     OW10183   3.293   0.218   1.116
 3216SOL    HW110184   3.328   0.145   1.168
 3216SOL    HW210185   3.243   0.270   1.178
 3217SOL     OW10186   2.857   0.005   1.152
 3217SOL    HW110187   2.817   4.418   1.147
 3217SOL    HW210188   2.951   4.487   1.163
 3218SOL     OW10189   2.631   1.328   0.321
 3218SOL    HW110190   2.604   1.237   0.335
 3218SOL    HW210191   2.715   1.335   0.366
 3219SOL     OW10192   2.483   1.554   1.283
 3219SOL    HW110193   2.483   1.636   1.332
 3219SOL    HW210194   2.572   1.547   1.248
 3220SOL     OW10195   3.217   0.057   0.170
 3220SOL    HW110196   3.252   4.489   0.112
 3220SOL    HW210197   3.134   0.021   0.201
 3221SOL     OW10198   3.178   0.464   0.675
 3221SOL    HW110199   3.120   0.540   0.675
 3221SOL    HW210200   3.164   0.422   0.759
 3222SOL     OW10201   3.448   0.198   0.868
 3222SOL    HW110202   3.390   0.214   0.943
 3222SOL    HW210203   3.450   0.281   0.821
 3223SOL     OW10204   1.904   1.069   0.301
 3223SOL    HW110205   1.999   1.063   0.297
 3223SOL    HW210206   1.876   0.981   0.326
 3224SOL     OW10207   2.748   1.656   0.347
 3224SOL    HW110208   2.675   1.637   0.289
 3224SOL    HW210209   2.718   1.730   0.400
 3225SOL     OW10210   2.089   0.625   1.985
 3225SOL    HW110211   2.002   0.618   2.025
 3225SOL    HW210212   2.075   0.597   1.894
 3226SOL     OW10213   2.068   0.301   2.852
 3226SOL    HW110214   2.099   0.270   2.937
 3226SOL    HW210215   1.986   0.253   2.838
 3227SOL     OW10216   1.868   0.390   2.498
 3227SOL    HW110217   1.782   0.407   2.536
 3227SOL    HW210218   1.854   0.317   2.437
 3228SOL     OW10219   2.430   1.292   3.040
 3228SOL    HW110220   2.343   1.296   3.001
 3228SOL    HW210221   2.445   1.381   3.074
 3229SOL     OW10222   3.427   1.513   2.570
 3229SOL    HW110223   3.384   1.491   2.653
 3229SOL    HW210224   3.356   1.516   2.506
 3230SOL     OW10225   3.000   0.697   2.557
 3230SOL    HW110226   3.044   0.781   2.548
 3230SOL    HW210227   2.948   0.705   2.637
 3231SOL     OW10228   3.634   0.604   2.088
 3231SOL    HW110229   3.611   0.596   1.996
 3231SOL    HW210230   3.598   0.525   2.129
 3232SOL     OW10231   2.614   1.141   2.906
 3232SOL    HW110232   2.546   1.177   2.963
 3232SOL    HW210233   2.651   1.217   2.862
 3233SOL     OW10234   2.732   0.769   3.685
 3233SOL    HW110235   2.718   0.839   3.748
 3233SOL    HW210236   2.755   0.814   3.604
 3234SOL     OW10237   2.548   1.000   2.507
 3234SOL    HW110238   2.613   0.990   2.576
 3234SOL    HW210239   2.479   1.053   2.547
 3235SOL     OW10240   2.574   1.150   3.676
 3235SOL    HW110241   2.621   1.228   3.705
 3235SOL    HW210242   2.492   1.183   3.640
 3236SOL     OW10243   2.193   1.421   2.930
 3236SOL    HW110244   2.119   1.383   2.883
 3236SOL    HW210245   2.239   1.473   2.864
 3237SOL     OW10246   3.322   1.500   3.220
 3237SOL    HW110247   3.375   1.580   3.229
 3237SOL    HW210248   3.256   1.507   3.289
 3238SOL     OW10249   2.306   0.394   3.347
 3238SOL    HW110250   2.388   0.344   3.350
 3238SOL    HW210251   2.238   0.328   3.362
 3239SOL     OW10252   3.470   0.443   2.601
 3239SOL    HW110253   3.390   0.462   2.552
 3239SOL    HW210254   3.485   0.521   2.655
 3240SOL     OW10255   2.083   1.724   2.340
 3240SOL    HW110256   2.119   1.763   2.419
 3240SOL    HW210257   2.158   1.710   2.283
 3241SOL     OW10258   2.999   1.342   3.556
 3241SOL    HW110259   3.039   1.337   3.643
 3241SOL    HW210260   2.947   1.262   3.549
 3242SOL     OW10261   2.088   1.444   2.397
 3242SOL    HW110262   2.064   1.536   2.406
 3242SOL    HW210263   2.033   1.398   2.461
 3243SOL     OW10264   2.124   1.090   2.753
 3243SOL    HW110265   2.120   1.003   2.793
 3243SOL    HW210266   2.066   1.144   2.807
 3244SOL     OW10267   2.469   1.792   3.285
 3244SOL    HW110268   2.389   1.773   3.334
 3244SOL    HW210269   2.494   1.880   3.313
 3245SOL     OW10270   2.444   0.984   1.999
 3245SOL    HW110271   2.492   1.030   1.930
 3245SOL    HW210272   2.484   1.015   2.080
 3246SOL     OW10273   3.441   0.117   3.330
 3246SOL    HW110274   3.473   0.185   3.270
 3246SOL    HW210275   3.430   0.162   3.413
 3247SOL     OW10276   1.980   0.655   2.422
 3247SOL    HW110277   1.949   0.567   2.444
 3247SOL    HW210278   1.971   0.704   2.504
 3248SOL     OW10279   3.705   1.757   2.194
 3248SOL    HW110280   3.771   1.729   2.258
 3248SOL    HW210281   3.726   1.848   2.176
 3249SOL     OW10282   1.899   1.593   1.983
 3249SOL    HW110283   1.880   1.501   2.001
 3249SOL    HW210284   1.872   1.639   2.062
 3250SOL     OW10285   3.553   0.921   2.506
 3250SOL    HW110286   3.635   0.877   2.484
 3250SOL    HW210287   3.530   0.970   2.428
 3251SOL     OW10288   3.510   1.105   2.290
 3251SOL    HW110289   3.596   1.109   2.250
 3251SOL    HW210290   3.515   1.167   2.363
 3252SOL     OW10291   1.984   0.746   3.445
 3252SOL    HW110292   2.075   0.775   3.450
 3252SOL    HW210293   1.933   0.827   3.451
 3253SOL     OW10294   2.477   1.388   2.596
 3253SOL    HW110295   2.432   1.305   2.606
 3253SOL    HW210296   2.460   1.415   2.506
 3254SOL     OW10297   3.150   1.237   3.284
 3254SOL    HW110298   3.181   1.169   3.224
 3254SOL    HW210299   3.208   1.231   3.360
 3255SOL     OW10300   2.681   0.018   2.417
 3255SOL    HW110301   2.719   0.102   2.389
 3255SOL    HW210302   2.587   0.030   2.409
 3256SOL     OW10303   2.051   0.963   3.138
 3256SOL    HW110304   2.136   0.923   3.122
 3256SOL    HW210305   1.990   0.914   3.082
 3257SOL     OW10306   3.394   0.995   2.062
 3257SOL    HW110307   3.323   0.939   2.094
 3257SOL    HW210308   3.435   1.030   2.141
 3258SOL     OW10309   3.048   1.809   3.486
 3258SOL    HW110310   3.056   1.868   3.411
 3258SOL    HW210311   3.064   1.722   3.449
 3259SOL     OW10312   2.178   0.252   3.641
 3259SOL    HW110313   2.241   0.316   3.674
 3259SOL    HW210314   2.104   0.258   3.702
 3260SOL     OW10315   3.330   1.419   2.812
 3260SOL    HW110316   3.262   1.435   2.877
 3260SOL    HW210317   3.316   1.328   2.785
 3261SOL     OW10318   3.518   1.745   2.440
 3261SOL    HW110319   3.499   1.714   2.351
 3261SOL    HW210320   3.496   1.672   2.496
 3262SOL     OW10321   2.453   0.722   2.129
 3262SOL    HW110322   2.457   0.805   2.081
 3262SOL    HW210323   2.388   0.736   2.197
 3263SOL     OW10324   3.155   0.370   2.794
 3263SOL    HW110325   3.065   0.340   2.777
 3263SOL    HW210326   3.190   0.305   2.856
 3264SOL     OW10327   3.441   1.672   2.172
 3264SOL    HW110328   3.532   1.701   2.164
 3264SOL    HW210329   3.414   1.655   2.082
 3265SOL     OW10330   2.657   0.621   3.315
 3265SOL    HW110331   2.629   0.594   3.403
 3265SOL    HW210332   2.621   0.554   3.257
 3266SOL     OW10333   3.250   0.481   3.538
 3266SOL    HW110334   3.254   0.525   3.623
 3266SOL    HW210335   3.316   0.412   3.543
 3267SOL     OW10336   2.815   0.887   3.447
 3267SOL    HW110337   2.869   0.817   3.410
 3267SOL    HW210338   2.766   0.921   3.372
 3268SOL     OW10339   2.860   0.417   3.095
 3268SOL    HW110340   2.770   0.424   3.127
 3268SOL    HW210341   2.853   0.364   3.016
 3269SOL     OW10342   2.913   0.698   2.288
 3269SOL    HW110343   2.931   0.689   2.381
 3269SOL    HW210344   2.829   0.653   2.275
 3270SOL     OW10345   1.951   0.821   2.639
 3270SOL    HW110346   2.031   0.815   2.690
 3270SOL    HW210347   1.906   0.899   2.673
 3271SOL     OW10348   1.988   1.811   3.433
 3271SOL    HW110349   1.973   1.806   3.528
 3271SOL    HW210350   1.921   1.871   3.401
 3272SOL     OW10351   2.718   0.371   2.050
 3272SOL    HW110352   2.787   0.403   1.991
 3272SOL    HW210353   2.730   0.276   2.050
 3273SOL     OW10354   3.565   0.571   3.691
 3273SOL    HW110355   3.529   0.646   3.642
 3273SOL    HW210356   3.600   0.513   3.623
 3274SOL     OW10357   3.241   1.143   2.402
 3274SOL    HW110358   3.320   1.131   2.349
 3274SOL    HW210359   3.188   1.205   2.352
 3275SOL     OW10360   2.398   0.207   2.764
 3275SOL    HW110361   2.420   0.225   2.855
 3275SOL    HW210362   2.392   0.293   2.723
 3276SOL     OW10363   2.865   1.444   2.332
 3276SOL    HW110364   2.830   1.518   2.283
 3276SOL    HW210365   2.844   1.464   2.423
 3277SOL     OW10366   2.220   1.810   2.697
 3277SOL    HW110367   2.260   1.725   2.715
 3277SOL    HW210368   2.288   1.874   2.718
 3278SOL     OW10369   3.661   1.058   2.732
 3278SOL    HW110370   3.608   1.036   2.655
 3278SOL    HW210371   3.598   1.063   2.804
 3279SOL     OW10372   3.089   1.539   3.375
 3279SOL    HW110373   3.076   1.467   3.437
 3279SOL    HW210374   3.024   1.524   3.307
 3280SOL     OW10375   2.179   0.958   2.114
 3280SOL    HW110376   2.261   0.977   2.069
 3280SOL    HW210377   2.149   0.876   2.076
 3281SOL     OW10378   3.344   0.745   2.584
 3281SOL    HW110379   3.334   0.703   2.670
 3281SOL    HW210380   3.421   0.801   2.593
 3282SOL     OW10381   2.330   1.266   3.600
 3282SOL    HW110382   2.303   1.271   3.508
 3282SOL    HW210383   2.248   1.263   3.649
 3283SOL     OW10384   2.985   1.777   2.093
 3283SOL    HW110385   2.910   1.737   2.137
 3283SOL    HW210386   3.009   1.715   2.024
 3284SOL     OW10387   2.049   0.268   3.377
 3284SOL    HW110388   1.983   0.337   3.365
 3284SOL    HW210389   2.069   0.270   3.471
 3285SOL     OW10390   3.491   1.381   1.950
 3285SOL    HW110391   3.449   1.466   1.936
 3285SOL    HW210392   3.422   1.317   1.931
 3286SOL     OW10393   2.330   1.718   2.207
 3286SOL    HW110394   2.367   1.795   2.251
 3286SOL    HW210395   2.388   1.702   2.133
 3287SOL     OW10396   3.288   0.145   2.280
 3287SOL    HW110397   3.271   0.088   2.205
 3287SOL    HW210398   3.381   0.133   2.299
 3288SOL     OW10399   2.110   1.788   3.088
 3288SOL    HW110400   2.165   1.725   3.133
 3288SOL    HW210401   2.106   1.757   2.998
 3289SOL     OW10402   2.802   1.698   2.759
 3289SOL    HW110403   2.880   1.646   2.781
 3289SOL    HW210404   2.760   1.648   2.690
 3290SOL     OW10405   2.257   0.693   2.336
 3290SOL    HW110406   2.278   0.601   2.351
 3290SOL    HW210407   2.163   0.700   2.354
 3291SOL     OW10408   3.386   0.233   3.585
 3291SOL    HW110409   3.386   0.255   3.678
 3291SOL    HW210410   3.306   0.182   3.572
 3292SOL     OW10411   2.494   0.121   1.987
 3292SOL    HW110412   2.582   0.085   1.996
 3292SOL    HW210413   2.460   0.082   1.906
 3293SOL     OW10414   2.630   0.271   3.617
 3293SOL    HW110415   2.698   0.204   3.619
 3293SOL    HW210416   2.591   0.269   3.705
 3294SOL     OW10417   2.739   1.523   3.056
 3294SOL    HW110418   2.722   1.486   2.969
 3294SOL    HW210419   2.808   1.468   3.092
 3295SOL     OW10420   3.202   0.590   3.290
 3295SOL    HW110421   3.230   0.561   3.377
 3295SOL    HW210422   3.236   0.678   3.281
 3296SOL     OW10423   2.679   1.393   2.805
 3296SOL    HW110424   2.763   1.380   2.761
 3296SOL    HW210425   2.615   1.396   2.734
 3297SOL     OW10426   2.787   0.523   2.759
 3297SOL    HW110427   2.770   0.520   2.665
 3297SOL    HW210428   2.820   0.435   2.780
 3298SOL     OW10429   2.418   0.081   2.386
 3298SOL    HW110430   2.331   0.048   2.409
 3298SOL    HW210431   2.402   0.142   2.313
 3299SOL     OW10432   3.290   1.199   1.903
 3299SOL    HW110433   3.320   1.123   1.953
 3299SOL    HW210434   3.205   1.221   1.940
 3300SOL     OW10435   2.156   0.065   2.066
 3300SOL    HW110436   2.233   0.120   2.050
 3300SOL    HW210437   2.185   0.000   2.130
 3301SOL     OW10438   2.818   0.239   2.326
 3301SOL    HW110439   2.766   0.303   2.277
 3301SOL    HW210440   2.908   0.273   2.321
 3302SOL     OW10441   2.942   0.683   3.321
 3302SOL    HW110442   2.872   0.618   3.320
 3302SOL    HW210443   3.022   0.632   3.310
 3303SOL     OW10444   3.084   1.571   2.656
 3303SOL    HW110445   3.099   1.637   2.589
 3303SOL    HW210446   3.153   1.587   2.721
 3304SOL     OW10447   2.333   1.152   2.592
 3304SOL    HW110448   2.265   1.132   2.657
 3304SOL    HW210449   2.291   1.136   2.508
 3305SOL     OW10450   3.129   1.793   2.473
 3305SOL    HW110451   3.176   1.855   2.416
 3305SOL    HW210452   3.061   1.845   2.515
 3306SOL     OW10453   2.890   0.544   1.882
 3306SOL    HW110454   2.842   0.625   1.866
 3306SOL    HW210455   2.948   0.564   1.955
 3307SOL     OW10456   1.947   0.549   3.258
 3307SOL    HW110457   2.038   0.553   3.228
 3307SOL    HW210458   1.939   0.621   3.321
 3308SOL     OW10459   2.423   0.247   3.031
 3308SOL    HW110460   2.448   0.165   3.074
 3308SOL    HW210461   2.331   0.258   3.054
 3309SOL     OW10462   2.726   0.505   2.490
 3309SOL    HW110463   2.688   0.541   2.410
 3309SOL    HW210464   2.680   0.422   2.503
 3310SOL     OW10465   2.816   0.017   2.656
 3310SOL    HW110466   2.771   0.018   2.571
 3310SOL    HW210467   2.832   4.424   2.672
 3311SOL     OW10468   3.300   1.162   2.719
 3311SOL    HW110469   3.230   1.096   2.719
 3311SOL    HW210470   3.323   1.171   2.626
 3312SOL     OW10471   3.326   0.607   2.832
 3312SOL    HW110472   3.271   0.529   2.833
 3312SOL    HW210473   3.383   0.598   2.909
 3313SOL     OW10474   3.705   0.814   2.246
 3313SOL    HW110475   3.762   0.764   2.304
 3313SOL    HW210476   3.679   0.752   2.179
 3314SOL     OW10477   2.352   1.421   2.015
 3314SOL    HW110478   2.278   1.393   2.068
 3314SOL    HW210479   2.341   1.374   1.932
 3315SOL     OW10480   3.535   1.265   2.504
 3315SOL    HW110481   3.630   1.266   2.520
 3315SOL    HW210482   3.506   1.353   2.527
 3316SOL     OW10483   3.257   0.572   1.932
 3316SOL    HW110484   3.194   0.556   2.002
 3316SOL    HW210485   3.342   0.555   1.971
 3317SOL     OW10486   2.380   0.265   2.183
 3317SOL    HW110487   2.431   0.216   2.119
 3317SOL    HW210488   2.361   0.348   2.140
 3318SOL     OW10489   3.613   1.241   3.430
 3318SOL    HW110490   3.700   1.201   3.426
 3318SOL    HW210491   3.628   1.331   3.460
 3319SOL     OW10492   2.919   1.355   3.196
 3319SOL    HW110493   2.844   1.323   3.246
 3319SOL    HW210494   2.994   1.312   3.236
 3320SOL     OW10495   3.471   1.627   3.518
 3320SOL    HW110496   3.464   1.660   3.429
 3320SOL    HW210497   3.553   1.577   3.518
 3321SOL     OW10498   2.995   1.208   2.966
 3321SOL    HW110499   2.933   1.243   3.030
 3321SOL    HW210500   2.963   1.239   2.882
 3322SOL     OW10501   3.487   1.097   2.939
 3322SOL    HW110502   3.482   1.159   3.011
 3322SOL    HW210503   3.409   1.114   2.886
 3323SOL     OW10504   2.761   0.135   3.247
 3323SOL    HW110505   2.784   0.090   3.166
 3323SOL    HW210506   2.845   0.154   3.289
 3324SOL     OW10507   2.846   1.115   3.585
 3324SOL    HW110508   2.755   1.131   3.608
 3324SOL    HW210509   2.844   1.037   3.530
 3325SOL     OW10510   2.571   1.063   2.233
 3325SOL    HW110511   2.557   1.044   2.326
 3325SOL    HW210512   2.647   1.008   2.209
 3326SOL     OW10513   2.283   0.818   3.113
 3326SOL    HW110514   2.351   0.827   3.180
 3326SOL    HW210515   2.248   0.730   3.126
 3327SOL     OW10516   3.130   0.374   3.137
 3327SOL    HW110517   3.162   0.453   3.180
 3327SOL    HW210518   3.040   0.396   3.111
 3328SOL     OW10519   1.931   1.570   3.212
 3328SOL    HW110520   1.901   1.649   3.168
 3328SOL    HW210521   2.027   1.578   3.214
 3329SOL     OW10522   2.205   1.113   2.352
 3329SOL    HW110523   2.211   1.186   2.290
 3329SOL    HW210524   2.203   1.035   2.296
 3330SOL     OW10525   2.416   0.526   2.719
 3330SOL    HW110526   2.427   0.585   2.646
 3330SOL    HW210527   2.481   0.553   2.783
 3331SOL     OW10528   3.110   1.349   2.251
 3331SOL    HW110529   3.166   1.420   2.283
 3331SOL    HW210530   3.023   1.370   2.285
 3332SOL     OW10531   3.147   1.459   3.009
 3332SOL    HW110532   3.202   1.461   3.087
 3332SOL    HW210533   3.091   1.382   3.021
 3333SOL     OW10534   3.441   0.623   2.341
 3333SOL    HW110535   3.393   0.669   2.410
 3333SOL    HW210536   3.485   0.692   2.292
 3334SOL     OW10537   2.210   1.527   3.176
 3334SOL    HW110538   2.196   1.484   3.092
 3334SOL    HW210539   2.305   1.539   3.182
 3335SOL     OW10540   2.279   0.742   3.466
 3335SOL    HW110541   2.338   0.789   3.406
 3335SOL    HW210542   2.325   0.660   3.484
 3336SOL     OW10543   3.467   0.779   3.545
 3336SOL    HW110544   3.381   0.821   3.539
 3336SOL    HW210545   3.519   0.821   3.477
 3337SOL     OW10546   2.862   0.087   3.577
 3337SOL    HW110547   2.902   0.165   3.540
 3337SOL    HW210548   2.885   0.017   3.516
 3338SOL     OW10549   2.361   0.042   3.625
 3338SOL    HW110550   2.370   0.011   3.535
 3338SOL    HW210551   2.295   0.111   3.620
 3339SOL     OW10552   2.445   0.874   2.893
 3339SOL    HW110553   2.477   0.965   2.895
 3339SOL    HW210554   2.389   0.867   2.970
 3340SOL     OW10555   3.215   0.858   2.888
 3340SOL    HW110556   3.130   0.846   2.846
 3340SOL    HW210557   3.259   0.773   2.879
 3341SOL     OW10558   3.062   0.536   2.121
 3341SOL    HW110559   3.069   0.456   2.173
 3341SOL    HW210560   3.019   0.599   2.179
 3342SOL     OW10561   2.152   0.232   3.105
 3342SOL    HW110562   2.105   0.248   3.186
 3342SOL    HW210563   2.191   0.145   3.116
 3343SOL     OW10564   1.907   1.310   3.137
 3343SOL    HW110565   1.941   1.257   3.209
 3343SOL    HW210566   1.914   1.400   3.168
 3344SOL     OW10567   2.583   0.630   2.916
 3344SOL    HW110568   2.659   0.614   2.860
 3344SOL    HW210569   2.556   0.719   2.894
 3345SOL     OW10570   3.598   0.959   3.717
 3345SOL    HW110571   3.553   0.895   3.662
 3345SOL    HW210572   3.539   0.975   3.790
 3346SOL     OW10573   2.156   0.049   2.514
 3346SOL    HW110574   2.146   0.144   2.514
 3346SOL    HW210575   2.168   0.026   2.606
 3347SOL     OW10576   3.482   0.383   2.219
 3347SOL    HW110577   3.507   0.317   2.284
 3347SOL    HW210578   3.457   0.459   2.271
 3348SOL     OW10579   2.893   0.763   2.822
 3348SOL    HW110580   2.886   0.779   2.917
 3348SOL    HW210581   2.863   0.674   2.810
 3349SOL     OW10582   2.844   1.567   3.581
 3349SOL    HW110583   2.829   1.610   3.497
 3349SOL    HW210584   2.887   1.485   3.558
 3350SOL     OW10585   3.715   1.503   3.467
 3350SOL    HW110586   3.735   1.530   3.377
 3350SOL    HW210587   3.797   1.520   3.515
 3351SOL     OW10588   2.216   0.917   3.670
 3351SOL    HW110589   2.297   0.936   3.717
 3351SOL    HW210590   2.241   0.853   3.604
 3352SOL     OW10591   3.391   0.262   1.990
 3352SOL    HW110592   3.320   0.206   2.022
 3352SOL    HW210593   3.422   0.309   2.068
 3353SOL     OW10594   3.151   0.826   1.891
 3353SOL    HW110595   3.193   0.740   1.894
 3353SOL    HW210596   3.183   0.865   1.810
 3354SOL     OW10597   2.929   1.337   2.717
 3354SOL    HW110598   2.933   1.264   2.654
 3354SOL    HW210599   2.989   1.402   2.681
 3355SOL     OW10600   2.170   0.810   2.809
 3355SOL    HW110601   2.263   0.832   2.802
 3355SOL    HW210602   2.169   0.720   2.841
 3356SOL     OW10603   2.197   0.534   2.876
 3356SOL    HW110604   2.154   0.451   2.858
 3356SOL    HW210605   2.274   0.535   2.818
 3357SOL     OW10606   2.999   0.371   3.562
 3357SOL    HW110607   2.947   0.434   3.612
 3357SOL    HW210608   3.083   0.415   3.548
 3358SOL     OW10609   3.016   0.214   3.336
 3358SOL    HW110610   3.011   0.278   3.407
 3358SOL    HW210611   3.059   0.261   3.264
 3359SOL     OW10612   1.868   1.320   2.056
 3359SOL    HW110613   1.781   1.335   2.019
 3359SOL    HW210614   1.864   1.230   2.090
 3360SOL     OW10615   1.960   1.779   2.792
 3360SOL    HW110616   1.930   1.698   2.751
 3360SOL    HW210617   2.047   1.795   2.754
 3361SOL     OW10618   2.352   1.573   2.764
 3361SOL    HW110619   2.421   1.634   2.790
 3361SOL    HW210620   2.397   1.509   2.708
 3362SOL     OW10621   2.841   0.792   3.088
 3362SOL    HW110622   2.898   0.770   3.161
 3362SOL    HW210623   2.757   0.750   3.110
 3363SOL     OW10624   1.895   0.545   2.981
 3363SOL    HW110625   1.971   0.527   2.926
 3363SOL    HW210626   1.929   0.547   3.070
 3364SOL     OW10627   2.046   0.522   3.585
 3364SOL    HW110628   2.124   0.504   3.532
 3364SOL    HW210629   2.006   0.598   3.543
 3365SOL     OW10630   3.241   0.936   3.520
 3365SOL    HW110631   3.262   1.030   3.517
 3365SOL    HW210632   3.237   0.910   3.428
 3366SOL     OW10633   2.672   0.577   2.221
 3366SOL    HW110634   2.678   0.506   2.158
 3366SOL    HW210635   2.599   0.631   2.191
 3367SOL     OW10636   3.500   0.602   3.045
 3367SOL    HW110637   3.491   0.543   3.120
 3367SOL    HW210638   3.588   0.584   3.012
 3368SOL     OW10639   2.108   1.548   3.594
 3368SOL    HW110640   2.079   1.609   3.662
 3368SOL    HW210641   2.109   1.463   3.637
 3369SOL     OW10642   2.569   0.457   3.123
 3369SOL    HW110643   2.519   0.381   3.094
 3369SOL    HW210644   2.566   0.519   3.050
 3370SOL     OW10645   2.786   1.679   3.331
 3370SOL    HW110646   2.762   1.641   3.247
 3370SOL    HW210647   2.783   1.773   3.317
 3371SOL     OW10648   2.324   0.492   2.045
 3371SOL    HW110649   2.383   0.563   2.067
 3371SOL    HW210650   2.239   0.534   2.032
 3372SOL     OW10651   2.006   1.142   3.336
 3372SOL    HW110652   2.007   1.092   3.418
 3372SOL    HW210653   2.023   1.076   3.268
 3373SOL     OW10654   3.186   1.045   3.083
 3373SOL    HW110655   3.207   0.981   3.015
 3373SOL    HW210656   3.118   1.100   3.044
 3374SOL     OW10657   3.177   0.857   2.167
 3374SOL    HW110658   3.102   0.827   2.220
 3374SOL    HW210659   3.148   0.844   2.076
 3375SOL     OW10660   3.639   1.740   3.016
 3375SOL    HW110661   3.698   1.767   2.945
 3375SOL    HW210662   3.612   1.651   2.993
 3376SOL     OW10663   3.103   1.733   2.972
 3376SOL    HW110664   3.185   1.755   2.928
 3376SOL    HW210665   3.110   1.639   2.991
 3377SOL     OW10666   1.949   1.265   2.874
 3377SOL    HW110667   1.933   1.280   2.967
 3377SOL    HW210668   1.875   1.213   2.844
 3378SOL     OW10669   2.542   1.667   3.595
 3378SOL    HW110670   2.487   1.744   3.586
 3378SOL    HW210671   2.610   1.678   3.529
 3379SOL     OW10672   3.581   0.129   2.349
 3379SOL    HW110673   3.650   0.141   2.284
 3379SOL    HW210674   3.614   0.059   2.406
 3380SOL     OW10675   3.254   1.568   2.349
 3380SOL    HW110676   3.313   1.601   2.282
 3380SOL    HW210677   3.204   1.644   2.378
 3381SOL     OW10678   1.989   1.806   3.706
 3381SOL    HW110679   1.943   1.735   3.750
 3381SOL    HW210680   2.044   1.845   3.774
 3382SOL     OW10681   3.141   0.929   2.535
 3382SOL    HW110682   3.214   0.868   2.542
 3382SOL    HW210683   3.175   1.001   2.481
 3383SOL     OW10684   2.672   1.275   3.289
 3383SOL    HW110685   2.644   1.314   3.371
 3383SOL    HW210686   2.602   1.295   3.227
 3384SOL     OW10687   2.532   1.624   2.016
 3384SOL    HW110688   2.545   1.635   1.921
 3384SOL    HW210689   2.476   1.546   2.023
 3385SOL     OW10690   3.485   1.727   3.253
 3385SOL    HW110691   3.536   1.733   3.173
 3385SOL    HW210692   3.471   1.818   3.280
 3386SOL     OW10693   3.701   0.153   2.827
 3386SOL    HW110694   3.733   0.074   2.782
 3386SOL    HW210695   3.615   0.169   2.790
 3387SOL     OW10696   2.123   0.318   2.576
 3387SOL    HW110697   2.038   0.354   2.551
 3387SOL    HW210698   2.120   0.312   2.672
 3388SOL     OW10699   3.070   1.604   1.894
 3388SOL    HW110700   3.059   1.513   1.921
 3388SOL    HW210701   3.004   1.617   1.826
 3389SOL     OW10702   2.685   1.006   3.236
 3389SOL    HW110703   2.729   1.000   3.151
 3389SOL    HW210704   2.684   1.100   3.255
 3390SOL     OW10705   2.778   0.910   2.152
 3390SOL    HW110706   2.839   0.943   2.086
 3390SOL    HW210707   2.826   0.842   2.198
 3391SOL     OW10708   3.352   1.626   1.906
 3391SOL    HW110709   3.258   1.618   1.891
 3391SOL    HW210710   3.389   1.632   1.818
 3392SOL     OW10711   2.231   1.303   3.354
 3392SOL    HW110712   2.218   1.380   3.299
 3392SOL    HW210713   2.153   1.249   3.339
 3393SOL     OW10714   3.472   1.284   3.142
 3393SOL    HW110715   3.530   1.269   3.217
 3393SOL    HW210716   3.411   1.351   3.172
 3394SOL     OW10717   2.918   1.109   2.570
 3394SOL    HW110718   2.846   1.058   2.608
 3394SOL    HW210719   2.982   1.043   2.542
 3395SOL     OW10720   2.865   0.246   2.873
 3395SOL    HW110721   2.871   0.229   2.779
 3395SOL    HW210722   2.856   0.160   2.913
 3396SOL     OW10723   2.465   1.489   2.342
 3396SOL    HW110724   2.509   1.439   2.274
 3396SOL    HW210725   2.401   1.542   2.296
 3397SOL     OW10726   3.586   0.394   3.238
 3397SOL    HW110727   3.659   0.456   3.237
 3397SOL    HW210728   3.614   0.323   3.181
 3398SOL     OW10729   2.123   1.344   2.152
 3398SOL    HW110730   2.030   1.341   2.129
 3398SOL    HW210731   2.124   1.383   2.240
 3399SOL     OW10732   1.975   1.025   3.583
 3399SOL    HW110733   1.899   1.001   3.635
 3399SOL    HW210734   2.050   0.986   3.629
 3400SOL     OW10735   2.519   0.205   3.364
 3400SOL    HW110736   2.598   0.180   3.315
 3400SOL    HW210737   2.550   0.229   3.451
 3401SOL     OW10738   1.945   0.332   1.910
 3401SOL    HW110739   1.875   0.278   1.874
 3401SOL    HW210740   1.954   0.404   1.847
 3402SOL     OW10741   3.290   0.858   3.260
 3402SOL    HW110742   3.240   0.919   3.206
 3402SOL    HW210743   3.378   0.860   3.225
 3403SOL     OW10744   1.924   0.187   2.175
 3403SOL    HW110745   1.926   0.255   2.108
 3403SOL    HW210746   1.999   0.131   2.154
 3404SOL     OW10747   3.040   1.337   1.979
 3404SOL    HW110748   2.950   1.306   1.981
 3404SOL    HW210749   3.067   1.338   2.071
 3405SOL     OW10750   2.482   0.830   3.297
 3405SOL    HW110751   2.538   0.906   3.281
 3405SOL    HW210752   2.543   0.757   3.305
 3406SOL     OW10753   3.345   1.780   2.843
 3406SOL    HW110754   3.367   1.842   2.773
 3406SOL    HW210755   3.429   1.757   2.882
 3407SOL     OW10756   2.578   0.562   3.566
 3407SOL    HW110757   2.620   0.625   3.625
 3407SOL    HW210758   2.605   0.476   3.600
 3408SOL     OW10759   3.335   1.197   3.493
 3408SOL    HW110760   3.322   1.212   3.587
 3408SOL    HW210761   3.428   1.215   3.478
 3409SOL     OW10762   2.245   1.734   3.430
 3409SOL    HW110763   2.159   1.769   3.409
 3409SOL    HW210764   2.228   1.650   3.472
 3410SOL     OW10765   3.529   0.880   3.117
 3410SOL    HW110766   3.523   0.795   3.074
 3410SOL    HW210767   3.519   0.944   3.046
 3411SOL     OW10768   3.081   0.332   2.308
 3411SOL    HW110769   3.149   0.265   2.295
 3411SOL    HW210770   3.110   0.380   2.386
 3412SOL     OW10771   2.446   0.736   2.536
 3412SOL    HW110772   2.489   0.820   2.521
 3412SOL    HW210773   2.382   0.728   2.466
 3413SOL     OW10774   3.621   0.370   3.506
 3413SOL    HW110775   3.606   0.383   3.412
 3413SOL    HW210776   3.544   0.321   3.536
 3414SOL     OW10777   3.610   0.933   3.373
 3414SOL    HW110778   3.601   1.028   3.386
 3414SOL    HW210779   3.593   0.920   3.280
 3415SOL     OW10780   2.724   1.366   1.900
 3415SOL    HW110781   2.687   1.393   1.984
 3415SOL    HW210782   2.741   1.449   1.854
 3416SOL     OW10783   2.530   1.773   2.801
 3416SOL    HW110784   2.513   1.864   2.779
 3416SOL    HW210785   2.626   1.765   2.801
 3417SOL     OW10786   2.730   0.969   2.716
 3417SOL    HW110787   2.781   0.897   2.754
 3417SOL    HW210788   2.694   1.015   2.792
 3418SOL     OW10789   2.941   0.989   1.951
 3418SOL    HW110790   2.919   1.040   1.873
 3418SOL    HW210791   3.015   0.934   1.924
 3419SOL     OW10792   3.714   1.555   2.706
 3419SOL    HW110793   3.635   1.542   2.653
 3419SOL    HW210794   3.708   1.487   2.773
 3420SOL     OW10795   2.087   1.299   3.717
 3420SOL    HW110796   2.021   1.238   3.685
 3420SOL    HW210797   2.066   1.312   3.810
 3421SOL     OW10798   1.950   1.231   2.526
 3421SOL    HW110799   1.955   1.186   2.610
 3421SOL    HW210800   2.016   1.188   2.472
 3422SOL     OW10801   2.544   1.405   3.490
 3422SOL    HW110802   2.465   1.361   3.522
 3422SOL    HW210803   2.540   1.492   3.529
 3423SOL     OW10804   3.666   0.178   3.100
 3423SOL    HW110805   3.664   0.084   3.119
 3423SOL    HW210806   3.684   0.183   3.006
 3424SOL     OW10807   2.300   0.432   2.394
 3424SOL    HW110808   2.320   0.364   2.330
 3424SOL    HW210809   2.243   0.389   2.458
 3425SOL     OW10810   3.560   1.488   2.957
 3425SOL    HW110811   3.480   1.467   2.908
 3425SOL    HW210812   3.568   1.418   3.021
 3426SOL     OW10813   2.195   0.560   3.155
 3426SOL    HW110814   2.249   0.502   3.208
 3426SOL    HW210815   2.213   0.533   3.064
 3427SOL     OW10816   2.691   1.577   2.538
 3427SOL    HW110817   2.672   1.633   2.463
 3427SOL    HW210818   2.616   1.518   2.544
 3428SOL     OW10819   3.293   0.217   2.978
 3428SOL    HW110820   3.328   0.145   3.031
 3428SOL    HW210821   3.242   0.269   3.040
 3429SOL     OW10822   2.857   0.003   3.015
 3429SOL    HW110823   2.818   4.415   3.010
 3429SOL    HW210824   2.951   4.487   3.024
 3430SOL     OW10825   2.636   1.333   2.179
 3430SOL    HW110826   2.605   1.243   2.186
 3430SOL    HW210827   2.716   1.336   2.230
 3431SOL     OW10828   2.483   1.554   3.147
 3431SOL    HW110829   2.484   1.637   3.195
 3431SOL    HW210830   2.571   1.548   3.110
 3432SOL     OW10831   3.201   0.052   2.020
 3432SOL    HW110832   3.238   4.476   1.975
 3432SOL    HW210833   3.124   0.017   2.065
 3433SOL     OW10834   3.177   0.465   2.535
 3433SOL    HW110835   3.120   0.541   2.536
 3433SOL    HW210836   3.165   0.425   2.621
 3434SOL     OW10837   3.447   0.198   2.730
 3434SOL    HW110838   3.389   0.214   2.805
 3434SOL    HW210839   3.450   0.282   2.684
 3435SOL     OW10840   1.905   1.069   2.169
 3435SOL    HW110841   1.999   1.061   2.151
 3435SOL    HW210842   1.877   0.980   2.191
 3436SOL     OW10843   2.748   1.656   2.202
 3436SOL    HW110844   2.675   1.638   2.143
 3436SOL    HW210845   2.717   1.730   2.255
 3437SOL     OW10846   2.089   0.625   3.847
 3437SOL    HW110847   2.002   0.618   3.887
 3437SOL    HW210848   2.075   0.597   3.756
 3438SOL     OW10849   2.068   0.302   4.714
 3438SOL    HW110850   2.099   0.270   4.799
 3438SOL    HW210851   1.986   0.253   4.700
 3439SOL     OW10852   1.868   0.389   4.360
 3439SOL    HW110853   1.782   0.407   4.398
 3439SOL    HW210854   1.854   0.317   4.299
 3440SOL     OW10855   2.434   1.288   4.897
 3440SOL    HW110856   2.345   1.300   4.862
 3440SOL    HW210857   2.476   1.374   4.886
 3441SOL     OW10858   3.427   1.513   4.432
 3441SOL    HW110859   3.384   1.492   4.515
 3441SOL    HW210860   3.355   1.517   4.369
 3442SOL     OW10861   3.000   0.697   4.419
 3442SOL    HW110862   3.044   0.781   4.410
 3442SOL    HW210863   2.948   0.705   4.499
 3443SOL     OW10864   3.634   0.604   3.950
 3443SOL    HW110865   3.611   0.596   3.857
 3443SOL    HW210866   3.598   0.525   3.991
 3444SOL     OW10867   2.618   1.137   4.768
 3444SOL    HW110868   2.549   1.170   4.825
 3444SOL    HW210869   2.651   1.214   4.722
 3445SOL     OW10870   2.732   0.769   5.547
 3445SOL    HW110871   2.716   0.839   5.609
 3445SOL    HW210872   2.755   0.813   5.465
 3446SOL     OW10873   2.547   0.999   4.369
 3446SOL    HW110874   2.613   0.990   4.438
 3446SOL    HW210875   2.479   1.053   4.408
 3447SOL     OW10876   2.573   1.150   5.527
 3447SOL    HW110877   2.616   1.230   5.559
 3447SOL    HW210878   2.487   1.179   5.498
 3448SOL     OW10879   2.209   1.396   4.777
 3448SOL    HW110880   2.123   1.373   4.741
 3448SOL    HW210881   2.226   1.484   4.743
 3449SOL     OW10882   3.322   1.499   5.081
 3449SOL    HW110883   3.373   1.580   5.088
 3449SOL    HW210884   3.261   1.502   5.154
 3450SOL     OW10885   2.306   0.394   5.210
 3450SOL    HW110886   2.388   0.344   5.213
 3450SOL    HW210887   2.238   0.328   5.224
 3451SOL     OW10888   3.470   0.443   4.463
 3451SOL    HW110889   3.390   0.462   4.414
 3451SOL    HW210890   3.485   0.521   4.516
 3452SOL     OW10891   2.083   1.721   4.197
 3452SOL    HW110892   2.109   1.789   4.259
 3452SOL    HW210893   2.159   1.710   4.140
 3453SOL     OW10894   2.999   1.339   5.418
 3453SOL    HW110895   3.041   1.336   5.504
 3453SOL    HW210896   2.948   1.259   5.413
 3454SOL     OW10897   2.090   1.444   4.258
 3454SOL    HW110898   2.072   1.538   4.266
 3454SOL    HW210899   2.036   1.403   4.325
 3455SOL     OW10900   2.117   1.088   4.609
 3455SOL    HW110901   2.120   1.003   4.652
 3455SOL    HW210902   2.068   1.144   4.670
 3456SOL     OW10903   2.444   0.984   3.861
 3456SOL    HW110904   2.492   1.030   3.792
 3456SOL    HW210905   2.484   1.015   3.942
 3457SOL     OW10906   3.441   0.117   5.192
 3457SOL    HW110907   3.473   0.184   5.132
 3457SOL    HW210908   3.430   0.163   5.275
 3458SOL     OW10909   1.979   0.655   4.285
 3458SOL    HW110910   1.949   0.567   4.307
 3458SOL    HW210911   1.971   0.704   4.366
 3459SOL     OW10912   3.705   1.757   4.056
 3459SOL    HW110913   3.770   1.729   4.120
 3459SOL    HW210914   3.726   1.848   4.038
 3460SOL     OW10915   1.901   1.593   3.845
 3460SOL    HW110916   1.880   1.502   3.864
 3460SOL    HW210917   1.874   1.641   3.924
 3461SOL     OW10918   3.553   0.921   4.368
 3461SOL    HW110919   3.634   0.877   4.345
 3461SOL    HW210920   3.529   0.971   4.290
 3462SOL     OW10921   3.510   1.105   4.153
 3462SOL    HW110922   3.596   1.109   4.112
 3462SOL    HW210923   3.515   1.168   4.225
 3463SOL     OW10924   1.985   0.746   5.307
 3463SOL    HW110925   2.077   0.774   5.312
 3463SOL    HW210926   1.935   0.827   5.317
 3464SOL     OW10927   2.489   1.380   4.452
 3464SOL    HW110928   2.435   1.303   4.467
 3464SOL    HW210929   2.461   1.412   4.366
 3465SOL     OW10930   3.159   1.229   5.152
 3465SOL    HW110931   3.190   1.164   5.089
 3465SOL    HW210932   3.220   1.222   5.226
 3466SOL     OW10933   2.682   0.018   4.279
 3466SOL    HW110934   2.719   0.102   4.251
 3466SOL    HW210935   2.587   0.030   4.271
 3467SOL     OW10936   2.047   0.967   4.996
 3467SOL    HW110937   2.135   0.930   4.983
 3467SOL    HW210938   1.989   0.910   4.945
 3468SOL     OW10939   3.394   0.995   3.924
 3468SOL    HW110940   3.324   0.939   3.956
 3468SOL    HW210941   3.435   1.030   4.003
 3469SOL     OW10942   3.124   1.770   5.353
 3469SOL    HW110943   3.101   1.827   5.280
 3469SOL    HW210944   3.115   1.682   5.318
 3470SOL     OW10945   2.178   0.252   5.503
 3470SOL    HW110946   2.241   0.316   5.535
 3470SOL    HW210947   2.104   0.258   5.564
 3471SOL     OW10948   3.333   1.417   4.675
 3471SOL    HW110949   3.264   1.433   4.739
 3471SOL    HW210950   3.319   1.326   4.647
 3472SOL     OW10951   3.519   1.745   4.301
 3472SOL    HW110952   3.499   1.713   4.213
 3472SOL    HW210953   3.495   1.672   4.359
 3473SOL     OW10954   2.453   0.722   3.990
 3473SOL    HW110955   2.457   0.805   3.944
 3473SOL    HW210956   2.388   0.736   4.059
 3474SOL     OW10957   3.155   0.370   4.656
 3474SOL    HW110958   3.065   0.340   4.639
 3474SOL    HW210959   3.190   0.305   4.717
 3475SOL     OW10960   3.441   1.673   4.033
 3475SOL    HW110961   3.532   1.701   4.026
 3475SOL    HW210962   3.414   1.656   3.943
 3476SOL     OW10963   2.658   0.621   5.177
 3476SOL    HW110964   2.629   0.594   5.265
 3476SOL    HW210965   2.621   0.554   5.119
 3477SOL     OW10966   3.250   0.481   5.400
 3477SOL    HW110967   3.254   0.525   5.485
 3477SOL    HW210968   3.316   0.412   5.405
 3478SOL     OW10969   2.815   0.887   5.308
 3478SOL    HW110970   2.869   0.817   5.272
 3478SOL    HW210971   2.766   0.920   5.233
 3479SOL     OW10972   2.860   0.417   4.958
 3479SOL    HW110973   2.769   0.424   4.989
 3479SOL    HW210974   2.853   0.364   4.878
 3480SOL     OW10975   2.913   0.698   4.150
 3480SOL    HW110976   2.930   0.689   4.243
 3480SOL    HW210977   2.829   0.653   4.137
 3481SOL     OW10978   1.950   0.822   4.502
 3481SOL    HW110979   2.031   0.815   4.552
 3481SOL    HW210980   1.908   0.901   4.535
 3482SOL     OW10981   2.718   0.371   3.911
 3482SOL    HW110982   2.786   0.404   3.853
 3482SOL    HW210983   2.731   0.276   3.912
 3483SOL     OW10984   3.565   0.572   5.553
 3483SOL    HW110985   3.529   0.646   5.503
 3483SOL    HW210986   3.600   0.513   5.486
 3484SOL     OW10987   3.241   1.142   4.264
 3484SOL    HW110988   3.320   1.131   4.211
 3484SOL    HW210989   3.187   1.205   4.215
 3485SOL     OW10990   2.397   0.207   4.626
 3485SOL    HW110991   2.420   0.225   4.717
 3485SOL    HW210992   2.392   0.293   4.585
 3486SOL     OW10993   2.866   1.443   4.193
 3486SOL    HW110994   2.833   1.518   4.143
 3486SOL    HW210995   2.838   1.461   4.283
 3487SOL     OW10996   3.661   1.058   4.594
 3487SOL    HW110997   3.609   1.036   4.517
 3487SOL    HW210998   3.598   1.062   4.665
 3488SOL     OW10999   3.076   1.528   5.230
 3488SOL    HW111000   3.067   1.457   5.294
 3488SOL    HW211001   3.031   1.496   5.152
 3489SOL     OW11002   2.179   0.958   3.976
 3489SOL    HW111003   2.262   0.977   3.931
 3489SOL    HW211004   2.150   0.876   3.937
 3490SOL     OW11005   3.344   0.745   4.446
 3490SOL    HW111006   3.335   0.703   4.532
 3490SOL    HW211007   3.421   0.801   4.455
 3491SOL     OW11008   2.331   1.245   5.463
 3491SOL    HW111009   2.308   1.252   5.370
 3491SOL    HW211010   2.250   1.269   5.509
 3492SOL     OW11011   2.985   1.779   3.953
 3492SOL    HW111012   2.911   1.739   3.998
 3492SOL    HW211013   3.009   1.715   3.885
 3493SOL     OW11014   2.048   0.268   5.239
 3493SOL    HW111015   1.984   0.337   5.227
 3493SOL    HW211016   2.069   0.270   5.333
 3494SOL     OW11017   3.491   1.381   3.812
 3494SOL    HW111018   3.449   1.466   3.798
 3494SOL    HW211019   3.422   1.317   3.793
 3495SOL     OW11020   2.327   1.737   4.044
 3495SOL    HW111021   2.371   1.793   4.107
 3495SOL    HW211022   2.397   1.700   3.990
 3496SOL     OW11023   3.288   0.145   4.142
 3496SOL    HW111024   3.271   0.089   4.067
 3496SOL    HW211025   3.381   0.133   4.161
 3497SOL     OW11026   2.814   1.693   4.589
 3497SOL    HW111027   2.885   1.639   4.622
 3497SOL    HW211028   2.774   1.641   4.520
 3498SOL     OW11029   2.257   0.693   4.197
 3498SOL    HW111030   2.278   0.601   4.213
 3498SOL    HW211031   2.163   0.700   4.216
 3499SOL     OW11032   3.386   0.234   5.447
 3499SOL    HW111033   3.386   0.255   5.540
 3499SOL    HW211034   3.306   0.182   5.434
 3500SOL     OW11035   2.493   0.121   3.849
 3500SOL    HW111036   2.582   0.085   3.858
 3500SOL    HW211037   2.460   0.082   3.768
 3501SOL     OW11038   2.630   0.271   5.480
 3501SOL    HW111039   2.698   0.204   5.481
 3501SOL    HW211040   2.590   0.267   5.567
 3502SOL     OW11041   2.728   1.459   4.928
 3502SOL    HW111042   2.720   1.448   4.833
 3502SOL    HW211043   2.818   1.434   4.948
 3503SOL     OW11044   3.202   0.590   5.152
 3503SOL    HW111045   3.229   0.561   5.239
 3503SOL    HW211046   3.236   0.678   5.143
 3504SOL     OW11047   2.676   1.387   4.663
 3504SOL    HW111048   2.759   1.379   4.616
 3504SOL    HW211049   2.610   1.394   4.594
 3505SOL     OW11050   2.787   0.523   4.621
 3505SOL    HW111051   2.770   0.520   4.527
 3505SOL    HW211052   2.820   0.435   4.642
 3506SOL     OW11053   2.418   0.081   4.248
 3506SOL    HW111054   2.331   0.047   4.271
 3506SOL    HW211055   2.402   0.141   4.175
 3507SOL     OW11056   3.290   1.199   3.765
 3507SOL    HW111057   3.319   1.123   3.815
 3507SOL    HW211058   3.205   1.221   3.802
 3508SOL     OW11059   2.156   0.064   3.928
 3508SOL    HW111060   2.233   0.119   3.912
 3508SOL    HW211061   2.185   0.000   3.993
 3509SOL     OW11062   2.818   0.239   4.188
 3509SOL    HW111063   2.766   0.303   4.139
 3509SOL    HW211064   2.908   0.274   4.183
 3510SOL     OW11065   2.942   0.682   5.184
 3510SOL    HW111066   2.872   0.617   5.182
 3510SOL    HW211067   3.022   0.631   5.172
 3511SOL     OW11068   3.091   1.567   4.516
 3511SOL    HW111069   3.101   1.634   4.449
 3511SOL    HW211070   3.157   1.589   4.582
 3512SOL     OW11071   2.331   1.149   4.454
 3512SOL    HW111072   2.263   1.132   4.518
 3512SOL    HW211073   2.289   1.135   4.369
 3513SOL     OW11074   3.129   1.792   4.334
 3513SOL    HW111075   3.174   1.856   4.279
 3513SOL    HW211076   3.060   1.842   4.377
 3514SOL     OW11077   2.889   0.544   3.744
 3514SOL    HW111078   2.842   0.625   3.728
 3514SOL    HW211079   2.948   0.564   3.817
 3515SOL     OW11080   1.947   0.549   5.121
 3515SOL    HW111081   2.038   0.553   5.090
 3515SOL    HW211082   1.939   0.621   5.183
 3516SOL     OW11083   2.423   0.247   4.893
 3516SOL    HW111084   2.448   0.165   4.936
 3516SOL    HW211085   2.331   0.258   4.916
 3517SOL     OW11086   2.726   0.504   4.352
 3517SOL    HW111087   2.688   0.541   4.273
 3517SOL    HW211088   2.680   0.422   4.365
 3518SOL     OW11089   2.816   0.016   4.518
 3518SOL    HW111090   2.770   0.018   4.433
 3518SOL    HW211091   2.832   4.424   4.534
 3519SOL     OW11092   3.300   1.161   4.580
 3519SOL    HW111093   3.229   1.097   4.581
 3519SOL    HW211094   3.323   1.171   4.488
 3520SOL     OW11095   3.326   0.607   4.694
 3520SOL    HW111096   3.271   0.529   4.695
 3520SOL    HW211097   3.382   0.598   4.771
 3521SOL     OW11098   3.706   0.814   4.108
 3521SOL    HW111099   3.763   0.764   4.166
 3521SOL    HW211100   3.679   0.752   4.041
 3522SOL     OW11101   2.351   1.421   3.878
 3522SOL    HW111102   2.275   1.391   3.929
 3522SOL    HW211103   2.343   1.375   3.795
 3523SOL     OW11104   3.535   1.265   4.366
 3523SOL    HW111105   3.629   1.267   4.382
 3523SOL    HW211106   3.505   1.353   4.389
 3524SOL     OW11107   3.257   0.572   3.794
 3524SOL    HW111108   3.194   0.556   3.864
 3524SOL    HW211109   3.342   0.555   3.833
 3525SOL     OW11110   2.380   0.265   4.046
 3525SOL    HW111111   2.431   0.216   3.982
 3525SOL    HW211112   2.361   0.348   4.002
 3526SOL     OW11113   3.614   1.241   5.294
 3526SOL    HW111114   3.701   1.202   5.289
 3526SOL    HW211115   3.630   1.331   5.322
 3527SOL     OW11116   2.933   1.343   5.066
 3527SOL    HW111117   2.856   1.312   5.114
 3527SOL    HW211118   3.006   1.295   5.105
 3528SOL     OW11119   3.470   1.622   5.378
 3528SOL    HW111120   3.464   1.660   5.291
 3528SOL    HW211121   3.553   1.575   5.378
 3529SOL     OW11122   2.996   1.205   4.824
 3529SOL    HW111123   2.931   1.234   4.888
 3529SOL    HW211124   2.964   1.238   4.740
 3530SOL     OW11125   3.487   1.096   4.801
 3530SOL    HW111126   3.481   1.159   4.873
 3530SOL    HW211127   3.410   1.114   4.747
 3531SOL     OW11128   2.761   0.135   5.109
 3531SOL    HW111129   2.783   0.090   5.028
 3531SOL    HW211130   2.845   0.154   5.150
 3532SOL     OW11131   2.844   1.114   5.449
 3532SOL    HW111132   2.752   1.129   5.472
 3532SOL    HW211133   2.843   1.037   5.392
 3533SOL     OW11134   2.571   1.063   4.095
 3533SOL    HW111135   2.557   1.044   4.188
 3533SOL    HW211136   2.647   1.009   4.071
 3534SOL     OW11137   2.280   0.820   4.977
 3534SOL    HW111138   2.349   0.828   5.042
 3534SOL    HW211139   2.246   0.731   4.989
 3535SOL     OW11140   3.130   0.374   4.999
 3535SOL    HW111141   3.162   0.453   5.042
 3535SOL    HW211142   3.040   0.396   4.973
 3536SOL     OW11143   2.203   1.113   4.213
 3536SOL    HW111144   2.211   1.186   4.152
 3536SOL    HW211145   2.202   1.035   4.158
 3537SOL     OW11146   2.416   0.526   4.581
 3537SOL    HW111147   2.427   0.585   4.508
 3537SOL    HW211148   2.481   0.553   4.645
 3538SOL     OW11149   3.110   1.349   4.114
 3538SOL    HW111150   3.166   1.420   4.145
 3538SOL    HW211151   3.023   1.370   4.147
 3539SOL     OW11152   3.147   1.453   4.869
 3539SOL    HW111153   3.201   1.457   4.948
 3539SOL    HW211154   3.094   1.375   4.881
 3540SOL     OW11155   3.441   0.623   4.203
 3540SOL    HW111156   3.394   0.669   4.272
 3540SOL    HW211157   3.485   0.692   4.153
 3541SOL     OW11158   2.279   0.742   5.327
 3541SOL    HW111159   2.338   0.789   5.268
 3541SOL    HW211160   2.325   0.660   5.346
 3542SOL     OW11161   3.467   0.779   5.407
 3542SOL    HW111162   3.381   0.821   5.401
 3542SOL    HW211163   3.519   0.821   5.339
 3543SOL     OW11164   2.861   0.087   5.439
 3543SOL    HW111165   2.901   0.165   5.402
 3543SOL    HW211166   2.885   0.017   5.378
 3544SOL     OW11167   2.361   0.042   5.487
 3544SOL    HW111168   2.370   0.011   5.397
 3544SOL    HW211169   2.295   0.111   5.482
 3545SOL     OW11170   2.444   0.874   4.756
 3545SOL    HW111171   2.476   0.964   4.755
 3545SOL    HW211172   2.388   0.869   4.833
 3546SOL     OW11173   3.215   0.858   4.750
 3546SOL    HW111174   3.130   0.846   4.708
 3546SOL    HW211175   3.258   0.773   4.741
 3547SOL     OW11176   3.062   0.536   3.983
 3547SOL    HW111177   3.069   0.456   4.035
 3547SOL    HW211178   3.019   0.599   4.041
 3548SOL     OW11179   2.152   0.231   4.967
 3548SOL    HW111180   2.105   0.248   5.049
 3548SOL    HW211181   2.191   0.145   4.978
 3549SOL     OW11182   2.583   0.630   4.778
 3549SOL    HW111183   2.659   0.614   4.722
 3549SOL    HW211184   2.555   0.719   4.757
 3550SOL     OW11185   3.598   0.959   5.579
 3550SOL    HW111186   3.553   0.895   5.524
 3550SOL    HW211187   3.538   0.975   5.652
 3551SOL     OW11188   2.156   0.049   4.376
 3551SOL    HW111189   2.146   0.144   4.376
 3551SOL    HW211190   2.168   0.026   4.468
 3552SOL     OW11191   3.482   0.383   4.081
 3552SOL    HW111192   3.507   0.317   4.146
 3552SOL    HW211193   3.457   0.459   4.133
 3553SOL     OW11194   2.894   0.763   4.684
 3553SOL    HW111195   2.886   0.779   4.779
 3553SOL    HW211196   2.863   0.673   4.672
 3554SOL     OW11197   2.856   1.568   5.468
 3554SOL    HW111198   2.826   1.618   5.392
 3554SOL    HW211199   2.898   1.490   5.431
 3555SOL     OW11200   3.716   1.503   5.329
 3555SOL    HW111201   3.735   1.530   5.239
 3555SOL    HW211202   3.797   1.520   5.377
 3556SOL     OW11203   2.214   0.911   5.535
 3556SOL    HW111204   2.296   0.940   5.575
 3556SOL    HW211205   2.240   0.850   5.467
 3557SOL     OW11206   3.391   0.262   3.852
 3557SOL    HW111207   3.321   0.206   3.884
 3557SOL    HW211208   3.422   0.309   3.930
 3558SOL     OW11209   3.151   0.826   3.753
 3558SOL    HW111210   3.193   0.740   3.756
 3558SOL    HW211211   3.183   0.865   3.671
 3559SOL     OW11212   2.931   1.337   4.578
 3559SOL    HW111213   2.933   1.265   4.515
 3559SOL    HW211214   2.993   1.401   4.543
 3560SOL     OW11215   2.171   0.810   4.670
 3560SOL    HW111216   2.264   0.832   4.664
 3560SOL    HW211217   2.170   0.720   4.703
 3561SOL     OW11218   2.197   0.534   4.738
 3561SOL    HW111219   2.154   0.451   4.720
 3561SOL    HW211220   2.274   0.535   4.681
 3562SOL     OW11221   2.999   0.371   5.424
 3562SOL    HW111222   2.947   0.434   5.474
 3562SOL    HW211223   3.083   0.415   5.410
 3563SOL     OW11224   3.015   0.214   5.198
 3563SOL    HW111225   3.011   0.278   5.269
 3563SOL    HW211226   3.059   0.261   5.126
 3564SOL     OW11227   1.868   1.319   3.918
 3564SOL    HW111228   1.781   1.335   3.881
 3564SOL    HW211229   1.864   1.230   3.952
 3565SOL     OW11230   2.013   1.789   4.566
 3565SOL    HW111231   1.942   1.725   4.554
 3565SOL    HW211232   2.052   1.764   4.651
 3566SOL     OW11233   2.841   0.791   4.950
 3566SOL    HW111234   2.898   0.770   5.024
 3566SOL    HW211235   2.758   0.749   4.971
 3567SOL     OW11236   1.895   0.545   4.843
 3567SOL    HW111237   1.971   0.527   4.788
 3567SOL    HW211238   1.929   0.547   4.932
 3568SOL     OW11239   2.047   0.522   5.447
 3568SOL    HW111240   2.125   0.504   5.394
 3568SOL    HW211241   2.007   0.598   5.405
 3569SOL     OW11242   3.241   0.936   5.382
 3569SOL    HW111243   3.263   1.029   5.379
 3569SOL    HW211244   3.237   0.910   5.290
 3570SOL     OW11245   2.672   0.577   4.083
 3570SOL    HW111246   2.677   0.506   4.019
 3570SOL    HW211247   2.599   0.631   4.053
 3571SOL     OW11248   3.500   0.602   4.907
 3571SOL    HW111249   3.491   0.543   4.982
 3571SOL    HW211250   3.588   0.584   4.874
 3572SOL     OW11251   2.085   1.561   5.493
 3572SOL    HW111252   2.089   1.606   5.577
 3572SOL    HW211253   2.086   1.468   5.515
 3573SOL     OW11254   2.569   0.458   4.985
 3573SOL    HW111255   2.519   0.381   4.955
 3573SOL    HW211256   2.566   0.519   4.912
 3574SOL     OW11257   2.324   0.492   3.907
 3574SOL    HW111258   2.384   0.563   3.929
 3574SOL    HW211259   2.239   0.534   3.894
 3575SOL     OW11260   1.999   1.140   5.200
 3575SOL    HW111261   2.004   1.086   5.279
 3575SOL    HW211262   2.016   1.078   5.128
 3576SOL     OW11263   3.187   1.045   4.945
 3576SOL    HW111264   3.208   0.981   4.877
 3576SOL    HW211265   3.119   1.100   4.905
 3577SOL     OW11266   3.177   0.856   4.029
 3577SOL    HW111267   3.103   0.828   4.082
 3577SOL    HW211268   3.148   0.843   3.938
 3578SOL     OW11269   3.639   1.740   4.879
 3578SOL    HW111270   3.698   1.767   4.808
 3578SOL    HW211271   3.612   1.652   4.855
 3579SOL     OW11272   3.124   1.730   4.851
 3579SOL    HW111273   3.199   1.748   4.794
 3579SOL    HW211274   3.121   1.635   4.857
 3580SOL     OW11275   1.952   1.256   4.749
 3580SOL    HW111276   1.926   1.257   4.841
 3580SOL    HW211277   1.877   1.216   4.704
 3581SOL     OW11278   3.581   0.129   4.211
 3581SOL    HW111279   3.650   0.141   4.146
 3581SOL    HW211280   3.614   0.059   4.268
 3582SOL     OW11281   3.253   1.568   4.211
 3582SOL    HW111282   3.312   1.602   4.144
 3582SOL    HW211283   3.203   1.644   4.240
 3583SOL     OW11284   3.141   0.928   4.396
 3583SOL    HW111285   3.214   0.867   4.403
 3583SOL    HW211286   3.175   1.001   4.343
 3584SOL     OW11287   2.684   1.268   5.165
 3584SOL    HW111288   2.642   1.285   5.249
 3584SOL    HW211289   2.624   1.307   5.101
 3585SOL     OW11290   2.530   1.624   3.879
 3585SOL    HW111291   2.544   1.636   3.785
 3585SOL    HW211292   2.476   1.545   3.885
 3586SOL     OW11293   3.484   1.728   5.116
 3586SOL    HW111294   3.536   1.734   5.035
 3586SOL    HW211295   3.469   1.819   5.142
 3587SOL     OW11296   3.701   0.153   4.689
 3587SOL    HW111297   3.733   0.074   4.644
 3587SOL    HW211298   3.615   0.169   4.652
 3588SOL     OW11299   2.123   0.318   4.438
 3588SOL    HW111300   2.038   0.354   4.413
 3588SOL    HW211301   2.120   0.312   4.534
 3589SOL     OW11302   3.070   1.604   3.756
 3589SOL    HW111303   3.059   1.512   3.783
 3589SOL    HW211304   3.004   1.616   3.688
 3590SOL     OW11305   2.686   1.003   5.095
 3590SOL    HW111306   2.726   0.996   5.009
 3590SOL    HW211307   2.687   1.097   5.115
 3591SOL     OW11308   2.778   0.910   4.014
 3591SOL    HW111309   2.839   0.943   3.948
 3591SOL    HW211310   2.826   0.842   4.060
 3592SOL     OW11311   3.352   1.627   3.767
 3592SOL    HW111312   3.258   1.618   3.753
 3592SOL    HW211313   3.389   1.633   3.679
 3593SOL     OW11314   2.244   1.274   5.206
 3593SOL    HW111315   2.215   1.365   5.202
 3593SOL    HW211316   2.164   1.223   5.189
 3594SOL     OW11317   3.472   1.283   5.004
 3594SOL    HW111318   3.531   1.270   5.078
 3594SOL    HW211319   3.412   1.351   5.032
 3595SOL     OW11320   2.919   1.108   4.432
 3595SOL    HW111321   2.846   1.059   4.470
 3595SOL    HW211322   2.981   1.042   4.404
 3596SOL     OW11323   2.865   0.246   4.735
 3596SOL    HW111324   2.871   0.229   4.641
 3596SOL    HW211325   2.856   0.160   4.775
 3597SOL     OW11326   2.464   1.492   4.198
 3597SOL    HW111327   2.511   1.439   4.133
 3597SOL    HW211328   2.389   1.526   4.150
 3598SOL     OW11329   3.586   0.394   5.100
 3598SOL    HW111330   3.659   0.455   5.099
 3598SOL    HW211331   3.614   0.323   5.043
 3599SOL     OW11332   2.122   1.344   4.014
 3599SOL    HW111333   2.029   1.341   3.990
 3599SOL    HW211334   2.123   1.382   4.102
 3600SOL     OW11335   1.976   1.021   5.447
 3600SOL    HW111336   1.900   0.999   5.500
 3600SOL    HW211337   2.050   0.980   5.493
 3601SOL     OW11338   2.519   0.205   5.226
 3601SOL    HW111339   2.597   0.180   5.178
 3601SOL    HW211340   2.551   0.229   5.313
 3602SOL     OW11341   1.945   0.332   3.772
 3602SOL    HW111342   1.875   0.278   3.735
 3602SOL    HW211343   1.954   0.404   3.709
 3603SOL     OW11344   3.290   0.858   5.123
 3603SOL    HW111345   3.240   0.918   5.067
 3603SOL    HW211346   3.378   0.860   5.087
 3604SOL     OW11347   1.924   0.187   4.037
 3604SOL    HW111348   1.926   0.255   3.970
 3604SOL    HW211349   1.999   0.131   4.016
 3605SOL     OW11350   3.040   1.337   3.842
 3605SOL    HW111351   2.950   1.305   3.844
 3605SOL    HW211352   3.068   1.338   3.933
 3606SOL     OW11353   2.481   0.830   5.158
 3606SOL    HW111354   2.537   0.906   5.142
 3606SOL    HW211355   2.543   0.757   5.166
 3607SOL     OW11356   3.349   1.772   4.694
 3607SOL    HW111357   3.369   1.838   4.628
 3607SOL    HW211358   3.432   1.759   4.741
 3608SOL     OW11359   2.578   0.561   5.428
 3608SOL    HW111360   2.620   0.624   5.487
 3608SOL    HW211361   2.605   0.475   5.461
 3609SOL     OW11362   3.340   1.195   5.358
 3609SOL    HW111363   3.327   1.210   5.451
 3609SOL    HW211364   3.433   1.214   5.343
 3610SOL     OW11365   3.529   0.880   4.979
 3610SOL    HW111366   3.523   0.795   4.936
 3610SOL    HW211367   3.519   0.944   4.909
 3611SOL     OW11368   3.081   0.332   4.170
 3611SOL    HW111369   3.149   0.265   4.157
 3611SOL    HW211370   3.110   0.380   4.248
 3612SOL     OW11371   2.446   0.736   4.398
 3612SOL    HW111372   2.489   0.820   4.384
 3612SOL    HW211373   2.382   0.729   4.327
 3613SOL     OW11374   3.621   0.370   5.368
 3613SOL    HW111375   3.606   0.383   5.275
 3613SOL    HW211376   3.544   0.321   5.398
 3614SOL     OW11377   3.610   0.933   5.235
 3614SOL    HW111378   3.601   1.028   5.248
 3614SOL    HW211379   3.593   0.920   5.142
 3615SOL     OW11380   2.724   1.366   3.761
 3615SOL    HW111381   2.688   1.391   3.846
 3615SOL    HW211382   2.741   1.449   3.717
 3616SOL     OW11383   2.731   0.969   4.577
 3616SOL    HW111384   2.781   0.897   4.616
 3616SOL    HW211385   2.695   1.016   4.652
 3617SOL     OW11386   2.941   0.989   3.813
 3617SOL    HW111387   2.918   1.040   3.735
 3617SOL    HW211388   3.015   0.935   3.786
 3618SOL     OW11389   3.713   1.554   4.568
 3618SOL    HW111390   3.634   1.543   4.515
 3618SOL    HW211391   3.706   1.488   4.636
 3619SOL     OW11392   2.078   1.299   5.573
 3619SOL    HW111393   2.039   1.221   5.534
 3619SOL    HW211394   2.025   1.317   5.651
 3620SOL     OW11395   1.950   1.231   4.390
 3620SOL    HW111396   1.960   1.183   4.472
 3620SOL    HW211397   2.016   1.192   4.332
 3621SOL     OW11398   3.666   0.178   4.962
 3621SOL    HW111399   3.664   0.084   4.981
 3621SOL    HW211400   3.684   0.183   4.868
 3622SOL     OW11401   2.300   0.432   4.256
 3622SOL    HW111402   2.320   0.364   4.192
 3622SOL    HW211403   2.243   0.389   4.320
 3623SOL     OW11404   3.561   1.488   4.819
 3623SOL    HW111405   3.482   1.468   4.769
 3623SOL    HW211406   3.568   1.417   4.883
 3624SOL     OW11407   2.194   0.560   5.016
 3624SOL    HW111408   2.249   0.503   5.070
 3624SOL    HW211409   2.213   0.534   4.926
 3625SOL     OW11410   2.690   1.563   4.390
 3625SOL    HW111411   2.657   1.614   4.316
 3625SOL    HW211412   2.618   1.503   4.411
 3626SOL     OW11413   3.293   0.217   4.840
 3626SOL    HW111414   3.328   0.145   4.893
 3626SOL    HW211415   3.242   0.269   4.902
 3627SOL     OW11416   2.857   0.002   4.877
 3627SOL    HW111417   2.818   4.415   4.871
 3627SOL    HW211418   2.951   4.487   4.886
 3628SOL     OW11419   2.636   1.333   4.039
 3628SOL    HW111420   2.606   1.242   4.048
 3628SOL    HW211421   2.716   1.337   4.092
 3629SOL     OW11422   3.201   0.052   3.882
 3629SOL    HW111423   3.238   4.476   3.837
 3629SOL    HW211424   3.124   0.017   3.927
 3630SOL     OW11425   3.177   0.465   4.397
 3630SOL    HW111426   3.120   0.541   4.398
 3630SOL    HW211427   3.165   0.425   4.483
 3631SOL     OW11428   3.447   0.198   4.593
 3631SOL    HW111429   3.389   0.214   4.667
 3631SOL    HW211430   3.450   0.282   4.546
 3632SOL     OW11431   1.905   1.069   4.031
 3632SOL    HW111432   1.999   1.061   4.013
 3632SOL    HW211433   1.877   0.980   4.053
 3633SOL     OW11434   2.750   1.655   4.061
 3633SOL    HW111435   2.675   1.638   4.004
 3633SOL    HW211436   2.722   1.727   4.117
 3634SOL     OW11437   2.088   0.624   5.710
 3634SOL    HW111438   2.001   0.617   5.749
 3634SOL    HW211439   2.076   0.597   5.619
 3635SOL     OW11440   2.068   0.302   6.576
 3635SOL    HW111441   2.099   0.270   6.661
 3635SOL    HW211442   1.986   0.253   6.562
 3636SOL     OW11443   1.868   0.390   6.222
 3636SOL    HW111444   1.782   0.407   6.260
 3636SOL    HW211445   1.854   0.317   6.161
 3637SOL     OW11446   2.430   1.291   6.765
 3637SOL    HW111447   2.342   1.292   6.726
 3637SOL    HW211448   2.446   1.382   6.791
 3638SOL     OW11449   3.426   1.512   6.294
 3638SOL    HW111450   3.384   1.491   6.377
 3638SOL    HW211451   3.354   1.514   6.231
 3639SOL     OW11452   3.000   0.697   6.281
 3639SOL    HW111453   3.044   0.782   6.272
 3639SOL    HW211454   2.948   0.705   6.361
 3640SOL     OW11455   3.634   0.604   5.812
 3640SOL    HW111456   3.610   0.596   5.720
 3640SOL    HW211457   3.598   0.525   5.852
 3641SOL     OW11458   2.615   1.145   6.628
 3641SOL    HW111459   2.547   1.180   6.685
 3641SOL    HW211460   2.652   1.222   6.584
 3642SOL     OW11461   2.732   0.769   7.409
 3642SOL    HW111462   2.718   0.840   7.472
 3642SOL    HW211463   2.755   0.814   7.328
 3643SOL     OW11464   2.548   0.999   6.234
 3643SOL    HW111465   2.614   0.989   6.302
 3643SOL    HW211466   2.479   1.051   6.275
 3644SOL     OW11467   2.574   1.150   7.401
 3644SOL    HW111468   2.622   1.228   7.429
 3644SOL    HW211469   2.492   1.183   7.364
 3645SOL     OW11470   2.187   1.421   6.661
 3645SOL    HW111471   2.119   1.391   6.601
 3645SOL    HW211472   2.250   1.467   6.605
 3646SOL     OW11473   3.322   1.500   6.944
 3646SOL    HW111474   3.375   1.580   6.953
 3646SOL    HW211475   3.256   1.507   7.013
 3647SOL     OW11476   2.306   0.394   7.071
 3647SOL    HW111477   2.388   0.344   7.074
 3647SOL    HW211478   2.238   0.328   7.086
 3648SOL     OW11479   3.470   0.443   6.325
 3648SOL    HW111480   3.390   0.462   6.276
 3648SOL    HW211481   3.485   0.521   6.379
 3649SOL     OW11482   2.999   1.342   7.280
 3649SOL    HW111483   3.040   1.336   7.367
 3649SOL    HW211484   2.947   1.262   7.272
 3650SOL     OW11485   2.123   1.093   6.478
 3650SOL    HW111486   2.117   1.006   6.517
 3650SOL    HW211487   2.063   1.147   6.531
 3651SOL     OW11488   2.469   1.793   7.009
 3651SOL    HW111489   2.389   1.773   7.058
 3651SOL    HW211490   2.493   1.881   7.037
 3652SOL     OW11491   2.445   0.984   5.718
 3652SOL    HW111492   2.491   1.033   5.650
 3652SOL    HW211493   2.486   1.012   5.800
 3653SOL     OW11494   3.440   0.117   7.054
 3653SOL    HW111495   3.473   0.184   6.994
 3653SOL    HW211496   3.430   0.163   7.137
 3654SOL     OW11497   1.981   0.653   6.147
 3654SOL    HW111498   1.949   0.566   6.169
 3654SOL    HW211499   1.971   0.703   6.228
 3655SOL     OW11500   3.705   1.757   5.919
 3655SOL    HW111501   3.771   1.730   5.982
 3655SOL    HW211502   3.726   1.848   5.900
 3656SOL     OW11503   3.553   0.921   6.230
 3656SOL    HW111504   3.635   0.876   6.208
 3656SOL    HW211505   3.530   0.970   6.152
 3657SOL     OW11506   3.510   1.105   6.015
 3657SOL    HW111507   3.596   1.109   5.974
 3657SOL    HW211508   3.515   1.167   6.087
 3658SOL     OW11509   1.984   0.746   7.169
 3658SOL    HW111510   2.075   0.776   7.174
 3658SOL    HW211511   1.932   0.827   7.175
 3659SOL     OW11512   2.485   1.376   6.327
 3659SOL    HW111513   2.440   1.293   6.342
 3659SOL    HW211514   2.448   1.409   6.245
 3660SOL     OW11515   3.149   1.238   7.008
 3660SOL    HW111516   3.180   1.170   6.948
 3660SOL    HW211517   3.207   1.232   7.083
 3661SOL     OW11518   2.681   0.018   6.141
 3661SOL    HW111519   2.719   0.102   6.113
 3661SOL    HW211520   2.587   0.030   6.133
 3662SOL     OW11521   2.051   0.963   6.862
 3662SOL    HW111522   2.136   0.923   6.846
 3662SOL    HW211523   1.990   0.914   6.806
 3663SOL     OW11524   3.393   0.995   5.786
 3663SOL    HW111525   3.323   0.939   5.818
 3663SOL    HW211526   3.435   1.030   5.865
 3664SOL     OW11527   3.046   1.809   7.209
 3664SOL    HW111528   3.058   1.868   7.135
 3664SOL    HW211529   3.064   1.722   7.174
 3665SOL     OW11530   2.178   0.252   7.365
 3665SOL    HW111531   2.241   0.316   7.398
 3665SOL    HW211532   2.104   0.258   7.426
 3666SOL     OW11533   3.331   1.418   6.537
 3666SOL    HW111534   3.263   1.434   6.602
 3666SOL    HW211535   3.317   1.328   6.510
 3667SOL     OW11536   3.518   1.745   6.164
 3667SOL    HW111537   3.499   1.715   6.075
 3667SOL    HW211538   3.495   1.671   6.220
 3668SOL     OW11539   2.453   0.723   5.852
 3668SOL    HW111540   2.455   0.805   5.803
 3668SOL    HW211541   2.387   0.737   5.920
 3669SOL     OW11542   3.155   0.370   6.518
 3669SOL    HW111543   3.065   0.340   6.501
 3669SOL    HW211544   3.190   0.306   6.579
 3670SOL     OW11545   3.442   1.671   5.895
 3670SOL    HW111546   3.533   1.700   5.888
 3670SOL    HW211547   3.415   1.654   5.805
 3671SOL     OW11548   2.657   0.621   7.039
 3671SOL    HW111549   2.629   0.594   7.127
 3671SOL    HW211550   2.621   0.554   6.981
 3672SOL     OW11551   3.250   0.481   7.262
 3672SOL    HW111552   3.254   0.525   7.347
 3672SOL    HW211553   3.316   0.412   7.267
 3673SOL     OW11554   2.815   0.887   7.171
 3673SOL    HW111555   2.869   0.817   7.134
 3673SOL    HW211556   2.766   0.921   7.096
 3674SOL     OW11557   2.860   0.417   6.819
 3674SOL    HW111558   2.770   0.424   6.851
 3674SOL    HW211559   2.853   0.363   6.740
 3675SOL     OW11560   2.913   0.698   6.012
 3675SOL    HW111561   2.931   0.689   6.105
 3675SOL    HW211562   2.829   0.653   5.999
 3676SOL     OW11563   1.951   0.821   6.362
 3676SOL    HW111564   2.031   0.815   6.415
 3676SOL    HW211565   1.905   0.897   6.398
 3677SOL     OW11566   1.991   1.841   7.161
 3677SOL    HW111567   1.988   1.826   7.255
 3677SOL    HW211568   1.900   1.850   7.135
 3678SOL     OW11569   2.719   0.371   5.775
 3678SOL    HW111570   2.786   0.404   5.715
 3678SOL    HW211571   2.731   0.276   5.774
 3679SOL     OW11572   3.565   0.571   7.415
 3679SOL    HW111573   3.529   0.646   7.365
 3679SOL    HW211574   3.600   0.513   7.348
 3680SOL     OW11575   3.241   1.142   6.126
 3680SOL    HW111576   3.320   1.131   6.073
 3680SOL    HW211577   3.188   1.204   6.075
 3681SOL     OW11578   2.397   0.207   6.488
 3681SOL    HW111579   2.420   0.225   6.579
 3681SOL    HW211580   2.392   0.293   6.447
 3682SOL     OW11581   2.861   1.449   6.047
 3682SOL    HW111582   2.793   1.504   6.007
 3682SOL    HW211583   2.864   1.477   6.138
 3683SOL     OW11584   3.661   1.058   6.456
 3683SOL    HW111585   3.609   1.036   6.379
 3683SOL    HW211586   3.598   1.062   6.528
 3684SOL     OW11587   3.089   1.539   7.099
 3684SOL    HW111588   3.077   1.467   7.161
 3684SOL    HW211589   3.025   1.522   7.030
 3685SOL     OW11590   2.181   0.957   5.837
 3685SOL    HW111591   2.261   0.976   5.789
 3685SOL    HW211592   2.148   0.876   5.797
 3686SOL     OW11593   3.343   0.746   6.309
 3686SOL    HW111594   3.335   0.703   6.394
 3686SOL    HW211595   3.421   0.801   6.317
 3687SOL     OW11596   2.330   1.266   7.325
 3687SOL    HW111597   2.303   1.270   7.233
 3687SOL    HW211598   2.248   1.263   7.374
 3688SOL     OW11599   2.049   0.268   7.101
 3688SOL    HW111600   1.983   0.337   7.090
 3688SOL    HW211601   2.069   0.270   7.195
 3689SOL     OW11602   3.491   1.381   5.675
 3689SOL    HW111603   3.450   1.467   5.659
 3689SOL    HW211604   3.422   1.318   5.656
 3690SOL     OW11605   3.288   0.145   6.005
 3690SOL    HW111606   3.271   0.089   5.929
 3690SOL    HW211607   3.381   0.133   6.023
 3691SOL     OW11608   2.107   1.776   6.808
 3691SOL    HW111609   2.161   1.723   6.867
 3691SOL    HW211610   2.133   1.749   6.720
 3692SOL     OW11611   2.256   0.694   6.061
 3692SOL    HW111612   2.278   0.602   6.075
 3692SOL    HW211613   2.162   0.699   6.078
 3693SOL     OW11614   3.386   0.234   7.309
 3693SOL    HW111615   3.386   0.255   7.402
 3693SOL    HW211616   3.306   0.182   7.296
 3694SOL     OW11617   2.494   0.121   5.710
 3694SOL    HW111618   2.582   0.085   5.720
 3694SOL    HW211619   2.460   0.082   5.630
 3695SOL     OW11620   2.630   0.271   7.342
 3695SOL    HW111621   2.698   0.204   7.343
 3695SOL    HW211622   2.590   0.267   7.428
 3696SOL     OW11623   2.744   1.535   6.774
 3696SOL    HW111624   2.722   1.493   6.691
 3696SOL    HW211625   2.808   1.476   6.814
 3697SOL     OW11626   3.202   0.590   7.014
 3697SOL    HW111627   3.230   0.561   7.101
 3697SOL    HW211628   3.237   0.678   7.006
 3698SOL     OW11629   2.686   1.401   6.530
 3698SOL    HW111630   2.768   1.383   6.484
 3698SOL    HW211631   2.619   1.402   6.461
 3699SOL     OW11632   2.787   0.523   6.483
 3699SOL    HW111633   2.770   0.520   6.389
 3699SOL    HW211634   2.819   0.435   6.504
 3700SOL     OW11635   2.418   0.081   6.110
 3700SOL    HW111636   2.331   0.048   6.133
 3700SOL    HW211637   2.402   0.142   6.038
 3701SOL     OW11638   3.291   1.199   5.628
 3701SOL    HW111639   3.320   1.123   5.678
 3701SOL    HW211640   3.205   1.220   5.664
 3702SOL     OW11641   2.156   0.064   5.790
 3702SOL    HW111642   2.232   0.119   5.773
 3702SOL    HW211643   2.185   0.000   5.855
 3703SOL     OW11644   2.818   0.240   6.050
 3703SOL    HW111645   2.766   0.302   5.999
 3703SOL    HW211646   2.908   0.274   6.045
 3704SOL     OW11647   2.942   0.683   7.045
 3704SOL    HW111648   2.872   0.617   7.044
 3704SOL    HW211649   3.022   0.632   7.034
 3705SOL     OW11650   3.094   1.559   6.369
 3705SOL    HW111651   3.105   1.631   6.307
 3705SOL    HW211652   3.150   1.581   6.443
 3706SOL     OW11653   2.331   1.150   6.318
 3706SOL    HW111654   2.264   1.131   6.382
 3706SOL    HW211655   2.290   1.132   6.233
 3707SOL     OW11656   3.134   1.782   6.187
 3707SOL    HW111657   3.183   1.848   6.137
 3707SOL    HW211658   3.056   1.828   6.217
 3708SOL     OW11659   2.889   0.544   5.606
 3708SOL    HW111660   2.842   0.625   5.590
 3708SOL    HW211661   2.948   0.564   5.679
 3709SOL     OW11662   1.947   0.549   6.982
 3709SOL    HW111663   2.038   0.553   6.952
 3709SOL    HW211664   1.939   0.621   7.045
 3710SOL     OW11665   2.423   0.247   6.755
 3710SOL    HW111666   2.448   0.165   6.798
 3710SOL    HW211667   2.331   0.258   6.778
 3711SOL     OW11668   2.726   0.505   6.214
 3711SOL    HW111669   2.688   0.541   6.134
 3711SOL    HW211670   2.680   0.422   6.227
 3712SOL     OW11671   2.816   0.017   6.380
 3712SOL    HW111672   2.770   0.018   6.295
 3712SOL    HW211673   2.832   4.424   6.396
 3713SOL     OW11674   3.299   1.162   6.443
 3713SOL    HW111675   3.231   1.095   6.442
 3713SOL    HW211676   3.324   1.171   6.350
 3714SOL     OW11677   3.326   0.607   6.556
 3714SOL    HW111678   3.271   0.529   6.557
 3714SOL    HW211679   3.383   0.598   6.633
 3715SOL     OW11680   3.705   0.814   5.970
 3715SOL    HW111681   3.762   0.764   6.028
 3715SOL    HW211682   3.679   0.752   5.903
 3716SOL     OW11683   3.535   1.265   6.229
 3716SOL    HW111684   3.629   1.265   6.244
 3716SOL    HW211685   3.506   1.353   6.251
 3717SOL     OW11686   3.257   0.572   5.656
 3717SOL    HW111687   3.194   0.556   5.726
 3717SOL    HW211688   3.342   0.555   5.695
 3718SOL     OW11689   2.380   0.265   5.907
 3718SOL    HW111690   2.431   0.216   5.843
 3718SOL    HW211691   2.361   0.348   5.864
 3719SOL     OW11692   3.613   1.241   7.155
 3719SOL    HW111693   3.700   1.201   7.151
 3719SOL    HW211694   3.628   1.331   7.184
 3720SOL     OW11695   2.917   1.358   6.920
 3720SOL    HW111696   2.842   1.324   6.969
 3720SOL    HW211697   2.993   1.314   6.960
 3721SOL     OW11698   3.471   1.627   7.242
 3721SOL    HW111699   3.464   1.661   7.153
 3721SOL    HW211700   3.553   1.578   7.243
 3722SOL     OW11701   2.995   1.210   6.690
 3722SOL    HW111702   2.932   1.244   6.754
 3722SOL    HW211703   2.961   1.239   6.605
 3723SOL     OW11704   3.487   1.096   6.663
 3723SOL    HW111705   3.482   1.159   6.735
 3723SOL    HW211706   3.409   1.114   6.610
 3724SOL     OW11707   2.761   0.136   6.971
 3724SOL    HW111708   2.784   0.090   6.890
 3724SOL    HW211709   2.845   0.154   7.013
 3725SOL     OW11710   2.846   1.115   7.309
 3725SOL    HW111711   2.755   1.131   7.332
 3725SOL    HW211712   2.844   1.037   7.254
 3726SOL     OW11713   2.566   1.048   5.961
 3726SOL    HW111714   2.554   1.032   6.054
 3726SOL    HW211715   2.642   0.996   5.937
 3727SOL     OW11716   2.283   0.818   6.837
 3727SOL    HW111717   2.351   0.827   6.904
 3727SOL    HW211718   2.248   0.730   6.850
 3728SOL     OW11719   3.130   0.374   6.861
 3728SOL    HW111720   3.162   0.453   6.904
 3728SOL    HW211721   3.040   0.396   6.835
 3729SOL     OW11722   1.934   1.570   6.940
 3729SOL    HW111723   1.906   1.646   6.889
 3729SOL    HW211724   2.029   1.571   6.936
 3730SOL     OW11725   2.212   1.112   6.075
 3730SOL    HW111726   2.226   1.174   6.003
 3730SOL    HW211727   2.204   1.027   6.032
 3731SOL     OW11728   2.416   0.525   6.444
 3731SOL    HW111729   2.427   0.585   6.370
 3731SOL    HW211730   2.481   0.553   6.508
 3732SOL     OW11731   3.109   1.348   5.975
 3732SOL    HW111732   3.165   1.419   6.006
 3732SOL    HW211733   3.021   1.372   6.005
 3733SOL     OW11734   3.146   1.460   6.733
 3733SOL    HW111735   3.202   1.462   6.811
 3733SOL    HW211736   3.092   1.382   6.744
 3734SOL     OW11737   3.441   0.623   6.065
 3734SOL    HW111738   3.393   0.670   6.133
 3734SOL    HW211739   3.486   0.691   6.015
 3735SOL     OW11740   2.212   1.524   6.905
 3735SOL    HW111741   2.195   1.483   6.820
 3735SOL    HW211742   2.307   1.535   6.908
 3736SOL     OW11743   2.279   0.742   7.190
 3736SOL    HW111744   2.338   0.789   7.131
 3736SOL    HW211745   2.324   0.659   7.208
 3737SOL     OW11746   3.467   0.779   7.269
 3737SOL    HW111747   3.381   0.821   7.263
 3737SOL    HW211748   3.519   0.821   7.201
 3738SOL     OW11749   2.862   0.087   7.301
 3738SOL    HW111750   2.902   0.166   7.263
 3738SOL    HW211751   2.885   0.017   7.240
 3739SOL     OW11752   2.362   0.042   7.349
 3739SOL    HW111753   2.369   0.010   7.259
 3739SOL    HW211754   2.295   0.111   7.344
 3740SOL     OW11755   2.445   0.875   6.617
 3740SOL    HW111756   2.476   0.966   6.619
 3740SOL    HW211757   2.389   0.866   6.694
 3741SOL     OW11758   3.215   0.858   6.612
 3741SOL    HW111759   3.130   0.845   6.570
 3741SOL    HW211760   3.259   0.774   6.603
 3742SOL     OW11761   3.062   0.536   5.845
 3742SOL    HW111762   3.069   0.456   5.897
 3742SOL    HW211763   3.019   0.599   5.903
 3743SOL     OW11764   2.152   0.232   6.829
 3743SOL    HW111765   2.105   0.248   6.910
 3743SOL    HW211766   2.191   0.145   6.840
 3744SOL     OW11767   1.906   1.309   6.860
 3744SOL    HW111768   1.941   1.255   6.932
 3744SOL    HW211769   1.913   1.399   6.892
 3745SOL     OW11770   2.583   0.630   6.640
 3745SOL    HW111771   2.659   0.613   6.584
 3745SOL    HW211772   2.556   0.719   6.618
 3746SOL     OW11773   3.598   0.960   7.441
 3746SOL    HW111774   3.553   0.895   7.386
 3746SOL    HW211775   3.538   0.975   7.514
 3747SOL     OW11776   2.156   0.049   6.238
 3747SOL    HW111777   2.146   0.144   6.238
 3747SOL    HW211778   2.168   0.026   6.330
 3748SOL     OW11779   3.482   0.382   5.943
 3748SOL    HW111780   3.507   0.317   6.008
 3748SOL    HW211781   3.457   0.459   5.995
 3749SOL     OW11782   2.893   0.764   6.547
 3749SOL    HW111783   2.886   0.779   6.641
 3749SOL    HW211784   2.863   0.674   6.534
 3750SOL     OW11785   2.844   1.566   7.306
 3750SOL    HW111786   2.829   1.610   7.222
 3750SOL    HW211787   2.887   1.484   7.283
 3751SOL     OW11788   3.715   1.504   7.191
 3751SOL    HW111789   3.735   1.530   7.101
 3751SOL    HW211790   3.796   1.520   7.239
 3752SOL     OW11791   2.216   0.917   7.394
 3752SOL    HW111792   2.297   0.935   7.441
 3752SOL    HW211793   2.241   0.853   7.328
 3753SOL     OW11794   3.390   0.262   5.714
 3753SOL    HW111795   3.321   0.205   5.746
 3753SOL    HW211796   3.421   0.309   5.792
 3754SOL     OW11797   3.151   0.826   5.615
 3754SOL    HW111798   3.192   0.740   5.618
 3754SOL    HW211799   3.182   0.865   5.534
 3755SOL     OW11800   2.929   1.336   6.435
 3755SOL    HW111801   2.934   1.263   6.374
 3755SOL    HW211802   2.994   1.399   6.403
 3756SOL     OW11803   2.170   0.810   6.532
 3756SOL    HW111804   2.263   0.832   6.526
 3756SOL    HW211805   2.169   0.720   6.565
 3757SOL     OW11806   2.197   0.535   6.600
 3757SOL    HW111807   2.154   0.451   6.582
 3757SOL    HW211808   2.274   0.535   6.542
 3758SOL     OW11809   2.999   0.371   7.286
 3758SOL    HW111810   2.947   0.434   7.336
 3758SOL    HW211811   3.083   0.415   7.272
 3759SOL     OW11812   3.015   0.214   7.060
 3759SOL    HW111813   3.011   0.278   7.131
 3759SOL    HW211814   3.059   0.261   6.988
 3760SOL     OW11815   1.884   1.308   5.761
 3760SOL    HW111816   1.795   1.333   5.734
 3760SOL    HW211817   1.872   1.226   5.809
 3761SOL     OW11818   2.393   1.541   6.537
 3761SOL    HW111819   2.435   1.627   6.538
 3761SOL    HW211820   2.421   1.501   6.455
 3762SOL     OW11821   2.840   0.792   6.812
 3762SOL    HW111822   2.898   0.771   6.885
 3762SOL    HW211823   2.758   0.749   6.833
 3763SOL     OW11824   1.894   0.545   6.705
 3763SOL    HW111825   1.971   0.527   6.651
 3763SOL    HW211826   1.929   0.547   6.794
 3764SOL     OW11827   2.047   0.522   7.309
 3764SOL    HW111828   2.124   0.503   7.256
 3764SOL    HW211829   2.006   0.598   7.267
 3765SOL     OW11830   3.241   0.936   7.244
 3765SOL    HW111831   3.262   1.030   7.240
 3765SOL    HW211832   3.237   0.910   7.152
 3766SOL     OW11833   2.672   0.578   5.945
 3766SOL    HW111834   2.678   0.506   5.882
 3766SOL    HW211835   2.599   0.631   5.915
 3767SOL     OW11836   3.501   0.602   6.769
 3767SOL    HW111837   3.491   0.543   6.844
 3767SOL    HW211838   3.588   0.584   6.735
 3768SOL     OW11839   2.106   1.549   7.313
 3768SOL    HW111840   2.079   1.612   7.380
 3768SOL    HW211841   2.108   1.465   7.360
 3769SOL     OW11842   2.569   0.457   6.847
 3769SOL    HW111843   2.519   0.381   6.818
 3769SOL    HW211844   2.566   0.519   6.774
 3770SOL     OW11845   2.785   1.679   7.058
 3770SOL    HW111846   2.759   1.640   6.974
 3770SOL    HW211847   2.782   1.774   7.042
 3771SOL     OW11848   2.324   0.492   5.769
 3771SOL    HW111849   2.383   0.564   5.791
 3771SOL    HW211850   2.239   0.534   5.756
 3772SOL     OW11851   2.005   1.141   7.060
 3772SOL    HW111852   2.007   1.092   7.141
 3772SOL    HW211853   2.023   1.076   6.992
 3773SOL     OW11854   3.185   1.046   6.807
 3773SOL    HW111855   3.207   0.982   6.739
 3773SOL    HW211856   3.117   1.100   6.768
 3774SOL     OW11857   3.176   0.857   5.891
 3774SOL    HW111858   3.102   0.826   5.943
 3774SOL    HW211859   3.148   0.843   5.800
 3775SOL     OW11860   3.639   1.740   6.741
 3775SOL    HW111861   3.698   1.767   6.670
 3775SOL    HW211862   3.612   1.651   6.717
 3776SOL     OW11863   3.102   1.733   6.695
 3776SOL    HW111864   3.185   1.756   6.652
 3776SOL    HW211865   3.110   1.640   6.713
 3777SOL     OW11866   1.941   1.268   6.594
 3777SOL    HW111867   1.929   1.280   6.688
 3777SOL    HW211868   1.870   1.209   6.568
 3778SOL     OW11869   2.541   1.668   7.320
 3778SOL    HW111870   2.485   1.744   7.309
 3778SOL    HW211871   2.610   1.679   7.254
 3779SOL     OW11872   3.581   0.129   6.073
 3779SOL    HW111873   3.650   0.141   6.008
 3779SOL    HW211874   3.614   0.059   6.130
 3780SOL     OW11875   3.254   1.564   6.069
 3780SOL    HW111876   3.315   1.598   6.003
 3780SOL    HW211877   3.210   1.641   6.103
 3781SOL     OW11878   1.995   1.795   7.427
 3781SOL    HW111879   1.944   1.728   7.472
 3781SOL    HW211880   2.045   1.839   7.497
 3782SOL     OW11881   3.141   0.929   6.259
 3782SOL    HW111882   3.214   0.868   6.266
 3782SOL    HW211883   3.175   1.001   6.205
 3783SOL     OW11884   2.670   1.276   7.011
 3783SOL    HW111885   2.643   1.315   7.094
 3783SOL    HW211886   2.598   1.294   6.951
 3784SOL     OW11887   3.484   1.727   6.977
 3784SOL    HW111888   3.536   1.733   6.897
 3784SOL    HW211889   3.470   1.818   7.003
 3785SOL     OW11890   3.702   0.153   6.551
 3785SOL    HW111891   3.733   0.074   6.506
 3785SOL    HW211892   3.615   0.168   6.514
 3786SOL     OW11893   2.124   0.319   6.300
 3786SOL    HW111894   2.038   0.354   6.275
 3786SOL    HW211895   2.120   0.312   6.396
 3787SOL     OW11896   3.084   1.608   5.631
 3787SOL    HW111897   3.065   1.518   5.659
 3787SOL    HW211898   3.018   1.627   5.564
 3788SOL     OW11899   2.685   1.006   6.961
 3788SOL    HW111900   2.729   0.999   6.876
 3788SOL    HW211901   2.684   1.100   6.979
 3789SOL     OW11902   2.779   0.910   5.877
 3789SOL    HW111903   2.840   0.943   5.811
 3789SOL    HW211904   2.828   0.841   5.922
 3790SOL     OW11905   3.357   1.629   5.630
 3790SOL    HW111906   3.262   1.621   5.620
 3790SOL    HW211907   3.390   1.634   5.541
 3791SOL     OW11908   2.231   1.302   7.080
 3791SOL    HW111909   2.220   1.378   7.023
 3791SOL    HW211910   2.154   1.248   7.063
 3792SOL     OW11911   3.472   1.283   6.866
 3792SOL    HW111912   3.530   1.269   6.941
 3792SOL    HW211913   3.411   1.351   6.896
 3793SOL     OW11914   2.918   1.107   6.291
 3793SOL    HW111915   2.847   1.057   6.331
 3793SOL    HW211916   2.982   1.041   6.266
 3794SOL     OW11917   2.864   0.246   6.597
 3794SOL    HW111918   2.871   0.228   6.503
 3794SOL    HW211919   2.856   0.160   6.637
 3795SOL     OW11920   3.585   0.395   6.962
 3795SOL    HW111921   3.659   0.455   6.961
 3795SOL    HW211922   3.614   0.323   6.905
 3796SOL     OW11923   1.975   1.026   7.307
 3796SOL    HW111924   1.899   1.001   7.359
 3796SOL    HW211925   2.050   0.986   7.353
 3797SOL     OW11926   2.519   0.205   7.088
 3797SOL    HW111927   2.598   0.181   7.039
 3797SOL    HW211928   2.550   0.229   7.175
 3798SOL     OW11929   1.945   0.332   5.633
 3798SOL    HW111930   1.875   0.278   5.597
 3798SOL    HW211931   1.955   0.404   5.571
 3799SOL     OW11932   3.290   0.858   6.985
 3799SOL    HW111933   3.240   0.919   6.930
 3799SOL    HW211934   3.378   0.860   6.949
 3800SOL     OW11935   1.924   0.187   5.900
 3800SOL    HW111936   1.925   0.255   5.832
 3800SOL    HW211937   1.999   0.131   5.878
 3801SOL     OW11938   3.040   1.336   5.705
 3801SOL    HW111939   2.954   1.293   5.710
 3801SOL    HW211940   3.070   1.338   5.796
 3802SOL     OW11941   2.482   0.830   7.021
 3802SOL    HW111942   2.538   0.906   7.005
 3802SOL    HW211943   2.542   0.757   7.029
 3803SOL     OW11944   3.344   1.780   6.566
 3803SOL    HW111945   3.367   1.844   6.498
 3803SOL    HW211946   3.428   1.756   6.606
 3804SOL     OW11947   2.578   0.561   7.290
 3804SOL    HW111948   2.620   0.624   7.349
 3804SOL    HW211949   2.605   0.476   7.323
 3805SOL     OW11950   3.334   1.198   7.217
 3805SOL    HW111951   3.322   1.212   7.311
 3805SOL    HW211952   3.427   1.214   7.202
 3806SOL     OW11953   2.242   1.738   7.152
 3806SOL    HW111954   2.157   1.779   7.135
 3806SOL    HW211955   2.220   1.654   7.192
 3807SOL     OW11956   3.529   0.880   6.841
 3807SOL    HW111957   3.523   0.795   6.798
 3807SOL    HW211958   3.519   0.944   6.770
 3808SOL     OW11959   3.081   0.332   6.032
 3808SOL    HW111960   3.149   0.265   6.019
 3808SOL    HW211961   3.110   0.380   6.110
 3809SOL     OW11962   2.446   0.735   6.261
 3809SOL    HW111963   2.489   0.820   6.245
 3809SOL    HW211964   2.382   0.728   6.190
 3810SOL     OW11965   3.621   0.370   7.230
 3810SOL    HW111966   3.605   0.383   7.136
 3810SOL    HW211967   3.544   0.321   7.260
 3811SOL     OW11968   3.610   0.933   7.097
 3811SOL    HW111969   3.601   1.028   7.110
 3811SOL    HW211970   3.593   0.920   7.004
 3812SOL     OW11971   2.704   1.371   5.603
 3812SOL    HW111972   2.689   1.372   5.698
 3812SOL    HW211973   2.749   1.453   5.585
 3813SOL     OW11974   2.527   1.781   6.536
 3813SOL    HW111975   2.485   1.858   6.499
 3813SOL    HW211976   2.616   1.808   6.554
 3814SOL     OW11977   2.731   0.970   6.441
 3814SOL    HW111978   2.781   0.898   6.479
 3814SOL    HW211979   2.695   1.017   6.516
 3815SOL     OW11980   2.942   0.992   5.676
 3815SOL    HW111981   2.918   1.039   5.596
 3815SOL    HW211982   3.015   0.935   5.649
 3816SOL     OW11983   3.714   1.555   6.430
 3816SOL    HW111984   3.636   1.542   6.377
 3816SOL    HW211985   3.708   1.487   6.497
 3817SOL     OW11986   2.087   1.301   7.441
 3817SOL    HW111987   2.022   1.238   7.408
 3817SOL    HW211988   2.063   1.313   7.533
 3818SOL     OW11989   1.942   1.229   6.249
 3818SOL    HW111990   1.958   1.186   6.333
 3818SOL    HW211991   2.015   1.200   6.193
 3819SOL     OW11992   2.545   1.405   7.216
 3819SOL    HW111993   2.465   1.361   7.246
 3819SOL    HW211994   2.540   1.492   7.254
 3820SOL     OW11995   3.666   0.178   6.824
 3820SOL    HW111996   3.664   0.084   6.843
 3820SOL    HW211997   3.684   0.183   6.730
 3821SOL     OW11998   2.300   0.433   6.118
 3821SOL    HW111999   2.320   0.365   6.054
 3821SOL    HW212000   2.243   0.390   6.182
 3822SOL     OW12001   3.560   1.488   6.681
 3822SOL    HW112002   3.481   1.467   6.632
 3822SOL    HW212003   3.569   1.418   6.745
 3823SOL     OW12004   2.195   0.560   6.879
 3823SOL    HW112005   2.249   0.502   6.932
 3823SOL    HW212006   2.213   0.533   6.789
 3824SOL     OW12007   3.293   0.217   6.702
 3824SOL    HW112008   3.328   0.145   6.755
 3824SOL    HW212009   3.242   0.269   6.764
 3825SOL     OW12010   2.857   0.003   6.739
 3825SOL    HW112011   2.818   4.415   6.734
 3825SOL    HW212012   2.951   4.487   6.748
 3826SOL     OW12013   2.654   1.289   5.866
 3826SOL    HW112014   2.615   1.206   5.894
 3826SOL    HW212015   2.717   1.310   5.935
 3827SOL     OW12016   2.485   1.553   6.875
 3827SOL    HW112017   2.485   1.636   6.923
 3827SOL    HW212018   2.570   1.551   6.830
 3828SOL     OW12019   3.201   0.052   5.744
 3828SOL    HW112020   3.239   4.476   5.699
 3828SOL    HW212021   3.124   0.017   5.789
 3829SOL     OW12022   3.177   0.465   6.259
 3829SOL    HW112023   3.120   0.541   6.260
 3829SOL    HW212024   3.166   0.425   6.345
 3830SOL     OW12025   3.447   0.198   6.455
 3830SOL    HW112026   3.389   0.214   6.529
 3830SOL    HW212027   3.450   0.281   6.408
 3831SOL     OW12028   1.903   1.065   5.898
 3831SOL    HW112029   1.995   1.058   5.873
 3831SOL    HW212030   1.876   0.976   5.921
 3832SOL     OW12031   2.089   0.625   7.571
 3832SOL    HW112032   2.002   0.618   7.611
 3832SOL    HW212033   2.075   0.597   7.480
 3833SOL     OW12034   2.068   0.302   8.438
 3833SOL    HW112035   2.099   0.270   8.523
 3833SOL    HW212036   1.986   0.253   8.424
 3834SOL     OW12037   1.868   0.390   8.084
 3834SOL    HW112038   1.782   0.407   8.122
 3834SOL    HW212039   1.854   0.317   8.023
 3835SOL     OW12040   2.430   1.292   8.626
 3835SOL    HW112041   2.342   1.294   8.589
 3835SOL    HW212042   2.445   1.381   8.659
 3836SOL     OW12043   3.427   1.513   8.156
 3836SOL    HW112044   3.385   1.490   8.239
 3836SOL    HW212045   3.356   1.516   8.092
 3837SOL     OW12046   3.000   0.697   8.143
 3837SOL    HW112047   3.044   0.782   8.134
 3837SOL    HW212048   2.948   0.705   8.223
 3838SOL     OW12049   3.634   0.604   7.674
 3838SOL    HW112050   3.610   0.596   7.582
 3838SOL    HW212051   3.598   0.525   7.715
 3839SOL     OW12052   2.614   1.141   8.492
 3839SOL    HW112053   2.546   1.177   8.549
 3839SOL    HW212054   2.651   1.217   8.448
 3840SOL     OW12055   2.732   0.769   9.271
 3840SOL    HW112056   2.718   0.840   9.334
 3840SOL    HW212057   2.755   0.814   9.190
 3841SOL     OW12058   2.548   1.000   8.093
 3841SOL    HW112059   2.613   0.989   8.162
 3841SOL    HW212060   2.479   1.052   8.133
 3842SOL     OW12061   2.574   1.150   9.263
 3842SOL    HW112062   2.622   1.228   9.291
 3842SOL    HW212063   2.492   1.184   9.226
 3843SOL     OW12064   2.192   1.420   8.517
 3843SOL    HW112065   2.118   1.382   8.471
 3843SOL    HW212066   2.239   1.469   8.449
 3844SOL     OW12067   3.322   1.501   8.806
 3844SOL    HW112068   3.375   1.580   8.815
 3844SOL    HW212069   3.256   1.508   8.874
 3845SOL     OW12070   2.306   0.394   8.933
 3845SOL    HW112071   2.388   0.344   8.936
 3845SOL    HW212072   2.238   0.328   8.948
 3846SOL     OW12073   3.470   0.443   8.187
 3846SOL    HW112074   3.390   0.462   8.138
 3846SOL    HW212075   3.485   0.521   8.241
 3847SOL     OW12076   2.081   1.719   7.922
 3847SOL    HW112077   2.103   1.796   7.975
 3847SOL    HW212078   2.157   1.707   7.865
 3848SOL     OW12079   2.999   1.342   9.142
 3848SOL    HW112080   3.040   1.336   9.228
 3848SOL    HW212081   2.947   1.262   9.134
 3849SOL     OW12082   2.094   1.444   7.985
 3849SOL    HW112083   2.071   1.537   7.990
 3849SOL    HW212084   2.035   1.402   8.048
 3850SOL     OW12085   2.125   1.090   8.340
 3850SOL    HW112086   2.120   1.003   8.379
 3850SOL    HW212087   2.066   1.144   8.393
 3851SOL     OW12088   2.475   1.784   8.879
 3851SOL    HW112089   2.392   1.769   8.923
 3851SOL    HW212090   2.496   1.876   8.896
 3852SOL     OW12091   2.444   0.984   7.585
 3852SOL    HW112092   2.492   1.030   7.516
 3852SOL    HW212093   2.484   1.015   7.666
 3853SOL     OW12094   3.440   0.117   8.916
 3853SOL    HW112095   3.473   0.184   8.856
 3853SOL    HW212096   3.430   0.162   8.999
 3854SOL     OW12097   1.980   0.655   8.008
 3854SOL    HW112098   1.949   0.567   8.030
 3854SOL    HW212099   1.971   0.704   8.090
 3855SOL     OW12100   3.705   1.757   7.781
 3855SOL    HW112101   3.771   1.730   7.844
 3855SOL    HW212102   3.726   1.848   7.762
 3856SOL     OW12103   1.898   1.592   7.570
 3856SOL    HW112104   1.878   1.500   7.590
 3856SOL    HW212105   1.872   1.640   7.649
 3857SOL     OW12106   3.553   0.921   8.092
 3857SOL    HW112107   3.635   0.876   8.070
 3857SOL    HW212108   3.530   0.970   8.014
 3858SOL     OW12109   3.510   1.105   7.876
 3858SOL    HW112110   3.596   1.109   7.835
 3858SOL    HW212111   3.515   1.167   7.949
 3859SOL     OW12112   1.984   0.746   9.031
 3859SOL    HW112113   2.075   0.776   9.036
 3859SOL    HW212114   1.933   0.827   9.037
 3860SOL     OW12115   2.478   1.387   8.182
 3860SOL    HW112116   2.433   1.303   8.191
 3860SOL    HW212117   2.461   1.413   8.092
 3861SOL     OW12118   3.149   1.238   8.870
 3861SOL    HW112119   3.180   1.170   8.810
 3861SOL    HW212120   3.208   1.232   8.945
 3862SOL     OW12121   2.681   0.018   8.003
 3862SOL    HW112122   2.719   0.102   7.975
 3862SOL    HW212123   2.587   0.030   7.995
 3863SOL     OW12124   2.051   0.963   8.724
 3863SOL    HW112125   2.136   0.923   8.708
 3863SOL    HW212126   1.990   0.914   8.669
 3864SOL     OW12127   3.394   0.995   7.647
 3864SOL    HW112128   3.323   0.939   7.680
 3864SOL    HW212129   3.435   1.030   7.726
 3865SOL     OW12130   3.047   1.809   9.072
 3865SOL    HW112131   3.056   1.868   8.997
 3865SOL    HW212132   3.064   1.722   9.036
 3866SOL     OW12133   2.178   0.252   9.227
 3866SOL    HW112134   2.241   0.316   9.260
 3866SOL    HW212135   2.104   0.258   9.288
 3867SOL     OW12136   3.329   1.419   8.397
 3867SOL    HW112137   3.261   1.435   8.463
 3867SOL    HW212138   3.316   1.328   8.371
 3868SOL     OW12139   3.517   1.746   8.026
 3868SOL    HW112140   3.499   1.714   7.937
 3868SOL    HW212141   3.496   1.672   8.083
 3869SOL     OW12142   2.453   0.722   7.715
 3869SOL    HW112143   2.456   0.805   7.667
 3869SOL    HW212144   2.388   0.736   7.783
 3870SOL     OW12145   3.155   0.370   8.380
 3870SOL    HW112146   3.065   0.340   8.363
 3870SOL    HW212147   3.190   0.306   8.441
 3871SOL     OW12148   3.441   1.672   7.758
 3871SOL    HW112149   3.532   1.700   7.750
 3871SOL    HW212150   3.414   1.655   7.668
 3872SOL     OW12151   2.657   0.621   8.901
 3872SOL    HW112152   2.629   0.594   8.989
 3872SOL    HW212153   2.621   0.554   8.843
 3873SOL     OW12154   3.250   0.481   9.124
 3873SOL    HW112155   3.254   0.525   9.209
 3873SOL    HW212156   3.316   0.412   9.129
 3874SOL     OW12157   2.815   0.887   9.033
 3874SOL    HW112158   2.869   0.817   8.996
 3874SOL    HW212159   2.766   0.921   8.958
 3875SOL     OW12160   2.860   0.417   8.681
 3875SOL    HW112161   2.770   0.424   8.713
 3875SOL    HW212162   2.853   0.364   8.602
 3876SOL     OW12163   2.913   0.698   7.874
 3876SOL    HW112164   2.931   0.689   7.967
 3876SOL    HW212165   2.829   0.653   7.861
 3877SOL     OW12166   1.951   0.821   8.225
 3877SOL    HW112167   2.031   0.815   8.276
 3877SOL    HW212168   1.906   0.899   8.259
 3878SOL     OW12169   1.991   1.829   9.022
 3878SOL    HW112170   1.980   1.815   9.116
 3878SOL    HW212171   1.916   1.882   8.997
 3879SOL     OW12172   2.719   0.371   7.636
 3879SOL    HW112173   2.786   0.403   7.577
 3879SOL    HW212174   2.730   0.276   7.636
 3880SOL     OW12175   3.565   0.571   9.277
 3880SOL    HW112176   3.529   0.646   9.227
 3880SOL    HW212177   3.600   0.513   9.210
 3881SOL     OW12178   3.241   1.143   7.988
 3881SOL    HW112179   3.320   1.130   7.935
 3881SOL    HW212180   3.188   1.204   7.938
 3882SOL     OW12181   2.398   0.206   8.350
 3882SOL    HW112182   2.420   0.225   8.441
 3882SOL    HW212183   2.392   0.293   8.309
 3883SOL     OW12184   2.866   1.443   7.918
 3883SOL    HW112185   2.831   1.518   7.869
 3883SOL    HW212186   2.846   1.463   8.010
 3884SOL     OW12187   2.217   1.800   8.310
 3884SOL    HW112188   2.242   1.707   8.312
 3884SOL    HW212189   2.296   1.847   8.336
 3885SOL     OW12190   3.661   1.058   8.318
 3885SOL    HW112191   3.609   1.035   8.241
 3885SOL    HW212192   3.598   1.063   8.390
 3886SOL     OW12193   3.090   1.539   8.961
 3886SOL    HW112194   3.077   1.467   9.022
 3886SOL    HW212195   3.024   1.525   8.893
 3887SOL     OW12196   2.179   0.958   7.700
 3887SOL    HW112197   2.261   0.977   7.654
 3887SOL    HW212198   2.149   0.876   7.662
 3888SOL     OW12199   3.343   0.746   8.171
 3888SOL    HW112200   3.334   0.703   8.256
 3888SOL    HW212201   3.421   0.801   8.180
 3889SOL     OW12202   2.330   1.266   9.186
 3889SOL    HW112203   2.303   1.270   9.094
 3889SOL    HW212204   2.248   1.263   9.235
 3890SOL     OW12205   2.985   1.778   7.678
 3890SOL    HW112206   2.910   1.737   7.722
 3890SOL    HW212207   3.009   1.715   7.609
 3891SOL     OW12208   2.049   0.268   8.963
 3891SOL    HW112209   1.983   0.337   8.952
 3891SOL    HW212210   2.069   0.270   9.057
 3892SOL     OW12211   3.491   1.381   7.537
 3892SOL    HW112212   3.449   1.466   7.522
 3892SOL    HW212213   3.422   1.317   7.517
 3893SOL     OW12214   2.329   1.732   7.772
 3893SOL    HW112215   2.373   1.793   7.831
 3893SOL    HW212216   2.398   1.698   7.715
 3894SOL     OW12217   3.288   0.145   7.867
 3894SOL    HW112218   3.271   0.088   7.791
 3894SOL    HW212219   3.381   0.133   7.885
 3895SOL     OW12220   2.105   1.783   8.682
 3895SOL    HW112221   2.164   1.721   8.724
 3895SOL    HW212222   2.105   1.758   8.589
 3896SOL     OW12223   2.794   1.697   8.347
 3896SOL    HW112224   2.874   1.649   8.370
 3896SOL    HW212225   2.757   1.647   8.274
 3897SOL     OW12226   2.257   0.693   7.922
 3897SOL    HW112227   2.278   0.601   7.937
 3897SOL    HW212228   2.163   0.700   7.940
 3898SOL     OW12229   3.386   0.233   9.171
 3898SOL    HW112230   3.386   0.255   9.264
 3898SOL    HW212231   3.306   0.182   9.158
 3899SOL     OW12232   2.494   0.122   7.572
 3899SOL    HW112233   2.582   0.085   7.582
 3899SOL    HW212234   2.460   0.082   7.492
 3900SOL     OW12235   2.630   0.271   9.204
 3900SOL    HW112236   2.698   0.204   9.205
 3900SOL    HW212237   2.590   0.267   9.290
 3901SOL     OW12238   2.739   1.524   8.641
 3901SOL    HW112239   2.722   1.484   8.555
 3901SOL    HW212240   2.808   1.469   8.679
 3902SOL     OW12241   3.202   0.590   8.876
 3902SOL    HW112242   3.230   0.561   8.963
 3902SOL    HW212243   3.236   0.678   8.868
 3903SOL     OW12244   2.678   1.394   8.390
 3903SOL    HW112245   2.763   1.381   8.348
 3903SOL    HW212246   2.615   1.394   8.319
 3904SOL     OW12247   2.787   0.523   8.345
 3904SOL    HW112248   2.770   0.520   8.251
 3904SOL    HW212249   2.820   0.435   8.366
 3905SOL     OW12250   2.418   0.081   7.972
 3905SOL    HW112251   2.331   0.048   7.995
 3905SOL    HW212252   2.402   0.142   7.899
 3906SOL     OW12253   3.290   1.199   7.489
 3906SOL    HW112254   3.320   1.123   7.539
 3906SOL    HW212255   3.205   1.220   7.526
 3907SOL     OW12256   2.156   0.065   7.652
 3907SOL    HW112257   2.233   0.119   7.636
 3907SOL    HW212258   2.185   0.000   7.717
 3908SOL     OW12259   2.818   0.240   7.912
 3908SOL    HW112260   2.766   0.302   7.862
 3908SOL    HW212261   2.908   0.274   7.907
 3909SOL     OW12262   2.942   0.683   8.907
 3909SOL    HW112263   2.872   0.617   8.906
 3909SOL    HW212264   3.022   0.632   8.896
 3910SOL     OW12265   3.083   1.572   8.242
 3910SOL    HW112266   3.100   1.637   8.175
 3910SOL    HW212267   3.152   1.585   8.307
 3911SOL     OW12268   2.333   1.152   8.178
 3911SOL    HW112269   2.265   1.131   8.243
 3911SOL    HW212270   2.291   1.136   8.094
 3912SOL     OW12271   3.130   1.793   8.058
 3912SOL    HW112272   3.177   1.854   8.001
 3912SOL    HW212273   3.063   1.847   8.101
 3913SOL     OW12274   2.889   0.544   7.468
 3913SOL    HW112275   2.842   0.625   7.452
 3913SOL    HW212276   2.948   0.564   7.541
 3914SOL     OW12277   1.947   0.549   8.844
 3914SOL    HW112278   2.038   0.553   8.814
 3914SOL    HW212279   1.939   0.621   8.907
 3915SOL     OW12280   2.423   0.247   8.617
 3915SOL    HW112281   2.448   0.165   8.660
 3915SOL    HW212282   2.331   0.258   8.640
 3916SOL     OW12283   2.726   0.505   8.076
 3916SOL    HW112284   2.688   0.541   7.996
 3916SOL    HW212285   2.680   0.422   8.090
 3917SOL     OW12286   2.816   0.017   8.242
 3917SOL    HW112287   2.771   0.018   8.157
 3917SOL    HW212288   2.832   4.424   8.258
 3918SOL     OW12289   3.299   1.162   8.304
 3918SOL    HW112290   3.230   1.096   8.305
 3918SOL    HW212291   3.323   1.170   8.212
 3919SOL     OW12292   3.326   0.607   8.418
 3919SOL    HW112293   3.271   0.529   8.419
 3919SOL    HW212294   3.383   0.598   8.495
 3920SOL     OW12295   3.705   0.814   7.832
 3920SOL    HW112296   3.762   0.764   7.890
 3920SOL    HW212297   3.679   0.752   7.765
 3921SOL     OW12298   2.351   1.421   7.602
 3921SOL    HW112299   2.276   1.392   7.654
 3921SOL    HW212300   2.342   1.374   7.519
 3922SOL     OW12301   3.535   1.265   8.090
 3922SOL    HW112302   3.630   1.265   8.106
 3922SOL    HW212303   3.507   1.353   8.113
 3923SOL     OW12304   3.257   0.572   7.518
 3923SOL    HW112305   3.194   0.556   7.588
 3923SOL    HW212306   3.342   0.555   7.557
 3924SOL     OW12307   2.380   0.265   7.769
 3924SOL    HW112308   2.431   0.216   7.705
 3924SOL    HW212309   2.361   0.348   7.726
 3925SOL     OW12310   3.613   1.241   9.017
 3925SOL    HW112311   3.700   1.201   9.013
 3925SOL    HW212312   3.628   1.331   9.046
 3926SOL     OW12313   2.918   1.355   8.782
 3926SOL    HW112314   2.843   1.323   8.832
 3926SOL    HW212315   2.994   1.313   8.822
 3927SOL     OW12316   3.471   1.627   9.104
 3927SOL    HW112317   3.464   1.660   9.015
 3927SOL    HW212318   3.553   1.578   9.105
 3928SOL     OW12319   2.995   1.208   8.552
 3928SOL    HW112320   2.933   1.243   8.616
 3928SOL    HW212321   2.962   1.239   8.468
 3929SOL     OW12322   3.487   1.097   8.525
 3929SOL    HW112323   3.482   1.159   8.597
 3929SOL    HW212324   3.409   1.114   8.473
 3930SOL     OW12325   2.761   0.136   8.833
 3930SOL    HW112326   2.784   0.090   8.752
 3930SOL    HW212327   2.845   0.154   8.875
 3931SOL     OW12328   2.846   1.115   9.171
 3931SOL    HW112329   2.755   1.131   9.194
 3931SOL    HW212330   2.844   1.037   9.116
 3932SOL     OW12331   2.572   1.063   7.819
 3932SOL    HW112332   2.557   1.044   7.911
 3932SOL    HW212333   2.647   1.009   7.795
 3933SOL     OW12334   2.283   0.818   8.699
 3933SOL    HW112335   2.351   0.827   8.766
 3933SOL    HW212336   2.248   0.730   8.712
 3934SOL     OW12337   3.130   0.374   8.723
 3934SOL    HW112338   3.162   0.453   8.766
 3934SOL    HW212339   3.040   0.396   8.697
 3935SOL     OW12340   1.931   1.570   8.800
 3935SOL    HW112341   1.901   1.650   8.756
 3935SOL    HW212342   2.026   1.577   8.800
 3936SOL     OW12343   2.207   1.113   7.937
 3936SOL    HW112344   2.209   1.186   7.875
 3936SOL    HW212345   2.204   1.034   7.883
 3937SOL     OW12346   2.416   0.526   8.305
 3937SOL    HW112347   2.428   0.585   8.232
 3937SOL    HW212348   2.481   0.553   8.369
 3938SOL     OW12349   3.110   1.349   7.837
 3938SOL    HW112350   3.166   1.420   7.868
 3938SOL    HW212351   3.023   1.370   7.871
 3939SOL     OW12352   3.147   1.459   8.595
 3939SOL    HW112353   3.202   1.462   8.673
 3939SOL    HW212354   3.092   1.382   8.607
 3940SOL     OW12355   3.441   0.623   7.927
 3940SOL    HW112356   3.393   0.669   7.996
 3940SOL    HW212357   3.485   0.692   7.878
 3941SOL     OW12358   2.210   1.525   8.763
 3941SOL    HW112359   2.196   1.482   8.679
 3941SOL    HW212360   2.305   1.537   8.768
 3942SOL     OW12361   2.279   0.742   9.052
 3942SOL    HW112362   2.338   0.789   8.993
 3942SOL    HW212363   2.324   0.659   9.070
 3943SOL     OW12364   3.467   0.779   9.131
 3943SOL    HW112365   3.381   0.821   9.125
 3943SOL    HW212366   3.519   0.821   9.063
 3944SOL     OW12367   2.862   0.087   9.163
 3944SOL    HW112368   2.901   0.166   9.126
 3944SOL    HW212369   2.885   0.017   9.102
 3945SOL     OW12370   2.362   0.042   9.211
 3945SOL    HW112371   2.369   0.010   9.121
 3945SOL    HW212372   2.295   0.111   9.206
 3946SOL     OW12373   2.445   0.874   8.479
 3946SOL    HW112374   2.477   0.965   8.481
 3946SOL    HW212375   2.389   0.867   8.556
 3947SOL     OW12376   3.215   0.858   8.473
 3947SOL    HW112377   3.130   0.845   8.432
 3947SOL    HW212378   3.259   0.774   8.465
 3948SOL     OW12379   3.062   0.536   7.707
 3948SOL    HW112380   3.069   0.456   7.759
 3948SOL    HW212381   3.019   0.599   7.765
 3949SOL     OW12382   2.152   0.232   8.691
 3949SOL    HW112383   2.105   0.248   8.772
 3949SOL    HW212384   2.191   0.145   8.702
 3950SOL     OW12385   1.908   1.310   8.723
 3950SOL    HW112386   1.941   1.257   8.795
 3950SOL    HW212387   1.914   1.400   8.755
 3951SOL     OW12388   2.583   0.630   8.502
 3951SOL    HW112389   2.659   0.613   8.446
 3951SOL    HW212390   2.556   0.719   8.480
 3952SOL     OW12391   3.598   0.960   9.302
 3952SOL    HW112392   3.553   0.895   9.248
 3952SOL    HW212393   3.538   0.975   9.376
 3953SOL     OW12394   2.156   0.049   8.100
 3953SOL    HW112395   2.146   0.144   8.100
 3953SOL    HW212396   2.168   0.026   8.193
 3954SOL     OW12397   3.482   0.383   7.805
 3954SOL    HW112398   3.507   0.317   7.870
 3954SOL    HW212399   3.457   0.459   7.857
 3955SOL     OW12400   2.893   0.764   8.409
 3955SOL    HW112401   2.886   0.779   8.503
 3955SOL    HW212402   2.863   0.674   8.396
 3956SOL     OW12403   2.845   1.567   9.168
 3956SOL    HW112404   2.829   1.610   9.084
 3956SOL    HW212405   2.888   1.484   9.144
 3957SOL     OW12406   3.715   1.503   9.053
 3957SOL    HW112407   3.735   1.530   8.963
 3957SOL    HW212408   3.796   1.520   9.101
 3958SOL     OW12409   2.216   0.917   9.257
 3958SOL    HW112410   2.297   0.935   9.304
 3958SOL    HW212411   2.241   0.853   9.190
 3959SOL     OW12412   3.390   0.262   7.576
 3959SOL    HW112413   3.321   0.206   7.608
 3959SOL    HW212414   3.421   0.309   7.654
 3960SOL     OW12415   3.151   0.826   7.477
 3960SOL    HW112416   3.193   0.740   7.480
 3960SOL    HW212417   3.183   0.865   7.396
 3961SOL     OW12418   2.927   1.337   8.302
 3961SOL    HW112419   2.932   1.264   8.240
 3961SOL    HW212420   2.988   1.402   8.268
 3962SOL     OW12421   2.170   0.810   8.394
 3962SOL    HW112422   2.263   0.832   8.388
 3962SOL    HW212423   2.169   0.720   8.427
 3963SOL     OW12424   2.197   0.534   8.462
 3963SOL    HW112425   2.154   0.451   8.444
 3963SOL    HW212426   2.274   0.535   8.404
 3964SOL     OW12427   2.999   0.371   9.148
 3964SOL    HW112428   2.947   0.434   9.198
 3964SOL    HW212429   3.083   0.415   9.134
 3965SOL     OW12430   3.016   0.214   8.922
 3965SOL    HW112431   3.011   0.278   8.993
 3965SOL    HW212432   3.059   0.261   8.850
 3966SOL     OW12433   1.869   1.319   7.642
 3966SOL    HW112434   1.782   1.334   7.605
 3966SOL    HW212435   1.865   1.229   7.677
 3967SOL     OW12436   1.950   1.788   8.384
 3967SOL    HW112437   1.918   1.709   8.341
 3967SOL    HW212438   2.040   1.797   8.355
 3968SOL     OW12439   2.356   1.569   8.350
 3968SOL    HW112440   2.425   1.632   8.372
 3968SOL    HW212441   2.400   1.505   8.294
 3969SOL     OW12442   2.840   0.792   8.674
 3969SOL    HW112443   2.898   0.771   8.747
 3969SOL    HW212444   2.758   0.749   8.695
 3970SOL     OW12445   1.894   0.545   8.567
 3970SOL    HW112446   1.971   0.526   8.513
 3970SOL    HW212447   1.929   0.547   8.656
 3971SOL     OW12448   2.047   0.522   9.171
 3971SOL    HW112449   2.124   0.503   9.118
 3971SOL    HW212450   2.006   0.598   9.129
 3972SOL     OW12451   3.241   0.936   9.106
 3972SOL    HW112452   3.262   1.030   9.103
 3972SOL    HW212453   3.237   0.910   9.014
 3973SOL     OW12454   2.672   0.578   7.807
 3973SOL    HW112455   2.678   0.506   7.744
 3973SOL    HW212456   2.599   0.631   7.777
 3974SOL     OW12457   3.501   0.602   8.631
 3974SOL    HW112458   3.491   0.543   8.706
 3974SOL    HW212459   3.588   0.584   8.598
 3975SOL     OW12460   2.107   1.549   9.178
 3975SOL    HW112461   2.080   1.612   9.245
 3975SOL    HW212462   2.108   1.464   9.224
 3976SOL     OW12463   2.569   0.457   8.709
 3976SOL    HW112464   2.519   0.381   8.680
 3976SOL    HW212465   2.566   0.518   8.636
 3977SOL     OW12466   2.789   1.677   8.917
 3977SOL    HW112467   2.762   1.641   8.833
 3977SOL    HW212468   2.785   1.772   8.905
 3978SOL     OW12469   2.324   0.492   7.631
 3978SOL    HW112470   2.383   0.563   7.653
 3978SOL    HW212471   2.239   0.534   7.618
 3979SOL     OW12472   2.006   1.142   8.922
 3979SOL    HW112473   2.007   1.092   9.004
 3979SOL    HW212474   2.023   1.076   8.854
 3980SOL     OW12475   3.186   1.045   8.669
 3980SOL    HW112476   3.207   0.981   8.601
 3980SOL    HW212477   3.118   1.100   8.630
 3981SOL     OW12478   3.176   0.857   7.753
 3981SOL    HW112479   3.102   0.827   7.806
 3981SOL    HW212480   3.148   0.844   7.662
 3982SOL     OW12481   3.639   1.740   8.602
 3982SOL    HW112482   3.698   1.767   8.531
 3982SOL    HW212483   3.612   1.651   8.578
 3983SOL     OW12484   3.103   1.733   8.558
 3983SOL    HW112485   3.185   1.755   8.514
 3983SOL    HW212486   3.110   1.640   8.577
 3984SOL     OW12487   1.950   1.265   8.460
 3984SOL    HW112488   1.933   1.280   8.553
 3984SOL    HW212489   1.875   1.214   8.430
 3985SOL     OW12490   2.542   1.666   9.182
 3985SOL    HW112491   2.486   1.744   9.177
 3985SOL    HW212492   2.606   1.679   9.112
 3986SOL     OW12493   3.581   0.129   7.935
 3986SOL    HW112494   3.650   0.141   7.870
 3986SOL    HW212495   3.614   0.059   7.992
 3987SOL     OW12496   3.253   1.567   7.935
 3987SOL    HW112497   3.313   1.601   7.868
 3987SOL    HW212498   3.204   1.644   7.964
 3988SOL     OW12499   1.999   1.802   9.294
 3988SOL    HW112500   1.949   1.734   9.339
 3988SOL    HW212501   2.047   1.846   9.364
 3989SOL     OW12502   3.141   0.929   8.121
 3989SOL    HW112503   3.214   0.868   8.128
 3989SOL    HW212504   3.175   1.001   8.067
 3990SOL     OW12505   2.672   1.275   8.875
 3990SOL    HW112506   2.644   1.315   8.957
 3990SOL    HW212507   2.600   1.294   8.814
 3991SOL     OW12508   2.531   1.623   7.604
 3991SOL    HW112509   2.544   1.636   7.510
 3991SOL    HW212510   2.476   1.545   7.610
 3992SOL     OW12511   3.485   1.727   8.839
 3992SOL    HW112512   3.536   1.733   8.759
 3992SOL    HW212513   3.471   1.818   8.866
 3993SOL     OW12514   3.701   0.153   8.413
 3993SOL    HW112515   3.733   0.074   8.368
 3993SOL    HW212516   3.615   0.169   8.376
 3994SOL     OW12517   2.123   0.319   8.163
 3994SOL    HW112518   2.038   0.354   8.137
 3994SOL    HW212519   2.119   0.313   8.258
 3995SOL     OW12520   3.070   1.604   7.480
 3995SOL    HW112521   3.060   1.512   7.507
 3995SOL    HW212522   3.004   1.616   7.412
 3996SOL     OW12523   2.685   1.006   8.822
 3996SOL    HW112524   2.729   0.999   8.738
 3996SOL    HW212525   2.684   1.100   8.841
 3997SOL     OW12526   2.778   0.911   7.738
 3997SOL    HW112527   2.840   0.943   7.672
 3997SOL    HW212528   2.826   0.842   7.784
 3998SOL     OW12529   3.352   1.627   7.491
 3998SOL    HW112530   3.258   1.618   7.477
 3998SOL    HW212531   3.390   1.633   7.404
 3999SOL     OW12532   2.231   1.302   8.940
 3999SOL    HW112533   2.218   1.380   8.885
 3999SOL    HW212534   2.154   1.248   8.925
 4000SOL     OW12535   3.472   1.284   8.728
 4000SOL    HW112536   3.530   1.269   8.803
 4000SOL    HW212537   3.411   1.351   8.758
 4001SOL     OW12538   2.918   1.109   8.156
 4001SOL    HW112539   2.846   1.058   8.194
 4001SOL    HW212540   2.982   1.043   8.128
 4002SOL     OW12541   2.865   0.246   8.459
 4002SOL    HW112542   2.871   0.228   8.365
 4002SOL    HW212543   2.856   0.160   8.499
 4003SOL     OW12544   2.468   1.490   7.928
 4003SOL    HW112545   2.514   1.438   7.862
 4003SOL    HW212546   2.392   1.526   7.881
 4004SOL     OW12547   3.585   0.395   8.824
 4004SOL    HW112548   3.659   0.456   8.823
 4004SOL    HW212549   3.614   0.323   8.767
 4005SOL     OW12550   2.123   1.344   7.740
 4005SOL    HW112551   2.030   1.341   7.716
 4005SOL    HW212552   2.123   1.382   7.828
 4006SOL     OW12553   1.975   1.025   9.169
 4006SOL    HW112554   1.899   1.001   9.221
 4006SOL    HW212555   2.050   0.986   9.215
 4007SOL     OW12556   2.519   0.205   8.950
 4007SOL    HW112557   2.598   0.181   8.901
 4007SOL    HW212558   2.550   0.229   9.037
 4008SOL     OW12559   1.945   0.332   7.496
 4008SOL    HW112560   1.875   0.278   7.460
 4008SOL    HW212561   1.954   0.404   7.433
 4009SOL     OW12562   3.290   0.858   8.847
 4009SOL    HW112563   3.240   0.919   8.792
 4009SOL    HW212564   3.378   0.860   8.811
 4010SOL     OW12565   1.924   0.187   7.762
 4010SOL    HW112566   1.925   0.255   7.694
 4010SOL    HW212567   1.999   0.131   7.741
 4011SOL     OW12568   3.040   1.338   7.565
 4011SOL    HW112569   2.950   1.305   7.567
 4011SOL    HW212570   3.068   1.338   7.657
 4012SOL     OW12571   2.482   0.830   8.883
 4012SOL    HW112572   2.538   0.906   8.867
 4012SOL    HW212573   2.542   0.757   8.891
 4013SOL     OW12574   3.345   1.780   8.429
 4013SOL    HW112575   3.368   1.842   8.360
 4013SOL    HW212576   3.428   1.756   8.469
 4014SOL     OW12577   2.578   0.561   9.152
 4014SOL    HW112578   2.620   0.624   9.211
 4014SOL    HW212579   2.605   0.476   9.185
 4015SOL     OW12580   3.335   1.198   9.079
 4015SOL    HW112581   3.322   1.212   9.173
 4015SOL    HW212582   3.428   1.214   9.064
 4016SOL     OW12583   2.242   1.733   9.013
 4016SOL    HW112584   2.156   1.771   8.995
 4016SOL    HW212585   2.223   1.649   9.056
 4017SOL     OW12586   3.529   0.880   8.703
 4017SOL    HW112587   3.523   0.795   8.660
 4017SOL    HW212588   3.519   0.944   8.632
 4018SOL     OW12589   3.081   0.332   7.894
 4018SOL    HW112590   3.149   0.265   7.881
 4018SOL    HW212591   3.110   0.380   7.972
 4019SOL     OW12592   2.446   0.736   8.122
 4019SOL    HW112593   2.489   0.820   8.106
 4019SOL    HW212594   2.382   0.728   8.052
 4020SOL     OW12595   3.621   0.370   9.092
 4020SOL    HW112596   3.606   0.383   8.998
 4020SOL    HW212597   3.544   0.321   9.122
 4021SOL     OW12598   3.610   0.933   8.959
 4021SOL    HW112599   3.601   1.028   8.972
 4021SOL    HW212600   3.593   0.920   8.866
 4022SOL     OW12601   2.725   1.366   7.486
 4022SOL    HW112602   2.687   1.393   7.570
 4022SOL    HW212603   2.742   1.448   7.440
 4023SOL     OW12604   2.523   1.797   8.383
 4023SOL    HW112605   2.532   1.885   8.422
 4023SOL    HW212606   2.613   1.764   8.377
 4024SOL     OW12607   2.730   0.969   8.302
 4024SOL    HW112608   2.781   0.897   8.340
 4024SOL    HW212609   2.693   1.015   8.378
 4025SOL     OW12610   2.941   0.990   7.537
 4025SOL    HW112611   2.919   1.040   7.459
 4025SOL    HW212612   3.015   0.935   7.510
 4026SOL     OW12613   3.714   1.555   8.292
 4026SOL    HW112614   3.635   1.542   8.239
 4026SOL    HW212615   3.709   1.487   8.359
 4027SOL     OW12616   2.087   1.300   9.303
 4027SOL    HW112617   2.021   1.239   9.270
 4027SOL    HW212618   2.064   1.312   9.395
 4028SOL     OW12619   1.949   1.232   8.113
 4028SOL    HW112620   1.953   1.186   8.196
 4028SOL    HW212621   2.016   1.189   8.059
 4029SOL     OW12622   2.544   1.405   9.077
 4029SOL    HW112623   2.465   1.362   9.108
 4029SOL    HW212624   2.541   1.492   9.115
 4030SOL     OW12625   3.666   0.178   8.686
 4030SOL    HW112626   3.664   0.084   8.705
 4030SOL    HW212627   3.684   0.183   8.592
 4031SOL     OW12628   2.300   0.433   7.980
 4031SOL    HW112629   2.320   0.364   7.916
 4031SOL    HW212630   2.243   0.389   8.044
 4032SOL     OW12631   3.560   1.488   8.543
 4032SOL    HW112632   3.480   1.466   8.494
 4032SOL    HW212633   3.568   1.418   8.607
 4033SOL     OW12634   2.195   0.560   8.741
 4033SOL    HW112635   2.249   0.502   8.794
 4033SOL    HW212636   2.213   0.533   8.650
 4034SOL     OW12637   2.690   1.578   8.124
 4034SOL    HW112638   2.672   1.633   8.048
 4034SOL    HW212639   2.616   1.517   8.127
 4035SOL     OW12640   3.293   0.217   8.564
 4035SOL    HW112641   3.328   0.145   8.617
 4035SOL    HW212642   3.242   0.269   8.626
 4036SOL     OW12643   2.857   0.003   8.601
 4036SOL    HW112644   2.818   4.415   8.596
 4036SOL    HW212645   2.951   4.486   8.610
 4037SOL     OW12646   2.635   1.333   7.766
 4037SOL    HW112647   2.605   1.243   7.772
 4037SOL    HW212648   2.717   1.335   7.815
 4038SOL     OW12649   2.483   1.555   8.731
 4038SOL    HW112650   2.485   1.635   8.784
 4038SOL    HW212651   2.572   1.548   8.696
 4039SOL     OW12652   3.201   0.052   7.606
 4039SOL    HW112653   3.239   4.476   7.561
 4039SOL    HW212654   3.124   0.017   7.652
 4040SOL     OW12655   3.177   0.465   8.121
 4040SOL    HW112656   3.120   0.541   8.122
 4040SOL    HW212657   3.165   0.425   8.207
 4041SOL     OW12658   3.447   0.198   8.316
 4041SOL    HW112659   3.389   0.214   8.391
 4041SOL    HW212660   3.450   0.282   8.270
 4042SOL     OW12661   1.906   1.068   7.755
 4042SOL    HW112662   1.999   1.060   7.736
 4042SOL    HW212663   1.877   0.980   7.778
 4043SOL     OW12664   2.749   1.656   7.789
 4043SOL    HW112665   2.675   1.639   7.730
 4043SOL    HW212666   2.720   1.730   7.842
 4044SOL     OW12667   2.089   0.625   9.433
 4044SOL    HW112668   2.002   0.618   9.473
 4044SOL    HW212669   2.075   0.597   9.342
 4045SOL     OW12670   2.068   0.301  10.300
 4045SOL    HW112671   2.099   0.270  10.385
 4045SOL    HW212672   1.986   0.253  10.285
 4046SOL     OW12673   1.868   0.390   9.946
 4046SOL    HW112674   1.782   0.407   9.984
 4046SOL    HW212675   1.854   0.317   9.885
 4047SOL     OW12676   2.431   1.292  10.490
 4047SOL    HW112677   2.343   1.293  10.450
 4047SOL    HW212678   2.444   1.381  10.521
 4048SOL     OW12679   3.428   1.513  10.018
 4048SOL    HW112680   3.385   1.491  10.101
 4048SOL    HW212681   3.356   1.516   9.954
 4049SOL     OW12682   3.000   0.697  10.005
 4049SOL    HW112683   3.044   0.782   9.997
 4049SOL    HW212684   2.948   0.705  10.085
 4050SOL     OW12685   3.634   0.604   9.536
 4050SOL    HW112686   3.610   0.596   9.444
 4050SOL    HW212687   3.598   0.525   9.577
 4051SOL     OW12688   2.616   1.142  10.356
 4051SOL    HW112689   2.547   1.177  10.412
 4051SOL    HW212690   2.651   1.218  10.310
 4052SOL     OW12691   2.721   0.770   0.024
 4052SOL    HW112692   2.727   0.826   0.102
 4052SOL    HW212693   2.753   0.826  11.053
 4053SOL     OW12694   2.548   1.000   9.955
 4053SOL    HW112695   2.613   0.990  10.024
 4053SOL    HW212696   2.479   1.052   9.995
 4054SOL     OW12697   2.194   1.419  10.377
 4054SOL    HW112698   2.119   1.382  10.331
 4054SOL    HW212699   2.241   1.468  10.310
 4055SOL     OW12700   3.325   1.500  10.664
 4055SOL    HW112701   3.383   1.575  10.670
 4055SOL    HW212702   3.262   1.512  10.735
 4056SOL     OW12703   2.314   0.393  10.780
 4056SOL    HW112704   2.391   0.337  10.790
 4056SOL    HW212705   2.242   0.341  10.817
 4057SOL     OW12706   3.470   0.443  10.049
 4057SOL    HW112707   3.390   0.462  10.000
 4057SOL    HW212708   3.486   0.521  10.102
 4058SOL     OW12709   2.078   1.706   9.772
 4058SOL    HW112710   2.102   1.776   9.834
 4058SOL    HW212711   2.155   1.697   9.716
 4059SOL     OW12712   2.096   1.439   9.849
 4059SOL    HW112713   2.072   1.532   9.846
 4059SOL    HW212714   2.035   1.400   9.911
 4060SOL     OW12715   2.125   1.091  10.203
 4060SOL    HW112716   2.119   1.003  10.241
 4060SOL    HW212717   2.066   1.144  10.255
 4061SOL     OW12718   2.466   1.790  10.732
 4061SOL    HW112719   2.389   1.771  10.785
 4061SOL    HW212720   2.493   1.878  10.759
 4062SOL     OW12721   2.444   0.984   9.447
 4062SOL    HW112722   2.492   1.030   9.378
 4062SOL    HW212723   2.484   1.015   9.528
 4063SOL     OW12724   3.414   0.138  10.787
 4063SOL    HW112725   3.456   0.194  10.722
 4063SOL    HW212726   3.480   0.125  10.855
 4064SOL     OW12727   1.980   0.654   9.870
 4064SOL    HW112728   1.949   0.567   9.892
 4064SOL    HW212729   1.971   0.704   9.952
 4065SOL     OW12730   3.705   1.757   9.642
 4065SOL    HW112731   3.771   1.729   9.706
 4065SOL    HW212732   3.726   1.848   9.624
 4066SOL     OW12733   1.900   1.593   9.431
 4066SOL    HW112734   1.879   1.501   9.450
 4066SOL    HW212735   1.871   1.640   9.509
 4067SOL     OW12736   3.553   0.920   9.954
 4067SOL    HW112737   3.635   0.876   9.932
 4067SOL    HW212738   3.530   0.970   9.876
 4068SOL     OW12739   3.510   1.105   9.739
 4068SOL    HW112740   3.596   1.109   9.698
 4068SOL    HW212741   3.515   1.167   9.811
 4069SOL     OW12742   1.991   0.725  10.919
 4069SOL    HW112743   2.083   0.746  10.903
 4069SOL    HW212744   1.946   0.809  10.912
 4070SOL     OW12745   2.478   1.386  10.044
 4070SOL    HW112746   2.432   1.303  10.053
 4070SOL    HW212747   2.461   1.413   9.954
 4071SOL     OW12748   3.152   1.236  10.753
 4071SOL    HW112749   3.178   1.176  10.683
 4071SOL    HW212750   3.210   1.213  10.826
 4072SOL     OW12751   2.682   0.018   9.865
 4072SOL    HW112752   2.719   0.102   9.837
 4072SOL    HW212753   2.587   0.030   9.857
 4073SOL     OW12754   2.051   0.962  10.581
 4073SOL    HW112755   2.136   0.920  10.565
 4073SOL    HW212756   1.989   0.910  10.530
 4074SOL     OW12757   3.394   0.995   9.510
 4074SOL    HW112758   3.323   0.939   9.542
 4074SOL    HW212759   3.435   1.030   9.589
 4075SOL     OW12760   3.059   1.807  10.929
 4075SOL    HW112761   3.055   1.872  10.859
 4075SOL    HW212762   3.069   1.723  10.883
 4076SOL     OW12763   2.198   0.281  11.085
 4076SOL    HW112764   2.253   0.344   0.032
 4076SOL    HW212765   2.114   0.283   0.031
 4077SOL     OW12766   3.330   1.419  10.259
 4077SOL    HW112767   3.262   1.436  10.324
 4077SOL    HW212768   3.316   1.328  10.233
 4078SOL     OW12769   3.518   1.746   9.888
 4078SOL    HW112770   3.499   1.714   9.799
 4078SOL    HW212771   3.496   1.672   9.944
 4079SOL     OW12772   2.453   0.722   9.577
 4079SOL    HW112773   2.456   0.805   9.529
 4079SOL    HW212774   2.388   0.736   9.645
 4080SOL     OW12775   3.155   0.369  10.242
 4080SOL    HW112776   3.065   0.340  10.225
 4080SOL    HW212777   3.190   0.306  10.304
 4081SOL     OW12778   3.441   1.672   9.620
 4081SOL    HW112779   3.532   1.700   9.612
 4081SOL    HW212780   3.414   1.655   9.530
 4082SOL     OW12781   2.658   0.620  10.764
 4082SOL    HW112782   2.626   0.594  10.850
 4082SOL    HW212783   2.623   0.553  10.704
 4083SOL     OW12784   2.828   0.901  10.906
 4083SOL    HW112785   2.876   0.829  10.865
 4083SOL    HW212786   2.776   0.939  10.835
 4084SOL     OW12787   2.860   0.420  10.541
 4084SOL    HW112788   2.770   0.425  10.573
 4084SOL    HW212789   2.854   0.364  10.463
 4085SOL     OW12790   2.913   0.698   9.736
 4085SOL    HW112791   2.931   0.689   9.829
 4085SOL    HW212792   2.829   0.653   9.723
 4086SOL     OW12793   1.951   0.822  10.086
 4086SOL    HW112794   2.031   0.815  10.138
 4086SOL    HW212795   1.906   0.899  10.122
 4087SOL     OW12796   1.993   1.841  10.900
 4087SOL    HW112797   1.964   1.811  10.986
 4087SOL    HW212798   1.913   1.852  10.849
 4088SOL     OW12799   2.719   0.371   9.498
 4088SOL    HW112800   2.786   0.404   9.439
 4088SOL    HW212801   2.730   0.276   9.498
 4089SOL     OW12802   3.241   1.143   9.850
 4089SOL    HW112803   3.320   1.131   9.797
 4089SOL    HW212804   3.188   1.204   9.800
 4090SOL     OW12805   2.399   0.207  10.213
 4090SOL    HW112806   2.420   0.226  10.304
 4090SOL    HW212807   2.393   0.293  10.172
 4091SOL     OW12808   2.865   1.444   9.780
 4091SOL    HW112809   2.831   1.518   9.731
 4091SOL    HW212810   2.845   1.464   9.872
 4092SOL     OW12811   2.219   1.799  10.186
 4092SOL    HW112812   2.248   1.708  10.186
 4092SOL    HW212813   2.297   1.849  10.212
 4093SOL     OW12814   3.661   1.057  10.180
 4093SOL    HW112815   3.608   1.035  10.103
 4093SOL    HW212816   3.598   1.062  10.252
 4094SOL     OW12817   3.092   1.535  10.822
 4094SOL    HW112818   3.102   1.445  10.854
 4094SOL    HW212819   3.025   1.528  10.754
 4095SOL     OW12820   2.179   0.958   9.562
 4095SOL    HW112821   2.261   0.977   9.516
 4095SOL    HW212822   2.149   0.876   9.524
 4096SOL     OW12823   3.343   0.746  10.033
 4096SOL    HW112824   3.334   0.703  10.118
 4096SOL    HW212825   3.421   0.801  10.041
 4097SOL     OW12826   2.313   1.265  11.054
 4097SOL    HW112827   2.284   1.280  10.964
 4097SOL    HW212828   2.256   1.196  11.086
 4098SOL     OW12829   2.985   1.778   9.540
 4098SOL    HW112830   2.910   1.737   9.584
 4098SOL    HW212831   3.009   1.715   9.472
 4099SOL     OW12832   2.058   0.265  10.821
 4099SOL    HW112833   1.989   0.331  10.816
 4099SOL    HW212834   2.083   0.264  10.913
 4100SOL     OW12835   3.491   1.381   9.398
 4100SOL    HW112836   3.449   1.466   9.384
 4100SOL    HW212837   3.422   1.317   9.379
 4101SOL     OW12838   2.328   1.730   9.632
 4101SOL    HW112839   2.372   1.791   9.692
 4101SOL    HW212840   2.398   1.697   9.576
 4102SOL     OW12841   3.288   0.145   9.729
 4102SOL    HW112842   3.271   0.089   9.653
 4102SOL    HW212843   3.381   0.133   9.747
 4103SOL     OW12844   2.105   1.785  10.548
 4103SOL    HW112845   2.165   1.723  10.590
 4103SOL    HW212846   2.113   1.766  10.454
 4104SOL     OW12847   2.798   1.698  10.210
 4104SOL    HW112848   2.878   1.649  10.229
 4104SOL    HW212849   2.755   1.650  10.140
 4105SOL     OW12850   2.257   0.693   9.784
 4105SOL    HW112851   2.278   0.601   9.799
 4105SOL    HW212852   2.163   0.699   9.802
 4106SOL     OW12853   2.494   0.122   9.434
 4106SOL    HW112854   2.582   0.085   9.444
 4106SOL    HW212855   2.460   0.082   9.354
 4107SOL     OW12856   2.618   0.267  11.047
 4107SOL    HW112857   2.689   0.206  11.069
 4107SOL    HW212858   2.591   0.303   0.032
 4108SOL     OW12859   2.738   1.523  10.504
 4108SOL    HW112860   2.722   1.486  10.417
 4108SOL    HW212861   2.810   1.470  10.539
 4109SOL     OW12862   3.206   0.591  10.754
 4109SOL    HW112863   3.257   0.574  10.832
 4109SOL    HW212864   3.231   0.680  10.728
 4110SOL     OW12865   2.679   1.394  10.252
 4110SOL    HW112866   2.763   1.381  10.209
 4110SOL    HW212867   2.615   1.395  10.181
 4111SOL     OW12868   2.787   0.523  10.207
 4111SOL    HW112869   2.770   0.520  10.113
 4111SOL    HW212870   2.819   0.436  10.228
 4112SOL     OW12871   2.418   0.081   9.834
 4112SOL    HW112872   2.331   0.048   9.858
 4112SOL    HW212873   2.401   0.142   9.761
 4113SOL     OW12874   3.290   1.199   9.351
 4113SOL    HW112875   3.320   1.123   9.401
 4113SOL    HW212876   3.205   1.221   9.387
 4114SOL     OW12877   2.156   0.065   9.514
 4114SOL    HW112878   2.233   0.119   9.498
 4114SOL    HW212879   2.185   0.000   9.579
 4115SOL     OW12880   2.818   0.240   9.774
 4115SOL    HW112881   2.766   0.302   9.724
 4115SOL    HW212882   2.908   0.274   9.769
 4116SOL     OW12883   2.940   0.688  10.772
 4116SOL    HW112884   2.868   0.625  10.772
 4116SOL    HW212885   3.019   0.634  10.769
 4117SOL     OW12886   3.083   1.572  10.105
 4117SOL    HW112887   3.098   1.637  10.037
 4117SOL    HW212888   3.152   1.587  10.169
 4118SOL     OW12889   2.333   1.152  10.041
 4118SOL    HW112890   2.265   1.131  10.105
 4118SOL    HW212891   2.291   1.136   9.956
 4119SOL     OW12892   3.129   1.793   9.920
 4119SOL    HW112893   3.176   1.855   9.864
 4119SOL    HW212894   3.061   1.846   9.963
 4120SOL     OW12895   2.889   0.544   9.330
 4120SOL    HW112896   2.842   0.625   9.314
 4120SOL    HW212897   2.948   0.564   9.403
 4121SOL     OW12898   1.946   0.547  10.712
 4121SOL    HW112899   2.036   0.553  10.680
 4121SOL    HW212900   1.941   0.610  10.783
 4122SOL     OW12901   2.422   0.247  10.480
 4122SOL    HW112902   2.442   0.160  10.516
 4122SOL    HW212903   2.330   0.262  10.504
 4123SOL     OW12904   2.726   0.505   9.938
 4123SOL    HW112905   2.688   0.541   9.858
 4123SOL    HW212906   2.680   0.422   9.952
 4124SOL     OW12907   2.816   0.016  10.104
 4124SOL    HW112908   2.771   0.019  10.020
 4124SOL    HW212909   2.832   4.423  10.120
 4125SOL     OW12910   3.299   1.162  10.166
 4125SOL    HW112911   3.230   1.095  10.166
 4125SOL    HW212912   3.324   1.171  10.074
 4126SOL     OW12913   3.326   0.609  10.280
 4126SOL    HW112914   3.271   0.530  10.281
 4126SOL    HW212915   3.382   0.598  10.357
 4127SOL     OW12916   3.705   0.814   9.694
 4127SOL    HW112917   3.762   0.764   9.752
 4127SOL    HW212918   3.679   0.752   9.627
 4128SOL     OW12919   2.351   1.421   9.464
 4128SOL    HW112920   2.276   1.392   9.516
 4128SOL    HW212921   2.342   1.375   9.380
 4129SOL     OW12922   3.535   1.265   9.953
 4129SOL    HW112923   3.629   1.265   9.968
 4129SOL    HW212924   3.506   1.353   9.975
 4130SOL     OW12925   3.257   0.572   9.380
 4130SOL    HW112926   3.194   0.556   9.450
 4130SOL    HW212927   3.342   0.555   9.419
 4131SOL     OW12928   2.380   0.265   9.631
 4131SOL    HW112929   2.431   0.216   9.567
 4131SOL    HW212930   2.361   0.348   9.588
 4132SOL     OW12931   3.619   1.229  10.859
 4132SOL    HW112932   3.711   1.202  10.859
 4132SOL    HW212933   3.620   1.315  10.902
 4133SOL     OW12934   2.923   1.356  10.651
 4133SOL    HW112935   2.844   1.321  10.694
 4133SOL    HW212936   2.995   1.306  10.689
 4134SOL     OW12937   2.996   1.212  10.414
 4134SOL    HW112938   2.926   1.241  10.473
 4134SOL    HW212939   2.967   1.239  10.327
 4135SOL     OW12940   3.488   1.097  10.388
 4135SOL    HW112941   3.484   1.159  10.460
 4135SOL    HW212942   3.410   1.115  10.336
 4136SOL     OW12943   2.755   0.127  10.696
 4136SOL    HW112944   2.782   0.089  10.612
 4136SOL    HW212945   2.838   0.155  10.737
 4137SOL     OW12946   2.572   1.063   9.681
 4137SOL    HW112947   2.557   1.044   9.773
 4137SOL    HW212948   2.647   1.009   9.657
 4138SOL     OW12949   2.284   0.817  10.561
 4138SOL    HW112950   2.352   0.826  10.628
 4138SOL    HW212951   2.248   0.729  10.574
 4139SOL     OW12952   3.132   0.383  10.583
 4139SOL    HW112953   3.163   0.460  10.632
 4139SOL    HW212954   3.043   0.405  10.557
 4140SOL     OW12955   1.932   1.574  10.663
 4140SOL    HW112956   1.903   1.649  10.610
 4140SOL    HW212957   2.027   1.578  10.659
 4141SOL     OW12958   2.207   1.112   9.800
 4141SOL    HW112959   2.210   1.185   9.738
 4141SOL    HW212960   2.204   1.034   9.744
 4142SOL     OW12961   2.416   0.526  10.168
 4142SOL    HW112962   2.428   0.586  10.094
 4142SOL    HW212963   2.482   0.553  10.232
 4143SOL     OW12964   3.110   1.349   9.699
 4143SOL    HW112965   3.166   1.420   9.731
 4143SOL    HW212966   3.023   1.370   9.733
 4144SOL     OW12967   3.146   1.461  10.455
 4144SOL    HW112968   3.203   1.462  10.532
 4144SOL    HW212969   3.093   1.381  10.466
 4145SOL     OW12970   3.441   0.623   9.789
 4145SOL    HW112971   3.393   0.669   9.858
 4145SOL    HW212972   3.485   0.692   9.740
 4146SOL     OW12973   2.210   1.524  10.624
 4146SOL    HW112974   2.195   1.481  10.539
 4146SOL    HW212975   2.304   1.537  10.628
 4147SOL     OW12976   2.277   0.733  10.904
 4147SOL    HW112977   2.342   0.776  10.848
 4147SOL    HW212978   2.312   0.645  10.918
 4148SOL     OW12979   3.461   0.756  10.967
 4148SOL    HW112980   3.382   0.810  10.958
 4148SOL    HW212981   3.530   0.806  10.924
 4149SOL     OW12982   2.445   0.874  10.341
 4149SOL    HW112983   2.475   0.965  10.343
 4149SOL    HW212984   2.389   0.866  10.417
 4150SOL     OW12985   3.215   0.861  10.341
 4150SOL    HW112986   3.131   0.849  10.297
 4150SOL    HW212987   3.260   0.777  10.332
 4151SOL     OW12988   3.062   0.536   9.569
 4151SOL    HW112989   3.069   0.456   9.621
 4151SOL    HW212990   3.019   0.599   9.627
 4152SOL     OW12991   2.150   0.230  10.551
 4152SOL    HW112992   2.112   0.248  10.637
 4152SOL    HW212993   2.189   0.143  10.560
 4153SOL     OW12994   1.914   1.312  10.583
 4153SOL    HW112995   1.941   1.257  10.656
 4153SOL    HW212996   1.914   1.401  10.619
 4154SOL     OW12997   2.584   0.631  10.365
 4154SOL    HW112998   2.659   0.614  10.308
 4154SOL    HW212999   2.556   0.719  10.342
 4155SOL     OW13000   2.157   0.049   9.962
 4155SOL    HW113001   2.146   0.144   9.963
 4155SOL    HW213002   2.169   0.026  10.054
 4156SOL     OW13003   3.482   0.382   9.667
 4156SOL    HW113004   3.507   0.317   9.732
 4156SOL    HW213005   3.457   0.459   9.719
 4157SOL     OW13006   2.893   0.764  10.271
 4157SOL    HW113007   2.886   0.779  10.365
 4157SOL    HW213008   2.862   0.674  10.258
 4158SOL     OW13009   2.833   1.572  11.004
 4158SOL    HW113010   2.819   1.623  10.924
 4158SOL    HW213011   2.863   1.487  10.974
 4159SOL     OW13012   3.716   1.490  10.912
 4159SOL    HW113013   3.735   1.526  10.825
 4159SOL    HW213014   3.781   1.530  10.969
 4160SOL     OW13015   2.224   0.919  11.093
 4160SOL    HW113016   2.308   0.934   0.037
 4160SOL    HW213017   2.243   0.852  11.027
 4161SOL     OW13018   3.391   0.262   9.438
 4161SOL    HW113019   3.321   0.205   9.470
 4161SOL    HW213020   3.421   0.309   9.516
 4162SOL     OW13021   3.151   0.826   9.339
 4162SOL    HW113022   3.193   0.740   9.342
 4162SOL    HW213023   3.183   0.865   9.258
 4163SOL     OW13024   2.929   1.336  10.165
 4163SOL    HW113025   2.932   1.264  10.102
 4163SOL    HW213026   2.989   1.402  10.130
 4164SOL     OW13027   2.170   0.810  10.256
 4164SOL    HW113028   2.263   0.831  10.249
 4164SOL    HW213029   2.168   0.719  10.289
 4165SOL     OW13030   2.197   0.534  10.323
 4165SOL    HW113031   2.154   0.451  10.305
 4165SOL    HW213032   2.273   0.535  10.266
 4166SOL     OW13033   3.006   0.217  10.767
 4166SOL    HW113034   3.043   0.245  10.850
 4166SOL    HW213035   3.052   0.269  10.701
 4167SOL     OW13036   1.868   1.319   9.504
 4167SOL    HW113037   1.781   1.335   9.468
 4167SOL    HW213038   1.865   1.230   9.539
 4168SOL     OW13039   1.948   1.791  10.246
 4168SOL    HW113040   1.918   1.711  10.203
 4168SOL    HW213041   2.041   1.797  10.222
 4169SOL     OW13042   2.359   1.568  10.213
 4169SOL    HW113043   2.427   1.634  10.231
 4169SOL    HW213044   2.402   1.505  10.156
 4170SOL     OW13045   2.840   0.795  10.537
 4170SOL    HW113046   2.897   0.774  10.611
 4170SOL    HW213047   2.758   0.748  10.555
 4171SOL     OW13048   1.895   0.546  10.431
 4171SOL    HW113049   1.972   0.527  10.377
 4171SOL    HW213050   1.929   0.547  10.521
 4172SOL     OW13051   2.672   0.578   9.669
 4172SOL    HW113052   2.678   0.506   9.606
 4172SOL    HW213053   2.599   0.631   9.639
 4173SOL     OW13054   3.500   0.601  10.493
 4173SOL    HW113055   3.492   0.544  10.569
 4173SOL    HW213056   3.588   0.584  10.460
 4174SOL     OW13057   2.120   1.562  11.052
 4174SOL    HW113058   2.058   1.590   0.018
 4174SOL    HW213059   2.132   1.468  11.068
 4175SOL     OW13060   2.574   0.455  10.571
 4175SOL    HW113061   2.521   0.380  10.543
 4175SOL    HW213062   2.568   0.517  10.498
 4176SOL     OW13063   2.799   1.681  10.756
 4176SOL    HW113064   2.767   1.645  10.673
 4176SOL    HW213065   2.787   1.775  10.748
 4177SOL     OW13066   2.324   0.492   9.493
 4177SOL    HW113067   2.383   0.564   9.515
 4177SOL    HW213068   2.239   0.534   9.480
 4178SOL     OW13069   2.015   1.139  10.780
 4178SOL    HW113070   2.007   1.086  10.859
 4178SOL    HW213071   2.027   1.076  10.709
 4179SOL     OW13072   3.184   1.052  10.538
 4179SOL    HW113073   3.209   0.986  10.473
 4179SOL    HW213074   3.117   1.104  10.494
 4180SOL     OW13075   3.176   0.857   9.615
 4180SOL    HW113076   3.102   0.827   9.667
 4180SOL    HW213077   3.148   0.844   9.524
 4181SOL     OW13078   3.642   1.742  10.464
 4181SOL    HW113079   3.700   1.767  10.393
 4181SOL    HW213080   3.613   1.653  10.442
 4182SOL     OW13081   3.103   1.734  10.420
 4182SOL    HW113082   3.185   1.757  10.377
 4182SOL    HW213083   3.110   1.640  10.438
 4183SOL     OW13084   1.949   1.267  10.320
 4183SOL    HW113085   1.935   1.281  10.414
 4183SOL    HW213086   1.875   1.213  10.293
 4184SOL     OW13087   3.581   0.128   9.797
 4184SOL    HW113088   3.650   0.141   9.732
 4184SOL    HW213089   3.615   0.059   9.854
 4185SOL     OW13090   3.253   1.568   9.797
 4185SOL    HW113091   3.313   1.601   9.730
 4185SOL    HW213092   3.204   1.645   9.826
 4186SOL     OW13093   3.141   0.930   9.984
 4186SOL    HW113094   3.214   0.868   9.990
 4186SOL    HW213095   3.175   1.001   9.930
 4187SOL     OW13096   2.675   1.276  10.735
 4187SOL    HW113097   2.644   1.310  10.819
 4187SOL    HW213098   2.605   1.296  10.674
 4188SOL     OW13099   2.531   1.623   9.466
 4188SOL    HW113100   2.545   1.636   9.372
 4188SOL    HW213101   2.476   1.545   9.471
 4189SOL     OW13102   3.480   1.722  10.693
 4189SOL    HW113103   3.538   1.735  10.618
 4189SOL    HW213104   3.464   1.809  10.727
 4190SOL     OW13105   3.701   0.153  10.276
 4190SOL    HW113106   3.733   0.075  10.231
 4190SOL    HW213107   3.615   0.169  10.238
 4191SOL     OW13108   2.123   0.319  10.024
 4191SOL    HW113109   2.038   0.354   9.999
 4191SOL    HW213110   2.119   0.312  10.120
 4192SOL     OW13111   3.070   1.604   9.342
 4192SOL    HW113112   3.060   1.512   9.369
 4192SOL    HW213113   3.004   1.617   9.274
 4193SOL     OW13114   2.687   1.005  10.690
 4193SOL    HW113115   2.730   0.993  10.605
 4193SOL    HW213116   2.687   1.100  10.703
 4194SOL     OW13117   2.778   0.911   9.600
 4194SOL    HW113118   2.840   0.943   9.534
 4194SOL    HW213119   2.826   0.842   9.646
 4195SOL     OW13120   3.352   1.627   9.354
 4195SOL    HW113121   3.258   1.618   9.339
 4195SOL    HW213122   3.390   1.633   9.266
 4196SOL     OW13123   2.226   1.311  10.808
 4196SOL    HW113124   2.214   1.384  10.747
 4196SOL    HW213125   2.155   1.251  10.788
 4197SOL     OW13126   3.475   1.281  10.594
 4197SOL    HW113127   3.529   1.263  10.670
 4197SOL    HW213128   3.417   1.353  10.621
 4198SOL     OW13129   2.918   1.109  10.018
 4198SOL    HW113130   2.846   1.058  10.056
 4198SOL    HW213131   2.982   1.043   9.990
 4199SOL     OW13132   2.865   0.247  10.321
 4199SOL    HW113133   2.871   0.230  10.227
 4199SOL    HW213134   2.856   0.161  10.361
 4200SOL     OW13135   2.468   1.489   9.790
 4200SOL    HW113136   2.514   1.438   9.724
 4200SOL    HW213137   2.393   1.527   9.743
 4201SOL     OW13138   3.583   0.394  10.691
 4201SOL    HW113139   3.657   0.455  10.693
 4201SOL    HW213140   3.611   0.324  10.632
 4202SOL     OW13141   2.123   1.344   9.601
 4202SOL    HW113142   2.030   1.341   9.577
 4202SOL    HW213143   2.124   1.380   9.690
 4203SOL     OW13144   1.981   1.012  11.016
 4203SOL    HW113145   1.913   1.004  11.083
 4203SOL    HW213146   2.060   0.981  11.060
 4204SOL     OW13147   2.510   0.183  10.810
 4204SOL    HW113148   2.589   0.162  10.759
 4204SOL    HW213149   2.544   0.221  10.892
 4205SOL     OW13150   1.945   0.332   9.358
 4205SOL    HW113151   1.875   0.278   9.322
 4205SOL    HW213152   1.954   0.404   9.295
 4206SOL     OW13153   3.290   0.851  10.710
 4206SOL    HW113154   3.240   0.918  10.664
 4206SOL    HW213155   3.379   0.858  10.676
 4207SOL     OW13156   1.924   0.187   9.624
 4207SOL    HW113157   1.926   0.255   9.556
 4207SOL    HW213158   1.999   0.131   9.603
 4208SOL     OW13159   3.040   1.337   9.427
 4208SOL    HW113160   2.950   1.306   9.429
 4208SOL    HW213161   3.067   1.338   9.519
 4209SOL     OW13162   2.483   0.829  10.745
 4209SOL    HW113163   2.540   0.905  10.731
 4209SOL    HW213164   2.544   0.755  10.753
 4210SOL     OW13165   3.344   1.780  10.291
 4210SOL    HW113166   3.368   1.842  10.221
 4210SOL    HW213167   3.427   1.756  10.331
 4211SOL     OW13168   2.574   0.567  11.014
 4211SOL    HW113169   2.614   0.637  11.065
 4211SOL    HW213170   2.620   0.488  11.042
 4212SOL     OW13171   2.247   1.735  10.880
 4212SOL    HW113172   2.168   1.786  10.866
 4212SOL    HW213173   2.220   1.663  10.937
 4213SOL     OW13174   3.530   0.881  10.568
 4213SOL    HW113175   3.523   0.796  10.524
 4213SOL    HW213176   3.520   0.945  10.497
 4214SOL     OW13177   3.081   0.332   9.756
 4214SOL    HW113178   3.149   0.266   9.743
 4214SOL    HW213179   3.110   0.380   9.834
 4215SOL     OW13180   2.446   0.736   9.984
 4215SOL    HW113181   2.489   0.820   9.968
 4215SOL    HW213182   2.382   0.728   9.914
 4216SOL     OW13183   3.608   0.312  10.956
 4216SOL    HW113184   3.591   0.351  10.870
 4216SOL    HW213185   3.532   0.335  11.009
 4217SOL     OW13186   3.613   0.935  10.825
 4217SOL    HW113187   3.603   1.029  10.839
 4217SOL    HW213188   3.594   0.922  10.732
 4218SOL     OW13189   2.724   1.366   9.348
 4218SOL    HW113190   2.687   1.394   9.431
 4218SOL    HW213191   2.742   1.448   9.301
 4219SOL     OW13192   2.515   1.799  10.248
 4219SOL    HW113193   2.502   1.872  10.309
 4219SOL    HW213194   2.609   1.787  10.244
 4220SOL     OW13195   2.730   0.969  10.165
 4220SOL    HW113196   2.780   0.897  10.201
 4220SOL    HW213197   2.694   1.015  10.241
 4221SOL     OW13198   2.941   0.990   9.399
 4221SOL    HW113199   2.919   1.040   9.321
 4221SOL    HW213200   3.015   0.935   9.372
 4222SOL     OW13201   3.714   1.555  10.153
 4222SOL    HW113202   3.635   1.542  10.101
 4222SOL    HW213203   3.709   1.487  10.221
 4223SOL     OW13204   1.948   1.232   9.975
 4223SOL    HW113205   1.951   1.185  10.059
 4223SOL    HW213206   2.015   1.190   9.922
 4224SOL     OW13207   2.542   1.397  10.943
 4224SOL    HW113208   2.471   1.345  10.982
 4224SOL    HW213209   2.501   1.480  10.921
 4225SOL     OW13210   3.660   0.177  10.549
 4225SOL    HW113211   3.676   0.084  10.568
 4225SOL    HW213212   3.678   0.185  10.455
 4226SOL     OW13213   2.300   0.432   9.842
 4226SOL    HW113214   2.320   0.364   9.778
 4226SOL    HW213215   2.243   0.389   9.906
 4227SOL     OW13216   3.561   1.489  10.406
 4227SOL    HW113217   3.481   1.466  10.357
 4227SOL    HW213218   3.572   1.419  10.470
 4228SOL     OW13219   2.193   0.561  10.602
 4228SOL    HW113220   2.246   0.502  10.655
 4228SOL    HW213221   2.210   0.533  10.512
 4229SOL     OW13222   2.691   1.579   9.987
 4229SOL    HW113223   2.674   1.636   9.913
 4229SOL    HW213224   2.617   1.518   9.988
 4230SOL     OW13225   3.292   0.217  10.427
 4230SOL    HW113226   3.331   0.149  10.482
 4230SOL    HW213227   3.243   0.272  10.489
 4231SOL     OW13228   2.856   0.004  10.462
 4231SOL    HW113229   2.817   4.417  10.454
 4231SOL    HW213230   2.950   4.488  10.470
 4232SOL     OW13231   2.635   1.333   9.628
 4232SOL    HW113232   2.605   1.243   9.634
 4232SOL    HW213233   2.717   1.335   9.677
 4233SOL     OW13234   2.483   1.553  10.598
 4233SOL    HW113235   2.482   1.638  10.642
 4233SOL    HW213236   2.571   1.547  10.560
 4234SOL     OW13237   3.201   0.052   9.468
 4234SOL    HW113238   3.239   4.476   9.423
 4234SOL    HW213239   3.124   0.017   9.514
 4235SOL     OW13240   3.177   0.465   9.983
 4235SOL    HW113241   3.120   0.541   9.984
 4235SOL    HW213242   3.165   0.425  10.069
 4236SOL     OW13243   3.447   0.198  10.179
 4236SOL    HW113244   3.389   0.213  10.253
 4236SOL    HW213245   3.450   0.281  10.132
 4237SOL     OW13246   1.906   1.069   9.617
 4237SOL    HW113247   1.999   1.060   9.598
 4237SOL    HW213248   1.877   0.980   9.640
 4238SOL     OW13249   2.749   1.656   9.650
 4238SOL    HW113250   2.675   1.638   9.591
 4238SOL    HW213251   2.719   1.729   9.704
 4239SOL     OW13252   2.068   2.525   0.114
 4239SOL    HW113253   1.984   2.493   0.148
 4239SOL    HW213254   2.106   2.450   0.070
 4240SOL     OW13255   1.857   2.253   0.625
 4240SOL    HW113256   1.778   2.273   0.675
 4240SOL    HW213257   1.841   2.167   0.587
 4241SOL     OW13258   2.429   3.154   1.179
 4241SOL    HW113259   2.342   3.158   1.138
 4241SOL    HW213260   2.445   3.242   1.211
 4242SOL     OW13261   3.427   3.374   0.708
 4242SOL    HW113262   3.384   3.352   0.790
 4242SOL    HW213263   3.356   3.377   0.644
 4243SOL     OW13264   2.993   2.560   0.698
 4243SOL    HW113265   3.041   2.641   0.686
 4243SOL    HW213266   2.947   2.572   0.781
 4244SOL     OW13267   3.640   2.462   0.213
 4244SOL    HW113268   3.580   2.474   0.140
 4244SOL    HW213269   3.602   2.391   0.265
 4245SOL     OW13270   2.612   3.001   1.043
 4245SOL    HW113271   2.545   3.038   1.101
 4245SOL    HW213272   2.650   3.077   0.999
 4246SOL     OW13273   2.730   2.632   1.822
 4246SOL    HW113274   2.722   2.702   1.886
 4246SOL    HW213275   2.755   2.675   1.741
 4247SOL     OW13276   2.550   2.865   0.645
 4247SOL    HW113277   2.614   2.853   0.715
 4247SOL    HW213278   2.480   2.917   0.685
 4248SOL     OW13279   2.574   3.013   1.813
 4248SOL    HW113280   2.622   3.091   1.843
 4248SOL    HW213281   2.493   3.047   1.777
 4249SOL     OW13282   2.192   3.284   1.067
 4249SOL    HW113283   2.119   3.245   1.019
 4249SOL    HW213284   2.240   3.335   1.002
 4250SOL     OW13285   3.322   3.363   1.358
 4250SOL    HW113286   3.375   3.442   1.367
 4250SOL    HW213287   3.256   3.370   1.427
 4251SOL     OW13288   3.471   2.308   0.742
 4251SOL    HW113289   3.395   2.328   0.688
 4251SOL    HW213290   3.483   2.385   0.798
 4252SOL     OW13291   2.080   3.576   0.472
 4252SOL    HW113292   2.101   3.653   0.525
 4252SOL    HW213293   2.152   3.570   0.409
 4253SOL     OW13294   2.999   3.204   1.694
 4253SOL    HW113295   3.040   3.198   1.780
 4253SOL    HW213296   2.947   3.124   1.686
 4254SOL     OW13297   2.090   3.305   0.534
 4254SOL    HW113298   2.074   3.399   0.534
 4254SOL    HW213299   2.030   3.270   0.600
 4255SOL     OW13300   2.124   2.957   0.891
 4255SOL    HW113301   2.118   2.869   0.927
 4255SOL    HW213302   2.064   3.009   0.945
 4256SOL     OW13303   2.470   3.653   1.429
 4256SOL    HW113304   2.388   3.635   1.476
 4256SOL    HW213305   2.493   3.742   1.454
 4257SOL     OW13306   2.444   2.849   0.145
 4257SOL    HW113307   2.489   2.903   0.079
 4257SOL    HW213308   2.483   2.876   0.228
 4258SOL     OW13309   3.458   1.987   1.466
 4258SOL    HW113310   3.473   2.068   1.418
 4258SOL    HW213311   3.441   2.016   1.556
 4259SOL     OW13312   1.986   2.506   0.562
 4259SOL    HW113313   1.946   2.421   0.581
 4259SOL    HW213314   1.972   2.558   0.641
 4260SOL     OW13315   3.705   3.619   0.330
 4260SOL    HW113316   3.771   3.591   0.393
 4260SOL    HW213317   3.727   3.711   0.312
 4261SOL     OW13318   1.912   3.461   0.118
 4261SOL    HW113319   1.884   3.374   0.144
 4261SOL    HW213320   1.885   3.518   0.191
 4262SOL     OW13321   3.549   2.779   0.644
 4262SOL    HW113322   3.634   2.739   0.625
 4262SOL    HW213323   3.529   2.832   0.566
 4263SOL     OW13324   3.510   2.965   0.432
 4263SOL    HW113325   3.593   2.974   0.385
 4263SOL    HW213326   3.516   3.028   0.503
 4264SOL     OW13327   1.984   2.601   1.582
 4264SOL    HW113328   2.074   2.626   1.605
 4264SOL    HW213329   1.933   2.680   1.597
 4265SOL     OW13330   2.477   3.251   0.735
 4265SOL    HW113331   2.432   3.167   0.745
 4265SOL    HW213332   2.460   3.278   0.645
 4266SOL     OW13333   3.149   3.099   1.422
 4266SOL    HW113334   3.180   3.032   1.362
 4266SOL    HW213335   3.208   3.093   1.498
 4267SOL     OW13336   2.676   1.866   0.507
 4267SOL    HW113337   2.717   1.951   0.490
 4267SOL    HW213338   2.583   1.886   0.516
 4268SOL     OW13339   2.051   2.828   1.274
 4268SOL    HW113340   2.135   2.785   1.256
 4268SOL    HW213341   1.987   2.778   1.223
 4269SOL     OW13342   3.374   2.868   0.206
 4269SOL    HW113343   3.310   2.807   0.244
 4269SOL    HW213344   3.427   2.897   0.280
 4270SOL     OW13345   3.047   3.671   1.624
 4270SOL    HW113346   3.055   3.731   1.549
 4270SOL    HW213347   3.064   3.584   1.587
 4271SOL     OW13348   3.329   3.282   0.949
 4271SOL    HW113349   3.261   3.297   1.015
 4271SOL    HW213350   3.316   3.190   0.923
 4272SOL     OW13351   3.518   3.608   0.579
 4272SOL    HW113352   3.500   3.577   0.490
 4272SOL    HW213353   3.496   3.533   0.635
 4273SOL     OW13354   2.466   2.585   0.273
 4273SOL    HW113355   2.464   2.663   0.218
 4273SOL    HW213356   2.392   2.595   0.333
 4274SOL     OW13357   3.141   2.219   0.932
 4274SOL    HW113358   3.052   2.186   0.942
 4274SOL    HW213359   3.193   2.166   0.992
 4275SOL     OW13360   3.444   3.533   0.313
 4275SOL    HW113361   3.535   3.561   0.306
 4275SOL    HW213362   3.417   3.515   0.223
 4276SOL     OW13363   2.652   2.482   1.449
 4276SOL    HW113364   2.629   2.454   1.538
 4276SOL    HW213365   2.623   2.411   1.393
 4277SOL     OW13366   3.255   2.336   1.678
 4277SOL    HW113367   3.259   2.381   1.763
 4277SOL    HW213368   3.314   2.261   1.688
 4278SOL     OW13369   2.814   2.748   1.584
 4278SOL    HW113370   2.869   2.679   1.546
 4278SOL    HW213371   2.766   2.784   1.509
 4279SOL     OW13372   2.859   2.271   1.234
 4279SOL    HW113373   2.771   2.291   1.264
 4279SOL    HW213374   2.847   2.227   1.150
 4280SOL     OW13375   2.914   2.564   0.426
 4280SOL    HW113376   2.932   2.558   0.520
 4280SOL    HW213377   2.830   2.519   0.415
 4281SOL     OW13378   1.951   2.683   0.772
 4281SOL    HW113379   2.032   2.679   0.823
 4281SOL    HW213380   1.903   2.758   0.808
 4282SOL     OW13381   1.988   3.722   1.581
 4282SOL    HW113382   1.990   3.699   1.673
 4282SOL    HW213383   1.900   3.697   1.552
 4283SOL     OW13384   2.750   2.215   0.209
 4283SOL    HW113385   2.795   2.275   0.149
 4283SOL    HW213386   2.768   2.128   0.172
 4284SOL     OW13387   3.569   2.434   1.828
 4284SOL    HW113388   3.532   2.508   1.780
 4284SOL    HW213389   3.597   2.373   1.761
 4285SOL     OW13390   3.241   3.003   0.541
 4285SOL    HW113391   3.319   2.991   0.487
 4285SOL    HW213392   3.188   3.065   0.492
 4286SOL     OW13393   2.863   3.305   0.472
 4286SOL    HW113394   2.829   3.379   0.423
 4286SOL    HW213395   2.843   3.325   0.564
 4287SOL     OW13396   2.216   3.673   0.866
 4287SOL    HW113397   2.259   3.588   0.873
 4287SOL    HW213398   2.286   3.737   0.884
 4288SOL     OW13399   3.660   2.918   0.871
 4288SOL    HW113400   3.607   2.900   0.794
 4288SOL    HW213401   3.598   2.923   0.943
 4289SOL     OW13402   3.089   3.401   1.513
 4289SOL    HW113403   3.077   3.329   1.574
 4289SOL    HW213404   3.024   3.386   1.444
 4290SOL     OW13405   2.170   2.817   0.272
 4290SOL    HW113406   2.249   2.838   0.222
 4290SOL    HW213407   2.140   2.733   0.236
 4291SOL     OW13408   3.343   2.604   0.723
 4291SOL    HW113409   3.336   2.566   0.811
 4291SOL    HW213410   3.419   2.662   0.728
 4292SOL     OW13411   2.330   3.128   1.737
 4292SOL    HW113412   2.303   3.133   1.646
 4292SOL    HW213413   2.248   3.125   1.786
 4293SOL     OW13414   2.970   3.642   0.226
 4293SOL    HW113415   2.909   3.592   0.280
 4293SOL    HW213416   3.012   3.577   0.171
 4294SOL     OW13417   1.975   2.098   1.508
 4294SOL    HW113418   1.958   2.191   1.497
 4294SOL    HW213419   2.069   2.092   1.526
 4295SOL     OW13420   3.489   3.235   0.090
 4295SOL    HW113421   3.447   3.320   0.078
 4295SOL    HW213422   3.424   3.172   0.060
 4296SOL     OW13423   2.329   3.594   0.327
 4296SOL    HW113424   2.369   3.656   0.388
 4296SOL    HW213425   2.401   3.567   0.270
 4297SOL     OW13426   3.264   1.970   0.434
 4297SOL    HW113427   3.257   1.948   0.341
 4297SOL    HW213428   3.358   1.975   0.450
 4298SOL     OW13429   2.119   3.653   1.230
 4298SOL    HW113430   2.169   3.583   1.273
 4298SOL    HW213431   2.108   3.622   1.140
 4299SOL     OW13432   2.800   3.561   0.898
 4299SOL    HW113433   2.879   3.511   0.919
 4299SOL    HW213434   2.757   3.511   0.828
 4300SOL     OW13435   2.253   2.556   0.462
 4300SOL    HW113436   2.268   2.465   0.437
 4300SOL    HW213437   2.162   2.558   0.493
 4301SOL     OW13438   3.394   2.087   1.725
 4301SOL    HW113439   3.404   2.107   1.818
 4301SOL    HW213440   3.325   2.020   1.722
 4302SOL     OW13441   2.462   1.973   0.116
 4302SOL    HW113442   2.548   1.945   0.146
 4302SOL    HW213443   2.453   1.934   0.029
 4303SOL     OW13444   2.627   2.143   1.755
 4303SOL    HW113445   2.705   2.088   1.751
 4303SOL    HW213446   2.579   2.111   1.831
 4304SOL     OW13447   2.737   3.384   1.194
 4304SOL    HW113448   2.721   3.348   1.107
 4304SOL    HW213449   2.808   3.330   1.230
 4305SOL     OW13450   3.201   2.452   1.433
 4305SOL    HW113451   3.233   2.420   1.518
 4305SOL    HW213452   3.239   2.539   1.424
 4306SOL     OW13453   2.679   3.254   0.943
 4306SOL    HW113454   2.763   3.242   0.899
 4306SOL    HW213455   2.615   3.258   0.872
 4307SOL     OW13456   2.785   2.369   0.901
 4307SOL    HW113457   2.761   2.361   0.809
 4307SOL    HW213458   2.818   2.282   0.925
 4308SOL     OW13459   2.407   1.932   0.498
 4308SOL    HW113460   2.329   1.923   0.553
 4308SOL    HW213461   2.399   2.019   0.459
 4309SOL     OW13462   3.285   3.059   0.027
 4309SOL    HW113463   3.315   2.988   0.084
 4309SOL    HW213464   3.203   3.088   0.067
 4310SOL     OW13465   2.158   1.910   0.192
 4310SOL    HW113466   2.224   1.951   0.137
 4310SOL    HW213467   2.202   1.834   0.230
 4311SOL     OW13468   2.802   2.110   0.460
 4311SOL    HW113469   2.778   2.155   0.379
 4311SOL    HW213470   2.897   2.124   0.467
 4312SOL     OW13471   2.942   2.545   1.456
 4312SOL    HW113472   2.877   2.475   1.463
 4312SOL    HW213473   3.026   2.499   1.451
 4313SOL     OW13474   3.083   3.433   0.795
 4313SOL    HW113475   3.099   3.498   0.726
 4313SOL    HW213476   3.153   3.448   0.858
 4314SOL     OW13477   2.335   3.014   0.733
 4314SOL    HW113478   2.266   2.995   0.797
 4314SOL    HW213479   2.292   3.001   0.648
 4315SOL     OW13480   3.129   3.655   0.608
 4315SOL    HW113481   3.177   3.717   0.553
 4315SOL    HW213482   3.063   3.709   0.652
 4316SOL     OW13483   2.871   2.397   0.044
 4316SOL    HW113484   2.837   2.485   0.029
 4316SOL    HW213485   2.952   2.410   0.093
 4317SOL     OW13486   1.949   2.411   1.394
 4317SOL    HW113487   2.043   2.400   1.402
 4317SOL    HW213488   1.927   2.480   1.457
 4318SOL     OW13489   2.468   2.040   1.147
 4318SOL    HW113490   2.474   1.982   1.223
 4318SOL    HW213491   2.385   2.086   1.157
 4319SOL     OW13492   2.723   2.317   0.639
 4319SOL    HW113493   2.686   2.378   0.575
 4319SOL    HW213494   2.749   2.241   0.589
 4320SOL     OW13495   2.878   1.914   0.750
 4320SOL    HW113496   2.819   1.907   0.675
 4320SOL    HW213497   2.854   1.840   0.806
 4321SOL     OW13498   3.300   3.024   0.857
 4321SOL    HW113499   3.230   2.959   0.856
 4321SOL    HW213500   3.325   3.033   0.765
 4322SOL     OW13501   3.328   2.470   0.973
 4322SOL    HW113502   3.274   2.390   0.977
 4322SOL    HW213503   3.386   2.462   1.048
 4323SOL     OW13504   3.711   2.673   0.377
 4323SOL    HW113505   3.763   2.624   0.440
 4323SOL    HW213506   3.684   2.608   0.312
 4324SOL     OW13507   2.355   3.287   0.170
 4324SOL    HW113508   2.280   3.261   0.223
 4324SOL    HW213509   2.351   3.230   0.093
 4325SOL     OW13510   3.535   3.125   0.645
 4325SOL    HW113511   3.630   3.127   0.659
 4325SOL    HW213512   3.507   3.214   0.665
 4326SOL     OW13513   3.253   2.433   0.082
 4326SOL    HW113514   3.191   2.415   0.152
 4326SOL    HW213515   3.313   2.358   0.082
 4327SOL     OW13516   3.613   3.103   1.569
 4327SOL    HW113517   3.700   3.064   1.565
 4327SOL    HW213518   3.628   3.193   1.598
 4328SOL     OW13519   2.919   3.216   1.333
 4328SOL    HW113520   2.844   3.185   1.384
 4328SOL    HW213521   2.995   3.174   1.374
 4329SOL     OW13522   3.471   3.489   1.656
 4329SOL    HW113523   3.463   3.522   1.567
 4329SOL    HW213524   3.553   3.440   1.657
 4330SOL     OW13525   2.994   3.069   1.104
 4330SOL    HW113526   2.933   3.106   1.168
 4330SOL    HW213527   2.963   3.102   1.019
 4331SOL     OW13528   3.487   2.958   1.077
 4331SOL    HW113529   3.482   3.021   1.149
 4331SOL    HW213530   3.410   2.977   1.024
 4332SOL     OW13531   2.788   1.953   1.394
 4332SOL    HW113532   2.809   1.938   1.302
 4332SOL    HW213533   2.866   1.994   1.430
 4333SOL     OW13534   2.846   2.977   1.722
 4333SOL    HW113535   2.755   2.993   1.745
 4333SOL    HW213536   2.844   2.899   1.667
 4334SOL     OW13537   2.574   2.922   0.374
 4334SOL    HW113538   2.560   2.905   0.466
 4334SOL    HW213539   2.648   2.867   0.350
 4335SOL     OW13540   2.281   2.674   1.250
 4335SOL    HW113541   2.351   2.693   1.313
 4335SOL    HW213542   2.259   2.582   1.267
 4336SOL     OW13543   3.128   2.238   1.278
 4336SOL    HW113544   3.160   2.316   1.323
 4336SOL    HW213545   3.037   2.259   1.256
 4337SOL     OW13546   1.934   3.436   1.356
 4337SOL    HW113547   1.904   3.507   1.298
 4337SOL    HW213548   2.029   3.437   1.348
 4338SOL     OW13549   2.206   2.982   0.494
 4338SOL    HW113550   2.205   3.055   0.433
 4338SOL    HW213551   2.199   2.904   0.439
 4339SOL     OW13552   3.109   3.208   0.397
 4339SOL    HW113553   3.164   3.281   0.424
 4339SOL    HW213554   3.021   3.232   0.428
 4340SOL     OW13555   3.147   3.321   1.147
 4340SOL    HW113556   3.202   3.324   1.225
 4340SOL    HW213557   3.092   3.244   1.160
 4341SOL     OW13558   3.445   2.487   0.479
 4341SOL    HW113559   3.394   2.529   0.549
 4341SOL    HW213560   3.479   2.561   0.428
 4342SOL     OW13561   2.208   3.392   1.312
 4342SOL    HW113562   2.196   3.347   1.228
 4342SOL    HW213563   2.302   3.402   1.320
 4343SOL     OW13564   2.280   2.625   1.602
 4343SOL    HW113565   2.342   2.667   1.542
 4343SOL    HW213566   2.329   2.550   1.638
 4344SOL     OW13567   3.467   2.642   1.684
 4344SOL    HW113568   3.381   2.683   1.678
 4344SOL    HW213569   3.519   2.684   1.616
 4345SOL     OW13570   2.856   1.991   1.750
 4345SOL    HW113571   2.916   2.062   1.728
 4345SOL    HW213572   2.905   1.911   1.727
 4346SOL     OW13573   2.362   1.890   1.751
 4346SOL    HW113574   2.320   1.833   1.686
 4346SOL    HW213575   2.308   1.969   1.752
 4347SOL     OW13576   2.439   2.739   1.025
 4347SOL    HW113577   2.481   2.825   1.026
 4347SOL    HW213578   2.389   2.736   1.106
 4348SOL     OW13579   3.215   2.721   1.026
 4348SOL    HW113580   3.130   2.707   0.985
 4348SOL    HW213581   3.259   2.636   1.018
 4349SOL     OW13582   3.060   2.386   0.269
 4349SOL    HW113583   3.070   2.309   0.326
 4349SOL    HW213584   3.018   2.452   0.325
 4350SOL     OW13585   1.911   3.173   1.276
 4350SOL    HW113586   1.941   3.118   1.348
 4350SOL    HW213587   1.914   3.262   1.310
 4351SOL     OW13588   2.592   2.504   1.065
 4351SOL    HW113589   2.646   2.472   0.992
 4351SOL    HW213590   2.547   2.580   1.029
 4352SOL     OW13591   3.598   2.822   1.855
 4352SOL    HW113592   3.554   2.757   1.800
 4352SOL    HW213593   3.538   2.837   1.928
 4353SOL     OW13594   2.164   1.917   0.636
 4353SOL    HW113595   2.118   1.997   0.662
 4353SOL    HW213596   2.176   1.868   0.718
 4354SOL     OW13597   3.484   2.240   0.362
 4354SOL    HW113598   3.509   2.174   0.427
 4354SOL    HW213599   3.459   2.316   0.414
 4355SOL     OW13600   2.891   2.618   0.958
 4355SOL    HW113601   2.885   2.638   1.052
 4355SOL    HW213602   2.858   2.529   0.951
 4356SOL     OW13603   2.843   3.428   1.719
 4356SOL    HW113604   2.828   3.472   1.635
 4356SOL    HW213605   2.887   3.347   1.696
 4357SOL     OW13606   3.715   3.366   1.605
 4357SOL    HW113607   3.735   3.392   1.515
 4357SOL    HW213608   3.796   3.382   1.653
 4358SOL     OW13609   2.218   2.789   1.812
 4358SOL    HW113610   2.301   2.803   1.858
 4358SOL    HW213611   2.240   2.732   1.739
 4359SOL     OW13612   3.392   2.160   0.113
 4359SOL    HW113613   3.336   2.084   0.128
 4359SOL    HW213614   3.429   2.181   0.199
 4360SOL     OW13615   3.147   2.680   0.032
 4360SOL    HW113616   3.191   2.596   0.043
 4360SOL    HW213617   3.190   2.721  11.056
 4361SOL     OW13618   2.929   3.199   0.855
 4361SOL    HW113619   2.933   3.127   0.792
 4361SOL    HW213620   2.989   3.264   0.820
 4362SOL     OW13621   2.171   2.681   0.942
 4362SOL    HW113622   2.264   2.701   0.932
 4362SOL    HW213623   2.169   2.601   0.994
 4363SOL     OW13624   2.996   2.237   1.683
 4363SOL    HW113625   2.948   2.291   1.746
 4363SOL    HW213626   3.083   2.276   1.680
 4364SOL     OW13627   3.026   2.063   1.471
 4364SOL    HW113628   3.013   2.126   1.542
 4364SOL    HW213629   3.067   2.114   1.401
 4365SOL     OW13630   1.871   3.189   0.195
 4365SOL    HW113631   1.785   3.201   0.156
 4365SOL    HW213632   1.870   3.098   0.226
 4366SOL     OW13633   1.952   3.647   0.941
 4366SOL    HW113634   1.922   3.568   0.895
 4366SOL    HW213635   2.042   3.660   0.909
 4367SOL     OW13636   2.356   3.436   0.905
 4367SOL    HW113637   2.425   3.498   0.930
 4367SOL    HW213638   2.400   3.374   0.848
 4368SOL     OW13639   2.842   2.656   1.224
 4368SOL    HW113640   2.894   2.631   1.300
 4368SOL    HW213641   2.758   2.612   1.236
 4369SOL     OW13642   1.900   2.424   1.120
 4369SOL    HW113643   1.934   2.345   1.076
 4369SOL    HW213644   1.925   2.412   1.212
 4370SOL     OW13645   3.241   2.798   1.658
 4370SOL    HW113646   3.262   2.892   1.655
 4370SOL    HW213647   3.237   2.772   1.566
 4371SOL     OW13648   2.677   2.434   0.372
 4371SOL    HW113649   2.685   2.363   0.309
 4371SOL    HW213650   2.604   2.487   0.340
 4372SOL     OW13651   3.503   2.463   1.183
 4372SOL    HW113652   3.493   2.405   1.258
 4372SOL    HW213653   3.591   2.444   1.149
 4373SOL     OW13654   2.103   3.412   1.725
 4373SOL    HW113655   2.081   3.477   1.792
 4373SOL    HW213656   2.108   3.329   1.773
 4374SOL     OW13657   2.582   2.311   1.251
 4374SOL    HW113658   2.540   2.235   1.210
 4374SOL    HW213659   2.577   2.380   1.185
 4375SOL     OW13660   2.786   3.541   1.469
 4375SOL    HW113661   2.762   3.504   1.385
 4375SOL    HW213662   2.781   3.636   1.456
 4376SOL     OW13663   2.006   3.003   1.475
 4376SOL    HW113664   2.006   2.953   1.556
 4376SOL    HW213665   2.023   2.939   1.406
 4377SOL     OW13666   3.186   2.907   1.221
 4377SOL    HW113667   3.208   2.844   1.153
 4377SOL    HW213668   3.117   2.962   1.182
 4378SOL     OW13669   3.171   2.713   0.310
 4378SOL    HW113670   3.095   2.681   0.359
 4378SOL    HW213671   3.148   2.698   0.218
 4379SOL     OW13672   3.639   3.602   1.154
 4379SOL    HW113673   3.698   3.629   1.084
 4379SOL    HW213674   3.612   3.513   1.131
 4380SOL     OW13675   3.102   3.595   1.110
 4380SOL    HW113676   3.185   3.618   1.066
 4380SOL    HW213677   3.110   3.502   1.129
 4381SOL     OW13678   1.946   3.129   1.012
 4381SOL    HW113679   1.931   3.143   1.105
 4381SOL    HW213680   1.873   3.074   0.983
 4382SOL     OW13681   2.540   3.530   1.734
 4382SOL    HW113682   2.483   3.607   1.726
 4382SOL    HW213683   2.607   3.543   1.666
 4383SOL     OW13684   2.784   1.955   0.104
 4383SOL    HW113685   2.828   1.916   0.028
 4383SOL    HW213686   2.824   1.913   0.180
 4384SOL     OW13687   3.580   2.013   0.507
 4384SOL    HW113688   3.652   1.999   0.446
 4384SOL    HW213689   3.566   1.927   0.547
 4385SOL     OW13690   3.253   3.430   0.488
 4385SOL    HW113691   3.314   3.462   0.421
 4385SOL    HW213692   3.205   3.508   0.517
 4386SOL     OW13693   2.001   3.657   1.842
 4386SOL    HW113694   1.950   3.591   1.890
 4386SOL    HW213695   2.046   3.707   1.911
 4387SOL     OW13696   3.140   2.788   0.671
 4387SOL    HW113697   3.214   2.727   0.678
 4387SOL    HW213698   3.173   2.860   0.618
 4388SOL     OW13699   2.672   3.138   1.427
 4388SOL    HW113700   2.644   3.177   1.510
 4388SOL    HW213701   2.603   3.159   1.365
 4389SOL     OW13702   2.535   3.486   0.170
 4389SOL    HW113703   2.555   3.492   0.077
 4389SOL    HW213704   2.478   3.409   0.177
 4390SOL     OW13705   3.485   3.589   1.391
 4390SOL    HW113706   3.536   3.595   1.311
 4390SOL    HW213707   3.471   3.680   1.418
 4391SOL     OW13708   3.704   2.034   0.967
 4391SOL    HW113709   3.734   1.946   0.941
 4391SOL    HW213710   3.617   2.043   0.927
 4392SOL     OW13711   3.086   3.462   0.055
 4392SOL    HW113712   3.073   3.369   0.074
 4392SOL    HW213713   3.021   3.481  11.087
 4393SOL     OW13714   2.686   2.869   1.374
 4393SOL    HW113715   2.732   2.861   1.291
 4393SOL    HW213716   2.686   2.963   1.392
 4394SOL     OW13717   2.776   2.768   0.280
 4394SOL    HW113718   2.842   2.809   0.223
 4394SOL    HW213719   2.826   2.706   0.333
 4395SOL     OW13720   3.360   3.484   0.049
 4395SOL    HW113721   3.264   3.477   0.048
 4395SOL    HW213722   3.384   3.498  11.057
 4396SOL     OW13723   2.230   3.166   1.492
 4396SOL    HW113724   2.217   3.242   1.435
 4396SOL    HW213725   2.153   3.111   1.477
 4397SOL     OW13726   3.471   3.145   1.280
 4397SOL    HW113727   3.530   3.131   1.354
 4397SOL    HW213728   3.411   3.213   1.310
 4398SOL     OW13729   2.918   2.970   0.708
 4398SOL    HW113730   2.847   2.919   0.747
 4398SOL    HW213731   2.982   2.904   0.680
 4399SOL     OW13732   2.885   2.103   0.966
 4399SOL    HW113733   2.881   2.055   0.883
 4399SOL    HW213734   2.879   2.034   1.033
 4400SOL     OW13735   2.466   3.352   0.481
 4400SOL    HW113736   2.508   3.300   0.413
 4400SOL    HW213737   2.394   3.397   0.437
 4401SOL     OW13738   3.586   2.254   1.380
 4401SOL    HW113739   3.658   2.317   1.380
 4401SOL    HW213740   3.616   2.183   1.324
 4402SOL     OW13741   2.130   3.197   0.294
 4402SOL    HW113742   2.044   3.198   0.253
 4402SOL    HW213743   2.118   3.238   0.379
 4403SOL     OW13744   1.974   2.887   1.722
 4403SOL    HW113745   1.897   2.863   1.773
 4403SOL    HW213746   2.048   2.850   1.770
 4404SOL     OW13747   2.548   2.040   1.499
 4404SOL    HW113748   2.634   2.022   1.462
 4404SOL    HW213749   2.566   2.085   1.582
 4405SOL     OW13750   1.926   2.203   0.076
 4405SOL    HW113751   1.864   2.187   0.005
 4405SOL    HW213752   2.006   2.233   0.032
 4406SOL     OW13753   3.290   2.720   1.399
 4406SOL    HW113754   3.241   2.781   1.344
 4406SOL    HW213755   3.379   2.722   1.364
 4407SOL     OW13756   1.931   2.019   0.303
 4407SOL    HW113757   1.911   2.093   0.245
 4407SOL    HW213758   2.012   1.983   0.268
 4408SOL     OW13759   3.047   3.199   0.123
 4408SOL    HW113760   2.952   3.184   0.114
 4408SOL    HW213761   3.063   3.191   0.216
 4409SOL     OW13762   2.483   2.695   1.429
 4409SOL    HW113763   2.540   2.771   1.415
 4409SOL    HW213764   2.544   2.621   1.438
 4410SOL     OW13765   3.345   3.642   0.981
 4410SOL    HW113766   3.367   3.704   0.912
 4410SOL    HW213767   3.429   3.618   1.020
 4411SOL     OW13768   2.578   2.423   1.702
 4411SOL    HW113769   2.622   2.485   1.761
 4411SOL    HW213770   2.601   2.337   1.736
 4412SOL     OW13771   3.335   3.060   1.631
 4412SOL    HW113772   3.323   3.074   1.725
 4412SOL    HW213773   3.428   3.076   1.616
 4413SOL     OW13774   2.238   3.602   1.565
 4413SOL    HW113775   2.154   3.645   1.550
 4413SOL    HW213776   2.214   3.519   1.607
 4414SOL     OW13777   3.529   2.742   1.255
 4414SOL    HW113778   3.524   2.657   1.212
 4414SOL    HW213779   3.519   2.806   1.184
 4415SOL     OW13780   3.076   2.178   0.461
 4415SOL    HW113781   3.141   2.108   0.451
 4415SOL    HW213782   3.106   2.228   0.536
 4416SOL     OW13783   2.453   2.602   0.656
 4416SOL    HW113784   2.491   2.690   0.646
 4416SOL    HW213785   2.384   2.598   0.591
 4417SOL     OW13786   3.621   2.225   1.652
 4417SOL    HW113787   3.606   2.240   1.558
 4417SOL    HW213788   3.549   2.168   1.679
 4418SOL     OW13789   3.609   2.795   1.512
 4418SOL    HW113790   3.601   2.890   1.524
 4418SOL    HW213791   3.592   2.782   1.418
 4419SOL     OW13792   2.772   3.217   0.075
 4419SOL    HW113793   2.704   3.212   0.142
 4419SOL    HW213794   2.752   3.297   0.026
 4420SOL     OW13795   2.524   3.650   0.942
 4420SOL    HW113796   2.505   3.741   0.920
 4420SOL    HW213797   2.619   3.643   0.935
 4421SOL     OW13798   2.731   2.831   0.855
 4421SOL    HW113799   2.779   2.757   0.892
 4421SOL    HW213800   2.695   2.877   0.930
 4422SOL     OW13801   2.940   2.851   0.083
 4422SOL    HW113802   2.915   2.884  11.097
 4422SOL    HW213803   3.016   2.795   0.066
 4423SOL     OW13804   3.714   3.417   0.844
 4423SOL    HW113805   3.636   3.404   0.790
 4423SOL    HW213806   3.708   3.348   0.911
 4424SOL     OW13807   2.087   3.163   1.854
 4424SOL    HW113808   2.022   3.100   1.822
 4424SOL    HW213809   2.063   3.177   1.946
 4425SOL     OW13810   1.947   3.094   0.667
 4425SOL    HW113811   1.954   3.046   0.749
 4425SOL    HW213812   2.016   3.058   0.611
 4426SOL     OW13813   2.544   3.268   1.629
 4426SOL    HW113814   2.465   3.224   1.661
 4426SOL    HW213815   2.540   3.355   1.667
 4427SOL     OW13816   3.674   2.045   1.237
 4427SOL    HW113817   3.682   1.951   1.251
 4427SOL    HW213818   3.684   2.057   1.143
 4428SOL     OW13819   3.559   3.351   1.095
 4428SOL    HW113820   3.480   3.329   1.046
 4428SOL    HW213821   3.568   3.280   1.159
 4429SOL     OW13822   2.691   3.440   0.677
 4429SOL    HW113823   2.672   3.497   0.602
 4429SOL    HW213824   2.616   3.380   0.681
 4430SOL     OW13825   3.293   2.089   1.117
 4430SOL    HW113826   3.315   2.007   1.161
 4430SOL    HW213827   3.242   2.138   1.181
 4431SOL     OW13828   2.872   1.879   1.138
 4431SOL    HW113829   2.818   1.811   1.098
 4431SOL    HW213830   2.960   1.841   1.140
 4432SOL     OW13831   2.632   3.189   0.319
 4432SOL    HW113832   2.604   3.099   0.334
 4432SOL    HW213833   2.714   3.197   0.367
 4433SOL     OW13834   2.482   3.417   1.286
 4433SOL    HW113835   2.483   3.499   1.335
 4433SOL    HW213836   2.569   3.410   1.248
 4434SOL     OW13837   3.213   1.918   0.165
 4434SOL    HW113838   3.235   1.865   0.089
 4434SOL    HW213839   3.126   1.888   0.191
 4435SOL     OW13840   3.158   2.324   0.679
 4435SOL    HW113841   3.106   2.404   0.685
 4435SOL    HW213842   3.154   2.286   0.767
 4436SOL     OW13843   3.448   2.061   0.880
 4436SOL    HW113844   3.390   2.083   0.952
 4436SOL    HW213845   3.447   2.138   0.824
 4437SOL     OW13846   1.903   2.930   0.303
 4437SOL    HW113847   1.998   2.923   0.295
 4437SOL    HW213848   1.875   2.842   0.328
 4438SOL     OW13849   2.749   3.519   0.347
 4438SOL    HW113850   2.675   3.500   0.289
 4438SOL    HW213851   2.719   3.593   0.401
 4439SOL     OW13852   2.077   2.539   1.998
 4439SOL    HW113853   1.990   2.510   2.024
 4439SOL    HW213854   2.103   2.479   1.928
 4440SOL     OW13855   1.993   2.151   2.941
 4440SOL    HW113856   2.056   2.088   2.978
 4440SOL    HW213857   1.930   2.097   2.894
 4441SOL     OW13858   1.851   2.248   2.490
 4441SOL    HW113859   1.771   2.271   2.537
 4441SOL    HW213860   1.832   2.161   2.454
 4442SOL     OW13861   2.429   3.154   3.040
 4442SOL    HW113862   2.342   3.159   3.000
 4442SOL    HW213863   2.445   3.242   3.074
 4443SOL     OW13864   3.427   3.375   2.570
 4443SOL    HW113865   3.385   3.353   2.653
 4443SOL    HW213866   3.356   3.378   2.506
 4444SOL     OW13867   2.994   2.560   2.558
 4444SOL    HW113868   3.041   2.642   2.548
 4444SOL    HW213869   2.947   2.568   2.641
 4445SOL     OW13870   3.634   2.465   2.089
 4445SOL    HW113871   3.610   2.458   1.996
 4445SOL    HW213872   3.595   2.387   2.129
 4446SOL     OW13873   2.612   3.001   2.904
 4446SOL    HW113874   2.544   3.037   2.962
 4446SOL    HW213875   2.650   3.078   2.861
 4447SOL     OW13876   2.733   2.633   3.685
 4447SOL    HW113877   2.720   2.703   3.749
 4447SOL    HW213878   2.757   2.678   3.604
 4448SOL     OW13879   2.548   2.863   2.507
 4448SOL    HW113880   2.615   2.853   2.576
 4448SOL    HW213881   2.481   2.918   2.547
 4449SOL     OW13882   2.574   3.012   3.677
 4449SOL    HW113883   2.622   3.090   3.705
 4449SOL    HW213884   2.492   3.046   3.640
 4450SOL     OW13885   2.193   3.283   2.929
 4450SOL    HW113886   2.119   3.245   2.881
 4450SOL    HW213887   2.240   3.334   2.864
 4451SOL     OW13888   3.322   3.363   3.220
 4451SOL    HW113889   3.375   3.442   3.229
 4451SOL    HW213890   3.256   3.370   3.289
 4452SOL     OW13891   3.471   2.308   2.604
 4452SOL    HW113892   3.396   2.328   2.548
 4452SOL    HW213893   3.481   2.385   2.659
 4453SOL     OW13894   2.081   3.577   2.333
 4453SOL    HW113895   2.102   3.653   2.387
 4453SOL    HW213896   2.155   3.569   2.272
 4454SOL     OW13897   2.999   3.204   3.556
 4454SOL    HW113898   3.040   3.198   3.642
 4454SOL    HW213899   2.947   3.124   3.548
 4455SOL     OW13900   2.094   3.304   2.399
 4455SOL    HW113901   2.076   3.398   2.400
 4455SOL    HW213902   2.034   3.267   2.463
 4456SOL     OW13903   2.125   2.958   2.752
 4456SOL    HW113904   2.118   2.869   2.788
 4456SOL    HW213905   2.065   3.010   2.806
 4457SOL     OW13906   2.470   3.653   3.290
 4457SOL    HW113907   2.388   3.635   3.337
 4457SOL    HW213908   2.493   3.742   3.316
 4458SOL     OW13909   2.447   2.844   1.993
 4458SOL    HW113910   2.495   2.894   1.926
 4458SOL    HW213911   2.484   2.874   2.076
 4459SOL     OW13912   3.458   1.987   3.329
 4459SOL    HW113913   3.472   2.068   3.279
 4459SOL    HW213914   3.441   2.016   3.418
 4460SOL     OW13915   1.967   2.504   2.424
 4460SOL    HW113916   1.936   2.417   2.447
 4460SOL    HW213917   1.964   2.554   2.506
 4461SOL     OW13918   3.705   3.619   2.195
 4461SOL    HW113919   3.771   3.592   2.258
 4461SOL    HW213920   3.726   3.710   2.176
 4462SOL     OW13921   1.897   3.455   1.985
 4462SOL    HW113922   1.877   3.363   2.005
 4462SOL    HW213923   1.872   3.503   2.064
 4463SOL     OW13924   3.551   2.781   2.506
 4463SOL    HW113925   3.634   2.738   2.485
 4463SOL    HW213926   3.529   2.831   2.427
 4464SOL     OW13927   3.510   2.967   2.291
 4464SOL    HW113928   3.596   2.970   2.250
 4464SOL    HW213929   3.515   3.029   2.363
 4465SOL     OW13930   1.985   2.600   3.445
 4465SOL    HW113931   2.075   2.622   3.470
 4465SOL    HW213932   1.936   2.680   3.461
 4466SOL     OW13933   2.477   3.250   2.597
 4466SOL    HW113934   2.431   3.167   2.606
 4466SOL    HW213935   2.460   3.277   2.507
 4467SOL     OW13936   3.149   3.099   3.284
 4467SOL    HW113937   3.180   3.031   3.224
 4467SOL    HW213938   3.208   3.093   3.359
 4468SOL     OW13939   2.671   1.865   2.366
 4468SOL    HW113940   2.715   1.948   2.348
 4468SOL    HW213941   2.578   1.888   2.373
 4469SOL     OW13942   2.050   2.828   3.136
 4469SOL    HW113943   2.135   2.789   3.115
 4469SOL    HW213944   1.987   2.778   3.085
 4470SOL     OW13945   3.393   2.858   2.062
 4470SOL    HW113946   3.324   2.801   2.094
 4470SOL    HW213947   3.435   2.892   2.141
 4471SOL     OW13948   3.046   3.671   3.486
 4471SOL    HW113949   3.055   3.731   3.412
 4471SOL    HW213950   3.064   3.585   3.449
 4472SOL     OW13951   3.329   3.281   2.811
 4472SOL    HW113952   3.262   3.297   2.877
 4472SOL    HW213953   3.316   3.190   2.785
 4473SOL     OW13954   3.518   3.607   2.440
 4473SOL    HW113955   3.500   3.576   2.351
 4473SOL    HW213956   3.496   3.533   2.496
 4474SOL     OW13957   2.465   2.586   2.130
 4474SOL    HW113958   2.481   2.657   2.068
 4474SOL    HW213959   2.379   2.605   2.166
 4475SOL     OW13960   3.142   2.219   2.795
 4475SOL    HW113961   3.052   2.187   2.803
 4475SOL    HW213962   3.193   2.165   2.855
 4476SOL     OW13963   3.441   3.534   2.172
 4476SOL    HW113964   3.532   3.563   2.164
 4476SOL    HW213965   3.414   3.517   2.082
 4477SOL     OW13966   2.644   2.463   3.306
 4477SOL    HW113967   2.630   2.454   3.401
 4477SOL    HW213968   2.595   2.390   3.268
 4478SOL     OW13969   3.255   2.336   3.540
 4478SOL    HW113970   3.259   2.380   3.625
 4478SOL    HW213971   3.314   2.261   3.549
 4479SOL     OW13972   2.814   2.747   3.445
 4479SOL    HW113973   2.868   2.678   3.407
 4479SOL    HW213974   2.766   2.784   3.371
 4480SOL     OW13975   2.863   2.272   3.096
 4480SOL    HW113976   2.784   2.318   3.123
 4480SOL    HW213977   2.841   2.234   3.011
 4481SOL     OW13978   2.912   2.560   2.287
 4481SOL    HW113979   2.931   2.553   2.381
 4481SOL    HW213980   2.829   2.513   2.276
 4482SOL     OW13981   1.950   2.684   2.636
 4482SOL    HW113982   2.031   2.680   2.687
 4482SOL    HW213983   1.903   2.760   2.671
 4483SOL     OW13984   1.987   3.721   3.443
 4483SOL    HW113985   1.990   3.698   3.535
 4483SOL    HW213986   1.899   3.697   3.415
 4484SOL     OW13987   2.758   2.215   2.059
 4484SOL    HW113988   2.801   2.273   1.997
 4484SOL    HW213989   2.752   2.131   2.013
 4485SOL     OW13990   3.569   2.434   3.691
 4485SOL    HW113991   3.532   2.508   3.642
 4485SOL    HW213992   3.597   2.372   3.623
 4486SOL     OW13993   3.241   3.004   2.402
 4486SOL    HW113994   3.320   2.992   2.350
 4486SOL    HW213995   3.188   3.066   2.352
 4487SOL     OW13996   2.440   2.025   2.731
 4487SOL    HW113997   2.444   2.036   2.826
 4487SOL    HW213998   2.442   2.114   2.696
 4488SOL     OW13999   2.865   3.305   2.332
 4488SOL    HW114000   2.831   3.380   2.283
 4488SOL    HW214001   2.845   3.326   2.424
 4489SOL     OW14002   2.216   3.673   2.728
 4489SOL    HW114003   2.260   3.588   2.734
 4489SOL    HW214004   2.285   3.737   2.746
 4490SOL     OW14005   3.661   2.919   2.732
 4490SOL    HW114006   3.608   2.898   2.655
 4490SOL    HW214007   3.598   2.924   2.804
 4491SOL     OW14008   3.089   3.401   3.375
 4491SOL    HW114009   3.077   3.329   3.436
 4491SOL    HW214010   3.024   3.386   3.306
 4492SOL     OW14011   2.186   2.803   2.120
 4492SOL    HW114012   2.261   2.826   2.064
 4492SOL    HW214013   2.145   2.729   2.075
 4493SOL     OW14014   3.342   2.608   2.586
 4493SOL    HW114015   3.335   2.566   2.672
 4493SOL    HW214016   3.420   2.663   2.593
 4494SOL     OW14017   2.330   3.128   3.599
 4494SOL    HW114018   2.303   3.133   3.508
 4494SOL    HW214019   2.248   3.125   3.648
 4495SOL     OW14020   2.985   3.640   2.092
 4495SOL    HW114021   2.910   3.599   2.137
 4495SOL    HW214022   3.009   3.578   2.024
 4496SOL     OW14023   1.975   2.094   3.361
 4496SOL    HW114024   1.923   2.172   3.377
 4496SOL    HW214025   1.996   2.061   3.448
 4497SOL     OW14026   3.491   3.243   1.951
 4497SOL    HW114027   3.449   3.328   1.936
 4497SOL    HW214028   3.422   3.179   1.931
 4498SOL     OW14029   2.327   3.599   2.182
 4498SOL    HW114030   2.371   3.655   2.245
 4498SOL    HW214031   2.398   3.566   2.126
 4499SOL     OW14032   3.263   1.970   2.298
 4499SOL    HW114033   3.253   1.944   2.206
 4499SOL    HW214034   3.357   1.975   2.312
 4500SOL     OW14035   2.118   3.653   3.093
 4500SOL    HW114036   2.169   3.584   3.136
 4500SOL    HW214037   2.108   3.621   3.003
 4501SOL     OW14038   2.800   3.561   2.760
 4501SOL    HW114039   2.879   3.511   2.781
 4501SOL    HW214040   2.758   3.511   2.690
 4502SOL     OW14041   3.394   2.087   3.587
 4502SOL    HW114042   3.404   2.107   3.680
 4502SOL    HW214043   3.326   2.019   3.585
 4503SOL     OW14044   2.512   1.991   1.957
 4503SOL    HW114045   2.561   1.920   1.998
 4503SOL    HW214046   2.458   1.948   1.891
 4504SOL     OW14047   2.630   2.140   3.618
 4504SOL    HW114048   2.708   2.085   3.614
 4504SOL    HW214049   2.582   2.108   3.694
 4505SOL     OW14050   2.737   3.384   3.056
 4505SOL    HW114051   2.722   3.347   2.969
 4505SOL    HW214052   2.808   3.330   3.093
 4506SOL     OW14053   3.199   2.453   3.296
 4506SOL    HW114054   3.232   2.421   3.380
 4506SOL    HW214055   3.238   2.540   3.287
 4507SOL     OW14056   2.679   3.254   2.805
 4507SOL    HW114057   2.763   3.242   2.762
 4507SOL    HW214058   2.615   3.258   2.733
 4508SOL     OW14059   2.803   2.367   2.774
 4508SOL    HW114060   2.758   2.367   2.690
 4508SOL    HW214061   2.831   2.277   2.787
 4509SOL     OW14062   2.400   1.941   2.361
 4509SOL    HW114063   2.364   1.944   2.450
 4509SOL    HW214064   2.376   2.025   2.322
 4510SOL     OW14065   3.290   3.061   1.902
 4510SOL    HW114066   3.320   2.986   1.953
 4510SOL    HW214067   3.205   3.083   1.940
 4511SOL     OW14068   2.801   2.108   2.317
 4511SOL    HW114069   2.779   2.149   2.233
 4511SOL    HW214070   2.896   2.121   2.326
 4512SOL     OW14071   2.938   2.542   3.317
 4512SOL    HW114072   2.879   2.467   3.327
 4512SOL    HW214073   3.025   2.502   3.312
 4513SOL     OW14074   3.083   3.433   2.656
 4513SOL    HW114075   3.099   3.499   2.589
 4513SOL    HW214076   3.153   3.448   2.721
 4514SOL     OW14077   2.333   3.013   2.590
 4514SOL    HW114078   2.265   2.996   2.655
 4514SOL    HW214079   2.291   2.997   2.506
 4515SOL     OW14080   3.129   3.655   2.472
 4515SOL    HW114081   3.176   3.716   2.416
 4515SOL    HW214082   3.062   3.708   2.514
 4516SOL     OW14083   2.886   2.401   1.886
 4516SOL    HW114084   2.842   2.484   1.868
 4516SOL    HW214085   2.951   2.422   1.953
 4517SOL     OW14086   1.940   2.422   3.249
 4517SOL    HW114087   2.032   2.397   3.253
 4517SOL    HW214088   1.929   2.489   3.316
 4518SOL     OW14089   2.436   2.028   3.002
 4518SOL    HW114090   2.456   1.972   3.077
 4518SOL    HW214091   2.359   2.077   3.029
 4519SOL     OW14092   2.735   2.317   2.499
 4519SOL    HW114093   2.693   2.375   2.436
 4519SOL    HW214094   2.758   2.239   2.449
 4520SOL     OW14095   2.880   1.914   2.611
 4520SOL    HW114096   2.819   1.909   2.537
 4520SOL    HW214097   2.857   1.840   2.666
 4521SOL     OW14098   3.300   3.024   2.719
 4521SOL    HW114099   3.230   2.958   2.719
 4521SOL    HW214100   3.324   3.033   2.627
 4522SOL     OW14101   3.328   2.469   2.834
 4522SOL    HW114102   3.274   2.391   2.837
 4522SOL    HW214103   3.386   2.462   2.910
 4523SOL     OW14104   3.706   2.676   2.246
 4523SOL    HW114105   3.763   2.625   2.304
 4523SOL    HW214106   3.679   2.613   2.179
 4524SOL     OW14107   2.351   3.282   2.016
 4524SOL    HW114108   2.276   3.253   2.068
 4524SOL    HW214109   2.341   3.237   1.933
 4525SOL     OW14110   3.535   3.126   2.505
 4525SOL    HW114111   3.630   3.127   2.520
 4525SOL    HW214112   3.506   3.215   2.527
 4526SOL     OW14113   3.256   2.434   1.934
 4526SOL    HW114114   3.194   2.414   2.004
 4526SOL    HW214115   3.340   2.402   1.966
 4527SOL     OW14116   3.613   3.103   3.431
 4527SOL    HW114117   3.700   3.063   3.427
 4527SOL    HW214118   3.628   3.193   3.460
 4528SOL     OW14119   2.919   3.217   3.195
 4528SOL    HW114120   2.844   3.185   3.246
 4528SOL    HW214121   2.995   3.174   3.236
 4529SOL     OW14122   3.471   3.489   3.518
 4529SOL    HW114123   3.463   3.522   3.429
 4529SOL    HW214124   3.553   3.440   3.519
 4530SOL     OW14125   2.995   3.070   2.966
 4530SOL    HW114126   2.933   3.106   3.030
 4530SOL    HW214127   2.963   3.102   2.882
 4531SOL     OW14128   3.487   2.958   2.939
 4531SOL    HW114129   3.482   3.021   3.011
 4531SOL    HW214130   3.409   2.976   2.886
 4532SOL     OW14131   2.786   1.955   3.257
 4532SOL    HW114132   2.806   1.938   3.165
 4532SOL    HW214133   2.866   1.995   3.292
 4533SOL     OW14134   2.846   2.976   3.584
 4533SOL    HW114135   2.755   2.993   3.607
 4533SOL    HW214136   2.844   2.898   3.529
 4534SOL     OW14137   2.571   2.924   2.231
 4534SOL    HW114138   2.557   2.906   2.325
 4534SOL    HW214139   2.646   2.870   2.207
 4535SOL     OW14140   2.283   2.677   3.113
 4535SOL    HW114141   2.354   2.695   3.175
 4535SOL    HW214142   2.240   2.598   3.147
 4536SOL     OW14143   3.131   2.237   3.141
 4536SOL    HW114144   3.161   2.316   3.186
 4536SOL    HW214145   3.041   2.256   3.117
 4537SOL     OW14146   1.934   3.436   3.218
 4537SOL    HW114147   1.905   3.508   3.161
 4537SOL    HW214148   2.029   3.437   3.210
 4538SOL     OW14149   2.209   2.971   2.347
 4538SOL    HW114150   2.213   3.049   2.291
 4538SOL    HW214151   2.204   2.898   2.286
 4539SOL     OW14152   2.523   2.445   2.709
 4539SOL    HW114153   2.501   2.483   2.625
 4539SOL    HW214154   2.468   2.491   2.772
 4540SOL     OW14155   3.110   3.211   2.251
 4540SOL    HW114156   3.166   3.282   2.283
 4540SOL    HW214157   3.023   3.232   2.285
 4541SOL     OW14158   3.147   3.321   3.009
 4541SOL    HW114159   3.202   3.324   3.087
 4541SOL    HW214160   3.092   3.244   3.022
 4542SOL     OW14161   3.442   2.484   2.343
 4542SOL    HW114162   3.393   2.533   2.409
 4542SOL    HW214163   3.485   2.551   2.290
 4543SOL     OW14164   2.208   3.392   3.174
 4543SOL    HW114165   2.196   3.347   3.090
 4543SOL    HW214166   2.302   3.402   3.182
 4544SOL     OW14167   2.281   2.610   3.460
 4544SOL    HW114168   2.347   2.657   3.408
 4544SOL    HW214169   2.316   2.521   3.468
 4545SOL     OW14170   3.467   2.642   3.546
 4545SOL    HW114171   3.381   2.683   3.540
 4545SOL    HW214172   3.519   2.684   3.478
 4546SOL     OW14173   2.858   1.990   3.613
 4546SOL    HW114174   2.918   2.061   3.589
 4546SOL    HW214175   2.906   1.910   3.590
 4547SOL     OW14176   2.355   1.899   3.612
 4547SOL    HW114177   2.317   1.839   3.547
 4547SOL    HW214178   2.295   1.973   3.614
 4548SOL     OW14179   2.441   2.726   2.888
 4548SOL    HW114180   2.480   2.813   2.883
 4548SOL    HW214181   2.390   2.728   2.970
 4549SOL     OW14182   3.215   2.720   2.888
 4549SOL    HW114183   3.130   2.707   2.847
 4549SOL    HW214184   3.259   2.636   2.880
 4550SOL     OW14185   3.064   2.390   2.127
 4550SOL    HW114186   3.072   2.312   2.181
 4550SOL    HW214187   3.020   2.454   2.183
 4551SOL     OW14188   1.911   3.173   3.137
 4551SOL    HW114189   1.941   3.118   3.210
 4551SOL    HW214190   1.915   3.262   3.172
 4552SOL     OW14191   2.625   2.519   2.966
 4552SOL    HW114192   2.652   2.467   2.890
 4552SOL    HW214193   2.573   2.590   2.930
 4553SOL     OW14194   3.598   2.822   3.717
 4553SOL    HW114195   3.554   2.757   3.662
 4553SOL    HW214196   3.538   2.837   3.790
 4554SOL     OW14197   3.482   2.239   2.226
 4554SOL    HW114198   3.508   2.174   2.291
 4554SOL    HW214199   3.458   2.316   2.277
 4555SOL     OW14200   2.893   2.622   2.820
 4555SOL    HW114201   2.886   2.642   2.914
 4555SOL    HW214202   2.862   2.532   2.813
 4556SOL     OW14203   2.843   3.428   3.581
 4556SOL    HW114204   2.828   3.472   3.497
 4556SOL    HW214205   2.887   3.346   3.558
 4557SOL     OW14206   3.715   3.366   3.467
 4557SOL    HW114207   3.735   3.392   3.377
 4557SOL    HW214208   3.796   3.382   3.515
 4558SOL     OW14209   2.218   2.782   3.668
 4558SOL    HW114210   2.299   2.798   3.717
 4558SOL    HW214211   2.244   2.720   3.599
 4559SOL     OW14212   3.390   2.134   1.989
 4559SOL    HW114213   3.325   2.069   2.016
 4559SOL    HW214214   3.423   2.170   2.071
 4560SOL     OW14215   3.151   2.687   1.891
 4560SOL    HW114216   3.194   2.602   1.896
 4560SOL    HW214217   3.183   2.726   1.810
 4561SOL     OW14218   2.929   3.199   2.717
 4561SOL    HW114219   2.933   3.126   2.654
 4561SOL    HW214220   2.989   3.264   2.682
 4562SOL     OW14221   2.169   2.683   2.806
 4562SOL    HW114222   2.263   2.699   2.804
 4562SOL    HW214223   2.160   2.599   2.852
 4563SOL     OW14224   2.995   2.239   3.544
 4563SOL    HW114225   2.948   2.292   3.608
 4563SOL    HW214226   3.083   2.277   3.541
 4564SOL     OW14227   3.026   2.063   3.333
 4564SOL    HW114228   3.013   2.127   3.404
 4564SOL    HW214229   3.067   2.113   3.263
 4565SOL     OW14230   1.868   3.180   2.056
 4565SOL    HW114231   1.781   3.196   2.019
 4565SOL    HW214232   1.863   3.091   2.091
 4566SOL     OW14233   1.952   3.646   2.802
 4566SOL    HW114234   1.922   3.568   2.756
 4566SOL    HW214235   2.041   3.660   2.770
 4567SOL     OW14236   2.356   3.436   2.767
 4567SOL    HW114237   2.425   3.498   2.792
 4567SOL    HW214238   2.400   3.373   2.710
 4568SOL     OW14239   2.841   2.661   3.087
 4568SOL    HW114240   2.886   2.629   3.165
 4568SOL    HW214241   2.763   2.607   3.080
 4569SOL     OW14242   1.910   2.406   2.977
 4569SOL    HW114243   1.942   2.320   2.950
 4569SOL    HW214244   1.926   2.410   3.071
 4570SOL     OW14245   3.240   2.799   3.520
 4570SOL    HW114246   3.262   2.892   3.517
 4570SOL    HW214247   3.238   2.772   3.428
 4571SOL     OW14248   2.675   2.429   2.229
 4571SOL    HW114249   2.684   2.359   2.165
 4571SOL    HW214250   2.603   2.483   2.196
 4572SOL     OW14251   3.503   2.463   3.045
 4572SOL    HW114252   3.493   2.404   3.120
 4572SOL    HW214253   3.590   2.444   3.011
 4573SOL     OW14254   2.103   3.412   3.587
 4573SOL    HW114255   2.081   3.477   3.654
 4573SOL    HW214256   2.107   3.329   3.635
 4574SOL     OW14257   2.786   3.541   3.331
 4574SOL    HW114258   2.762   3.504   3.247
 4574SOL    HW214259   2.781   3.636   3.318
 4575SOL     OW14260   2.006   3.003   3.337
 4575SOL    HW114261   2.006   2.953   3.418
 4575SOL    HW214262   2.022   2.938   3.269
 4576SOL     OW14263   3.186   2.907   3.083
 4576SOL    HW114264   3.208   2.843   3.015
 4576SOL    HW214265   3.117   2.961   3.044
 4577SOL     OW14266   3.176   2.720   2.167
 4577SOL    HW114267   3.102   2.688   2.219
 4577SOL    HW214268   3.149   2.705   2.076
 4578SOL     OW14269   3.639   3.602   3.016
 4578SOL    HW114270   3.698   3.629   2.946
 4578SOL    HW214271   3.612   3.513   2.993
 4579SOL     OW14272   3.102   3.595   2.972
 4579SOL    HW114273   3.185   3.617   2.928
 4579SOL    HW214274   3.110   3.502   2.991
 4580SOL     OW14275   1.947   3.129   2.873
 4580SOL    HW114276   1.932   3.143   2.967
 4580SOL    HW214277   1.873   3.075   2.845
 4581SOL     OW14278   2.540   3.530   3.596
 4581SOL    HW114279   2.483   3.607   3.589
 4581SOL    HW214280   2.607   3.544   3.529
 4582SOL     OW14281   3.582   2.012   2.369
 4582SOL    HW114282   3.654   1.997   2.308
 4582SOL    HW214283   3.566   1.927   2.410
 4583SOL     OW14284   3.253   3.430   2.349
 4583SOL    HW114285   3.313   3.463   2.282
 4583SOL    HW214286   3.204   3.506   2.378
 4584SOL     OW14287   2.001   3.657   3.704
 4584SOL    HW114288   1.950   3.591   3.752
 4584SOL    HW214289   2.046   3.706   3.772
 4585SOL     OW14290   3.140   2.790   2.534
 4585SOL    HW114291   3.213   2.729   2.542
 4585SOL    HW214292   3.174   2.861   2.481
 4586SOL     OW14293   2.673   3.138   3.289
 4586SOL    HW114294   2.644   3.177   3.372
 4586SOL    HW214295   2.603   3.159   3.227
 4587SOL     OW14296   2.532   3.485   2.017
 4587SOL    HW114297   2.544   3.498   1.923
 4587SOL    HW214298   2.476   3.407   2.024
 4588SOL     OW14299   3.485   3.589   3.253
 4588SOL    HW114300   3.536   3.595   3.173
 4588SOL    HW214301   3.471   3.680   3.280
 4589SOL     OW14302   3.704   2.034   2.829
 4589SOL    HW114303   3.733   1.946   2.803
 4589SOL    HW214304   3.618   2.043   2.789
 4590SOL     OW14305   3.070   3.466   1.894
 4590SOL    HW114306   3.059   3.375   1.921
 4590SOL    HW214307   3.005   3.479   1.826
 4591SOL     OW14308   2.685   2.869   3.237
 4591SOL    HW114309   2.734   2.857   3.156
 4591SOL    HW214310   2.686   2.963   3.253
 4592SOL     OW14311   2.778   2.772   2.152
 4592SOL    HW114312   2.839   2.804   2.086
 4592SOL    HW214313   2.826   2.704   2.198
 4593SOL     OW14314   3.352   3.489   1.905
 4593SOL    HW114315   3.258   3.480   1.891
 4593SOL    HW214316   3.390   3.495   1.818
 4594SOL     OW14317   2.231   3.165   3.353
 4594SOL    HW114318   2.217   3.242   3.298
 4594SOL    HW214319   2.153   3.111   3.339
 4595SOL     OW14320   3.471   3.145   3.142
 4595SOL    HW114321   3.530   3.131   3.216
 4595SOL    HW214322   3.411   3.213   3.172
 4596SOL     OW14323   2.918   2.970   2.571
 4596SOL    HW114324   2.846   2.918   2.609
 4596SOL    HW214325   2.982   2.905   2.543
 4597SOL     OW14326   2.887   2.101   2.828
 4597SOL    HW114327   2.882   2.053   2.745
 4597SOL    HW214328   2.880   2.033   2.895
 4598SOL     OW14329   2.467   3.350   2.343
 4598SOL    HW114330   2.513   3.300   2.276
 4598SOL    HW214331   2.394   3.391   2.296
 4599SOL     OW14332   3.586   2.254   3.242
 4599SOL    HW114333   3.658   2.317   3.241
 4599SOL    HW214334   3.616   2.183   3.186
 4600SOL     OW14335   2.123   3.204   2.153
 4600SOL    HW114336   2.030   3.202   2.129
 4600SOL    HW214337   2.123   3.243   2.241
 4601SOL     OW14338   1.975   2.887   3.583
 4601SOL    HW114339   1.899   2.862   3.636
 4601SOL    HW214340   2.049   2.848   3.629
 4602SOL     OW14341   2.546   2.050   3.355
 4602SOL    HW114342   2.632   2.025   3.321
 4602SOL    HW214343   2.565   2.089   3.441
 4603SOL     OW14344   1.901   2.188   1.913
 4603SOL    HW114345   1.826   2.149   1.868
 4603SOL    HW214346   1.917   2.270   1.866
 4604SOL     OW14347   3.290   2.720   3.261
 4604SOL    HW114348   3.241   2.781   3.206
 4604SOL    HW214349   3.379   2.722   3.225
 4605SOL     OW14350   1.930   2.020   2.166
 4605SOL    HW114351   1.905   2.087   2.102
 4605SOL    HW214352   2.020   2.041   2.190
 4606SOL     OW14353   3.040   3.199   1.979
 4606SOL    HW114354   2.950   3.168   1.981
 4606SOL    HW214355   3.068   3.200   2.071
 4607SOL     OW14356   2.485   2.691   3.292
 4607SOL    HW114357   2.542   2.767   3.279
 4607SOL    HW214358   2.546   2.617   3.295
 4608SOL     OW14359   3.345   3.642   2.843
 4608SOL    HW114360   3.367   3.705   2.774
 4608SOL    HW214361   3.429   3.619   2.882
 4609SOL     OW14362   2.588   2.426   3.566
 4609SOL    HW114363   2.630   2.489   3.624
 4609SOL    HW214364   2.614   2.341   3.600
 4610SOL     OW14365   3.335   3.060   3.493
 4610SOL    HW114366   3.323   3.074   3.587
 4610SOL    HW214367   3.428   3.076   3.478
 4611SOL     OW14368   2.238   3.602   3.427
 4611SOL    HW114369   2.154   3.645   3.412
 4611SOL    HW214370   2.214   3.519   3.469
 4612SOL     OW14371   3.529   2.742   3.117
 4612SOL    HW114372   3.524   2.657   3.075
 4612SOL    HW214373   3.519   2.805   3.046
 4613SOL     OW14374   3.078   2.181   2.320
 4613SOL    HW114375   3.141   2.109   2.313
 4613SOL    HW214376   3.107   2.230   2.397
 4614SOL     OW14377   2.438   2.609   2.511
 4614SOL    HW114378   2.487   2.690   2.505
 4614SOL    HW214379   2.359   2.625   2.458
 4615SOL     OW14380   3.621   2.225   3.514
 4615SOL    HW114381   3.605   2.241   3.420
 4615SOL    HW214382   3.549   2.168   3.541
 4616SOL     OW14383   3.609   2.795   3.374
 4616SOL    HW114384   3.601   2.890   3.386
 4616SOL    HW214385   3.592   2.782   3.280
 4617SOL     OW14386   2.724   3.228   1.900
 4617SOL    HW114387   2.687   3.257   1.983
 4617SOL    HW214388   2.742   3.310   1.853
 4618SOL     OW14389   2.524   3.650   2.804
 4618SOL    HW114390   2.505   3.741   2.782
 4618SOL    HW214391   2.619   3.643   2.797
 4619SOL     OW14392   2.729   2.830   2.716
 4619SOL    HW114393   2.779   2.757   2.753
 4619SOL    HW214394   2.696   2.877   2.792
 4620SOL     OW14395   2.940   2.850   1.950
 4620SOL    HW114396   2.919   2.901   1.872
 4620SOL    HW214397   3.014   2.796   1.924
 4621SOL     OW14398   3.714   3.416   2.706
 4621SOL    HW114399   3.635   3.404   2.653
 4621SOL    HW214400   3.708   3.349   2.773
 4622SOL     OW14401   2.087   3.163   3.717
 4622SOL    HW114402   2.022   3.100   3.685
 4622SOL    HW214403   2.066   3.176   3.809
 4623SOL     OW14404   1.947   3.095   2.528
 4623SOL    HW114405   1.951   3.048   2.611
 4623SOL    HW214406   2.013   3.054   2.473
 4624SOL     OW14407   2.544   3.267   3.491
 4624SOL    HW114408   2.465   3.224   3.523
 4624SOL    HW214409   2.540   3.355   3.529
 4625SOL     OW14410   3.675   2.045   3.100
 4625SOL    HW114411   3.682   1.951   3.113
 4625SOL    HW214412   3.685   2.057   3.005
 4626SOL     OW14413   3.560   3.350   2.957
 4626SOL    HW114414   3.480   3.329   2.908
 4626SOL    HW214415   3.568   3.280   3.021
 4627SOL     OW14416   2.691   3.440   2.538
 4627SOL    HW114417   2.674   3.499   2.465
 4627SOL    HW214418   2.616   3.381   2.541
 4628SOL     OW14419   3.294   2.088   2.979
 4628SOL    HW114420   3.314   2.005   3.023
 4628SOL    HW214421   3.244   2.138   3.043
 4629SOL     OW14422   2.872   1.879   3.002
 4629SOL    HW114423   2.816   1.813   2.961
 4629SOL    HW214424   2.959   1.840   3.003
 4630SOL     OW14425   2.635   3.195   2.180
 4630SOL    HW114426   2.606   3.104   2.186
 4630SOL    HW214427   2.717   3.198   2.229
 4631SOL     OW14428   2.482   3.417   3.148
 4631SOL    HW114429   2.483   3.499   3.197
 4631SOL    HW214430   2.569   3.410   3.111
 4632SOL     OW14431   3.216   1.915   2.029
 4632SOL    HW114432   3.246   1.848   1.968
 4632SOL    HW214433   3.128   1.887   2.054
 4633SOL     OW14434   3.159   2.324   2.542
 4633SOL    HW114435   3.105   2.403   2.547
 4633SOL    HW214436   3.154   2.286   2.629
 4634SOL     OW14437   3.448   2.061   2.742
 4634SOL    HW114438   3.390   2.083   2.814
 4634SOL    HW214439   3.447   2.139   2.686
 4635SOL     OW14440   1.904   2.930   2.171
 4635SOL    HW114441   1.997   2.922   2.153
 4635SOL    HW214442   1.876   2.841   2.193
 4636SOL     OW14443   2.748   3.518   2.203
 4636SOL    HW114444   2.675   3.501   2.144
 4636SOL    HW214445   2.720   3.592   2.256
 4637SOL     OW14446   2.062   2.530   3.857
 4637SOL    HW114447   1.974   2.504   3.884
 4637SOL    HW214448   2.080   2.474   3.781
 4638SOL     OW14449   1.859   2.255   4.348
 4638SOL    HW114450   1.780   2.270   4.401
 4638SOL    HW214451   1.849   2.167   4.313
 4639SOL     OW14452   2.430   3.165   4.881
 4639SOL    HW114453   2.346   3.178   4.837
 4639SOL    HW214454   2.451   3.251   4.918
 4640SOL     OW14455   3.427   3.375   4.432
 4640SOL    HW114456   3.385   3.352   4.515
 4640SOL    HW214457   3.355   3.378   4.368
 4641SOL     OW14458   2.988   2.550   4.416
 4641SOL    HW114459   3.028   2.636   4.427
 4641SOL    HW214460   2.936   2.538   4.496
 4642SOL     OW14461   3.633   2.464   3.951
 4642SOL    HW114462   3.610   2.458   3.859
 4642SOL    HW214463   3.595   2.386   3.991
 4643SOL     OW14464   2.652   2.998   4.725
 4643SOL    HW114465   2.570   2.991   4.773
 4643SOL    HW214466   2.663   3.092   4.709
 4644SOL     OW14467   2.552   2.877   4.383
 4644SOL    HW114468   2.599   2.866   4.466
 4644SOL    HW214469   2.474   2.927   4.405
 4645SOL     OW14470   2.589   3.012   5.536
 4645SOL    HW114471   2.632   3.093   5.566
 4645SOL    HW214472   2.498   3.037   5.523
 4646SOL     OW14473   2.191   3.280   4.786
 4646SOL    HW114474   2.115   3.242   4.742
 4646SOL    HW214475   2.234   3.333   4.719
 4647SOL     OW14476   3.321   3.363   5.082
 4647SOL    HW114477   3.374   3.442   5.092
 4647SOL    HW214478   3.256   3.368   5.152
 4648SOL     OW14479   3.472   2.309   4.466
 4648SOL    HW114480   3.400   2.332   4.407
 4648SOL    HW214481   3.479   2.384   4.526
 4649SOL     OW14482   2.081   3.576   4.195
 4649SOL    HW114483   2.102   3.652   4.249
 4649SOL    HW214484   2.155   3.569   4.134
 4650SOL     OW14485   2.995   3.199   5.419
 4650SOL    HW114486   3.033   3.192   5.506
 4650SOL    HW214487   2.946   3.117   5.407
 4651SOL     OW14488   2.095   3.304   4.261
 4651SOL    HW114489   2.076   3.398   4.262
 4651SOL    HW214490   2.034   3.266   4.324
 4652SOL     OW14491   2.469   3.654   5.152
 4652SOL    HW114492   2.388   3.635   5.199
 4652SOL    HW214493   2.493   3.743   5.178
 4653SOL     OW14494   2.445   2.843   3.858
 4653SOL    HW114495   2.492   2.892   3.791
 4653SOL    HW214496   2.482   2.873   3.941
 4654SOL     OW14497   3.455   1.989   5.189
 4654SOL    HW114498   3.472   2.070   5.141
 4654SOL    HW214499   3.440   2.017   5.280
 4655SOL     OW14500   1.986   2.505   4.283
 4655SOL    HW114501   1.948   2.419   4.302
 4655SOL    HW214502   1.970   2.555   4.363
 4656SOL     OW14503   3.705   3.619   4.056
 4656SOL    HW114504   3.771   3.592   4.120
 4656SOL    HW214505   3.726   3.710   4.038
 4657SOL     OW14506   1.897   3.455   3.847
 4657SOL    HW114507   1.878   3.363   3.867
 4657SOL    HW214508   1.872   3.503   3.926
 4658SOL     OW14509   3.550   2.780   4.368
 4658SOL    HW114510   3.633   2.737   4.348
 4658SOL    HW214511   3.529   2.830   4.289
 4659SOL     OW14512   3.509   2.967   4.153
 4659SOL    HW114513   3.596   2.970   4.112
 4659SOL    HW214514   3.515   3.029   4.225
 4660SOL     OW14515   2.476   3.250   4.459
 4660SOL    HW114516   2.430   3.167   4.470
 4660SOL    HW214517   2.460   3.276   4.369
 4661SOL     OW14518   3.153   3.097   5.150
 4661SOL    HW114519   3.183   3.030   5.088
 4661SOL    HW214520   3.213   3.089   5.225
 4662SOL     OW14521   2.674   1.862   4.222
 4662SOL    HW114522   2.716   1.947   4.207
 4662SOL    HW214523   2.581   1.884   4.236
 4663SOL     OW14524   3.393   2.858   3.924
 4663SOL    HW114525   3.323   2.801   3.956
 4663SOL    HW214526   3.435   2.892   4.003
 4664SOL     OW14527   3.047   3.671   5.348
 4664SOL    HW114528   3.054   3.730   5.273
 4664SOL    HW214529   3.063   3.584   5.312
 4665SOL     OW14530   3.331   3.281   4.673
 4665SOL    HW114531   3.263   3.297   4.738
 4665SOL    HW214532   3.318   3.190   4.646
 4666SOL     OW14533   3.518   3.607   4.302
 4666SOL    HW114534   3.499   3.576   4.213
 4666SOL    HW214535   3.496   3.533   4.358
 4667SOL     OW14536   2.464   2.584   3.992
 4667SOL    HW114537   2.463   2.661   3.935
 4667SOL    HW214538   2.389   2.597   4.051
 4668SOL     OW14539   3.167   2.218   4.644
 4668SOL    HW114540   3.083   2.175   4.627
 4668SOL    HW214541   3.212   2.160   4.705
 4669SOL     OW14542   3.441   3.534   4.034
 4669SOL    HW114543   3.532   3.563   4.026
 4669SOL    HW214544   3.414   3.517   3.943
 4670SOL     OW14545   3.265   2.338   5.397
 4670SOL    HW114546   3.247   2.375   5.483
 4670SOL    HW214547   3.311   2.256   5.416
 4671SOL     OW14548   2.913   2.560   4.147
 4671SOL    HW114549   2.934   2.552   4.240
 4671SOL    HW214550   2.830   2.514   4.137
 4672SOL     OW14551   1.953   2.686   4.489
 4672SOL    HW114552   2.040   2.697   4.529
 4672SOL    HW214553   1.901   2.758   4.525
 4673SOL     OW14554   1.988   3.720   5.304
 4673SOL    HW114555   1.990   3.698   5.397
 4673SOL    HW214556   1.899   3.699   5.277
 4674SOL     OW14557   2.759   2.213   3.919
 4674SOL    HW114558   2.800   2.274   3.858
 4674SOL    HW214559   2.763   2.128   3.875
 4675SOL     OW14560   3.561   2.433   5.554
 4675SOL    HW114561   3.528   2.508   5.504
 4675SOL    HW214562   3.591   2.371   5.487
 4676SOL     OW14563   3.239   3.002   4.265
 4676SOL    HW114564   3.319   2.990   4.213
 4676SOL    HW214565   3.187   3.065   4.215
 4677SOL     OW14566   2.864   3.304   4.194
 4677SOL    HW114567   2.830   3.379   4.145
 4677SOL    HW214568   2.846   3.326   4.286
 4678SOL     OW14569   2.216   3.673   4.590
 4678SOL    HW114570   2.260   3.588   4.596
 4678SOL    HW214571   2.285   3.737   4.608
 4679SOL     OW14572   3.661   2.919   4.593
 4679SOL    HW114573   3.607   2.898   4.517
 4679SOL    HW214574   3.598   2.924   4.666
 4680SOL     OW14575   3.089   3.399   5.239
 4680SOL    HW114576   3.077   3.326   5.300
 4680SOL    HW214577   3.029   3.381   5.167
 4681SOL     OW14578   2.175   2.817   3.975
 4681SOL    HW114579   2.257   2.834   3.928
 4681SOL    HW214580   2.142   2.736   3.938
 4682SOL     OW14581   3.340   2.608   4.450
 4682SOL    HW114582   3.335   2.567   4.536
 4682SOL    HW214583   3.418   2.663   4.455
 4683SOL     OW14584   2.332   3.137   5.471
 4683SOL    HW114585   2.298   3.163   5.385
 4683SOL    HW214586   2.253   3.120   5.523
 4684SOL     OW14587   2.984   3.640   3.953
 4684SOL    HW114588   2.911   3.600   3.999
 4684SOL    HW214589   3.009   3.578   3.885
 4685SOL     OW14590   1.967   2.147   5.256
 4685SOL    HW114591   1.968   2.220   5.194
 4685SOL    HW214592   2.058   2.120   5.264
 4686SOL     OW14593   3.491   3.243   3.812
 4686SOL    HW114594   3.449   3.328   3.798
 4686SOL    HW214595   3.422   3.179   3.793
 4687SOL     OW14596   2.327   3.598   4.044
 4687SOL    HW114597   2.371   3.655   4.107
 4687SOL    HW214598   2.398   3.566   3.988
 4688SOL     OW14599   3.263   1.970   4.159
 4688SOL    HW114600   3.254   1.944   4.068
 4688SOL    HW214601   3.357   1.974   4.174
 4689SOL     OW14602   2.118   3.655   4.952
 4689SOL    HW114603   2.170   3.586   4.994
 4689SOL    HW214604   2.107   3.626   4.862
 4690SOL     OW14605   2.799   3.563   4.621
 4690SOL    HW114606   2.874   3.511   4.648
 4690SOL    HW214607   2.757   3.512   4.552
 4691SOL     OW14608   2.251   2.560   4.181
 4691SOL    HW114609   2.265   2.472   4.148
 4691SOL    HW214610   2.160   2.562   4.210
 4692SOL     OW14611   3.394   2.083   5.450
 4692SOL    HW114612   3.404   2.106   5.543
 4692SOL    HW214613   3.329   2.013   5.450
 4693SOL     OW14614   2.499   1.992   3.820
 4693SOL    HW114615   2.552   1.923   3.860
 4693SOL    HW214616   2.453   1.949   3.748
 4694SOL     OW14617   2.622   2.142   5.479
 4694SOL    HW114618   2.694   2.080   5.486
 4694SOL    HW214619   2.567   2.124   5.554
 4695SOL     OW14620   2.739   3.392   4.914
 4695SOL    HW114621   2.721   3.354   4.828
 4695SOL    HW214622   2.807   3.336   4.951
 4696SOL     OW14623   3.263   2.449   5.150
 4696SOL    HW114624   3.261   2.417   5.240
 4696SOL    HW214625   3.269   2.544   5.159
 4697SOL     OW14626   2.678   3.268   4.666
 4697SOL    HW114627   2.763   3.251   4.623
 4697SOL    HW214628   2.615   3.266   4.594
 4698SOL     OW14629   2.808   2.355   4.593
 4698SOL    HW114630   2.768   2.341   4.508
 4698SOL    HW214631   2.796   2.273   4.640
 4699SOL     OW14632   2.404   1.930   4.225
 4699SOL    HW114633   2.334   1.920   4.289
 4699SOL    HW214634   2.399   2.022   4.198
 4700SOL     OW14635   3.290   3.061   3.764
 4700SOL    HW114636   3.320   2.986   3.815
 4700SOL    HW214637   3.205   3.083   3.802
 4701SOL     OW14638   2.159   1.903   3.902
 4701SOL    HW114639   2.228   1.962   3.871
 4701SOL    HW214640   2.206   1.834   3.948
 4702SOL     OW14641   2.803   2.108   4.177
 4702SOL    HW114642   2.781   2.147   4.092
 4702SOL    HW214643   2.897   2.120   4.186
 4703SOL     OW14644   3.086   3.431   4.516
 4703SOL    HW114645   3.101   3.499   4.451
 4703SOL    HW214646   3.153   3.447   4.583
 4704SOL     OW14647   2.328   3.012   4.464
 4704SOL    HW114648   2.276   2.976   4.536
 4704SOL    HW214649   2.275   2.995   4.386
 4705SOL     OW14650   3.129   3.655   4.334
 4705SOL    HW114651   3.176   3.716   4.278
 4705SOL    HW214652   3.062   3.708   4.376
 4706SOL     OW14653   2.885   2.401   3.749
 4706SOL    HW114654   2.844   2.485   3.731
 4706SOL    HW214655   2.951   2.421   3.816
 4707SOL     OW14656   1.989   2.414   5.107
 4707SOL    HW114657   2.070   2.424   5.158
 4707SOL    HW214658   1.927   2.475   5.146
 4708SOL     OW14659   2.709   2.309   4.345
 4708SOL    HW114660   2.682   2.369   4.276
 4708SOL    HW214661   2.742   2.233   4.299
 4709SOL     OW14662   2.905   1.917   4.468
 4709SOL    HW114663   2.835   1.930   4.404
 4709SOL    HW214664   2.876   1.843   4.521
 4710SOL     OW14665   3.301   3.023   4.581
 4710SOL    HW114666   3.232   2.957   4.584
 4710SOL    HW214667   3.322   3.031   4.488
 4711SOL     OW14668   3.327   2.469   4.697
 4711SOL    HW114669   3.277   2.388   4.700
 4711SOL    HW214670   3.386   2.464   4.773
 4712SOL     OW14671   3.706   2.676   4.107
 4712SOL    HW114672   3.763   2.625   4.166
 4712SOL    HW214673   3.679   2.612   4.041
 4713SOL     OW14674   2.352   3.282   3.878
 4713SOL    HW114675   2.276   3.254   3.930
 4713SOL    HW214676   2.342   3.237   3.794
 4714SOL     OW14677   3.535   3.127   4.366
 4714SOL    HW114678   3.629   3.127   4.382
 4714SOL    HW214679   3.506   3.215   4.389
 4715SOL     OW14680   3.256   2.434   3.795
 4715SOL    HW114681   3.195   2.414   3.866
 4715SOL    HW214682   3.340   2.402   3.827
 4716SOL     OW14683   3.613   3.103   5.292
 4716SOL    HW114684   3.700   3.063   5.290
 4716SOL    HW214685   3.629   3.193   5.321
 4717SOL     OW14686   2.939   3.226   5.048
 4717SOL    HW114687   2.859   3.208   5.098
 4717SOL    HW214688   3.007   3.178   5.093
 4718SOL     OW14689   3.471   3.489   5.381
 4718SOL    HW114690   3.464   3.523   5.291
 4718SOL    HW214691   3.553   3.440   5.381
 4719SOL     OW14692   2.994   3.065   4.825
 4719SOL    HW114693   2.938   3.104   4.892
 4719SOL    HW214694   2.958   3.096   4.742
 4720SOL     OW14695   3.488   2.959   4.801
 4720SOL    HW114696   3.483   3.022   4.874
 4720SOL    HW214697   3.410   2.977   4.749
 4721SOL     OW14698   2.841   2.960   5.435
 4721SOL    HW114699   2.751   2.980   5.462
 4721SOL    HW214700   2.831   2.902   5.359
 4722SOL     OW14701   2.571   2.924   4.096
 4722SOL    HW114702   2.560   2.909   4.190
 4722SOL    HW214703   2.646   2.870   4.071
 4723SOL     OW14704   3.204   2.281   4.951
 4723SOL    HW114705   3.234   2.336   5.023
 4723SOL    HW214706   3.123   2.323   4.922
 4724SOL     OW14707   1.931   3.452   5.078
 4724SOL    HW114708   1.900   3.522   5.020
 4724SOL    HW214709   2.027   3.455   5.070
 4725SOL     OW14710   2.200   2.968   4.221
 4725SOL    HW114711   2.209   3.044   4.164
 4725SOL    HW214712   2.199   2.893   4.162
 4726SOL     OW14713   3.109   3.211   4.114
 4726SOL    HW114714   3.165   3.282   4.145
 4726SOL    HW214715   3.022   3.232   4.147
 4727SOL     OW14716   3.150   3.325   4.869
 4727SOL    HW114717   3.206   3.328   4.947
 4727SOL    HW214718   3.085   3.257   4.889
 4728SOL     OW14719   3.442   2.484   4.205
 4728SOL    HW114720   3.392   2.534   4.270
 4728SOL    HW214721   3.486   2.550   4.152
 4729SOL     OW14722   2.207   3.397   5.028
 4729SOL    HW114723   2.195   3.350   4.946
 4729SOL    HW214724   2.302   3.406   5.037
 4730SOL     OW14725   2.258   2.620   5.339
 4730SOL    HW114726   2.305   2.686   5.289
 4730SOL    HW214727   2.324   2.553   5.358
 4731SOL     OW14728   3.468   2.645   5.410
 4731SOL    HW114729   3.381   2.683   5.403
 4731SOL    HW214730   3.518   2.685   5.340
 4732SOL     OW14731   2.362   1.897   5.481
 4732SOL    HW114732   2.360   1.844   5.402
 4732SOL    HW214733   2.277   1.942   5.482
 4733SOL     OW14734   3.221   2.723   4.752
 4733SOL    HW114735   3.129   2.711   4.728
 4733SOL    HW214736   3.260   2.637   4.742
 4734SOL     OW14737   3.063   2.390   3.987
 4734SOL    HW114738   3.072   2.311   4.042
 4734SOL    HW214739   3.021   2.454   4.044
 4735SOL     OW14740   1.930   3.193   5.002
 4735SOL    HW114741   1.910   3.157   5.089
 4735SOL    HW214742   1.920   3.287   5.012
 4736SOL     OW14743   3.601   2.822   5.579
 4736SOL    HW114744   3.555   2.758   5.525
 4736SOL    HW214745   3.541   2.839   5.651
 4737SOL     OW14746   2.166   1.921   4.381
 4737SOL    HW114747   2.154   2.011   4.410
 4737SOL    HW214748   2.117   1.869   4.444
 4738SOL     OW14749   3.482   2.239   4.088
 4738SOL    HW114750   3.508   2.173   4.152
 4738SOL    HW214751   3.458   2.316   4.139
 4739SOL     OW14752   2.842   3.424   5.440
 4739SOL    HW114753   2.827   3.469   5.358
 4739SOL    HW214754   2.889   3.344   5.415
 4740SOL     OW14755   3.715   3.365   5.329
 4740SOL    HW114756   3.735   3.392   5.240
 4740SOL    HW214757   3.797   3.382   5.377
 4741SOL     OW14758   2.194   2.810   5.527
 4741SOL    HW114759   2.268   2.800   5.587
 4741SOL    HW214760   2.204   2.738   5.464
 4742SOL     OW14761   3.389   2.135   3.851
 4742SOL    HW114762   3.325   2.069   3.878
 4742SOL    HW214763   3.423   2.170   3.933
 4743SOL     OW14764   3.151   2.687   3.753
 4743SOL    HW114765   3.194   2.602   3.758
 4743SOL    HW214766   3.183   2.726   3.672
 4744SOL     OW14767   2.924   3.203   4.576
 4744SOL    HW114768   2.932   3.128   4.517
 4744SOL    HW214769   2.988   3.266   4.543
 4745SOL     OW14770   1.868   3.181   3.919
 4745SOL    HW114771   1.781   3.196   3.881
 4745SOL    HW214772   1.864   3.091   3.953
 4746SOL     OW14773   1.952   3.646   4.664
 4746SOL    HW114774   1.922   3.567   4.620
 4746SOL    HW214775   2.041   3.659   4.632
 4747SOL     OW14776   2.356   3.437   4.628
 4747SOL    HW114777   2.424   3.498   4.654
 4747SOL    HW214778   2.401   3.373   4.572
 4748SOL     OW14779   1.940   2.351   4.838
 4748SOL    HW114780   2.028   2.358   4.801
 4748SOL    HW214781   1.952   2.367   4.932
 4749SOL     OW14782   3.240   2.800   5.381
 4749SOL    HW114783   3.260   2.893   5.380
 4749SOL    HW214784   3.241   2.774   5.289
 4750SOL     OW14785   2.675   2.430   4.089
 4750SOL    HW114786   2.684   2.359   4.026
 4750SOL    HW214787   2.603   2.483   4.056
 4751SOL     OW14788   3.502   2.468   4.907
 4751SOL    HW114789   3.486   2.413   4.983
 4751SOL    HW214790   3.590   2.443   4.876
 4752SOL     OW14791   2.101   3.416   5.451
 4752SOL    HW114792   2.080   3.477   5.522
 4752SOL    HW214793   2.113   3.332   5.495
 4753SOL     OW14794   2.565   2.288   4.938
 4753SOL    HW114795   2.491   2.230   4.920
 4753SOL    HW214796   2.561   2.355   4.870
 4754SOL     OW14797   2.785   3.544   5.196
 4754SOL    HW114798   2.762   3.502   5.113
 4754SOL    HW214799   2.779   3.638   5.178
 4755SOL     OW14800   3.186   2.910   4.945
 4755SOL    HW114801   3.210   2.847   4.878
 4755SOL    HW214802   3.117   2.963   4.905
 4756SOL     OW14803   3.175   2.720   4.029
 4756SOL    HW114804   3.101   2.688   4.080
 4756SOL    HW214805   3.149   2.705   3.938
 4757SOL     OW14806   3.639   3.602   4.878
 4757SOL    HW114807   3.698   3.629   4.807
 4757SOL    HW214808   3.612   3.513   4.855
 4758SOL     OW14809   3.103   3.597   4.833
 4758SOL    HW114810   3.185   3.619   4.790
 4758SOL    HW214811   3.110   3.503   4.852
 4759SOL     OW14812   1.949   3.144   4.730
 4759SOL    HW114813   1.936   3.151   4.824
 4759SOL    HW214814   1.889   3.074   4.703
 4760SOL     OW14815   2.542   3.534   5.460
 4760SOL    HW114816   2.486   3.610   5.448
 4760SOL    HW214817   2.609   3.542   5.393
 4761SOL     OW14818   3.582   2.012   4.231
 4761SOL    HW114819   3.654   1.996   4.170
 4761SOL    HW214820   3.566   1.927   4.272
 4762SOL     OW14821   3.253   3.430   4.210
 4762SOL    HW114822   3.313   3.463   4.144
 4762SOL    HW214823   3.204   3.506   4.240
 4763SOL     OW14824   1.998   3.661   5.567
 4763SOL    HW114825   1.947   3.595   5.614
 4763SOL    HW214826   2.044   3.709   5.636
 4764SOL     OW14827   3.135   2.788   4.399
 4764SOL    HW114828   3.206   2.725   4.408
 4764SOL    HW214829   3.171   2.858   4.344
 4765SOL     OW14830   2.699   3.196   5.151
 4765SOL    HW114831   2.658   3.216   5.235
 4765SOL    HW214832   2.626   3.176   5.093
 4766SOL     OW14833   2.532   3.485   3.879
 4766SOL    HW114834   2.544   3.498   3.785
 4766SOL    HW214835   2.477   3.407   3.886
 4767SOL     OW14836   3.485   3.589   5.116
 4767SOL    HW114837   3.536   3.595   5.035
 4767SOL    HW214838   3.471   3.680   5.142
 4768SOL     OW14839   3.706   2.033   4.690
 4768SOL    HW114840   3.735   1.945   4.665
 4768SOL    HW214841   3.620   2.043   4.648
 4769SOL     OW14842   3.070   3.466   3.756
 4769SOL    HW114843   3.059   3.375   3.783
 4769SOL    HW214844   3.005   3.479   3.688
 4770SOL     OW14845   2.780   2.775   4.017
 4770SOL    HW114846   2.839   2.806   3.949
 4770SOL    HW214847   2.828   2.704   4.060
 4771SOL     OW14848   3.352   3.489   3.767
 4771SOL    HW114849   3.258   3.480   3.753
 4771SOL    HW214850   3.390   3.494   3.680
 4772SOL     OW14851   2.215   3.209   5.238
 4772SOL    HW114852   2.203   3.271   5.167
 4772SOL    HW214853   2.157   3.136   5.216
 4773SOL     OW14854   3.473   3.146   5.005
 4773SOL    HW114855   3.529   3.131   5.081
 4773SOL    HW214856   3.411   3.213   5.034
 4774SOL     OW14857   2.920   2.969   4.435
 4774SOL    HW114858   2.841   2.914   4.440
 4774SOL    HW214859   2.990   2.908   4.412
 4775SOL     OW14860   2.465   3.349   4.204
 4775SOL    HW114861   2.512   3.300   4.137
 4775SOL    HW214862   2.393   3.391   4.158
 4776SOL     OW14863   3.588   2.251   5.106
 4776SOL    HW114864   3.658   2.316   5.103
 4776SOL    HW214865   3.619   2.181   5.048
 4777SOL     OW14866   2.123   3.206   4.014
 4777SOL    HW114867   2.030   3.203   3.991
 4777SOL    HW214868   2.124   3.244   4.102
 4778SOL     OW14869   2.513   2.055   5.223
 4778SOL    HW114870   2.592   2.022   5.180
 4778SOL    HW214871   2.545   2.093   5.305
 4779SOL     OW14872   1.916   2.192   3.786
 4779SOL    HW114873   1.836   2.179   3.736
 4779SOL    HW214874   1.970   2.249   3.731
 4780SOL     OW14875   3.291   2.729   5.125
 4780SOL    HW114876   3.242   2.789   5.067
 4780SOL    HW214877   3.379   2.726   5.087
 4781SOL     OW14878   1.933   2.017   4.026
 4781SOL    HW114879   1.912   2.090   3.968
 4781SOL    HW214880   2.015   1.982   3.990
 4782SOL     OW14881   3.040   3.199   3.841
 4782SOL    HW114882   2.950   3.169   3.844
 4782SOL    HW214883   3.068   3.200   3.933
 4783SOL     OW14884   3.345   3.643   4.705
 4783SOL    HW114885   3.368   3.705   4.636
 4783SOL    HW214886   3.429   3.618   4.744
 4784SOL     OW14887   2.566   2.433   5.427
 4784SOL    HW114888   2.607   2.473   5.504
 4784SOL    HW214889   2.595   2.342   5.430
 4785SOL     OW14890   3.337   3.060   5.357
 4785SOL    HW114891   3.324   3.074   5.451
 4785SOL    HW214892   3.430   3.076   5.343
 4786SOL     OW14893   2.238   3.601   5.289
 4786SOL    HW114894   2.154   3.644   5.274
 4786SOL    HW214895   2.215   3.518   5.330
 4787SOL     OW14896   3.529   2.742   4.980
 4787SOL    HW114897   3.523   2.656   4.938
 4787SOL    HW214898   3.519   2.804   4.908
 4788SOL     OW14899   3.077   2.180   4.179
 4788SOL    HW114900   3.140   2.108   4.172
 4788SOL    HW214901   3.107   2.231   4.254
 4789SOL     OW14902   2.436   2.616   4.388
 4789SOL    HW114903   2.485   2.695   4.367
 4789SOL    HW214904   2.378   2.603   4.313
 4790SOL     OW14905   3.621   2.224   5.377
 4790SOL    HW114906   3.606   2.241   5.284
 4790SOL    HW214907   3.547   2.168   5.404
 4791SOL     OW14908   3.611   2.796   5.235
 4791SOL    HW114909   3.600   2.890   5.247
 4791SOL    HW214910   3.593   2.781   5.142
 4792SOL     OW14911   2.724   3.228   3.761
 4792SOL    HW114912   2.687   3.257   3.845
 4792SOL    HW214913   2.742   3.310   3.714
 4793SOL     OW14914   2.523   3.650   4.666
 4793SOL    HW114915   2.505   3.741   4.644
 4793SOL    HW214916   2.618   3.642   4.660
 4794SOL     OW14917   2.939   2.849   3.812
 4794SOL    HW114918   2.918   2.901   3.734
 4794SOL    HW214919   3.014   2.796   3.786
 4795SOL     OW14920   3.714   3.416   4.568
 4795SOL    HW114921   3.635   3.404   4.515
 4795SOL    HW214922   3.708   3.349   4.636
 4796SOL     OW14923   2.088   3.169   5.588
 4796SOL    HW114924   2.012   3.114   5.566
 4796SOL    HW214925   2.071   3.198   5.678
 4797SOL     OW14926   1.944   3.100   4.392
 4797SOL    HW114927   1.933   3.048   4.471
 4797SOL    HW214928   2.008   3.051   4.340
 4798SOL     OW14929   2.540   3.273   5.355
 4798SOL    HW114930   2.470   3.223   5.397
 4798SOL    HW214931   2.534   3.360   5.394
 4799SOL     OW14932   3.678   2.043   4.961
 4799SOL    HW114933   3.680   1.948   4.973
 4799SOL    HW214934   3.687   2.056   4.867
 4800SOL     OW14935   3.560   3.350   4.819
 4800SOL    HW114936   3.481   3.329   4.770
 4800SOL    HW214937   3.568   3.280   4.884
 4801SOL     OW14938   2.691   3.441   4.399
 4801SOL    HW114939   2.673   3.500   4.325
 4801SOL    HW214940   2.615   3.383   4.401
 4802SOL     OW14941   3.306   2.069   4.827
 4802SOL    HW114942   3.304   1.990   4.882
 4802SOL    HW214943   3.278   2.139   4.885
 4803SOL     OW14944   2.635   3.196   4.041
 4803SOL    HW114945   2.606   3.105   4.047
 4803SOL    HW214946   2.716   3.199   4.091
 4804SOL     OW14947   2.482   3.421   5.005
 4804SOL    HW114948   2.483   3.501   5.057
 4804SOL    HW214949   2.571   3.413   4.971
 4805SOL     OW14950   3.216   1.915   3.891
 4805SOL    HW114951   3.247   1.847   3.831
 4805SOL    HW214952   3.128   1.887   3.915
 4806SOL     OW14953   3.161   2.328   4.394
 4806SOL    HW114954   3.105   2.404   4.402
 4806SOL    HW214955   3.167   2.293   4.483
 4807SOL     OW14956   3.454   2.057   4.595
 4807SOL    HW114957   3.399   2.072   4.672
 4807SOL    HW214958   3.448   2.138   4.544
 4808SOL     OW14959   1.905   2.929   4.032
 4808SOL    HW114960   1.998   2.921   4.011
 4808SOL    HW214961   1.878   2.840   4.055
 4809SOL     OW14962   2.749   3.518   4.064
 4809SOL    HW114963   2.675   3.501   4.005
 4809SOL    HW214964   2.720   3.592   4.118
 4810SOL     OW14965   2.073   2.524   5.715
 4810SOL    HW114966   1.979   2.508   5.713
 4810SOL    HW214967   2.105   2.488   5.632
 4811SOL     OW14968   2.415   3.163   6.772
 4811SOL    HW114969   2.330   3.171   6.729
 4811SOL    HW214970   2.435   3.251   6.805
 4812SOL     OW14971   3.428   3.375   6.294
 4812SOL    HW114972   3.385   3.353   6.377
 4812SOL    HW214973   3.357   3.378   6.230
 4813SOL     OW14974   3.041   2.565   6.360
 4813SOL    HW114975   3.067   2.639   6.305
 4813SOL    HW214976   2.965   2.597   6.409
 4814SOL     OW14977   3.640   2.465   5.810
 4814SOL    HW114978   3.612   2.457   5.719
 4814SOL    HW214979   3.596   2.392   5.854
 4815SOL     OW14980   2.614   3.017   6.667
 4815SOL    HW114981   2.539   3.054   6.713
 4815SOL    HW214982   2.648   3.089   6.613
 4816SOL     OW14983   2.732   2.632   7.409
 4816SOL    HW114984   2.720   2.701   7.473
 4816SOL    HW214985   2.756   2.678   7.328
 4817SOL     OW14986   2.574   3.012   7.400
 4817SOL    HW114987   2.622   3.090   7.429
 4817SOL    HW214988   2.493   3.047   7.363
 4818SOL     OW14989   2.189   3.287   6.653
 4818SOL    HW114990   2.114   3.250   6.605
 4818SOL    HW214991   2.237   3.337   6.587
 4819SOL     OW14992   3.322   3.362   6.944
 4819SOL    HW114993   3.375   3.441   6.953
 4819SOL    HW214994   3.256   3.370   7.013
 4820SOL     OW14995   3.485   2.310   6.333
 4820SOL    HW114996   3.397   2.321   6.296
 4820SOL    HW214997   3.497   2.386   6.390
 4821SOL     OW14998   2.084   3.572   6.058
 4821SOL    HW114999   2.103   3.649   6.112
 4821SOL    HW215000   2.156   3.568   5.995
 4822SOL     OW15001   2.999   3.204   7.280
 4822SOL    HW115002   3.040   3.198   7.367
 4822SOL    HW215003   2.947   3.124   7.272
 4823SOL     OW15004   2.087   3.303   6.128
 4823SOL    HW115005   2.078   3.398   6.121
 4823SOL    HW215006   2.028   3.277   6.198
 4824SOL     OW15007   2.098   2.973   6.482
 4824SOL    HW115008   2.101   2.884   6.518
 4824SOL    HW215009   2.050   3.023   6.548
 4825SOL     OW15010   2.469   3.654   7.014
 4825SOL    HW115011   2.388   3.636   7.061
 4825SOL    HW215012   2.493   3.743   7.040
 4826SOL     OW15013   3.456   1.988   7.052
 4826SOL    HW115014   3.474   2.068   7.003
 4826SOL    HW215015   3.440   2.017   7.142
 4827SOL     OW15016   2.042   2.479   6.223
 4827SOL    HW115017   2.010   2.417   6.157
 4827SOL    HW215018   2.011   2.564   6.193
 4828SOL     OW15019   3.705   3.619   5.918
 4828SOL    HW115020   3.771   3.592   5.982
 4828SOL    HW215021   3.726   3.710   5.900
 4829SOL     OW15022   1.893   3.457   5.707
 4829SOL    HW115023   1.871   3.366   5.727
 4829SOL    HW215024   1.872   3.505   5.787
 4830SOL     OW15025   3.563   2.790   6.231
 4830SOL    HW115026   3.640   2.741   6.202
 4830SOL    HW215027   3.533   2.836   6.152
 4831SOL     OW15028   3.510   2.969   6.014
 4831SOL    HW115029   3.596   2.972   5.973
 4831SOL    HW215030   3.516   3.031   6.087
 4832SOL     OW15031   1.984   2.602   7.171
 4832SOL    HW115032   2.074   2.625   7.194
 4832SOL    HW215033   1.934   2.682   7.186
 4833SOL     OW15034   2.476   3.249   6.322
 4833SOL    HW115035   2.437   3.162   6.334
 4833SOL    HW215036   2.455   3.271   6.231
 4834SOL     OW15037   3.149   3.099   7.008
 4834SOL    HW115038   3.180   3.031   6.948
 4834SOL    HW215039   3.208   3.093   7.083
 4835SOL     OW15040   2.053   2.822   6.860
 4835SOL    HW115041   2.139   2.791   6.832
 4835SOL    HW215042   1.991   2.781   6.799
 4836SOL     OW15043   3.402   2.859   5.783
 4836SOL    HW115044   3.336   2.796   5.812
 4836SOL    HW215045   3.439   2.895   5.863
 4837SOL     OW15046   3.047   3.671   7.210
 4837SOL    HW115047   3.055   3.731   7.135
 4837SOL    HW215048   3.064   3.584   7.173
 4838SOL     OW15049   3.329   3.282   6.535
 4838SOL    HW115050   3.261   3.298   6.601
 4838SOL    HW215051   3.316   3.191   6.509
 4839SOL     OW15052   3.518   3.607   6.164
 4839SOL    HW115053   3.499   3.576   6.075
 4839SOL    HW215054   3.496   3.534   6.220
 4840SOL     OW15055   3.150   2.218   6.525
 4840SOL    HW115056   3.058   2.196   6.535
 4840SOL    HW215057   3.195   2.160   6.587
 4841SOL     OW15058   3.441   3.535   5.895
 4841SOL    HW115059   3.532   3.563   5.888
 4841SOL    HW215060   3.414   3.517   5.805
 4842SOL     OW15061   2.646   2.463   7.030
 4842SOL    HW115062   2.632   2.453   7.124
 4842SOL    HW215063   2.592   2.395   6.990
 4843SOL     OW15064   3.255   2.336   7.264
 4843SOL    HW115065   3.259   2.380   7.349
 4843SOL    HW215066   3.315   2.261   7.274
 4844SOL     OW15067   2.814   2.747   7.170
 4844SOL    HW115068   2.869   2.678   7.133
 4844SOL    HW215069   2.770   2.786   7.094
 4845SOL     OW15070   2.866   2.279   6.815
 4845SOL    HW115071   2.777   2.304   6.839
 4845SOL    HW215072   2.856   2.228   6.735
 4846SOL     OW15073   1.987   3.721   7.167
 4846SOL    HW115074   1.990   3.698   7.259
 4846SOL    HW215075   1.899   3.697   7.139
 4847SOL     OW15076   3.568   2.434   7.415
 4847SOL    HW115077   3.532   2.508   7.366
 4847SOL    HW215078   3.597   2.373   7.347
 4848SOL     OW15079   3.242   3.007   6.122
 4848SOL    HW115080   3.323   2.998   6.072
 4848SOL    HW215081   3.191   3.072   6.074
 4849SOL     OW15082   2.467   2.036   6.454
 4849SOL    HW115083   2.456   2.050   6.548
 4849SOL    HW215084   2.441   2.119   6.414
 4850SOL     OW15085   2.880   3.316   6.066
 4850SOL    HW115086   2.833   3.381   6.013
 4850SOL    HW215087   2.849   3.332   6.155
 4851SOL     OW15088   2.216   3.673   6.451
 4851SOL    HW115089   2.260   3.588   6.459
 4851SOL    HW215090   2.284   3.737   6.471
 4852SOL     OW15091   3.663   2.922   6.457
 4852SOL    HW115092   3.614   2.896   6.379
 4852SOL    HW215093   3.598   2.925   6.527
 4853SOL     OW15094   3.089   3.401   7.099
 4853SOL    HW115095   3.077   3.329   7.161
 4853SOL    HW215096   3.025   3.385   7.030
 4854SOL     OW15097   3.343   2.622   6.301
 4854SOL    HW115098   3.328   2.565   6.376
 4854SOL    HW215099   3.424   2.667   6.321
 4855SOL     OW15100   2.330   3.128   7.324
 4855SOL    HW115101   2.303   3.133   7.232
 4855SOL    HW215102   2.248   3.125   7.373
 4856SOL     OW15103   2.983   3.640   5.815
 4856SOL    HW115104   2.914   3.596   5.864
 4856SOL    HW215105   3.008   3.578   5.747
 4857SOL     OW15106   3.490   3.243   5.675
 4857SOL    HW115107   3.448   3.328   5.660
 4857SOL    HW215108   3.422   3.179   5.657
 4858SOL     OW15109   2.330   3.596   5.910
 4858SOL    HW115110   2.371   3.658   5.970
 4858SOL    HW215111   2.401   3.569   5.851
 4859SOL     OW15112   3.262   1.953   6.015
 4859SOL    HW115113   3.261   1.935   5.921
 4859SOL    HW215114   3.351   1.983   6.033
 4860SOL     OW15115   2.119   3.653   6.816
 4860SOL    HW115116   2.168   3.585   6.861
 4860SOL    HW215117   2.108   3.620   6.727
 4861SOL     OW15118   2.801   3.560   6.484
 4861SOL    HW115119   2.880   3.511   6.504
 4861SOL    HW215120   2.758   3.510   6.415
 4862SOL     OW15121   3.394   2.087   7.311
 4862SOL    HW115122   3.405   2.107   7.404
 4862SOL    HW215123   3.326   2.020   7.309
 4863SOL     OW15124   2.498   1.995   5.691
 4863SOL    HW115125   2.552   1.924   5.728
 4863SOL    HW215126   2.453   1.954   5.617
 4864SOL     OW15127   2.628   2.141   7.343
 4864SOL    HW115128   2.706   2.086   7.339
 4864SOL    HW215129   2.580   2.110   7.419
 4865SOL     OW15130   2.737   3.384   6.782
 4865SOL    HW115131   2.722   3.348   6.694
 4865SOL    HW215132   2.808   3.331   6.818
 4866SOL     OW15133   3.200   2.453   7.020
 4866SOL    HW115134   3.233   2.422   7.104
 4866SOL    HW215135   3.240   2.540   7.010
 4867SOL     OW15136   2.678   3.253   6.531
 4867SOL    HW115137   2.764   3.238   6.490
 4867SOL    HW215138   2.617   3.257   6.457
 4868SOL     OW15139   3.290   3.061   5.628
 4868SOL    HW115140   3.322   2.984   5.676
 4868SOL    HW215141   3.201   3.073   5.660
 4869SOL     OW15142   2.178   1.901   5.762
 4869SOL    HW115143   2.258   1.954   5.763
 4869SOL    HW215144   2.203   1.818   5.803
 4870SOL     OW15145   2.941   2.539   7.049
 4870SOL    HW115146   2.881   2.465   7.052
 4870SOL    HW215147   3.028   2.500   7.040
 4871SOL     OW15148   3.082   3.435   6.382
 4871SOL    HW115149   3.099   3.499   6.313
 4871SOL    HW215150   3.153   3.448   6.445
 4872SOL     OW15151   3.129   3.655   6.196
 4872SOL    HW115152   3.177   3.716   6.139
 4872SOL    HW215153   3.063   3.709   6.239
 4873SOL     OW15154   1.945   2.427   6.969
 4873SOL    HW115155   2.030   2.391   6.995
 4873SOL    HW215156   1.929   2.497   7.033
 4874SOL     OW15157   2.431   2.031   6.727
 4874SOL    HW115158   2.468   1.970   6.790
 4874SOL    HW215159   2.340   2.042   6.754
 4875SOL     OW15160   3.301   3.025   6.443
 4875SOL    HW115161   3.228   2.962   6.442
 4875SOL    HW215162   3.326   3.033   6.351
 4876SOL     OW15163   3.332   2.472   6.560
 4876SOL    HW115164   3.278   2.393   6.557
 4876SOL    HW215165   3.388   2.461   6.637
 4877SOL     OW15166   3.705   2.675   5.971
 4877SOL    HW115167   3.763   2.625   6.029
 4877SOL    HW215168   3.680   2.613   5.902
 4878SOL     OW15169   2.360   3.283   5.751
 4878SOL    HW115170   2.275   3.269   5.792
 4878SOL    HW215171   2.359   3.227   5.673
 4879SOL     OW15172   3.535   3.128   6.228
 4879SOL    HW115173   3.629   3.128   6.244
 4879SOL    HW215174   3.506   3.216   6.251
 4880SOL     OW15175   3.257   2.429   5.659
 4880SOL    HW115176   3.223   2.403   5.744
 4880SOL    HW215177   3.351   2.412   5.664
 4881SOL     OW15178   3.613   3.103   7.155
 4881SOL    HW115179   3.700   3.064   7.151
 4881SOL    HW215180   3.629   3.193   7.184
 4882SOL     OW15181   2.919   3.219   6.923
 4882SOL    HW115182   2.844   3.186   6.972
 4882SOL    HW215183   2.994   3.175   6.961
 4883SOL     OW15184   3.471   3.489   7.242
 4883SOL    HW115185   3.463   3.522   7.153
 4883SOL    HW215186   3.553   3.440   7.243
 4884SOL     OW15187   2.997   3.072   6.691
 4884SOL    HW115188   2.931   3.103   6.753
 4884SOL    HW215189   2.961   3.094   6.605
 4885SOL     OW15190   3.486   2.958   6.663
 4885SOL    HW115191   3.481   3.021   6.735
 4885SOL    HW215192   3.409   2.976   6.610
 4886SOL     OW15193   2.787   1.955   6.979
 4886SOL    HW115194   2.808   1.943   6.886
 4886SOL    HW215195   2.866   1.994   7.017
 4887SOL     OW15196   2.846   2.977   7.309
 4887SOL    HW115197   2.755   2.994   7.331
 4887SOL    HW215198   2.843   2.899   7.253
 4888SOL     OW15199   2.296   2.674   6.853
 4888SOL    HW115200   2.367   2.689   6.916
 4888SOL    HW215201   2.237   2.613   6.897
 4889SOL     OW15202   3.132   2.237   6.867
 4889SOL    HW115203   3.163   2.316   6.911
 4889SOL    HW215204   3.042   2.258   6.840
 4890SOL     OW15205   1.934   3.437   6.943
 4890SOL    HW115206   1.905   3.508   6.885
 4890SOL    HW215207   2.029   3.437   6.934
 4891SOL     OW15208   2.509   2.426   6.415
 4891SOL    HW115209   2.427   2.429   6.367
 4891SOL    HW215210   2.486   2.454   6.504
 4892SOL     OW15211   3.113   3.211   5.976
 4892SOL    HW115212   3.170   3.282   6.006
 4892SOL    HW215213   3.027   3.233   6.010
 4893SOL     OW15214   3.146   3.321   6.732
 4893SOL    HW115215   3.200   3.322   6.811
 4893SOL    HW215216   3.092   3.243   6.741
 4894SOL     OW15217   3.441   2.488   6.059
 4894SOL    HW115218   3.392   2.529   6.130
 4894SOL    HW215219   3.483   2.561   6.014
 4895SOL     OW15220   2.206   3.393   6.899
 4895SOL    HW115221   2.194   3.349   6.814
 4895SOL    HW215222   2.301   3.404   6.907
 4896SOL     OW15223   2.280   2.619   7.186
 4896SOL    HW115224   2.348   2.664   7.135
 4896SOL    HW215225   2.319   2.534   7.207
 4897SOL     OW15226   3.467   2.642   7.270
 4897SOL    HW115227   3.381   2.684   7.263
 4897SOL    HW215228   3.519   2.683   7.201
 4898SOL     OW15229   2.857   1.990   7.337
 4898SOL    HW115230   2.917   2.062   7.315
 4898SOL    HW215231   2.906   1.911   7.313
 4899SOL     OW15232   2.352   1.903   7.336
 4899SOL    HW115233   2.313   1.844   7.272
 4899SOL    HW215234   2.296   1.981   7.335
 4900SOL     OW15235   2.443   2.724   6.623
 4900SOL    HW115236   2.466   2.815   6.605
 4900SOL    HW215237   2.393   2.727   6.704
 4901SOL     OW15238   3.217   2.719   6.612
 4901SOL    HW115239   3.140   2.708   6.556
 4901SOL    HW215240   3.265   2.636   6.603
 4902SOL     OW15241   1.909   3.173   6.868
 4902SOL    HW115242   1.941   3.117   6.939
 4902SOL    HW215243   1.914   3.262   6.904
 4903SOL     OW15244   2.600   2.506   6.675
 4903SOL    HW115245   2.656   2.499   6.598
 4903SOL    HW215246   2.552   2.588   6.662
 4904SOL     OW15247   3.598   2.821   7.441
 4904SOL    HW115248   3.554   2.757   7.386
 4904SOL    HW215249   3.538   2.837   7.514
 4905SOL     OW15250   3.476   2.237   5.953
 4905SOL    HW115251   3.507   2.175   6.019
 4905SOL    HW215252   3.455   2.317   6.003
 4906SOL     OW15253   2.863   2.614   6.563
 4906SOL    HW115254   2.864   2.646   6.654
 4906SOL    HW215255   2.895   2.524   6.569
 4907SOL     OW15256   2.843   3.428   7.305
 4907SOL    HW115257   2.828   3.472   7.222
 4907SOL    HW215258   2.887   3.347   7.282
 4908SOL     OW15259   3.715   3.365   7.191
 4908SOL    HW115260   3.735   3.392   7.101
 4908SOL    HW215261   3.796   3.382   7.239
 4909SOL     OW15262   2.218   2.786   7.396
 4909SOL    HW115263   2.301   2.801   7.442
 4909SOL    HW215264   2.242   2.726   7.325
 4910SOL     OW15265   3.391   2.137   5.714
 4910SOL    HW115266   3.331   2.066   5.739
 4910SOL    HW215267   3.424   2.171   5.796
 4911SOL     OW15268   3.156   2.690   5.616
 4911SOL    HW115269   3.187   2.599   5.613
 4911SOL    HW215270   3.183   2.727   5.532
 4912SOL     OW15271   2.926   3.200   6.439
 4912SOL    HW115272   2.930   3.128   6.376
 4912SOL    HW215273   2.987   3.265   6.405
 4913SOL     OW15274   2.150   2.693   6.599
 4913SOL    HW115275   2.241   2.710   6.576
 4913SOL    HW215276   2.143   2.597   6.600
 4914SOL     OW15277   2.995   2.237   7.269
 4914SOL    HW115278   2.948   2.292   7.333
 4914SOL    HW215279   3.083   2.276   7.266
 4915SOL     OW15280   3.024   2.064   7.057
 4915SOL    HW115281   3.013   2.126   7.128
 4915SOL    HW215282   3.068   2.114   6.988
 4916SOL     OW15283   1.861   3.182   5.779
 4916SOL    HW115284   1.775   3.199   5.742
 4916SOL    HW215285   1.856   3.092   5.811
 4917SOL     OW15286   1.952   3.646   6.525
 4917SOL    HW115287   1.922   3.567   6.480
 4917SOL    HW215288   2.041   3.660   6.494
 4918SOL     OW15289   2.357   3.436   6.491
 4918SOL    HW115290   2.424   3.499   6.516
 4918SOL    HW215291   2.402   3.373   6.436
 4919SOL     OW15292   2.840   2.659   6.824
 4919SOL    HW115293   2.895   2.633   6.898
 4919SOL    HW215294   2.758   2.611   6.837
 4920SOL     OW15295   1.904   2.408   6.700
 4920SOL    HW115296   1.963   2.338   6.671
 4920SOL    HW215297   1.925   2.420   6.793
 4921SOL     OW15298   3.241   2.798   7.243
 4921SOL    HW115299   3.262   2.892   7.241
 4921SOL    HW215300   3.238   2.772   7.151
 4922SOL     OW15301   3.504   2.462   6.773
 4922SOL    HW115302   3.495   2.402   6.847
 4922SOL    HW215303   3.591   2.444   6.737
 4923SOL     OW15304   2.103   3.412   7.311
 4923SOL    HW115305   2.081   3.477   7.378
 4923SOL    HW215306   2.108   3.329   7.358
 4924SOL     OW15307   2.785   3.542   7.056
 4924SOL    HW115308   2.763   3.503   6.971
 4924SOL    HW215309   2.780   3.636   7.042
 4925SOL     OW15310   2.008   3.000   7.060
 4925SOL    HW115311   2.007   2.951   7.142
 4925SOL    HW215312   2.024   2.934   6.993
 4926SOL     OW15313   3.185   2.906   6.808
 4926SOL    HW115314   3.206   2.842   6.740
 4926SOL    HW215315   3.118   2.962   6.768
 4927SOL     OW15316   3.192   2.712   5.885
 4927SOL    HW115317   3.116   2.748   5.931
 4927SOL    HW215318   3.163   2.706   5.794
 4928SOL     OW15319   3.639   3.602   6.740
 4928SOL    HW115320   3.698   3.629   6.670
 4928SOL    HW215321   3.612   3.513   6.717
 4929SOL     OW15322   3.103   3.595   6.697
 4929SOL    HW115323   3.185   3.618   6.653
 4929SOL    HW215324   3.110   3.502   6.715
 4930SOL     OW15325   1.929   3.150   6.603
 4930SOL    HW115326   1.920   3.157   6.698
 4930SOL    HW215327   1.864   3.086   6.576
 4931SOL     OW15328   2.540   3.530   7.320
 4931SOL    HW115329   2.484   3.608   7.312
 4931SOL    HW215330   2.607   3.543   7.253
 4932SOL     OW15331   3.583   2.013   6.094
 4932SOL    HW115332   3.654   1.997   6.032
 4932SOL    HW215333   3.566   1.927   6.134
 4933SOL     OW15334   3.256   3.430   6.074
 4933SOL    HW115335   3.314   3.464   6.006
 4933SOL    HW215336   3.204   3.506   6.102
 4934SOL     OW15337   2.001   3.657   7.428
 4934SOL    HW115338   1.950   3.592   7.476
 4934SOL    HW215339   2.046   3.707   7.497
 4935SOL     OW15340   3.136   2.789   6.237
 4935SOL    HW115341   3.213   2.733   6.249
 4935SOL    HW215342   3.170   2.868   6.194
 4936SOL     OW15343   2.672   3.139   7.015
 4936SOL    HW115344   2.643   3.178   7.097
 4936SOL    HW215345   2.604   3.160   6.951
 4937SOL     OW15346   2.537   3.484   5.738
 4937SOL    HW115347   2.548   3.500   5.644
 4937SOL    HW215348   2.475   3.411   5.742
 4938SOL     OW15349   3.485   3.589   6.977
 4938SOL    HW115350   3.536   3.595   6.897
 4938SOL    HW215351   3.471   3.680   7.004
 4939SOL     OW15352   3.704   2.034   6.553
 4939SOL    HW115353   3.733   1.947   6.527
 4939SOL    HW215354   3.617   2.043   6.513
 4940SOL     OW15355   3.069   3.466   5.619
 4940SOL    HW115356   3.058   3.375   5.646
 4940SOL    HW215357   3.005   3.478   5.548
 4941SOL     OW15358   2.687   2.872   6.962
 4941SOL    HW115359   2.727   2.866   6.875
 4941SOL    HW215360   2.685   2.966   6.980
 4942SOL     OW15361   3.352   3.490   5.630
 4942SOL    HW115362   3.258   3.480   5.615
 4942SOL    HW215363   3.389   3.495   5.542
 4943SOL     OW15364   2.230   3.166   7.079
 4943SOL    HW115365   2.216   3.242   7.022
 4943SOL    HW215366   2.154   3.110   7.063
 4944SOL     OW15367   3.471   3.145   6.866
 4944SOL    HW115368   3.530   3.131   6.940
 4944SOL    HW215369   3.411   3.213   6.896
 4945SOL     OW15370   2.919   2.975   6.287
 4945SOL    HW115371   2.852   2.934   6.342
 4945SOL    HW215372   2.975   2.903   6.259
 4946SOL     OW15373   2.888   2.113   6.588
 4946SOL    HW115374   2.870   2.096   6.496
 4946SOL    HW215375   2.880   2.028   6.630
 4947SOL     OW15376   2.451   3.340   6.064
 4947SOL    HW115377   2.475   3.296   5.982
 4947SOL    HW215378   2.387   3.406   6.037
 4948SOL     OW15379   3.586   2.253   6.967
 4948SOL    HW115380   3.658   2.317   6.966
 4948SOL    HW215381   3.616   2.182   6.910
 4949SOL     OW15382   2.108   3.257   5.862
 4949SOL    HW115383   2.015   3.241   5.848
 4949SOL    HW215384   2.116   3.268   5.957
 4950SOL     OW15385   1.975   2.889   7.309
 4950SOL    HW115386   1.898   2.863   7.360
 4950SOL    HW215387   2.048   2.849   7.355
 4951SOL     OW15388   2.547   2.048   7.082
 4951SOL    HW115389   2.634   2.025   7.048
 4951SOL    HW215390   2.565   2.089   7.167
 4952SOL     OW15391   1.900   2.188   5.627
 4952SOL    HW115392   1.819   2.145   5.600
 4952SOL    HW215393   1.892   2.277   5.592
 4953SOL     OW15394   3.290   2.720   6.985
 4953SOL    HW115395   3.241   2.781   6.930
 4953SOL    HW215396   3.379   2.722   6.949
 4954SOL     OW15397   1.987   2.077   5.884
 4954SOL    HW115398   1.955   2.121   5.806
 4954SOL    HW215399   2.048   2.011   5.851
 4955SOL     OW15400   3.039   3.203   5.705
 4955SOL    HW115401   2.960   3.149   5.707
 4955SOL    HW215402   3.070   3.203   5.795
 4956SOL     OW15403   2.494   2.694   7.030
 4956SOL    HW115404   2.550   2.770   7.013
 4956SOL    HW215405   2.554   2.619   7.031
 4957SOL     OW15406   3.344   3.643   6.567
 4957SOL    HW115407   3.367   3.704   6.498
 4957SOL    HW215408   3.428   3.618   6.606
 4958SOL     OW15409   2.584   2.426   7.289
 4958SOL    HW115410   2.626   2.490   7.347
 4958SOL    HW215411   2.610   2.341   7.325
 4959SOL     OW15412   3.335   3.059   7.217
 4959SOL    HW115413   3.323   3.074   7.310
 4959SOL    HW215414   3.428   3.076   7.201
 4960SOL     OW15415   2.238   3.602   7.151
 4960SOL    HW115416   2.154   3.645   7.136
 4960SOL    HW215417   2.215   3.519   7.193
 4961SOL     OW15418   3.529   2.742   6.842
 4961SOL    HW115419   3.524   2.656   6.799
 4961SOL    HW215420   3.519   2.805   6.770
 4962SOL     OW15421   3.622   2.225   7.238
 4962SOL    HW115422   3.606   2.240   7.145
 4962SOL    HW215423   3.549   2.168   7.265
 4963SOL     OW15424   3.609   2.795   7.098
 4963SOL    HW115425   3.601   2.890   7.110
 4963SOL    HW215426   3.593   2.782   7.004
 4964SOL     OW15427   2.718   3.241   5.620
 4964SOL    HW115428   2.686   3.295   5.692
 4964SOL    HW215429   2.752   3.304   5.556
 4965SOL     OW15430   2.523   3.650   6.527
 4965SOL    HW115431   2.505   3.741   6.506
 4965SOL    HW215432   2.619   3.643   6.522
 4966SOL     OW15433   2.766   2.878   6.490
 4966SOL    HW115434   2.783   2.785   6.505
 4966SOL    HW215435   2.710   2.904   6.564
 4967SOL     OW15436   2.977   2.895   5.673
 4967SOL    HW115437   2.924   2.911   5.595
 4967SOL    HW215438   3.025   2.814   5.654
 4968SOL     OW15439   3.714   3.417   6.430
 4968SOL    HW115440   3.635   3.404   6.376
 4968SOL    HW215441   3.709   3.348   6.496
 4969SOL     OW15442   2.087   3.163   7.440
 4969SOL    HW115443   2.023   3.099   7.408
 4969SOL    HW215444   2.063   3.176   7.532
 4970SOL     OW15445   1.949   3.111   6.279
 4970SOL    HW115446   1.947   3.063   6.362
 4970SOL    HW215447   2.032   3.085   6.238
 4971SOL     OW15448   2.543   3.268   7.215
 4971SOL    HW115449   2.464   3.225   7.247
 4971SOL    HW215450   2.540   3.356   7.253
 4972SOL     OW15451   3.674   2.044   6.824
 4972SOL    HW115452   3.683   1.950   6.836
 4972SOL    HW215453   3.684   2.057   6.730
 4973SOL     OW15454   3.559   3.351   6.681
 4973SOL    HW115455   3.480   3.329   6.632
 4973SOL    HW215456   3.568   3.280   6.745
 4974SOL     OW15457   2.689   3.442   6.263
 4974SOL    HW115458   2.676   3.497   6.186
 4974SOL    HW215459   2.614   3.383   6.263
 4975SOL     OW15460   3.295   2.083   6.709
 4975SOL    HW115461   3.320   2.003   6.757
 4975SOL    HW215462   3.245   2.134   6.773
 4976SOL     OW15463   2.865   1.865   6.719
 4976SOL    HW115464   2.813   1.785   6.731
 4976SOL    HW215465   2.956   1.834   6.716
 4977SOL     OW15466   2.480   3.419   6.871
 4977SOL    HW115467   2.483   3.501   6.921
 4977SOL    HW215468   2.569   3.410   6.835
 4978SOL     OW15469   3.220   1.915   5.741
 4978SOL    HW115470   3.248   1.836   5.694
 4978SOL    HW215471   3.126   1.920   5.725
 4979SOL     OW15472   3.219   2.348   6.292
 4979SOL    HW115473   3.156   2.419   6.289
 4979SOL    HW215474   3.185   2.288   6.358
 4980SOL     OW15475   3.448   2.060   6.466
 4980SOL    HW115476   3.388   2.084   6.536
 4980SOL    HW215477   3.452   2.138   6.410
 4981SOL     OW15478   2.741   3.513   5.931
 4981SOL    HW115479   2.672   3.506   5.865
 4981SOL    HW215480   2.718   3.591   5.981
 4982SOL     OW15481   2.063   2.532   7.575
 4982SOL    HW115482   1.979   2.507   7.615
 4982SOL    HW215483   2.067   2.482   7.494
 4983SOL     OW15484   1.859   2.250   8.078
 4983SOL    HW115485   1.778   2.270   8.124
 4983SOL    HW215486   1.845   2.164   8.039
 4984SOL     OW15487   2.429   3.154   8.627
 4984SOL    HW115488   2.342   3.158   8.587
 4984SOL    HW215489   2.445   3.242   8.660
 4985SOL     OW15490   3.427   3.374   8.156
 4985SOL    HW115491   3.385   3.353   8.239
 4985SOL    HW215492   3.356   3.378   8.092
 4986SOL     OW15493   2.993   2.559   8.146
 4986SOL    HW115494   3.041   2.641   8.133
 4986SOL    HW215495   2.948   2.572   8.230
 4987SOL     OW15496   3.633   2.465   7.675
 4987SOL    HW115497   3.610   2.458   7.582
 4987SOL    HW215498   3.595   2.386   7.715
 4988SOL     OW15499   2.612   3.001   8.491
 4988SOL    HW115500   2.544   3.038   8.548
 4988SOL    HW215501   2.650   3.077   8.447
 4989SOL     OW15502   2.730   2.632   9.271
 4989SOL    HW115503   2.722   2.703   9.335
 4989SOL    HW215504   2.754   2.676   9.190
 4990SOL     OW15505   2.548   2.862   8.094
 4990SOL    HW115506   2.614   2.852   8.163
 4990SOL    HW215507   2.480   2.916   8.134
 4991SOL     OW15508   2.575   3.013   9.261
 4991SOL    HW115509   2.622   3.091   9.290
 4991SOL    HW215510   2.493   3.047   9.225
 4992SOL     OW15511   2.193   3.284   8.515
 4992SOL    HW115512   2.119   3.245   8.468
 4992SOL    HW215513   2.240   3.334   8.450
 4993SOL     OW15514   3.322   3.363   8.806
 4993SOL    HW115515   3.375   3.442   8.815
 4993SOL    HW215516   3.256   3.370   8.875
 4994SOL     OW15517   3.471   2.308   8.190
 4994SOL    HW115518   3.398   2.329   8.133
 4994SOL    HW215519   3.482   2.385   8.245
 4995SOL     OW15520   2.081   3.577   7.919
 4995SOL    HW115521   2.102   3.653   7.973
 4995SOL    HW215522   2.155   3.569   7.858
 4996SOL     OW15523   2.999   3.204   9.142
 4996SOL    HW115524   3.040   3.198   9.228
 4996SOL    HW215525   2.947   3.124   9.134
 4997SOL     OW15526   2.094   3.305   7.984
 4997SOL    HW115527   2.075   3.398   7.987
 4997SOL    HW215528   2.035   3.266   8.049
 4998SOL     OW15529   2.125   2.957   8.339
 4998SOL    HW115530   2.119   2.868   8.376
 4998SOL    HW215531   2.065   3.009   8.392
 4999SOL     OW15532   2.470   3.653   8.876
 4999SOL    HW115533   2.388   3.635   8.923
 4999SOL    HW215534   2.493   3.742   8.902
 5000SOL     OW15535   2.447   2.843   7.580
 5000SOL    HW115536   2.494   2.893   7.513
 5000SOL    HW215537   2.483   2.874   7.663
 5001SOL     OW15538   3.457   1.987   8.914
 5001SOL    HW115539   3.473   2.068   8.865
 5001SOL    HW215540   3.441   2.016   9.004
 5002SOL     OW15541   1.967   2.506   8.010
 5002SOL    HW115542   1.939   2.417   8.034
 5002SOL    HW215543   1.965   2.554   8.092
 5003SOL     OW15544   3.705   3.619   7.781
 5003SOL    HW115545   3.771   3.592   7.844
 5003SOL    HW215546   3.726   3.710   7.762
 5004SOL     OW15547   1.897   3.455   7.570
 5004SOL    HW115548   1.878   3.363   7.591
 5004SOL    HW215549   1.872   3.502   7.650
 5005SOL     OW15550   3.551   2.781   8.092
 5005SOL    HW115551   3.634   2.738   8.071
 5005SOL    HW215552   3.529   2.831   8.013
 5006SOL     OW15553   3.510   2.967   7.877
 5006SOL    HW115554   3.596   2.970   7.836
 5006SOL    HW215555   3.515   3.029   7.949
 5007SOL     OW15556   1.988   2.598   9.025
 5007SOL    HW115557   2.075   2.627   9.051
 5007SOL    HW215558   1.931   2.674   9.039
 5008SOL     OW15559   2.477   3.250   8.183
 5008SOL    HW115560   2.431   3.167   8.192
 5008SOL    HW215561   2.461   3.277   8.093
 5009SOL     OW15562   3.149   3.099   8.870
 5009SOL    HW115563   3.180   3.032   8.810
 5009SOL    HW215564   3.208   3.093   8.946
 5010SOL     OW15565   2.678   1.865   7.956
 5010SOL    HW115566   2.720   1.949   7.935
 5010SOL    HW215567   2.585   1.885   7.963
 5011SOL     OW15568   2.050   2.829   8.721
 5011SOL    HW115569   2.134   2.787   8.703
 5011SOL    HW215570   1.987   2.776   8.672
 5012SOL     OW15571   3.393   2.858   7.648
 5012SOL    HW115572   3.324   2.801   7.680
 5012SOL    HW215573   3.435   2.892   7.727
 5013SOL     OW15574   3.047   3.671   9.072
 5013SOL    HW115575   3.055   3.731   8.998
 5013SOL    HW215576   3.064   3.585   9.035
 5014SOL     OW15577   3.329   3.281   8.397
 5014SOL    HW115578   3.262   3.297   8.463
 5014SOL    HW215579   3.316   3.190   8.371
 5015SOL     OW15580   3.518   3.607   8.026
 5015SOL    HW115581   3.500   3.576   7.937
 5015SOL    HW215582   3.496   3.533   8.082
 5016SOL     OW15583   2.471   2.583   7.707
 5016SOL    HW115584   2.473   2.662   7.653
 5016SOL    HW215585   2.387   2.587   7.753
 5017SOL     OW15586   3.140   2.219   8.381
 5017SOL    HW115587   3.051   2.185   8.390
 5017SOL    HW215588   3.193   2.165   8.440
 5018SOL     OW15589   3.441   3.534   7.758
 5018SOL    HW115590   3.532   3.563   7.750
 5018SOL    HW215591   3.414   3.517   7.668
 5019SOL     OW15592   2.648   2.463   8.889
 5019SOL    HW115593   2.633   2.454   8.983
 5019SOL    HW215594   2.600   2.390   8.850
 5020SOL     OW15595   3.255   2.336   9.126
 5020SOL    HW115596   3.259   2.380   9.211
 5020SOL    HW215597   3.314   2.261   9.136
 5021SOL     OW15598   2.813   2.747   9.031
 5021SOL    HW115599   2.869   2.679   8.993
 5021SOL    HW215600   2.766   2.784   8.957
 5022SOL     OW15601   2.864   2.273   8.682
 5022SOL    HW115602   2.787   2.322   8.710
 5022SOL    HW215603   2.839   2.234   8.598
 5023SOL     OW15604   2.913   2.560   7.873
 5023SOL    HW115605   2.930   2.554   7.967
 5023SOL    HW215606   2.830   2.515   7.860
 5024SOL     OW15607   1.951   2.683   8.224
 5024SOL    HW115608   2.032   2.679   8.274
 5024SOL    HW215609   1.905   2.759   8.258
 5025SOL     OW15610   1.987   3.721   9.029
 5025SOL    HW115611   1.990   3.698   9.121
 5025SOL    HW215612   1.899   3.697   9.000
 5026SOL     OW15613   2.760   2.211   7.644
 5026SOL    HW115614   2.799   2.274   7.583
 5026SOL    HW215615   2.767   2.127   7.598
 5027SOL     OW15616   3.568   2.434   9.277
 5027SOL    HW115617   3.532   2.508   9.228
 5027SOL    HW215618   3.597   2.373   9.209
 5028SOL     OW15619   3.241   3.004   7.989
 5028SOL    HW115620   3.320   2.992   7.936
 5028SOL    HW215621   3.188   3.066   7.939
 5029SOL     OW15622   2.865   3.306   7.918
 5029SOL    HW115623   2.831   3.380   7.869
 5029SOL    HW215624   2.844   3.326   8.009
 5030SOL     OW15625   2.216   3.673   8.313
 5030SOL    HW115626   2.260   3.588   8.320
 5030SOL    HW215627   2.285   3.737   8.332
 5031SOL     OW15628   3.661   2.919   8.318
 5031SOL    HW115629   3.607   2.899   8.241
 5031SOL    HW215630   3.598   2.924   8.390
 5032SOL     OW15631   3.089   3.401   8.961
 5032SOL    HW115632   3.077   3.329   9.022
 5032SOL    HW215633   3.024   3.386   8.892
 5033SOL     OW15634   2.183   2.807   7.704
 5033SOL    HW115635   2.260   2.827   7.651
 5033SOL    HW215636   2.143   2.732   7.659
 5034SOL     OW15637   3.342   2.607   8.173
 5034SOL    HW115638   3.336   2.566   8.259
 5034SOL    HW215639   3.420   2.663   8.178
 5035SOL     OW15640   2.330   3.128   9.185
 5035SOL    HW115641   2.303   3.133   9.094
 5035SOL    HW215642   2.248   3.125   9.234
 5036SOL     OW15643   2.985   3.640   7.678
 5036SOL    HW115644   2.910   3.599   7.723
 5036SOL    HW215645   3.009   3.578   7.609
 5037SOL     OW15646   1.962   2.109   8.962
 5037SOL    HW115647   2.002   2.182   8.914
 5037SOL    HW215648   2.035   2.051   8.984
 5038SOL     OW15649   3.491   3.243   7.537
 5038SOL    HW115650   3.449   3.328   7.522
 5038SOL    HW215651   3.422   3.179   7.517
 5039SOL     OW15652   2.327   3.599   7.768
 5039SOL    HW115653   2.371   3.655   7.831
 5039SOL    HW215654   2.397   3.565   7.713
 5040SOL     OW15655   3.263   1.969   7.884
 5040SOL    HW115656   3.254   1.944   7.792
 5040SOL    HW215657   3.357   1.975   7.898
 5041SOL     OW15658   2.119   3.653   8.678
 5041SOL    HW115659   2.169   3.584   8.722
 5041SOL    HW215660   2.108   3.621   8.589
 5042SOL     OW15661   2.800   3.561   8.346
 5042SOL    HW115662   2.878   3.511   8.367
 5042SOL    HW215663   2.758   3.511   8.276
 5043SOL     OW15664   3.394   2.087   9.173
 5043SOL    HW115665   3.404   2.107   9.266
 5043SOL    HW215666   3.325   2.020   9.171
 5044SOL     OW15667   2.499   1.990   7.545
 5044SOL    HW115668   2.554   1.919   7.579
 5044SOL    HW215669   2.450   1.950   7.473
 5045SOL     OW15670   2.625   2.142   9.201
 5045SOL    HW115671   2.703   2.087   9.202
 5045SOL    HW215672   2.574   2.114   9.277
 5046SOL     OW15673   2.737   3.384   8.642
 5046SOL    HW115674   2.721   3.347   8.555
 5046SOL    HW215675   2.808   3.330   8.678
 5047SOL     OW15676   3.199   2.453   8.882
 5047SOL    HW115677   3.232   2.421   8.966
 5047SOL    HW215678   3.239   2.540   8.873
 5048SOL     OW15679   2.679   3.254   8.391
 5048SOL    HW115680   2.763   3.242   8.347
 5048SOL    HW215681   2.615   3.258   8.319
 5049SOL     OW15682   2.782   2.366   8.353
 5049SOL    HW115683   2.758   2.361   8.260
 5049SOL    HW215684   2.820   2.280   8.372
 5050SOL     OW15685   2.410   1.935   7.941
 5050SOL    HW115686   2.331   1.931   7.995
 5050SOL    HW215687   2.410   2.023   7.905
 5051SOL     OW15688   3.290   3.061   7.488
 5051SOL    HW115689   3.320   2.986   7.539
 5051SOL    HW215690   3.205   3.083   7.526
 5052SOL     OW15691   2.155   1.892   7.629
 5052SOL    HW115692   2.221   1.952   7.596
 5052SOL    HW215693   2.204   1.824   7.675
 5053SOL     OW15694   2.801   2.111   7.904
 5053SOL    HW115695   2.778   2.150   7.820
 5053SOL    HW215696   2.896   2.124   7.912
 5054SOL     OW15697   2.939   2.543   8.902
 5054SOL    HW115698   2.879   2.469   8.914
 5054SOL    HW215699   3.026   2.503   8.897
 5055SOL     OW15700   3.084   3.433   8.242
 5055SOL    HW115701   3.099   3.499   8.175
 5055SOL    HW215702   3.153   3.448   8.307
 5056SOL     OW15703   2.333   3.014   8.177
 5056SOL    HW115704   2.264   2.995   8.241
 5056SOL    HW215705   2.291   2.998   8.092
 5057SOL     OW15706   3.129   3.655   8.058
 5057SOL    HW115707   3.176   3.716   8.002
 5057SOL    HW215708   3.062   3.708   8.100
 5058SOL     OW15709   2.885   2.401   7.473
 5058SOL    HW115710   2.842   2.485   7.454
 5058SOL    HW215711   2.950   2.421   7.540
 5059SOL     OW15712   1.963   2.404   8.836
 5059SOL    HW115713   2.053   2.377   8.856
 5059SOL    HW215714   1.945   2.475   8.898
 5060SOL     OW15715   2.723   2.317   8.088
 5060SOL    HW115716   2.684   2.378   8.025
 5060SOL    HW215717   2.749   2.242   8.035
 5061SOL     OW15718   2.876   1.915   8.199
 5061SOL    HW115719   2.820   1.907   8.122
 5061SOL    HW215720   2.853   1.839   8.253
 5062SOL     OW15721   3.300   3.024   8.305
 5062SOL    HW115722   3.230   2.958   8.305
 5062SOL    HW215723   3.324   3.033   8.213
 5063SOL     OW15724   3.328   2.470   8.421
 5063SOL    HW115725   3.274   2.390   8.424
 5063SOL    HW215726   3.386   2.462   8.496
 5064SOL     OW15727   3.706   2.676   7.832
 5064SOL    HW115728   3.763   2.625   7.890
 5064SOL    HW215729   3.679   2.613   7.765
 5065SOL     OW15730   2.351   3.282   7.602
 5065SOL    HW115731   2.276   3.254   7.654
 5065SOL    HW215732   2.342   3.237   7.519
 5066SOL     OW15733   3.535   3.126   8.091
 5066SOL    HW115734   3.630   3.127   8.106
 5066SOL    HW215735   3.506   3.215   8.113
 5067SOL     OW15736   3.256   2.434   7.519
 5067SOL    HW115737   3.194   2.414   7.590
 5067SOL    HW215738   3.340   2.403   7.551
 5068SOL     OW15739   3.613   3.103   9.017
 5068SOL    HW115740   3.700   3.064   9.013
 5068SOL    HW215741   3.628   3.193   9.046
 5069SOL     OW15742   2.919   3.217   8.781
 5069SOL    HW115743   2.844   3.185   8.832
 5069SOL    HW215744   2.995   3.174   8.822
 5070SOL     OW15745   3.471   3.489   9.104
 5070SOL    HW115746   3.463   3.522   9.015
 5070SOL    HW215747   3.553   3.440   9.105
 5071SOL     OW15748   2.995   3.070   8.552
 5071SOL    HW115749   2.933   3.106   8.616
 5071SOL    HW215750   2.963   3.102   8.468
 5072SOL     OW15751   3.487   2.958   8.525
 5072SOL    HW115752   3.482   3.021   8.597
 5072SOL    HW215753   3.409   2.977   8.472
 5073SOL     OW15754   2.790   1.952   8.843
 5073SOL    HW115755   2.811   1.936   8.751
 5073SOL    HW215756   2.869   1.993   8.878
 5074SOL     OW15757   2.846   2.976   9.170
 5074SOL    HW115758   2.755   2.993   9.193
 5074SOL    HW215759   2.843   2.898   9.115
 5075SOL     OW15760   2.571   2.924   7.818
 5075SOL    HW115761   2.556   2.906   7.911
 5075SOL    HW215762   2.646   2.870   7.794
 5076SOL     OW15763   2.282   2.677   8.700
 5076SOL    HW115764   2.352   2.692   8.763
 5076SOL    HW215765   2.247   2.591   8.723
 5077SOL     OW15766   3.132   2.237   8.727
 5077SOL    HW115767   3.162   2.316   8.772
 5077SOL    HW215768   3.041   2.256   8.703
 5078SOL     OW15769   1.934   3.436   8.804
 5078SOL    HW115770   1.905   3.507   8.747
 5078SOL    HW215771   2.029   3.437   8.796
 5079SOL     OW15772   2.209   2.972   7.934
 5079SOL    HW115773   2.212   3.049   7.877
 5079SOL    HW215774   2.203   2.898   7.874
 5080SOL     OW15775   3.110   3.211   7.837
 5080SOL    HW115776   3.166   3.282   7.869
 5080SOL    HW215777   3.023   3.232   7.871
 5081SOL     OW15778   3.147   3.321   8.595
 5081SOL    HW115779   3.202   3.324   8.673
 5081SOL    HW215780   3.092   3.244   8.608
 5082SOL     OW15781   3.442   2.483   7.929
 5082SOL    HW115782   3.393   2.533   7.995
 5082SOL    HW215783   3.486   2.549   7.876
 5083SOL     OW15784   2.208   3.392   8.760
 5083SOL    HW115785   2.196   3.347   8.676
 5083SOL    HW215786   2.302   3.402   8.768
 5084SOL     OW15787   2.282   2.631   9.058
 5084SOL    HW115788   2.345   2.668   8.996
 5084SOL    HW215789   2.329   2.556   9.096
 5085SOL     OW15790   3.467   2.642   9.132
 5085SOL    HW115791   3.381   2.683   9.126
 5085SOL    HW215792   3.519   2.684   9.064
 5086SOL     OW15793   2.856   1.991   9.201
 5086SOL    HW115794   2.915   2.062   9.176
 5086SOL    HW215795   2.903   1.911   9.177
 5087SOL     OW15796   2.362   1.891   9.196
 5087SOL    HW115797   2.319   1.833   9.132
 5087SOL    HW215798   2.307   1.969   9.197
 5088SOL     OW15799   2.438   2.735   8.474
 5088SOL    HW115800   2.481   2.821   8.475
 5088SOL    HW215801   2.389   2.733   8.556
 5089SOL     OW15802   3.215   2.721   8.474
 5089SOL    HW115803   3.129   2.707   8.433
 5089SOL    HW215804   3.259   2.636   8.466
 5090SOL     OW15805   3.064   2.390   7.712
 5090SOL    HW115806   3.072   2.312   7.767
 5090SOL    HW215807   3.021   2.454   7.768
 5091SOL     OW15808   1.912   3.173   8.723
 5091SOL    HW115809   1.942   3.118   8.795
 5091SOL    HW215810   1.915   3.262   8.758
 5092SOL     OW15811   2.618   2.516   8.539
 5092SOL    HW115812   2.653   2.465   8.465
 5092SOL    HW215813   2.557   2.577   8.499
 5093SOL     OW15814   3.598   2.822   9.303
 5093SOL    HW115815   3.554   2.757   9.248
 5093SOL    HW215816   3.538   2.837   9.376
 5094SOL     OW15817   2.169   1.934   8.078
 5094SOL    HW115818   2.145   2.023   8.104
 5094SOL    HW215819   2.172   1.885   8.160
 5095SOL     OW15820   3.481   2.238   7.812
 5095SOL    HW115821   3.508   2.174   7.877
 5095SOL    HW215822   3.458   2.316   7.863
 5096SOL     OW15823   2.892   2.618   8.405
 5096SOL    HW115824   2.886   2.640   8.498
 5096SOL    HW215825   2.855   2.530   8.399
 5097SOL     OW15826   2.843   3.428   9.167
 5097SOL    HW115827   2.828   3.472   9.083
 5097SOL    HW215828   2.887   3.347   9.144
 5098SOL     OW15829   3.715   3.366   9.053
 5098SOL    HW115830   3.735   3.392   8.963
 5098SOL    HW215831   3.796   3.382   9.101
 5099SOL     OW15832   2.217   2.792   9.265
 5099SOL    HW115833   2.301   2.806   9.310
 5099SOL    HW215834   2.239   2.736   9.191
 5100SOL     OW15835   3.390   2.134   7.575
 5100SOL    HW115836   3.325   2.069   7.602
 5100SOL    HW215837   3.423   2.170   7.657
 5101SOL     OW15838   3.151   2.687   7.477
 5101SOL    HW115839   3.195   2.602   7.481
 5101SOL    HW215840   3.183   2.726   7.396
 5102SOL     OW15841   2.929   3.199   8.303
 5102SOL    HW115842   2.933   3.127   8.240
 5102SOL    HW215843   2.989   3.265   8.268
 5103SOL     OW15844   2.173   2.678   8.391
 5103SOL    HW115845   2.266   2.700   8.388
 5103SOL    HW215846   2.169   2.595   8.437
 5104SOL     OW15847   2.995   2.239   9.130
 5104SOL    HW115848   2.948   2.292   9.194
 5104SOL    HW215849   3.083   2.277   9.127
 5105SOL     OW15850   3.027   2.064   8.919
 5105SOL    HW115851   3.014   2.127   8.990
 5105SOL    HW215852   3.069   2.114   8.850
 5106SOL     OW15853   1.868   3.180   7.642
 5106SOL    HW115854   1.781   3.196   7.605
 5106SOL    HW215855   1.864   3.091   7.677
 5107SOL     OW15856   1.952   3.646   8.388
 5107SOL    HW115857   1.922   3.568   8.343
 5107SOL    HW215858   2.042   3.660   8.356
 5108SOL     OW15859   2.356   3.436   8.353
 5108SOL    HW115860   2.425   3.498   8.377
 5108SOL    HW215861   2.400   3.373   8.296
 5109SOL     OW15862   2.841   2.660   8.670
 5109SOL    HW115863   2.885   2.629   8.749
 5109SOL    HW215864   2.760   2.610   8.667
 5110SOL     OW15865   1.902   2.424   8.567
 5110SOL    HW115866   1.937   2.347   8.522
 5110SOL    HW215867   1.929   2.413   8.659
 5111SOL     OW15868   3.240   2.798   9.105
 5111SOL    HW115869   3.262   2.892   9.103
 5111SOL    HW215870   3.238   2.772   9.013
 5112SOL     OW15871   2.678   2.429   7.813
 5112SOL    HW115872   2.682   2.356   7.751
 5112SOL    HW215873   2.605   2.483   7.782
 5113SOL     OW15874   3.503   2.463   8.631
 5113SOL    HW115875   3.494   2.404   8.706
 5113SOL    HW215876   3.591   2.444   8.597
 5114SOL     OW15877   2.104   3.412   9.173
 5114SOL    HW115878   2.081   3.477   9.240
 5114SOL    HW215879   2.107   3.329   9.221
 5115SOL     OW15880   2.787   3.541   8.917
 5115SOL    HW115881   2.762   3.504   8.833
 5115SOL    HW215882   2.781   3.636   8.904
 5116SOL     OW15883   2.006   3.003   8.923
 5116SOL    HW115884   2.006   2.953   9.004
 5116SOL    HW215885   2.022   2.939   8.854
 5117SOL     OW15886   3.186   2.907   8.669
 5117SOL    HW115887   3.208   2.844   8.601
 5117SOL    HW215888   3.117   2.962   8.630
 5118SOL     OW15889   3.176   2.719   7.753
 5118SOL    HW115890   3.101   2.689   7.804
 5118SOL    HW215891   3.149   2.705   7.662
 5119SOL     OW15892   3.639   3.602   8.602
 5119SOL    HW115893   3.698   3.629   8.532
 5119SOL    HW215894   3.612   3.513   8.579
 5120SOL     OW15895   3.102   3.595   8.558
 5120SOL    HW115896   3.185   3.617   8.514
 5120SOL    HW215897   3.110   3.502   8.577
 5121SOL     OW15898   1.947   3.129   8.459
 5121SOL    HW115899   1.932   3.143   8.553
 5121SOL    HW215900   1.873   3.074   8.431
 5122SOL     OW15901   2.540   3.530   9.182
 5122SOL    HW115902   2.483   3.607   9.175
 5122SOL    HW215903   2.607   3.544   9.114
 5123SOL     OW15904   3.582   2.012   7.955
 5123SOL    HW115905   3.654   1.997   7.894
 5123SOL    HW215906   3.566   1.927   7.996
 5124SOL     OW15907   3.253   3.430   7.935
 5124SOL    HW115908   3.313   3.463   7.868
 5124SOL    HW215909   3.204   3.506   7.964
 5125SOL     OW15910   2.001   3.657   9.290
 5125SOL    HW115911   1.950   3.591   9.338
 5125SOL    HW215912   2.046   3.706   9.358
 5126SOL     OW15913   3.139   2.788   8.118
 5126SOL    HW115914   3.213   2.728   8.127
 5126SOL    HW215915   3.174   2.860   8.066
 5127SOL     OW15916   2.672   3.137   8.875
 5127SOL    HW115917   2.644   3.177   8.957
 5127SOL    HW215918   2.603   3.159   8.813
 5128SOL     OW15919   2.532   3.485   7.604
 5128SOL    HW115920   2.544   3.498   7.509
 5128SOL    HW215921   2.476   3.407   7.610
 5129SOL     OW15922   3.485   3.589   8.839
 5129SOL    HW115923   3.536   3.595   8.759
 5129SOL    HW215924   3.471   3.680   8.866
 5130SOL     OW15925   3.704   2.034   8.415
 5130SOL    HW115926   3.733   1.946   8.389
 5130SOL    HW215927   3.618   2.043   8.375
 5131SOL     OW15928   3.070   3.466   7.480
 5131SOL    HW115929   3.059   3.375   7.507
 5131SOL    HW215930   3.005   3.479   7.412
 5132SOL     OW15931   2.685   2.868   8.823
 5132SOL    HW115932   2.732   2.858   8.740
 5132SOL    HW215933   2.685   2.963   8.839
 5133SOL     OW15934   2.778   2.774   7.738
 5133SOL    HW115935   2.840   2.805   7.672
 5133SOL    HW215936   2.826   2.704   7.783
 5134SOL     OW15937   3.352   3.489   7.491
 5134SOL    HW115938   3.258   3.480   7.477
 5134SOL    HW215939   3.390   3.495   7.404
 5135SOL     OW15940   2.231   3.166   8.939
 5135SOL    HW115941   2.217   3.242   8.884
 5135SOL    HW215942   2.154   3.111   8.925
 5136SOL     OW15943   3.471   3.145   8.728
 5136SOL    HW115944   3.530   3.131   8.802
 5136SOL    HW215945   3.411   3.213   8.758
 5137SOL     OW15946   2.918   2.970   8.157
 5137SOL    HW115947   2.847   2.920   8.195
 5137SOL    HW215948   2.981   2.904   8.127
 5138SOL     OW15949   2.884   2.102   8.413
 5138SOL    HW115950   2.881   2.054   8.330
 5138SOL    HW215951   2.881   2.034   8.481
 5139SOL     OW15952   2.467   3.351   7.928
 5139SOL    HW115953   2.513   3.300   7.862
 5139SOL    HW215954   2.393   3.391   7.882
 5140SOL     OW15955   3.586   2.254   8.828
 5140SOL    HW115956   3.658   2.317   8.828
 5140SOL    HW215957   3.616   2.183   8.772
 5141SOL     OW15958   2.123   3.205   7.739
 5141SOL    HW115959   2.030   3.202   7.715
 5141SOL    HW215960   2.123   3.243   7.827
 5142SOL     OW15961   1.974   2.888   9.170
 5142SOL    HW115962   1.897   2.863   9.221
 5142SOL    HW215963   2.048   2.851   9.219
 5143SOL     OW15964   2.552   2.045   8.943
 5143SOL    HW115965   2.638   2.019   8.909
 5143SOL    HW215966   2.572   2.083   9.029
 5144SOL     OW15967   1.920   2.192   7.505
 5144SOL    HW115968   1.841   2.186   7.452
 5144SOL    HW215969   1.986   2.228   7.446
 5145SOL     OW15970   3.290   2.720   8.847
 5145SOL    HW115971   3.241   2.781   8.792
 5145SOL    HW215972   3.379   2.722   8.811
 5146SOL     OW15973   1.931   2.016   7.750
 5146SOL    HW115974   1.911   2.091   7.694
 5146SOL    HW215975   2.012   1.981   7.715
 5147SOL     OW15976   3.040   3.199   7.565
 5147SOL    HW115977   2.950   3.168   7.568
 5147SOL    HW215978   3.068   3.200   7.657
 5148SOL     OW15979   2.485   2.690   8.878
 5148SOL    HW115980   2.540   2.767   8.865
 5148SOL    HW215981   2.547   2.616   8.880
 5149SOL     OW15982   3.345   3.642   8.429
 5149SOL    HW115983   3.367   3.705   8.360
 5149SOL    HW215984   3.429   3.619   8.468
 5150SOL     OW15985   2.582   2.426   9.145
 5150SOL    HW115986   2.622   2.486   9.208
 5150SOL    HW215987   2.596   2.339   9.182
 5151SOL     OW15988   3.335   3.059   9.079
 5151SOL    HW115989   3.323   3.074   9.172
 5151SOL    HW215990   3.428   3.076   9.064
 5152SOL     OW15991   2.238   3.602   9.013
 5152SOL    HW115992   2.154   3.645   8.998
 5152SOL    HW215993   2.214   3.519   9.055
 5153SOL     OW15994   3.529   2.742   8.703
 5153SOL    HW115995   3.524   2.657   8.660
 5153SOL    HW215996   3.519   2.806   8.632
 5154SOL     OW15997   3.077   2.180   7.906
 5154SOL    HW115998   3.141   2.109   7.898
 5154SOL    HW215999   3.107   2.230   7.982
 5155SOL     OW16000   2.454   2.599   8.091
 5155SOL    HW116001   2.500   2.683   8.089
 5155SOL    HW216002   2.366   2.618   8.058
 5156SOL     OW16003   3.621   2.225   9.100
 5156SOL    HW116004   3.606   2.241   9.006
 5156SOL    HW216005   3.549   2.168   9.127
 5157SOL     OW16006   3.609   2.795   8.960
 5157SOL    HW116007   3.601   2.890   8.972
 5157SOL    HW216008   3.592   2.782   8.866
 5158SOL     OW16009   2.724   3.228   7.485
 5158SOL    HW116010   2.687   3.256   7.569
 5158SOL    HW216011   2.742   3.310   7.439
 5159SOL     OW16012   2.524   3.650   8.390
 5159SOL    HW116013   2.505   3.741   8.368
 5159SOL    HW216014   2.619   3.643   8.383
 5160SOL     OW16015   2.731   2.831   8.303
 5160SOL    HW116016   2.778   2.757   8.340
 5160SOL    HW216017   2.695   2.877   8.378
 5161SOL     OW16018   2.941   2.850   7.536
 5161SOL    HW116019   2.919   2.901   7.458
 5161SOL    HW216020   3.015   2.796   7.510
 5162SOL     OW16021   3.714   3.416   8.292
 5162SOL    HW116022   3.635   3.404   8.239
 5162SOL    HW216023   3.708   3.349   8.359
 5163SOL     OW16024   2.087   3.163   9.303
 5163SOL    HW116025   2.022   3.101   9.270
 5163SOL    HW216026   2.063   3.177   9.394
 5164SOL     OW16027   1.947   3.096   8.114
 5164SOL    HW116028   1.950   3.047   8.197
 5164SOL    HW216029   2.013   3.053   8.059
 5165SOL     OW16030   2.544   3.267   9.077
 5165SOL    HW116031   2.465   3.224   9.109
 5165SOL    HW216032   2.540   3.355   9.115
 5166SOL     OW16033   3.674   2.045   8.686
 5166SOL    HW116034   3.682   1.951   8.699
 5166SOL    HW216035   3.684   2.057   8.591
 5167SOL     OW16036   3.560   3.350   8.543
 5167SOL    HW116037   3.480   3.329   8.494
 5167SOL    HW216038   3.569   3.280   8.607
 5168SOL     OW16039   2.691   3.440   8.124
 5168SOL    HW116040   2.673   3.498   8.050
 5168SOL    HW216041   2.616   3.381   8.127
 5169SOL     OW16042   3.294   2.088   8.564
 5169SOL    HW116043   3.316   2.006   8.609
 5169SOL    HW216044   3.244   2.138   8.629
 5170SOL     OW16045   2.872   1.879   8.585
 5170SOL    HW116046   2.818   1.809   8.548
 5170SOL    HW216047   2.960   1.842   8.588
 5171SOL     OW16048   2.635   3.195   7.766
 5171SOL    HW116049   2.605   3.104   7.772
 5171SOL    HW216050   2.717   3.197   7.815
 5172SOL     OW16051   2.482   3.417   8.734
 5172SOL    HW116052   2.483   3.499   8.783
 5172SOL    HW216053   2.569   3.410   8.696
 5173SOL     OW16054   3.216   1.915   7.615
 5173SOL    HW116055   3.247   1.847   7.555
 5173SOL    HW216056   3.127   1.887   7.640
 5174SOL     OW16057   3.158   2.324   8.127
 5174SOL    HW116058   3.105   2.404   8.133
 5174SOL    HW216059   3.153   2.286   8.215
 5175SOL     OW16060   3.448   2.061   8.327
 5175SOL    HW116061   3.390   2.083   8.400
 5175SOL    HW216062   3.447   2.139   8.272
 5176SOL     OW16063   1.904   2.930   7.757
 5176SOL    HW116064   1.998   2.922   7.738
 5176SOL    HW216065   1.876   2.841   7.779
 5177SOL     OW16066   2.749   3.518   7.788
 5177SOL    HW116067   2.675   3.501   7.730
 5177SOL    HW216068   2.720   3.592   7.842
 5178SOL     OW16069   2.073   2.537   9.442
 5178SOL    HW116070   1.989   2.509   9.478
 5178SOL    HW216071   2.078   2.494   9.356
 5179SOL     OW16072   1.856   2.242   9.944
 5179SOL    HW116073   1.776   2.267   9.991
 5179SOL    HW216074   1.833   2.160   9.900
 5180SOL     OW16075   2.429   3.154  10.489
 5180SOL    HW116076   2.343   3.158  10.448
 5180SOL    HW216077   2.444   3.242  10.522
 5181SOL     OW16078   3.428   3.375  10.018
 5181SOL    HW116079   3.385   3.353  10.101
 5181SOL    HW216080   3.356   3.378   9.954
 5182SOL     OW16081   2.995   2.560  10.006
 5182SOL    HW116082   3.042   2.643   9.997
 5182SOL    HW216083   2.947   2.568  10.089
 5183SOL     OW16084   3.634   2.465   9.537
 5183SOL    HW116085   3.610   2.458   9.444
 5183SOL    HW216086   3.595   2.387   9.577
 5184SOL     OW16087   2.613   3.002  10.353
 5184SOL    HW116088   2.545   3.038  10.410
 5184SOL    HW216089   2.650   3.078  10.309
 5185SOL     OW16090   2.719   2.637   0.024
 5185SOL    HW116091   2.723   2.691   0.103
 5185SOL    HW216092   2.753   2.693  11.054
 5186SOL     OW16093   2.549   2.865   9.955
 5186SOL    HW116094   2.615   2.854  10.023
 5186SOL    HW216095   2.481   2.920   9.995
 5187SOL     OW16096   2.195   3.281  10.376
 5187SOL    HW116097   2.119   3.245  10.329
 5187SOL    HW216098   2.240   3.334  10.310
 5188SOL     OW16099   3.325   3.362  10.664
 5188SOL    HW116100   3.383   3.437  10.670
 5188SOL    HW216101   3.262   3.374  10.735
 5189SOL     OW16102   3.471   2.308  10.052
 5189SOL    HW116103   3.396   2.328   9.996
 5189SOL    HW216104   3.482   2.386  10.107
 5190SOL     OW16105   2.081   3.577   9.781
 5190SOL    HW116106   2.102   3.653   9.835
 5190SOL    HW216107   2.155   3.569   9.720
 5191SOL     OW16108   2.094   3.304   9.847
 5191SOL    HW116109   2.075   3.398   9.848
 5191SOL    HW216110   2.034   3.267   9.911
 5192SOL     OW16111   2.125   2.958  10.201
 5192SOL    HW116112   2.117   2.870  10.237
 5192SOL    HW216113   2.065   3.011  10.254
 5193SOL     OW16114   2.469   3.651  10.737
 5193SOL    HW116115   2.389   3.632  10.787
 5193SOL    HW216116   2.492   3.740  10.762
 5194SOL     OW16117   2.448   2.844   9.441
 5194SOL    HW116118   2.496   2.894   9.375
 5194SOL    HW216119   2.484   2.874   9.524
 5195SOL     OW16120   3.450   1.981  10.777
 5195SOL    HW116121   3.472   2.059  10.726
 5195SOL    HW216122   3.464   2.007  10.868
 5196SOL     OW16123   1.963   2.506   9.872
 5196SOL    HW116124   1.937   2.418   9.897
 5196SOL    HW216125   1.963   2.555   9.954
 5197SOL     OW16126   3.705   3.619   9.643
 5197SOL    HW116127   3.771   3.592   9.706
 5197SOL    HW216128   3.726   3.710   9.624
 5198SOL     OW16129   1.897   3.455   9.433
 5198SOL    HW116130   1.877   3.363   9.453
 5198SOL    HW216131   1.872   3.503   9.512
 5199SOL     OW16132   3.551   2.781   9.954
 5199SOL    HW116133   3.634   2.738   9.933
 5199SOL    HW216134   3.530   2.831   9.875
 5200SOL     OW16135   3.510   2.967   9.739
 5200SOL    HW116136   3.596   2.970   9.698
 5200SOL    HW216137   3.515   3.029   9.811
 5201SOL     OW16138   1.979   2.603  10.884
 5201SOL    HW116139   2.063   2.613  10.930
 5201SOL    HW216140   1.932   2.684  10.903
 5202SOL     OW16141   2.477   3.250  10.045
 5202SOL    HW116142   2.431   3.167  10.054
 5202SOL    HW216143   2.461   3.277   9.955
 5203SOL     OW16144   3.152   3.097  10.753
 5203SOL    HW116145   3.178   3.037  10.683
 5203SOL    HW216146   3.210   3.076  10.826
 5204SOL     OW16147   2.676   1.863   9.817
 5204SOL    HW116148   2.718   1.947   9.797
 5204SOL    HW216149   2.583   1.885   9.825
 5205SOL     OW16150   2.052   2.829  10.577
 5205SOL    HW116151   2.135   2.783  10.559
 5205SOL    HW216152   1.985   2.772  10.538
 5206SOL     OW16153   3.393   2.858   9.510
 5206SOL    HW116154   3.323   2.801   9.542
 5206SOL    HW216155   3.435   2.892   9.589
 5207SOL     OW16156   3.059   3.669  10.929
 5207SOL    HW116157   3.055   3.735  10.859
 5207SOL    HW216158   3.069   3.586  10.883
 5208SOL     OW16159   3.330   3.281  10.259
 5208SOL    HW116160   3.261   3.298  10.324
 5208SOL    HW216161   3.316   3.190  10.233
 5209SOL     OW16162   3.518   3.607   9.888
 5209SOL    HW116163   3.499   3.576   9.799
 5209SOL    HW216164   3.496   3.533   9.944
 5210SOL     OW16165   2.466   2.586   9.577
 5210SOL    HW116166   2.480   2.659   9.515
 5210SOL    HW216167   2.380   2.604   9.615
 5211SOL     OW16168   3.142   2.220  10.244
 5211SOL    HW116169   3.053   2.187  10.251
 5211SOL    HW216170   3.193   2.165  10.303
 5212SOL     OW16171   3.441   3.534   9.620
 5212SOL    HW116172   3.532   3.562   9.612
 5212SOL    HW216173   3.414   3.517   9.530
 5213SOL     OW16174   2.648   2.459  10.755
 5213SOL    HW116175   2.629   2.452  10.848
 5213SOL    HW216176   2.591   2.395  10.713
 5214SOL     OW16177   2.827   2.762  10.904
 5214SOL    HW116178   2.876   2.691  10.862
 5214SOL    HW216179   2.777   2.802  10.833
 5215SOL     OW16180   2.863   2.273  10.545
 5215SOL    HW116181   2.785   2.322  10.571
 5215SOL    HW216182   2.841   2.237  10.459
 5216SOL     OW16183   2.912   2.559   9.736
 5216SOL    HW116184   2.931   2.552   9.829
 5216SOL    HW216185   2.829   2.513   9.724
 5217SOL     OW16186   1.950   2.684  10.085
 5217SOL    HW116187   2.031   2.680  10.135
 5217SOL    HW216188   1.904   2.760  10.120
 5218SOL     OW16189   1.989   3.715  10.901
 5218SOL    HW116190   1.975   3.674  10.986
 5218SOL    HW216191   1.907   3.701  10.854
 5219SOL     OW16192   2.758   2.213   9.504
 5219SOL    HW116193   2.799   2.275   9.444
 5219SOL    HW216194   2.764   2.128   9.461
 5220SOL     OW16195   3.241   3.004   9.850
 5220SOL    HW116196   3.320   2.992   9.798
 5220SOL    HW216197   3.188   3.066   9.800
 5221SOL     OW16198   2.865   3.306   9.780
 5221SOL    HW116199   2.831   3.380   9.731
 5221SOL    HW216200   2.844   3.326   9.871
 5222SOL     OW16201   2.216   3.673  10.175
 5222SOL    HW116202   2.259   3.588  10.182
 5222SOL    HW216203   2.284   3.737  10.195
 5223SOL     OW16204   3.661   2.919  10.180
 5223SOL    HW116205   3.607   2.898  10.103
 5223SOL    HW216206   3.598   2.924  10.252
 5224SOL     OW16207   3.092   3.397  10.822
 5224SOL    HW116208   3.101   3.308  10.854
 5224SOL    HW216209   3.025   3.391  10.754
 5225SOL     OW16210   2.187   2.803   9.569
 5225SOL    HW116211   2.260   2.827   9.513
 5225SOL    HW216212   2.145   2.730   9.524
 5226SOL     OW16213   3.342   2.608  10.034
 5226SOL    HW116214   3.335   2.566  10.120
 5226SOL    HW216215   3.420   2.663  10.041
 5227SOL     OW16216   2.312   3.127  11.053
 5227SOL    HW116217   2.283   3.141  10.963
 5227SOL    HW216218   2.259   3.053  11.084
 5228SOL     OW16219   2.985   3.640   9.540
 5228SOL    HW116220   2.910   3.599   9.584
 5228SOL    HW216221   3.009   3.578   9.472
 5229SOL     OW16222   3.491   3.243   9.399
 5229SOL    HW116223   3.449   3.328   9.384
 5229SOL    HW216224   3.422   3.179   9.379
 5230SOL     OW16225   2.327   3.599   9.630
 5230SOL    HW116226   2.371   3.655   9.693
 5230SOL    HW216227   2.398   3.566   9.575
 5231SOL     OW16228   3.263   1.969   9.746
 5231SOL    HW116229   3.254   1.944   9.654
 5231SOL    HW216230   3.357   1.975   9.760
 5232SOL     OW16231   2.118   3.654  10.542
 5232SOL    HW116232   2.167   3.587  10.590
 5232SOL    HW216233   2.110   3.618  10.454
 5233SOL     OW16234   2.801   3.561  10.208
 5233SOL    HW116235   2.880   3.511  10.228
 5233SOL    HW216236   2.758   3.511  10.138
 5234SOL     OW16237   2.497   1.991   9.408
 5234SOL    HW116238   2.555   1.926   9.445
 5234SOL    HW216239   2.453   1.946   9.336
 5235SOL     OW16240   2.627   2.139  11.046
 5235SOL    HW116241   2.697   2.082  11.078
 5235SOL    HW216242   2.567   2.148   0.020
 5236SOL     OW16243   2.737   3.384  10.504
 5236SOL    HW116244   2.721   3.348  10.417
 5236SOL    HW216245   2.810   3.332  10.538
 5237SOL     OW16246   3.203   2.455  10.756
 5237SOL    HW116247   3.258   2.434  10.832
 5237SOL    HW216248   3.230   2.543  10.730
 5238SOL     OW16249   2.679   3.254  10.253
 5238SOL    HW116250   2.763   3.242  10.209
 5238SOL    HW216251   2.615   3.258  10.181
 5239SOL     OW16252   2.803   2.367  10.223
 5239SOL    HW116253   2.760   2.367  10.137
 5239SOL    HW216254   2.831   2.276  10.235
 5240SOL     OW16255   2.405   1.931   9.804
 5240SOL    HW116256   2.329   1.919   9.860
 5240SOL    HW216257   2.398   2.021   9.772
 5241SOL     OW16258   3.290   3.061   9.350
 5241SOL    HW116259   3.320   2.986   9.401
 5241SOL    HW216260   3.205   3.083   9.388
 5242SOL     OW16261   2.160   1.906   9.501
 5242SOL    HW116262   2.227   1.973   9.489
 5242SOL    HW216263   2.207   1.832   9.540
 5243SOL     OW16264   2.802   2.108   9.764
 5243SOL    HW116265   2.779   2.150   9.681
 5243SOL    HW216266   2.896   2.122   9.773
 5244SOL     OW16267   2.937   2.548  10.767
 5244SOL    HW116268   2.873   2.478  10.776
 5244SOL    HW216269   3.022   2.504  10.768
 5245SOL     OW16270   3.083   3.434  10.105
 5245SOL    HW116271   3.098   3.499  10.037
 5245SOL    HW216272   3.153   3.449  10.169
 5246SOL     OW16273   2.333   3.013  10.039
 5246SOL    HW116274   2.264   2.996  10.104
 5246SOL    HW216275   2.291   2.997   9.954
 5247SOL     OW16276   3.129   3.655   9.920
 5247SOL    HW116277   3.177   3.716   9.864
 5247SOL    HW216278   3.062   3.709   9.962
 5248SOL     OW16279   2.886   2.401   9.335
 5248SOL    HW116280   2.842   2.485   9.316
 5248SOL    HW216281   2.951   2.422   9.402
 5249SOL     OW16282   1.949   2.419  10.693
 5249SOL    HW116283   2.034   2.384  10.719
 5249SOL    HW216284   1.932   2.491  10.754
 5250SOL     OW16285   2.443   1.990  10.433
 5250SOL    HW116286   2.460   1.969  10.525
 5250SOL    HW216287   2.366   2.047  10.435
 5251SOL     OW16288   2.742   2.318   9.949
 5251SOL    HW116289   2.691   2.374   9.890
 5251SOL    HW216290   2.759   2.240   9.897
 5252SOL     OW16291   2.879   1.913  10.060
 5252SOL    HW116292   2.819   1.909   9.985
 5252SOL    HW216293   2.855   1.839  10.115
 5253SOL     OW16294   3.299   3.024  10.167
 5253SOL    HW116295   3.231   2.957  10.166
 5253SOL    HW216296   3.324   3.033  10.075
 5254SOL     OW16297   3.327   2.471  10.282
 5254SOL    HW116298   3.274   2.392  10.284
 5254SOL    HW216299   3.386   2.463  10.357
 5255SOL     OW16300   3.706   2.676   9.693
 5255SOL    HW116301   3.763   2.626   9.752
 5255SOL    HW216302   3.679   2.613   9.627
 5256SOL     OW16303   2.351   3.282   9.465
 5256SOL    HW116304   2.276   3.253   9.516
 5256SOL    HW216305   2.341   3.237   9.381
 5257SOL     OW16306   3.535   3.126   9.953
 5257SOL    HW116307   3.629   3.127   9.969
 5257SOL    HW216308   3.506   3.215   9.975
 5258SOL     OW16309   3.256   2.434   9.382
 5258SOL    HW116310   3.194   2.414   9.452
 5258SOL    HW216311   3.340   2.402   9.413
 5259SOL     OW16312   3.619   3.091  10.859
 5259SOL    HW116313   3.711   3.064  10.859
 5259SOL    HW216314   3.620   3.177  10.901
 5260SOL     OW16315   2.923   3.216  10.649
 5260SOL    HW116316   2.845   3.183  10.693
 5260SOL    HW216317   2.995   3.168  10.689
 5261SOL     OW16318   2.995   3.073  10.413
 5261SOL    HW116319   2.928   3.105  10.474
 5261SOL    HW216320   2.966   3.102  10.327
 5262SOL     OW16321   3.488   2.959  10.388
 5262SOL    HW116322   3.484   3.021  10.461
 5262SOL    HW216323   3.410   2.978  10.336
 5263SOL     OW16324   2.787   1.957  10.702
 5263SOL    HW116325   2.808   1.940  10.611
 5263SOL    HW216326   2.865   1.999  10.737
 5264SOL     OW16327   2.571   2.924   9.679
 5264SOL    HW116328   2.558   2.907   9.772
 5264SOL    HW216329   2.646   2.870   9.655
 5265SOL     OW16330   2.281   2.668  10.564
 5265SOL    HW116331   2.354   2.688  10.623
 5265SOL    HW216332   2.234   2.597  10.608
 5266SOL     OW16333   3.131   2.239  10.593
 5266SOL    HW116334   3.161   2.319  10.637
 5266SOL    HW216335   3.042   2.259  10.566
 5267SOL     OW16336   1.934   3.439  10.665
 5267SOL    HW116337   1.906   3.510  10.607
 5267SOL    HW216338   2.029   3.438  10.657
 5268SOL     OW16339   2.210   2.972   9.796
 5268SOL    HW116340   2.212   3.049   9.740
 5268SOL    HW216341   2.204   2.898   9.735
 5269SOL     OW16342   2.522   2.444  10.153
 5269SOL    HW116343   2.501   2.485  10.069
 5269SOL    HW216344   2.463   2.486  10.216
 5270SOL     OW16345   3.110   3.211   9.699
 5270SOL    HW116346   3.166   3.282   9.730
 5270SOL    HW216347   3.023   3.232   9.733
 5271SOL     OW16348   3.146   3.323  10.456
 5271SOL    HW116349   3.203   3.325  10.532
 5271SOL    HW216350   3.093   3.244  10.468
 5272SOL     OW16351   3.442   2.483   9.791
 5272SOL    HW116352   3.393   2.533   9.857
 5272SOL    HW216353   3.486   2.550   9.738
 5273SOL     OW16354   2.206   3.390  10.620
 5273SOL    HW116355   2.195   3.345  10.536
 5273SOL    HW216356   2.301   3.402  10.629
 5274SOL     OW16357   2.286   2.596  10.908
 5274SOL    HW116358   2.350   2.641  10.852
 5274SOL    HW216359   2.331   2.516  10.936
 5275SOL     OW16360   3.459   2.619  10.966
 5275SOL    HW116361   3.382   2.674  10.953
 5275SOL    HW216362   3.530   2.668  10.925
 5276SOL     OW16363   2.440   2.726  10.338
 5276SOL    HW116364   2.479   2.813  10.333
 5276SOL    HW216365   2.389   2.726  10.419
 5277SOL     OW16366   3.215   2.723  10.341
 5277SOL    HW116367   3.131   2.710  10.298
 5277SOL    HW216368   3.260   2.639  10.332
 5278SOL     OW16369   3.063   2.390   9.575
 5278SOL    HW116370   3.072   2.312   9.629
 5278SOL    HW216371   3.020   2.454   9.631
 5279SOL     OW16372   1.917   3.175  10.584
 5279SOL    HW116373   1.940   3.118  10.657
 5279SOL    HW216374   1.914   3.263  10.622
 5280SOL     OW16375   2.625   2.518  10.412
 5280SOL    HW116376   2.650   2.466  10.336
 5280SOL    HW216377   2.571   2.588  10.376
 5281SOL     OW16378   2.163   1.900   9.942
 5281SOL    HW116379   2.106   1.974   9.959
 5281SOL    HW216380   2.177   1.861  10.028
 5282SOL     OW16381   3.481   2.238   9.674
 5282SOL    HW116382   3.508   2.174   9.739
 5282SOL    HW216383   3.458   2.316   9.725
 5283SOL     OW16384   2.892   2.622  10.267
 5283SOL    HW116385   2.886   2.642  10.361
 5283SOL    HW216386   2.861   2.532  10.260
 5284SOL     OW16387   2.835   3.435  11.004
 5284SOL    HW116388   2.820   3.485  10.923
 5284SOL    HW216389   2.862   3.348  10.973
 5285SOL     OW16390   3.716   3.352  10.911
 5285SOL    HW116391   3.735   3.388  10.825
 5285SOL    HW216392   3.780   3.393  10.969
 5286SOL     OW16393   2.230   2.798  11.082
 5286SOL    HW116394   2.310   2.802   0.034
 5286SOL    HW216395   2.242   2.723  11.025
 5287SOL     OW16396   3.389   2.134   9.437
 5287SOL    HW116397   3.325   2.069   9.464
 5287SOL    HW216398   3.423   2.170   9.519
 5288SOL     OW16399   3.151   2.687   9.339
 5288SOL    HW116400   3.194   2.602   9.344
 5288SOL    HW216401   3.183   2.726   9.258
 5289SOL     OW16402   2.929   3.198  10.165
 5289SOL    HW116403   2.933   3.126  10.102
 5289SOL    HW216404   2.989   3.264  10.130
 5290SOL     OW16405   2.170   2.681  10.253
 5290SOL    HW116406   2.264   2.699  10.249
 5290SOL    HW216407   2.163   2.602  10.306
 5291SOL     OW16408   3.022   2.068  10.784
 5291SOL    HW116409   3.038   2.124  10.860
 5291SOL    HW216410   3.063   2.115  10.711
 5292SOL     OW16411   1.868   3.180   9.504
 5292SOL    HW116412   1.781   3.196   9.467
 5292SOL    HW216413   1.863   3.091   9.539
 5293SOL     OW16414   1.951   3.647  10.249
 5293SOL    HW116415   1.922   3.568  10.203
 5293SOL    HW216416   2.041   3.660  10.218
 5294SOL     OW16417   2.357   3.437  10.215
 5294SOL    HW116418   2.425   3.499  10.239
 5294SOL    HW216419   2.400   3.374  10.157
 5295SOL     OW16420   2.841   2.663  10.534
 5295SOL    HW116421   2.885   2.633  10.613
 5295SOL    HW216422   2.763   2.608  10.528
 5296SOL     OW16423   1.906   2.417  10.423
 5296SOL    HW116424   1.949   2.339  10.387
 5296SOL    HW216425   1.928   2.415  10.516
 5297SOL     OW16426   2.675   2.430   9.674
 5297SOL    HW116427   2.683   2.359   9.611
 5297SOL    HW216428   2.603   2.484   9.642
 5298SOL     OW16429   3.503   2.463  10.492
 5298SOL    HW116430   3.495   2.405  10.568
 5298SOL    HW216431   3.591   2.446  10.458
 5299SOL     OW16432   2.115   3.425  11.048
 5299SOL    HW116433   2.055   3.453   0.017
 5299SOL    HW216434   2.135   3.334  11.069
 5300SOL     OW16435   2.800   3.544  10.755
 5300SOL    HW116436   2.766   3.508  10.674
 5300SOL    HW216437   2.784   3.638  10.749
 5301SOL     OW16438   2.016   3.000  10.781
 5301SOL    HW116439   2.007   2.946  10.860
 5301SOL    HW216440   2.028   2.937  10.710
 5302SOL     OW16441   3.184   2.914  10.538
 5302SOL    HW116442   3.209   2.848  10.473
 5302SOL    HW216443   3.116   2.965  10.494
 5303SOL     OW16444   3.176   2.719   9.615
 5303SOL    HW116445   3.102   2.688   9.667
 5303SOL    HW216446   3.149   2.705   9.524
 5304SOL     OW16447   3.642   3.604  10.464
 5304SOL    HW116448   3.700   3.629  10.392
 5304SOL    HW216449   3.614   3.515  10.442
 5305SOL     OW16450   3.102   3.596  10.419
 5305SOL    HW116451   3.184   3.619  10.376
 5305SOL    HW216452   3.110   3.502  10.438
 5306SOL     OW16453   1.947   3.130  10.320
 5306SOL    HW116454   1.935   3.144  10.414
 5306SOL    HW216455   1.873   3.075  10.295
 5307SOL     OW16456   3.582   2.012   9.817
 5307SOL    HW116457   3.654   1.997   9.756
 5307SOL    HW216458   3.566   1.927   9.858
 5308SOL     OW16459   3.253   3.430   9.797
 5308SOL    HW116460   3.313   3.463   9.730
 5308SOL    HW216461   3.204   3.507   9.826
 5309SOL     OW16462   3.140   2.790   9.983
 5309SOL    HW116463   3.213   2.729   9.990
 5309SOL    HW216464   3.174   2.862   9.929
 5310SOL     OW16465   2.676   3.138  10.735
 5310SOL    HW116466   2.645   3.171  10.820
 5310SOL    HW216467   2.606   3.160  10.674
 5311SOL     OW16468   2.532   3.485   9.466
 5311SOL    HW116469   2.544   3.498   9.371
 5311SOL    HW216470   2.476   3.407   9.472
 5312SOL     OW16471   3.480   3.583  10.692
 5312SOL    HW116472   3.538   3.597  10.617
 5312SOL    HW216473   3.465   3.671  10.727
 5313SOL     OW16474   3.704   2.034  10.278
 5313SOL    HW116475   3.733   1.947  10.252
 5313SOL    HW216476   3.618   2.043  10.237
 5314SOL     OW16477   3.070   3.466   9.342
 5314SOL    HW116478   3.059   3.375   9.369
 5314SOL    HW216479   3.005   3.479   9.274
 5315SOL     OW16480   2.687   2.868  10.690
 5315SOL    HW116481   2.734   2.853  10.608
 5315SOL    HW216482   2.688   2.963  10.701
 5316SOL     OW16483   2.778   2.772   9.600
 5316SOL    HW116484   2.839   2.804   9.534
 5316SOL    HW216485   2.826   2.703   9.646
 5317SOL     OW16486   3.352   3.489   9.353
 5317SOL    HW116487   3.258   3.480   9.339
 5317SOL    HW216488   3.390   3.494   9.266
 5318SOL     OW16489   2.226   3.173  10.806
 5318SOL    HW116490   2.212   3.246  10.745
 5318SOL    HW216491   2.155   3.113  10.788
 5319SOL     OW16492   3.475   3.143  10.594
 5319SOL    HW116493   3.529   3.125  10.670
 5319SOL    HW216494   3.417   3.215  10.621
 5320SOL     OW16495   2.918   2.970  10.019
 5320SOL    HW116496   2.846   2.918  10.056
 5320SOL    HW216497   2.982   2.905   9.990
 5321SOL     OW16498   2.888   2.101  10.276
 5321SOL    HW116499   2.882   2.053  10.193
 5321SOL    HW216500   2.880   2.033  10.343
 5322SOL     OW16501   2.467   3.350   9.791
 5322SOL    HW116502   2.513   3.300   9.724
 5322SOL    HW216503   2.394   3.391   9.744
 5323SOL     OW16504   3.581   2.256  10.691
 5323SOL    HW116505   3.654   2.318  10.694
 5323SOL    HW216506   3.612   2.185  10.634
 5324SOL     OW16507   2.123   3.204   9.602
 5324SOL    HW116508   2.030   3.202   9.577
 5324SOL    HW216509   2.123   3.243   9.689
 5325SOL     OW16510   1.977   2.871  11.018
 5325SOL    HW116511   1.912   2.859  11.087
 5325SOL    HW216512   2.060   2.846  11.058
 5326SOL     OW16513   2.547   2.046  10.797
 5326SOL    HW116514   2.632   2.022  10.760
 5326SOL    HW216515   2.568   2.091  10.879
 5327SOL     OW16516   1.894   2.188   9.360
 5327SOL    HW116517   1.822   2.146   9.312
 5327SOL    HW216518   1.909   2.270   9.313
 5328SOL     OW16519   3.289   2.712  10.710
 5328SOL    HW116520   3.241   2.780  10.664
 5328SOL    HW216521   3.379   2.720  10.677
 5329SOL     OW16522   1.928   2.017   9.617
 5329SOL    HW116523   1.908   2.092   9.561
 5329SOL    HW216524   2.014   1.988   9.587
 5330SOL     OW16525   3.040   3.199   9.427
 5330SOL    HW116526   2.950   3.169   9.429
 5330SOL    HW216527   3.068   3.200   9.519
 5331SOL     OW16528   2.488   2.689  10.740
 5331SOL    HW116529   2.543   2.766  10.729
 5331SOL    HW216530   2.549   2.616  10.742
 5332SOL     OW16531   3.344   3.642  10.290
 5332SOL    HW116532   3.368   3.705  10.222
 5332SOL    HW216533   3.427   3.618  10.331
 5333SOL     OW16534   2.579   2.431  11.013
 5333SOL    HW116535   2.616   2.503  11.064
 5333SOL    HW216536   2.626   2.354  11.043
 5334SOL     OW16537   2.242   3.595  10.873
 5334SOL    HW116538   2.166   3.652  10.866
 5334SOL    HW216539   2.214   3.525  10.932
 5335SOL     OW16540   3.529   2.743  10.568
 5335SOL    HW116541   3.524   2.658  10.525
 5335SOL    HW216542   3.521   2.807  10.497
 5336SOL     OW16543   3.078   2.181   9.768
 5336SOL    HW116544   3.141   2.109   9.761
 5336SOL    HW216545   3.106   2.230   9.844
 5337SOL     OW16546   2.439   2.612   9.957
 5337SOL    HW116547   2.486   2.695   9.950
 5337SOL    HW216548   2.359   2.625   9.906
 5338SOL     OW16549   3.604   2.178  10.959
 5338SOL    HW116550   3.589   2.218  10.873
 5338SOL    HW216551   3.528   2.202  11.011
 5339SOL     OW16552   3.613   2.798  10.825
 5339SOL    HW116553   3.603   2.892  10.839
 5339SOL    HW216554   3.594   2.785  10.732
 5340SOL     OW16555   2.724   3.228   9.348
 5340SOL    HW116556   2.687   3.256   9.431
 5340SOL    HW216557   2.742   3.310   9.301
 5341SOL     OW16558   2.524   3.650  10.252
 5341SOL    HW116559   2.504   3.741  10.230
 5341SOL    HW216560   2.619   3.644  10.245
 5342SOL     OW16561   2.729   2.830  10.164
 5342SOL    HW116562   2.778   2.756  10.200
 5342SOL    HW216563   2.696   2.877  10.241
 5343SOL     OW16564   2.939   2.850   9.398
 5343SOL    HW116565   2.919   2.901   9.320
 5343SOL    HW216566   3.014   2.796   9.372
 5344SOL     OW16567   3.714   3.416  10.153
 5344SOL    HW116568   3.635   3.404  10.101
 5344SOL    HW216569   3.709   3.349  10.221
 5345SOL     OW16570   1.946   3.095   9.976
 5345SOL    HW116571   1.950   3.048  10.059
 5345SOL    HW216572   2.013   3.053   9.922
 5346SOL     OW16573   2.541   3.257  10.942
 5346SOL    HW116574   2.470   3.207  10.981
 5346SOL    HW216575   2.503   3.343  10.924
 5347SOL     OW16576   3.669   2.044  10.549
 5347SOL    HW116577   3.679   1.949  10.560
 5347SOL    HW216578   3.682   2.059  10.455
 5348SOL     OW16579   3.561   3.351  10.405
 5348SOL    HW116580   3.481   3.328  10.358
 5348SOL    HW216581   3.572   3.281  10.469
 5349SOL     OW16582   2.691   3.440   9.987
 5349SOL    HW116583   2.674   3.499   9.913
 5349SOL    HW216584   2.616   3.381   9.988
 5350SOL     OW16585   3.293   2.088  10.428
 5350SOL    HW116586   3.316   2.006  10.472
 5350SOL    HW216587   3.244   2.137  10.493
 5351SOL     OW16588   2.871   1.877  10.449
 5351SOL    HW116589   2.819   1.812  10.403
 5351SOL    HW216590   2.959   1.840  10.452
 5352SOL     OW16591   2.635   3.195   9.628
 5352SOL    HW116592   2.606   3.104   9.633
 5352SOL    HW216593   2.717   3.198   9.677
 5353SOL     OW16594   2.482   3.415  10.599
 5353SOL    HW116595   2.481   3.499  10.644
 5353SOL    HW216596   2.569   3.410  10.559
 5354SOL     OW16597   3.216   1.915   9.477
 5354SOL    HW116598   3.246   1.848   9.417
 5354SOL    HW216599   3.128   1.887   9.502
 5355SOL     OW16600   3.159   2.324   9.989
 5355SOL    HW116601   3.105   2.403   9.994
 5355SOL    HW216602   3.153   2.286  10.077
 5356SOL     OW16603   3.448   2.061  10.190
 5356SOL    HW116604   3.389   2.083  10.262
 5356SOL    HW216605   3.447   2.139  10.133
 5357SOL     OW16606   1.904   2.930   9.619
 5357SOL    HW116607   1.997   2.923   9.601
 5357SOL    HW216608   1.876   2.841   9.641
 5358SOL     OW16609   2.748   3.518   9.650
 5358SOL    HW116610   2.675   3.501   9.592
 5358SOL    HW216611   2.720   3.592   9.704
 5359SOL     OW16612   2.060   4.298   0.088
 5359SOL    HW116613   2.045   4.360   0.159
 5359SOL    HW216614   2.071   4.354   0.011
 5360SOL     OW16615   2.086   4.002   0.991
 5360SOL    HW116616   2.113   3.967   1.076
 5360SOL    HW216617   1.996   3.971   0.981
 5361SOL     OW16618   1.865   4.102   0.643
 5361SOL    HW116619   1.783   4.131   0.684
 5361SOL    HW216620   1.839   4.025   0.591
 5362SOL     OW16621   3.593   4.330   0.233
 5362SOL    HW116622   3.609   4.307   0.141
 5362SOL    HW216623   3.583   4.245   0.277
 5363SOL     OW16624   2.599   0.276   0.688
 5363SOL    HW116625   2.586   0.209   0.755
 5363SOL    HW216626   2.514   0.282   0.644
 5364SOL     OW16627   2.313   4.112   1.481
 5364SOL    HW116628   2.390   4.055   1.489
 5364SOL    HW216629   2.239   4.055   1.502
 5365SOL     OW16630   3.476   4.170   0.743
 5365SOL    HW116631   3.415   4.196   0.674
 5365SOL    HW216632   3.465   4.235   0.812
 5366SOL     OW16633   3.458   3.849   1.467
 5366SOL    HW116634   3.472   3.930   1.417
 5366SOL    HW216635   3.441   3.878   1.556
 5367SOL     OW16636   1.943   4.372   0.564
 5367SOL    HW116637   1.928   4.281   0.589
 5367SOL    HW216638   2.008   4.404   0.627
 5368SOL     OW16639   1.980   4.479   1.583
 5368SOL    HW116640   2.045   4.499   1.651
 5368SOL    HW216641   1.951   0.064   1.552
 5369SOL     OW16642   2.679   3.729   0.511
 5369SOL    HW116643   2.718   3.814   0.492
 5369SOL    HW216644   2.585   3.746   0.518
 5370SOL     OW16645   2.199   3.972   1.818
 5370SOL    HW116646   2.234   4.060   1.831
 5370SOL    HW216647   2.106   3.980   1.841
 5371SOL     OW16648   3.139   4.078   0.933
 5371SOL    HW116649   3.049   4.044   0.944
 5371SOL    HW216650   3.191   4.024   0.993
 5372SOL     OW16651   2.694   4.300   1.445
 5372SOL    HW116652   2.655   4.304   1.532
 5372SOL    HW216653   2.626   4.263   1.389
 5373SOL     OW16654   3.256   4.200   1.677
 5373SOL    HW116655   3.260   4.245   1.761
 5373SOL    HW216656   3.313   4.123   1.687
 5374SOL     OW16657   2.861   4.153   1.233
 5374SOL    HW116658   2.791   4.178   1.293
 5374SOL    HW216659   2.819   4.096   1.169
 5375SOL     OW16660   2.921   4.405   0.419
 5375SOL    HW116661   2.916   4.466   0.493
 5375SOL    HW216662   2.830   4.382   0.401
 5376SOL     OW16663   2.753   4.074   0.210
 5376SOL    HW116664   2.795   4.134   0.148
 5376SOL    HW216665   2.766   3.987   0.172
 5377SOL     OW16666   3.574   4.300   1.831
 5377SOL    HW116667   3.589   4.386   1.793
 5377SOL    HW216668   3.593   4.239   1.760
 5378SOL     OW16669   2.413   3.902   0.894
 5378SOL    HW116670   2.414   3.931   0.985
 5378SOL    HW216671   2.410   3.983   0.843
 5379SOL     OW16672   3.351   4.468   0.741
 5379SOL    HW116673   3.339   4.412   0.817
 5379SOL    HW216674   3.393   0.047   0.775
 5380SOL     OW16675   2.061   3.999   1.506
 5380SOL    HW116676   1.977   4.044   1.501
 5380SOL    HW216677   2.043   3.919   1.555
 5381SOL     OW16678   3.264   3.829   0.433
 5381SOL    HW116679   3.258   3.808   0.340
 5381SOL    HW216680   3.358   3.839   0.450
 5382SOL     OW16681   2.213   4.383   0.403
 5382SOL    HW116682   2.253   4.310   0.450
 5382SOL    HW216683   2.142   4.412   0.460
 5383SOL     OW16684   3.394   3.950   1.725
 5383SOL    HW116685   3.403   3.970   1.818
 5383SOL    HW216686   3.325   3.882   1.722
 5384SOL     OW16687   2.481   3.831   0.128
 5384SOL    HW116688   2.568   3.793   0.118
 5384SOL    HW216689   2.438   3.813   0.044
 5385SOL     OW16690   2.625   4.002   1.755
 5385SOL    HW116691   2.704   3.948   1.753
 5385SOL    HW216692   2.579   3.974   1.834
 5386SOL     OW16693   3.202   4.313   1.431
 5386SOL    HW116694   3.224   4.276   1.516
 5386SOL    HW216695   3.250   4.395   1.427
 5387SOL     OW16696   2.789   4.234   0.898
 5387SOL    HW116697   2.764   4.218   0.806
 5387SOL    HW216698   2.827   4.152   0.927
 5388SOL     OW16699   2.413   3.788   0.503
 5388SOL    HW116700   2.331   3.786   0.552
 5388SOL    HW216701   2.406   3.866   0.448
 5389SOL     OW16702   2.147   3.771   0.203
 5389SOL    HW116703   2.187   3.826   0.136
 5389SOL    HW216704   2.215   3.709   0.227
 5390SOL     OW16705   2.803   3.976   0.463
 5390SOL    HW116706   2.778   4.014   0.379
 5390SOL    HW216707   2.898   3.989   0.468
 5391SOL     OW16708   2.936   4.394   1.532
 5391SOL    HW116709   2.854   4.365   1.492
 5391SOL    HW216710   3.004   4.360   1.475
 5392SOL     OW16711   2.871   4.263   0.041
 5392SOL    HW116712   2.891   4.309  11.060
 5392SOL    HW216713   2.950   4.271   0.094
 5393SOL     OW16714   1.939   4.281   1.395
 5393SOL    HW116715   2.030   4.272   1.367
 5393SOL    HW216716   1.939   4.354   1.456
 5394SOL     OW16717   2.419   3.950   1.166
 5394SOL    HW116718   2.462   3.877   1.209
 5394SOL    HW216719   2.329   3.947   1.196
 5395SOL     OW16720   2.728   4.189   0.639
 5395SOL    HW116721   2.704   4.255   0.573
 5395SOL    HW216722   2.748   4.111   0.587
 5396SOL     OW16723   2.877   3.778   0.749
 5396SOL    HW116724   2.819   3.770   0.674
 5396SOL    HW216725   2.855   3.702   0.804
 5397SOL     OW16726   3.340   4.308   0.961
 5397SOL    HW116727   3.275   4.240   0.980
 5397SOL    HW216728   3.389   4.319   1.042
 5398SOL     OW16729   3.265   4.290   0.074
 5398SOL    HW116730   3.198   4.275   0.140
 5398SOL    HW216731   3.324   4.215   0.081
 5399SOL     OW16732   2.390   3.994   0.327
 5399SOL    HW116733   2.418   3.932   0.259
 5399SOL    HW216734   2.367   4.073   0.278
 5400SOL     OW16735   2.780   3.820   1.393
 5400SOL    HW116736   2.804   3.800   1.303
 5400SOL    HW216737   2.860   3.858   1.431
 5401SOL     OW16738   2.300   0.010   1.284
 5401SOL    HW116739   2.369   4.498   1.349
 5401SOL    HW216740   2.255   4.425   1.281
 5402SOL     OW16741   3.126   4.099   1.278
 5402SOL    HW116742   3.160   4.176   1.323
 5402SOL    HW216743   3.037   4.122   1.252
 5403SOL     OW16744   2.414   4.250   0.865
 5403SOL    HW116745   2.433   4.286   0.778
 5403SOL    HW216746   2.480   4.289   0.922
 5404SOL     OW16747   3.434   4.335   0.484
 5404SOL    HW116748   3.399   4.401   0.544
 5404SOL    HW216749   3.483   4.385   0.419
 5405SOL     OW16750   2.857   3.852   1.755
 5405SOL    HW116751   2.916   3.925   1.732
 5405SOL    HW216752   2.905   3.774   1.729
 5406SOL     OW16753   2.359   3.762   1.749
 5406SOL    HW116754   2.314   3.709   1.684
 5406SOL    HW216755   2.302   3.838   1.762
 5407SOL     OW16756   3.069   4.248   0.260
 5407SOL    HW116757   3.082   4.170   0.314
 5407SOL    HW216758   3.023   4.309   0.317
 5408SOL     OW16759   2.159   3.921   1.247
 5408SOL    HW116760   2.122   3.953   1.329
 5408SOL    HW216761   2.141   3.827   1.248
 5409SOL     OW16762   2.596   4.361   1.038
 5409SOL    HW116763   2.670   4.322   0.991
 5409SOL    HW216764   2.610   4.455   1.031
 5410SOL     OW16765   3.616   0.131   1.851
 5410SOL    HW116766   3.545   0.148   1.789
 5410SOL    HW216767   3.577   0.148   1.937
 5411SOL     OW16768   2.167   3.788   0.624
 5411SOL    HW116769   2.145   3.878   0.646
 5411SOL    HW216770   2.174   3.744   0.709
 5412SOL     OW16771   3.481   4.092   0.364
 5412SOL    HW116772   3.510   4.028   0.428
 5412SOL    HW216773   3.454   4.168   0.415
 5413SOL     OW16774   3.392   4.021   0.112
 5413SOL    HW116775   3.335   3.946   0.127
 5413SOL    HW216776   3.428   4.041   0.199
 5414SOL     OW16777   2.181   0.012   0.918
 5414SOL    HW116778   2.258   0.068   0.930
 5414SOL    HW216779   2.196   4.438   0.977
 5415SOL     OW16780   2.198   4.241   1.023
 5415SOL    HW116781   2.158   4.156   1.004
 5415SOL    HW216782   2.273   4.246   0.963
 5416SOL     OW16783   2.999   4.090   1.688
 5416SOL    HW116784   2.945   4.150   1.740
 5416SOL    HW216785   3.083   4.136   1.679
 5417SOL     OW16786   3.023   3.924   1.470
 5417SOL    HW116787   3.012   3.985   1.543
 5417SOL    HW216788   3.064   3.976   1.401
 5418SOL     OW16789   1.898   4.276   1.116
 5418SOL    HW116790   1.978   4.262   1.066
 5418SOL    HW216791   1.926   4.276   1.208
 5419SOL     OW16792   2.058   4.245   1.716
 5419SOL    HW116793   2.108   4.194   1.653
 5419SOL    HW216794   2.006   4.305   1.662
 5420SOL     OW16795   2.676   4.311   0.328
 5420SOL    HW116796   2.689   4.224   0.288
 5420SOL    HW216797   2.582   4.314   0.349
 5421SOL     OW16798   3.496   4.315   1.184
 5421SOL    HW116799   3.493   4.258   1.260
 5421SOL    HW216800   3.585   4.305   1.149
 5422SOL     OW16801   2.548   4.183   1.249
 5422SOL    HW116802   2.501   4.106   1.219
 5422SOL    HW216803   2.549   4.242   1.174
 5423SOL     OW16804   2.328   4.217   0.179
 5423SOL    HW116805   2.370   4.301   0.194
 5423SOL    HW216806   2.234   4.237   0.177
 5424SOL     OW16807   2.782   3.815   0.099
 5424SOL    HW116808   2.830   3.777   0.025
 5424SOL    HW216809   2.821   3.773   0.176
 5425SOL     OW16810   3.582   3.874   0.509
 5425SOL    HW116811   3.654   3.860   0.447
 5425SOL    HW216812   3.568   3.787   0.548
 5426SOL     OW16813   3.139   0.134   0.680
 5426SOL    HW116814   3.196   0.060   0.701
 5426SOL    HW216815   3.188   0.185   0.615
 5427SOL     OW16816   3.703   3.895   0.967
 5427SOL    HW116817   3.732   3.808   0.940
 5427SOL    HW216818   3.617   3.905   0.926
 5428SOL     OW16819   2.123   4.041   0.717
 5428SOL    HW116820   2.035   4.070   0.692
 5428SOL    HW216821   2.119   4.031   0.812
 5429SOL     OW16822   2.923   0.294   0.735
 5429SOL    HW116823   2.846   0.267   0.686
 5429SOL    HW216824   2.991   0.232   0.710
 5430SOL     OW16825   2.883   3.964   0.964
 5430SOL    HW116826   2.879   3.916   0.882
 5430SOL    HW216827   2.879   3.897   1.032
 5431SOL     OW16828   3.586   4.114   1.380
 5431SOL    HW116829   3.657   4.178   1.378
 5431SOL    HW216830   3.616   4.043   1.323
 5432SOL     OW16831   2.538   3.918   1.500
 5432SOL    HW116832   2.622   3.898   1.459
 5432SOL    HW216833   2.560   3.952   1.586
 5433SOL     OW16834   1.945   4.049   0.060
 5433SOL    HW116835   1.878   4.048  11.091
 5433SOL    HW216836   1.972   4.141   0.065
 5434SOL     OW16837   1.924   3.881   0.309
 5434SOL    HW116838   1.911   3.953   0.247
 5434SOL    HW216839   2.009   3.844   0.285
 5435SOL     OW16840   2.595   4.281   1.699
 5435SOL    HW116841   2.588   4.325   1.783
 5435SOL    HW216842   2.607   4.188   1.721
 5436SOL     OW16843   3.078   4.038   0.455
 5436SOL    HW116844   3.142   3.967   0.447
 5436SOL    HW216845   3.107   4.088   0.532
 5437SOL     OW16846   3.618   4.093   1.651
 5437SOL    HW116847   3.603   4.104   1.557
 5437SOL    HW216848   3.548   4.034   1.679
 5438SOL     OW16849   2.962   0.207   0.051
 5438SOL    HW116850   2.958   0.295   0.014
 5438SOL    HW216851   3.050   0.176   0.030
 5439SOL     OW16852   3.676   3.906   1.238
 5439SOL    HW116853   3.682   3.811   1.250
 5439SOL    HW216854   3.685   3.918   1.143
 5440SOL     OW16855   2.303   4.161   0.538
 5440SOL    HW116856   2.330   4.091   0.479
 5440SOL    HW216857   2.247   4.117   0.602
 5441SOL     OW16858   2.187   4.264   1.296
 5441SOL    HW116859   2.244   4.209   1.349
 5441SOL    HW216860   2.206   4.238   1.206
 5442SOL     OW16861   3.293   3.950   1.117
 5442SOL    HW116862   3.314   3.868   1.161
 5442SOL    HW216863   3.242   3.999   1.181
 5443SOL     OW16864   2.871   3.741   1.140
 5443SOL    HW116865   2.817   3.675   1.097
 5443SOL    HW216866   2.959   3.703   1.141
 5444SOL     OW16867   3.213   3.781   0.164
 5444SOL    HW116868   3.234   3.726   0.088
 5444SOL    HW216869   3.126   3.751   0.191
 5445SOL     OW16870   3.161   4.173   0.678
 5445SOL    HW116871   3.131   4.263   0.691
 5445SOL    HW216872   3.159   4.135   0.766
 5446SOL     OW16873   3.447   3.923   0.879
 5446SOL    HW116874   3.390   3.947   0.952
 5446SOL    HW216875   3.448   4.000   0.823
 5447SOL     OW16876   2.083   4.281   1.985
 5447SOL    HW116877   2.044   4.360   2.023
 5447SOL    HW216878   2.078   4.295   1.890
 5448SOL     OW16879   2.086   4.001   2.853
 5448SOL    HW116880   2.113   3.967   2.938
 5448SOL    HW216881   1.996   3.971   2.843
 5449SOL     OW16882   1.865   4.100   2.504
 5449SOL    HW116883   1.785   4.132   2.546
 5449SOL    HW216884   1.837   4.023   2.455
 5450SOL     OW16885   3.587   4.335   2.101
 5450SOL    HW116886   3.589   4.324   2.006
 5450SOL    HW216887   3.591   4.245   2.135
 5451SOL     OW16888   2.592   0.277   2.550
 5451SOL    HW116889   2.582   0.212   2.619
 5451SOL    HW216890   2.506   0.280   2.508
 5452SOL     OW16891   2.313   4.112   3.343
 5452SOL    HW116892   2.390   4.055   3.351
 5452SOL    HW216893   2.239   4.055   3.364
 5453SOL     OW16894   3.475   4.170   2.603
 5453SOL    HW116895   3.412   4.196   2.537
 5453SOL    HW216896   3.466   4.235   2.673
 5454SOL     OW16897   3.458   3.849   3.329
 5454SOL    HW116898   3.472   3.930   3.279
 5454SOL    HW216899   3.441   3.878   3.418
 5455SOL     OW16900   1.927   4.381   2.440
 5455SOL    HW116901   1.926   4.286   2.454
 5455SOL    HW216902   2.006   4.411   2.486
 5456SOL     OW16903   1.980   4.479   3.445
 5456SOL    HW116904   2.045   4.499   3.512
 5456SOL    HW216905   1.951   0.064   3.414
 5457SOL     OW16906   2.679   3.727   2.372
 5457SOL    HW116907   2.719   3.811   2.351
 5457SOL    HW216908   2.586   3.746   2.380
 5458SOL     OW16909   2.199   3.972   3.680
 5458SOL    HW116910   2.234   4.060   3.693
 5458SOL    HW216911   2.106   3.980   3.703
 5459SOL     OW16912   3.139   4.077   2.795
 5459SOL    HW116913   3.049   4.044   2.806
 5459SOL    HW216914   3.191   4.024   2.855
 5460SOL     OW16915   2.695   4.299   3.307
 5460SOL    HW116916   2.655   4.304   3.394
 5460SOL    HW216917   2.626   4.263   3.251
 5461SOL     OW16918   3.256   4.200   3.539
 5461SOL    HW116919   3.260   4.245   3.623
 5461SOL    HW216920   3.313   4.123   3.549
 5462SOL     OW16921   2.861   4.153   3.095
 5462SOL    HW116922   2.792   4.178   3.156
 5462SOL    HW216923   2.818   4.096   3.031
 5463SOL     OW16924   2.917   4.412   2.276
 5463SOL    HW116925   2.912   4.459   2.359
 5463SOL    HW216926   2.832   4.369   2.267
 5464SOL     OW16927   2.758   4.066   2.050
 5464SOL    HW116928   2.798   4.130   1.991
 5464SOL    HW216929   2.774   3.981   2.009
 5465SOL     OW16930   3.574   4.300   3.693
 5465SOL    HW116931   3.589   4.386   3.655
 5465SOL    HW216932   3.593   4.239   3.622
 5466SOL     OW16933   2.412   3.902   2.756
 5466SOL    HW116934   2.414   3.931   2.847
 5466SOL    HW216935   2.410   3.983   2.705
 5467SOL     OW16936   3.354   4.468   2.601
 5467SOL    HW116937   3.340   4.412   2.677
 5467SOL    HW216938   3.395   0.047   2.637
 5468SOL     OW16939   2.061   3.999   3.367
 5468SOL    HW116940   1.977   4.045   3.363
 5468SOL    HW216941   2.043   3.920   3.418
 5469SOL     OW16942   3.263   3.829   2.297
 5469SOL    HW116943   3.254   3.805   2.205
 5469SOL    HW216944   3.357   3.839   2.311
 5470SOL     OW16945   2.215   4.390   2.268
 5470SOL    HW116946   2.251   4.312   2.310
 5470SOL    HW216947   2.148   4.422   2.329
 5471SOL     OW16948   3.394   3.950   3.587
 5471SOL    HW116949   3.403   3.970   3.680
 5471SOL    HW216950   3.325   3.883   3.584
 5472SOL     OW16951   2.500   3.844   1.966
 5472SOL    HW116952   2.565   3.775   1.981
 5472SOL    HW216953   2.449   3.814   1.891
 5473SOL     OW16954   2.625   4.002   3.617
 5473SOL    HW116955   2.704   3.948   3.615
 5473SOL    HW216956   2.579   3.975   3.696
 5474SOL     OW16957   3.202   4.313   3.292
 5474SOL    HW116958   3.224   4.276   3.378
 5474SOL    HW216959   3.250   4.396   3.289
 5475SOL     OW16960   2.787   4.234   2.757
 5475SOL    HW116961   2.764   4.217   2.666
 5475SOL    HW216962   2.826   4.152   2.787
 5476SOL     OW16963   2.413   3.788   2.361
 5476SOL    HW116964   2.332   3.787   2.413
 5476SOL    HW216965   2.405   3.865   2.306
 5477SOL     OW16966   2.152   3.772   2.048
 5477SOL    HW116967   2.210   3.836   2.006
 5477SOL    HW216968   2.212   3.709   2.089
 5478SOL     OW16969   2.802   3.974   2.320
 5478SOL    HW116970   2.777   4.011   2.235
 5478SOL    HW216971   2.897   3.988   2.325
 5479SOL     OW16972   2.936   4.394   3.395
 5479SOL    HW116973   2.854   4.364   3.355
 5479SOL    HW216974   3.004   4.361   3.337
 5480SOL     OW16975   2.887   4.262   1.891
 5480SOL    HW116976   2.872   4.350   1.855
 5480SOL    HW216977   2.951   4.276   1.961
 5481SOL     OW16978   1.939   4.281   3.257
 5481SOL    HW116979   2.030   4.272   3.229
 5481SOL    HW216980   1.939   4.354   3.318
 5482SOL     OW16981   2.419   3.950   3.027
 5482SOL    HW116982   2.462   3.877   3.072
 5482SOL    HW216983   2.329   3.947   3.058
 5483SOL     OW16984   2.729   4.189   2.497
 5483SOL    HW116985   2.700   4.249   2.428
 5483SOL    HW216986   2.750   4.108   2.450
 5484SOL     OW16987   2.877   3.778   2.612
 5484SOL    HW116988   2.819   3.770   2.536
 5484SOL    HW216989   2.855   3.702   2.666
 5485SOL     OW16990   3.340   4.308   2.821
 5485SOL    HW116991   3.275   4.241   2.841
 5485SOL    HW216992   3.389   4.319   2.903
 5486SOL     OW16993   3.267   4.296   1.936
 5486SOL    HW116994   3.203   4.267   2.001
 5486SOL    HW216995   3.349   4.255   1.962
 5487SOL     OW16996   2.389   3.988   2.178
 5487SOL    HW116997   2.434   3.940   2.109
 5487SOL    HW216998   2.370   4.074   2.139
 5488SOL     OW16999   2.780   3.820   3.255
 5488SOL    HW117000   2.804   3.800   3.165
 5488SOL    HW217001   2.860   3.858   3.293
 5489SOL     OW17002   2.300   0.010   3.146
 5489SOL    HW117003   2.369   4.498   3.211
 5489SOL    HW217004   2.255   4.425   3.143
 5490SOL     OW17005   3.126   4.099   3.139
 5490SOL    HW117006   3.160   4.176   3.184
 5490SOL    HW217007   3.037   4.122   3.114
 5491SOL     OW17008   2.414   4.249   2.726
 5491SOL    HW117009   2.433   4.286   2.640
 5491SOL    HW217010   2.480   4.288   2.784
 5492SOL     OW17011   3.427   4.335   2.344
 5492SOL    HW117012   3.406   4.400   2.411
 5492SOL    HW217013   3.489   4.379   2.286
 5493SOL     OW17014   2.857   3.852   3.617
 5493SOL    HW117015   2.916   3.925   3.594
 5493SOL    HW217016   2.905   3.774   3.591
 5494SOL     OW17017   2.359   3.762   3.611
 5494SOL    HW117018   2.314   3.709   3.546
 5494SOL    HW217019   2.302   3.838   3.624
 5495SOL     OW17020   3.070   4.252   2.123
 5495SOL    HW117021   3.080   4.173   2.175
 5495SOL    HW217022   3.022   4.313   2.179
 5496SOL     OW17023   2.159   3.921   3.109
 5496SOL    HW117024   2.122   3.953   3.191
 5496SOL    HW217025   2.141   3.827   3.110
 5497SOL     OW17026   2.596   4.361   2.900
 5497SOL    HW117027   2.670   4.322   2.852
 5497SOL    HW217028   2.610   4.455   2.894
 5498SOL     OW17029   3.615   0.130   3.713
 5498SOL    HW117030   3.545   0.148   3.650
 5498SOL    HW217031   3.576   0.148   3.799
 5499SOL     OW17032   2.168   3.787   2.486
 5499SOL    HW117033   2.145   3.878   2.507
 5499SOL    HW217034   2.175   3.743   2.570
 5500SOL     OW17035   3.477   4.091   2.228
 5500SOL    HW117036   3.508   4.030   2.295
 5500SOL    HW217037   3.451   4.169   2.277
 5501SOL     OW17038   3.386   3.999   1.988
 5501SOL    HW117039   3.323   3.932   2.014
 5501SOL    HW217040   3.422   4.031   2.071
 5502SOL     OW17041   2.182   0.012   2.780
 5502SOL    HW117042   2.258   0.069   2.792
 5502SOL    HW217043   2.198   4.439   2.840
 5503SOL     OW17044   2.198   4.241   2.885
 5503SOL    HW117045   2.158   4.156   2.866
 5503SOL    HW217046   2.273   4.246   2.825
 5504SOL     OW17047   2.999   4.090   3.550
 5504SOL    HW117048   2.945   4.150   3.602
 5504SOL    HW217049   3.083   4.136   3.541
 5505SOL     OW17050   3.023   3.924   3.332
 5505SOL    HW117051   3.012   3.985   3.405
 5505SOL    HW217052   3.064   3.976   3.263
 5506SOL     OW17053   1.898   4.275   2.978
 5506SOL    HW117054   1.978   4.263   2.928
 5506SOL    HW217055   1.926   4.275   3.070
 5507SOL     OW17056   2.058   4.246   3.578
 5507SOL    HW117057   2.109   4.195   3.515
 5507SOL    HW217058   2.006   4.305   3.524
 5508SOL     OW17059   2.681   4.276   2.220
 5508SOL    HW117060   2.687   4.205   2.157
 5508SOL    HW217061   2.596   4.316   2.205
 5509SOL     OW17062   3.496   4.315   3.045
 5509SOL    HW117063   3.493   4.258   3.122
 5509SOL    HW217064   3.585   4.304   3.011
 5510SOL     OW17065   2.548   4.184   3.111
 5510SOL    HW117066   2.501   4.106   3.081
 5510SOL    HW217067   2.549   4.242   3.035
 5511SOL     OW17068   2.341   4.224   2.052
 5511SOL    HW117069   2.368   4.312   2.080
 5511SOL    HW217070   2.247   4.232   2.035
 5512SOL     OW17071   3.584   3.873   2.372
 5512SOL    HW117072   3.655   3.858   2.309
 5512SOL    HW217073   3.567   3.787   2.411
 5513SOL     OW17074   3.141   0.135   2.541
 5513SOL    HW117075   3.199   0.061   2.559
 5513SOL    HW217076   3.191   0.191   2.481
 5514SOL     OW17077   3.702   3.895   2.829
 5514SOL    HW117078   3.732   3.808   2.802
 5514SOL    HW217079   3.617   3.905   2.788
 5515SOL     OW17080   2.123   4.040   2.579
 5515SOL    HW117081   2.035   4.069   2.554
 5515SOL    HW217082   2.120   4.030   2.674
 5516SOL     OW17083   2.765   0.088   2.070
 5516SOL    HW117084   2.846   0.126   2.036
 5516SOL    HW217085   2.788   0.058   2.158
 5517SOL     OW17086   2.927   0.293   2.610
 5517SOL    HW117087   2.858   0.289   2.544
 5517SOL    HW217088   2.993   0.230   2.579
 5518SOL     OW17089   2.883   3.964   2.826
 5518SOL    HW117090   2.880   3.915   2.744
 5518SOL    HW217091   2.879   3.897   2.894
 5519SOL     OW17092   3.586   4.114   3.242
 5519SOL    HW117093   3.657   4.178   3.240
 5519SOL    HW217094   3.616   4.043   3.185
 5520SOL     OW17095   2.538   3.918   3.362
 5520SOL    HW117096   2.622   3.898   3.321
 5520SOL    HW217097   2.560   3.952   3.448
 5521SOL     OW17098   1.937   4.037   1.891
 5521SOL    HW117099   1.854   4.034   1.843
 5521SOL    HW217100   1.969   4.126   1.878
 5522SOL     OW17101   1.928   3.879   2.169
 5522SOL    HW117102   1.912   3.957   2.116
 5522SOL    HW217103   2.013   3.846   2.139
 5523SOL     OW17104   2.594   4.281   3.561
 5523SOL    HW117105   2.588   4.326   3.645
 5523SOL    HW217106   2.607   4.189   3.583
 5524SOL     OW17107   3.079   4.041   2.316
 5524SOL    HW117108   3.141   3.969   2.309
 5524SOL    HW217109   3.107   4.090   2.393
 5525SOL     OW17110   3.618   4.093   3.513
 5525SOL    HW117111   3.603   4.104   3.419
 5525SOL    HW217112   3.548   4.034   3.541
 5526SOL     OW17113   2.975   0.224   1.963
 5526SOL    HW117114   2.967   0.268   1.878
 5526SOL    HW217115   3.063   0.187   1.962
 5527SOL     OW17116   3.676   3.906   3.100
 5527SOL    HW117117   3.682   3.811   3.112
 5527SOL    HW217118   3.684   3.918   3.005
 5528SOL     OW17119   2.300   4.161   2.397
 5528SOL    HW117120   2.327   4.090   2.338
 5528SOL    HW217121   2.246   4.117   2.463
 5529SOL     OW17122   2.187   4.264   3.158
 5529SOL    HW117123   2.244   4.209   3.211
 5529SOL    HW217124   2.206   4.238   3.068
 5530SOL     OW17125   3.293   3.950   2.979
 5530SOL    HW117126   3.315   3.868   3.024
 5530SOL    HW217127   3.242   4.000   3.043
 5531SOL     OW17128   2.871   3.741   3.001
 5531SOL    HW117129   2.817   3.675   2.959
 5531SOL    HW217130   2.959   3.704   3.003
 5532SOL     OW17131   3.216   3.777   2.029
 5532SOL    HW117132   3.246   3.709   1.968
 5532SOL    HW217133   3.128   3.749   2.053
 5533SOL     OW17134   3.160   4.174   2.541
 5533SOL    HW117135   3.131   4.264   2.555
 5533SOL    HW217136   3.159   4.135   2.628
 5534SOL     OW17137   3.447   3.923   2.741
 5534SOL    HW117138   3.390   3.947   2.814
 5534SOL    HW217139   3.448   4.000   2.685
 5535SOL     OW17140   2.083   4.281   3.847
 5535SOL    HW117141   2.044   4.360   3.885
 5535SOL    HW217142   2.078   4.295   3.752
 5536SOL     OW17143   2.086   4.001   4.715
 5536SOL    HW117144   2.113   3.967   4.800
 5536SOL    HW217145   1.996   3.971   4.705
 5537SOL     OW17146   1.865   4.099   4.366
 5537SOL    HW117147   1.785   4.132   4.408
 5537SOL    HW217148   1.837   4.022   4.317
 5538SOL     OW17149   3.587   4.335   3.963
 5538SOL    HW117150   3.589   4.324   3.868
 5538SOL    HW217151   3.591   4.245   3.997
 5539SOL     OW17152   2.592   0.277   4.412
 5539SOL    HW117153   2.582   0.212   4.481
 5539SOL    HW217154   2.506   0.281   4.370
 5540SOL     OW17155   2.313   4.112   5.206
 5540SOL    HW117156   2.390   4.055   5.213
 5540SOL    HW217157   2.239   4.055   5.226
 5541SOL     OW17158   3.475   4.170   4.465
 5541SOL    HW117159   3.412   4.196   4.399
 5541SOL    HW217160   3.465   4.235   4.535
 5542SOL     OW17161   3.458   3.849   5.191
 5542SOL    HW117162   3.471   3.930   5.141
 5542SOL    HW217163   3.441   3.878   5.280
 5543SOL     OW17164   1.926   4.381   4.303
 5543SOL    HW117165   1.926   4.286   4.316
 5543SOL    HW217166   2.005   4.411   4.348
 5544SOL     OW17167   1.980   4.479   5.308
 5544SOL    HW117168   2.046   4.499   5.374
 5544SOL    HW217169   1.951   0.064   5.276
 5545SOL     OW17170   2.679   3.726   4.233
 5545SOL    HW117171   2.719   3.811   4.213
 5545SOL    HW217172   2.586   3.746   4.241
 5546SOL     OW17173   2.198   3.972   5.543
 5546SOL    HW117174   2.234   4.060   5.554
 5546SOL    HW217175   2.105   3.981   5.565
 5547SOL     OW17176   3.139   4.077   4.657
 5547SOL    HW117177   3.049   4.044   4.668
 5547SOL    HW217178   3.191   4.024   4.717
 5548SOL     OW17179   2.694   4.299   5.169
 5548SOL    HW117180   2.654   4.304   5.256
 5548SOL    HW217181   2.626   4.263   5.113
 5549SOL     OW17182   3.256   4.200   5.400
 5549SOL    HW117183   3.261   4.245   5.485
 5549SOL    HW217184   3.313   4.123   5.411
 5550SOL     OW17185   2.861   4.154   4.956
 5550SOL    HW117186   2.791   4.178   5.017
 5550SOL    HW217187   2.819   4.095   4.893
 5551SOL     OW17188   2.917   4.412   4.138
 5551SOL    HW117189   2.912   4.459   4.221
 5551SOL    HW217190   2.832   4.369   4.130
 5552SOL     OW17191   2.758   4.066   3.912
 5552SOL    HW117192   2.798   4.130   3.852
 5552SOL    HW217193   2.775   3.981   3.871
 5553SOL     OW17194   3.574   4.300   5.555
 5553SOL    HW117195   3.589   4.386   5.517
 5553SOL    HW217196   3.593   4.238   5.484
 5554SOL     OW17197   2.412   3.903   4.618
 5554SOL    HW117198   2.414   3.931   4.709
 5554SOL    HW217199   2.410   3.984   4.567
 5555SOL     OW17200   3.354   4.468   4.463
 5555SOL    HW117201   3.340   4.412   4.539
 5555SOL    HW217202   3.395   0.047   4.499
 5556SOL     OW17203   2.061   3.999   5.229
 5556SOL    HW117204   1.977   4.045   5.225
 5556SOL    HW217205   2.043   3.921   5.281
 5557SOL     OW17206   3.263   3.830   4.159
 5557SOL    HW117207   3.255   3.805   4.067
 5557SOL    HW217208   3.357   3.839   4.174
 5558SOL     OW17209   2.215   4.390   4.130
 5558SOL    HW117210   2.251   4.312   4.172
 5558SOL    HW217211   2.149   4.422   4.191
 5559SOL     OW17212   3.393   3.949   5.449
 5559SOL    HW117213   3.403   3.970   5.542
 5559SOL    HW217214   3.326   3.882   5.446
 5560SOL     OW17215   2.500   3.844   3.828
 5560SOL    HW117216   2.565   3.775   3.843
 5560SOL    HW217217   2.449   3.814   3.753
 5561SOL     OW17218   2.625   4.003   5.478
 5561SOL    HW117219   2.704   3.948   5.477
 5561SOL    HW217220   2.580   3.976   5.559
 5562SOL     OW17221   3.202   4.313   5.154
 5562SOL    HW117222   3.224   4.276   5.240
 5562SOL    HW217223   3.251   4.395   5.151
 5563SOL     OW17224   2.787   4.234   4.619
 5563SOL    HW117225   2.764   4.217   4.528
 5563SOL    HW217226   2.826   4.151   4.649
 5564SOL     OW17227   2.412   3.788   4.223
 5564SOL    HW117228   2.332   3.787   4.275
 5564SOL    HW217229   2.405   3.866   4.168
 5565SOL     OW17230   2.153   3.772   3.910
 5565SOL    HW117231   2.210   3.836   3.868
 5565SOL    HW217232   2.212   3.709   3.951
 5566SOL     OW17233   2.802   3.974   4.182
 5566SOL    HW117234   2.777   4.011   4.097
 5566SOL    HW217235   2.896   3.987   4.187
 5567SOL     OW17236   2.936   4.393   5.257
 5567SOL    HW117237   2.854   4.364   5.217
 5567SOL    HW217238   3.004   4.361   5.199
 5568SOL     OW17239   2.887   4.262   3.753
 5568SOL    HW117240   2.872   4.350   3.717
 5568SOL    HW217241   2.951   4.276   3.823
 5569SOL     OW17242   1.939   4.281   5.119
 5569SOL    HW117243   2.030   4.272   5.092
 5569SOL    HW217244   1.939   4.354   5.180
 5570SOL     OW17245   2.420   3.950   4.889
 5570SOL    HW117246   2.463   3.877   4.934
 5570SOL    HW217247   2.329   3.947   4.920
 5571SOL     OW17248   2.729   4.189   4.359
 5571SOL    HW117249   2.700   4.249   4.290
 5571SOL    HW217250   2.750   4.108   4.312
 5572SOL     OW17251   2.878   3.778   4.473
 5572SOL    HW117252   2.820   3.770   4.397
 5572SOL    HW217253   2.855   3.703   4.528
 5573SOL     OW17254   3.340   4.308   4.683
 5573SOL    HW117255   3.275   4.241   4.703
 5573SOL    HW217256   3.389   4.319   4.765
 5574SOL     OW17257   3.267   4.296   3.797
 5574SOL    HW117258   3.203   4.267   3.863
 5574SOL    HW217259   3.349   4.255   3.824
 5575SOL     OW17260   2.389   3.988   4.040
 5575SOL    HW117261   2.433   3.940   3.971
 5575SOL    HW217262   2.370   4.074   4.001
 5576SOL     OW17263   2.780   3.821   5.116
 5576SOL    HW117264   2.804   3.800   5.026
 5576SOL    HW217265   2.859   3.859   5.154
 5577SOL     OW17266   2.300   0.010   5.009
 5577SOL    HW117267   2.370   4.497   5.073
 5577SOL    HW217268   2.255   4.425   5.005
 5578SOL     OW17269   3.127   4.099   5.002
 5578SOL    HW117270   3.160   4.177   5.047
 5578SOL    HW217271   3.037   4.122   4.976
 5579SOL     OW17272   2.414   4.249   4.588
 5579SOL    HW117273   2.433   4.286   4.502
 5579SOL    HW217274   2.480   4.289   4.646
 5580SOL     OW17275   3.428   4.335   4.206
 5580SOL    HW117276   3.406   4.400   4.272
 5580SOL    HW217277   3.489   4.379   4.148
 5581SOL     OW17278   2.857   3.852   5.480
 5581SOL    HW117279   2.916   3.924   5.456
 5581SOL    HW217280   2.904   3.773   5.454
 5582SOL     OW17281   2.359   3.762   5.473
 5582SOL    HW117282   2.313   3.709   5.408
 5582SOL    HW217283   2.301   3.838   5.486
 5583SOL     OW17284   3.070   4.252   3.985
 5583SOL    HW117285   3.080   4.173   4.037
 5583SOL    HW217286   3.022   4.313   4.041
 5584SOL     OW17287   2.159   3.922   4.972
 5584SOL    HW117288   2.122   3.954   5.054
 5584SOL    HW217289   2.141   3.828   4.972
 5585SOL     OW17290   2.596   4.361   4.762
 5585SOL    HW117291   2.670   4.322   4.715
 5585SOL    HW217292   2.610   4.455   4.756
 5586SOL     OW17293   3.616   0.131   5.575
 5586SOL    HW117294   3.545   0.148   5.512
 5586SOL    HW217295   3.576   0.149   5.661
 5587SOL     OW17296   2.167   3.787   4.348
 5587SOL    HW117297   2.145   3.878   4.369
 5587SOL    HW217298   2.175   3.743   4.432
 5588SOL     OW17299   3.477   4.091   4.090
 5588SOL    HW117300   3.508   4.030   4.157
 5588SOL    HW217301   3.451   4.169   4.139
 5589SOL     OW17302   3.386   3.999   3.850
 5589SOL    HW117303   3.323   3.932   3.876
 5589SOL    HW217304   3.422   4.031   3.933
 5590SOL     OW17305   2.182   0.013   4.642
 5590SOL    HW117306   2.258   0.069   4.653
 5590SOL    HW217307   2.198   4.439   4.702
 5591SOL     OW17308   2.198   4.241   4.747
 5591SOL    HW117309   2.158   4.156   4.728
 5591SOL    HW217310   2.273   4.246   4.687
 5592SOL     OW17311   2.999   4.090   5.412
 5592SOL    HW117312   2.945   4.150   5.464
 5592SOL    HW217313   3.083   4.136   5.403
 5593SOL     OW17314   3.022   3.924   5.194
 5593SOL    HW117315   3.012   3.985   5.267
 5593SOL    HW217316   3.064   3.976   5.125
 5594SOL     OW17317   1.898   4.275   4.840
 5594SOL    HW117318   1.978   4.263   4.790
 5594SOL    HW217319   1.926   4.275   4.932
 5595SOL     OW17320   2.058   4.245   5.439
 5595SOL    HW117321   2.110   4.196   5.376
 5595SOL    HW217322   2.006   4.306   5.386
 5596SOL     OW17323   2.681   4.276   4.083
 5596SOL    HW117324   2.687   4.205   4.019
 5596SOL    HW217325   2.596   4.316   4.066
 5597SOL     OW17326   3.496   4.315   4.907
 5597SOL    HW117327   3.493   4.258   4.984
 5597SOL    HW217328   3.585   4.304   4.873
 5598SOL     OW17329   2.547   4.184   4.974
 5598SOL    HW117330   2.501   4.106   4.943
 5598SOL    HW217331   2.549   4.242   4.897
 5599SOL     OW17332   2.341   4.224   3.913
 5599SOL    HW117333   2.368   4.311   3.941
 5599SOL    HW217334   2.247   4.232   3.897
 5600SOL     OW17335   3.584   3.873   4.234
 5600SOL    HW117336   3.655   3.858   4.171
 5600SOL    HW217337   3.567   3.787   4.273
 5601SOL     OW17338   3.141   0.135   4.403
 5601SOL    HW117339   3.199   0.061   4.421
 5601SOL    HW217340   3.191   0.191   4.344
 5602SOL     OW17341   3.703   3.895   4.691
 5602SOL    HW117342   3.732   3.808   4.664
 5602SOL    HW217343   3.617   3.905   4.651
 5603SOL     OW17344   2.123   4.040   4.441
 5603SOL    HW117345   2.035   4.069   4.416
 5603SOL    HW217346   2.120   4.030   4.536
 5604SOL     OW17347   2.765   0.088   3.932
 5604SOL    HW117348   2.846   0.126   3.897
 5604SOL    HW217349   2.789   0.058   4.020
 5605SOL     OW17350   2.927   0.293   4.472
 5605SOL    HW117351   2.858   0.289   4.406
 5605SOL    HW217352   2.993   0.230   4.442
 5606SOL     OW17353   2.883   3.964   4.688
 5606SOL    HW117354   2.880   3.915   4.606
 5606SOL    HW217355   2.878   3.897   4.756
 5607SOL     OW17356   3.586   4.114   5.104
 5607SOL    HW117357   3.657   4.178   5.102
 5607SOL    HW217358   3.616   4.043   5.047
 5608SOL     OW17359   2.537   3.918   5.224
 5608SOL    HW117360   2.621   3.898   5.182
 5608SOL    HW217361   2.560   3.952   5.310
 5609SOL     OW17362   1.937   4.037   3.753
 5609SOL    HW117363   1.854   4.035   3.704
 5609SOL    HW217364   1.969   4.126   3.741
 5610SOL     OW17365   1.928   3.879   4.031
 5610SOL    HW117366   1.912   3.957   3.978
 5610SOL    HW217367   2.013   3.846   4.001
 5611SOL     OW17368   2.594   4.281   5.422
 5611SOL    HW117369   2.590   4.326   5.507
 5611SOL    HW217370   2.607   4.189   5.445
 5612SOL     OW17371   3.079   4.041   4.178
 5612SOL    HW117372   3.141   3.969   4.171
 5612SOL    HW217373   3.107   4.090   4.255
 5613SOL     OW17374   3.617   4.093   5.375
 5613SOL    HW117375   3.603   4.104   5.281
 5613SOL    HW217376   3.548   4.033   5.403
 5614SOL     OW17377   2.975   0.224   3.824
 5614SOL    HW117378   2.967   0.268   3.740
 5614SOL    HW217379   3.063   0.187   3.824
 5615SOL     OW17380   3.676   3.906   4.962
 5615SOL    HW117381   3.682   3.811   4.974
 5615SOL    HW217382   3.685   3.918   4.867
 5616SOL     OW17383   2.300   4.161   4.259
 5616SOL    HW117384   2.327   4.090   4.200
 5616SOL    HW217385   2.246   4.117   4.325
 5617SOL     OW17386   2.187   4.264   5.020
 5617SOL    HW117387   2.244   4.209   5.073
 5617SOL    HW217388   2.206   4.238   4.930
 5618SOL     OW17389   3.293   3.950   4.841
 5618SOL    HW117390   3.314   3.868   4.885
 5618SOL    HW217391   3.242   3.999   4.905
 5619SOL     OW17392   2.871   3.742   4.864
 5619SOL    HW117393   2.816   3.674   4.825
 5619SOL    HW217394   2.959   3.704   4.865
 5620SOL     OW17395   3.216   3.777   3.890
 5620SOL    HW117396   3.246   3.709   3.830
 5620SOL    HW217397   3.128   3.749   3.915
 5621SOL     OW17398   3.160   4.174   4.403
 5621SOL    HW117399   3.131   4.264   4.417
 5621SOL    HW217400   3.159   4.135   4.490
 5622SOL     OW17401   3.448   3.923   4.603
 5622SOL    HW117402   3.390   3.947   4.676
 5622SOL    HW217403   3.448   4.001   4.547
 5623SOL     OW17404   2.083   4.281   5.709
 5623SOL    HW117405   2.045   4.361   5.747
 5623SOL    HW217406   2.078   4.295   5.614
 5624SOL     OW17407   2.086   4.001   6.577
 5624SOL    HW117408   2.113   3.967   6.662
 5624SOL    HW217409   1.996   3.971   6.567
 5625SOL     OW17410   1.865   4.100   6.229
 5625SOL    HW117411   1.785   4.132   6.270
 5625SOL    HW217412   1.836   4.023   6.179
 5626SOL     OW17413   3.587   4.335   5.826
 5626SOL    HW117414   3.589   4.325   5.730
 5626SOL    HW217415   3.591   4.245   5.859
 5627SOL     OW17416   2.592   0.277   6.275
 5627SOL    HW117417   2.582   0.211   6.343
 5627SOL    HW217418   2.506   0.280   6.232
 5628SOL     OW17419   2.313   4.111   7.067
 5628SOL    HW117420   2.390   4.055   7.075
 5628SOL    HW217421   2.239   4.055   7.088
 5629SOL     OW17422   3.475   4.170   6.327
 5629SOL    HW117423   3.412   4.196   6.261
 5629SOL    HW217424   3.466   4.235   6.397
 5630SOL     OW17425   3.458   3.849   7.053
 5630SOL    HW117426   3.472   3.930   7.003
 5630SOL    HW217427   3.441   3.878   7.142
 5631SOL     OW17428   1.928   4.381   6.164
 5631SOL    HW117429   1.926   4.286   6.178
 5631SOL    HW217430   2.006   4.411   6.210
 5632SOL     OW17431   1.980   4.479   7.169
 5632SOL    HW117432   2.045   4.499   7.236
 5632SOL    HW217433   1.951   0.064   7.138
 5633SOL     OW17434   2.679   3.727   6.094
 5633SOL    HW117435   2.720   3.811   6.074
 5633SOL    HW217436   2.586   3.748   6.103
 5634SOL     OW17437   2.199   3.973   7.404
 5634SOL    HW117438   2.234   4.060   7.417
 5634SOL    HW217439   2.106   3.980   7.427
 5635SOL     OW17440   3.139   4.077   6.519
 5635SOL    HW117441   3.049   4.044   6.530
 5635SOL    HW217442   3.191   4.024   6.579
 5636SOL     OW17443   2.694   4.300   7.031
 5636SOL    HW117444   2.655   4.304   7.118
 5636SOL    HW217445   2.626   4.263   6.975
 5637SOL     OW17446   3.256   4.200   7.262
 5637SOL    HW117447   3.261   4.245   7.347
 5637SOL    HW217448   3.313   4.123   7.273
 5638SOL     OW17449   2.861   4.154   6.818
 5638SOL    HW117450   2.791   4.178   6.879
 5638SOL    HW217451   2.819   4.096   6.755
 5639SOL     OW17452   2.917   4.412   6.000
 5639SOL    HW117453   2.912   4.459   6.083
 5639SOL    HW217454   2.831   4.369   5.992
 5640SOL     OW17455   2.758   4.066   5.773
 5640SOL    HW117456   2.797   4.130   5.714
 5640SOL    HW217457   2.779   3.981   5.734
 5641SOL     OW17458   3.574   4.300   7.417
 5641SOL    HW117459   3.589   4.386   7.379
 5641SOL    HW217460   3.593   4.239   7.346
 5642SOL     OW17461   2.412   3.903   6.480
 5642SOL    HW117462   2.414   3.931   6.571
 5642SOL    HW217463   2.411   3.984   6.430
 5643SOL     OW17464   3.354   4.468   6.326
 5643SOL    HW117465   3.340   4.412   6.402
 5643SOL    HW217466   3.395   0.047   6.361
 5644SOL     OW17467   2.061   3.999   7.092
 5644SOL    HW117468   1.977   4.045   7.087
 5644SOL    HW217469   2.043   3.920   7.142
 5645SOL     OW17470   3.263   3.830   6.021
 5645SOL    HW117471   3.254   3.805   5.929
 5645SOL    HW217472   3.357   3.838   6.035
 5646SOL     OW17473   2.215   4.390   5.992
 5646SOL    HW117474   2.251   4.312   6.034
 5646SOL    HW217475   2.148   4.422   6.053
 5647SOL     OW17476   3.394   3.950   7.311
 5647SOL    HW117477   3.403   3.970   7.404
 5647SOL    HW217478   3.325   3.882   7.308
 5648SOL     OW17479   2.498   3.842   5.692
 5648SOL    HW117480   2.568   3.778   5.701
 5648SOL    HW217481   2.448   3.813   5.616
 5649SOL     OW17482   2.625   4.002   7.341
 5649SOL    HW117483   2.704   3.948   7.339
 5649SOL    HW217484   2.579   3.974   7.420
 5650SOL     OW17485   3.202   4.313   7.016
 5650SOL    HW117486   3.224   4.276   7.102
 5650SOL    HW217487   3.250   4.395   7.013
 5651SOL     OW17488   2.787   4.234   6.481
 5651SOL    HW117489   2.764   4.217   6.390
 5651SOL    HW217490   2.826   4.152   6.511
 5652SOL     OW17491   2.412   3.788   6.085
 5652SOL    HW117492   2.332   3.788   6.138
 5652SOL    HW217493   2.405   3.866   6.031
 5653SOL     OW17494   2.153   3.771   5.773
 5653SOL    HW117495   2.210   3.835   5.729
 5653SOL    HW217496   2.214   3.709   5.813
 5654SOL     OW17497   2.802   3.974   6.044
 5654SOL    HW117498   2.777   4.011   5.959
 5654SOL    HW217499   2.897   3.988   6.049
 5655SOL     OW17500   2.936   4.394   7.119
 5655SOL    HW117501   2.854   4.364   7.078
 5655SOL    HW217502   3.004   4.361   7.061
 5656SOL     OW17503   2.886   4.263   5.616
 5656SOL    HW117504   2.873   4.350   5.579
 5656SOL    HW217505   2.951   4.276   5.685
 5657SOL     OW17506   1.939   4.281   6.980
 5657SOL    HW117507   2.030   4.272   6.953
 5657SOL    HW217508   1.939   4.354   7.042
 5658SOL     OW17509   2.419   3.950   6.751
 5658SOL    HW117510   2.463   3.878   6.797
 5658SOL    HW217511   2.329   3.947   6.782
 5659SOL     OW17512   2.729   4.189   6.221
 5659SOL    HW117513   2.700   4.249   6.152
 5659SOL    HW217514   2.750   4.108   6.174
 5660SOL     OW17515   2.876   3.778   6.336
 5660SOL    HW117516   2.819   3.770   6.260
 5660SOL    HW217517   2.855   3.702   6.391
 5661SOL     OW17518   3.340   4.308   6.546
 5661SOL    HW117519   3.275   4.241   6.565
 5661SOL    HW217520   3.389   4.319   6.627
 5662SOL     OW17521   3.267   4.296   5.660
 5662SOL    HW117522   3.203   4.267   5.725
 5662SOL    HW217523   3.349   4.254   5.686
 5663SOL     OW17524   2.389   3.988   5.903
 5663SOL    HW117525   2.433   3.939   5.833
 5663SOL    HW217526   2.370   4.074   5.864
 5664SOL     OW17527   2.780   3.820   6.979
 5664SOL    HW117528   2.804   3.799   6.889
 5664SOL    HW217529   2.859   3.858   7.017
 5665SOL     OW17530   2.300   0.010   6.870
 5665SOL    HW117531   2.369   4.498   6.935
 5665SOL    HW217532   2.255   4.425   6.867
 5666SOL     OW17533   3.126   4.099   6.864
 5666SOL    HW117534   3.160   4.176   6.909
 5666SOL    HW217535   3.037   4.122   6.838
 5667SOL     OW17536   2.414   4.249   6.450
 5667SOL    HW117537   2.433   4.286   6.364
 5667SOL    HW217538   2.480   4.288   6.508
 5668SOL     OW17539   3.427   4.335   6.068
 5668SOL    HW117540   3.406   4.400   6.134
 5668SOL    HW217541   3.489   4.379   6.010
 5669SOL     OW17542   2.857   3.852   7.341
 5669SOL    HW117543   2.916   3.924   7.318
 5669SOL    HW217544   2.905   3.773   7.315
 5670SOL     OW17545   2.359   3.762   7.335
 5670SOL    HW117546   2.314   3.709   7.270
 5670SOL    HW217547   2.302   3.838   7.348
 5671SOL     OW17548   3.070   4.252   5.847
 5671SOL    HW117549   3.080   4.173   5.899
 5671SOL    HW217550   3.021   4.313   5.903
 5672SOL     OW17551   2.159   3.921   6.833
 5672SOL    HW117552   2.122   3.954   6.915
 5672SOL    HW217553   2.141   3.827   6.834
 5673SOL     OW17554   2.596   4.361   6.624
 5673SOL    HW117555   2.669   4.322   6.577
 5673SOL    HW217556   2.610   4.455   6.618
 5674SOL     OW17557   3.616   0.131   7.437
 5674SOL    HW117558   3.545   0.148   7.374
 5674SOL    HW217559   3.576   0.149   7.523
 5675SOL     OW17560   2.166   3.786   6.209
 5675SOL    HW117561   2.144   3.877   6.230
 5675SOL    HW217562   2.174   3.743   6.294
 5676SOL     OW17563   3.477   4.091   5.952
 5676SOL    HW117564   3.508   4.030   6.019
 5676SOL    HW217565   3.451   4.169   6.001
 5677SOL     OW17566   3.386   3.999   5.712
 5677SOL    HW117567   3.323   3.931   5.738
 5677SOL    HW217568   3.422   4.031   5.795
 5678SOL     OW17569   2.182   0.012   6.504
 5678SOL    HW117570   2.258   0.069   6.516
 5678SOL    HW217571   2.197   4.439   6.564
 5679SOL     OW17572   2.198   4.241   6.609
 5679SOL    HW117573   2.158   4.156   6.590
 5679SOL    HW217574   2.273   4.246   6.549
 5680SOL     OW17575   2.999   4.090   7.274
 5680SOL    HW117576   2.945   4.150   7.326
 5680SOL    HW217577   3.083   4.136   7.265
 5681SOL     OW17578   3.022   3.924   7.056
 5681SOL    HW117579   3.012   3.985   7.129
 5681SOL    HW217580   3.064   3.976   6.987
 5682SOL     OW17581   1.898   4.275   6.702
 5682SOL    HW117582   1.979   4.263   6.652
 5682SOL    HW217583   1.926   4.275   6.794
 5683SOL     OW17584   2.058   4.245   7.302
 5683SOL    HW117585   2.109   4.195   7.239
 5683SOL    HW217586   2.006   4.305   7.248
 5684SOL     OW17587   2.681   4.276   5.945
 5684SOL    HW117588   2.687   4.205   5.880
 5684SOL    HW217589   2.596   4.316   5.929
 5685SOL     OW17590   3.496   4.315   6.769
 5685SOL    HW117591   3.493   4.258   6.846
 5685SOL    HW217592   3.585   4.304   6.735
 5686SOL     OW17593   2.548   4.184   6.835
 5686SOL    HW117594   2.501   4.106   6.805
 5686SOL    HW217595   2.549   4.242   6.759
 5687SOL     OW17596   2.341   4.224   5.776
 5687SOL    HW117597   2.368   4.311   5.803
 5687SOL    HW217598   2.247   4.232   5.760
 5688SOL     OW17599   3.584   3.873   6.096
 5688SOL    HW117600   3.655   3.858   6.033
 5688SOL    HW217601   3.567   3.787   6.134
 5689SOL     OW17602   3.141   0.135   6.265
 5689SOL    HW117603   3.199   0.061   6.284
 5689SOL    HW217604   3.191   0.190   6.204
 5690SOL     OW17605   3.703   3.895   6.553
 5690SOL    HW117606   3.732   3.808   6.526
 5690SOL    HW217607   3.617   3.905   6.512
 5691SOL     OW17608   2.123   4.039   6.302
 5691SOL    HW117609   2.035   4.069   6.278
 5691SOL    HW217610   2.120   4.030   6.397
 5692SOL     OW17611   2.765   0.088   5.794
 5692SOL    HW117612   2.846   0.126   5.759
 5692SOL    HW217613   2.789   0.058   5.882
 5693SOL     OW17614   2.927   0.293   6.334
 5693SOL    HW117615   2.858   0.288   6.268
 5693SOL    HW217616   2.993   0.230   6.304
 5694SOL     OW17617   2.883   3.964   6.550
 5694SOL    HW117618   2.879   3.915   6.468
 5694SOL    HW217619   2.879   3.897   6.618
 5695SOL     OW17620   3.586   4.114   6.966
 5695SOL    HW117621   3.657   4.178   6.964
 5695SOL    HW217622   3.616   4.043   6.909
 5696SOL     OW17623   2.538   3.918   7.086
 5696SOL    HW117624   2.622   3.898   7.045
 5696SOL    HW217625   2.560   3.952   7.172
 5697SOL     OW17626   1.937   4.037   5.615
 5697SOL    HW117627   1.854   4.035   5.566
 5697SOL    HW217628   1.969   4.126   5.604
 5698SOL     OW17629   1.928   3.878   5.894
 5698SOL    HW117630   1.912   3.956   5.841
 5698SOL    HW217631   2.013   3.846   5.863
 5699SOL     OW17632   2.594   4.281   7.285
 5699SOL    HW117633   2.588   4.325   7.369
 5699SOL    HW217634   2.607   4.188   7.307
 5700SOL     OW17635   3.079   4.041   6.040
 5700SOL    HW117636   3.141   3.969   6.033
 5700SOL    HW217637   3.107   4.090   6.117
 5701SOL     OW17638   3.618   4.093   7.237
 5701SOL    HW117639   3.603   4.104   7.143
 5701SOL    HW217640   3.548   4.034   7.265
 5702SOL     OW17641   2.975   0.224   5.686
 5702SOL    HW117642   2.968   0.268   5.602
 5702SOL    HW217643   3.063   0.186   5.686
 5703SOL     OW17644   3.676   3.906   6.824
 5703SOL    HW117645   3.682   3.811   6.836
 5703SOL    HW217646   3.685   3.918   6.729
 5704SOL     OW17647   2.300   4.161   6.121
 5704SOL    HW117648   2.327   4.090   6.062
 5704SOL    HW217649   2.246   4.117   6.187
 5705SOL     OW17650   2.187   4.264   6.882
 5705SOL    HW117651   2.244   4.209   6.936
 5705SOL    HW217652   2.206   4.238   6.792
 5706SOL     OW17653   3.293   3.950   6.703
 5706SOL    HW117654   3.314   3.868   6.747
 5706SOL    HW217655   3.242   3.999   6.767
 5707SOL     OW17656   2.871   3.741   6.725
 5707SOL    HW117657   2.818   3.674   6.683
 5707SOL    HW217658   2.959   3.704   6.728
 5708SOL     OW17659   3.216   3.776   5.752
 5708SOL    HW117660   3.247   3.708   5.693
 5708SOL    HW217661   3.127   3.749   5.776
 5709SOL     OW17662   3.160   4.174   6.265
 5709SOL    HW117663   3.131   4.264   6.280
 5709SOL    HW217664   3.159   4.134   6.352
 5710SOL     OW17665   3.448   3.923   6.465
 5710SOL    HW117666   3.390   3.947   6.538
 5710SOL    HW217667   3.448   4.001   6.409
 5711SOL     OW17668   2.083   4.281   7.571
 5711SOL    HW117669   2.043   4.360   7.609
 5711SOL    HW217670   2.078   4.295   7.476
 5712SOL     OW17671   2.086   4.001   8.439
 5712SOL    HW117672   2.113   3.967   8.524
 5712SOL    HW217673   1.996   3.971   8.429
 5713SOL     OW17674   1.865   4.100   8.090
 5713SOL    HW117675   1.785   4.132   8.132
 5713SOL    HW217676   1.837   4.023   8.041
 5714SOL     OW17677   3.587   4.335   7.687
 5714SOL    HW117678   3.589   4.324   7.592
 5714SOL    HW217679   3.591   4.245   7.721
 5715SOL     OW17680   2.592   0.277   8.137
 5715SOL    HW117681   2.582   0.211   8.205
 5715SOL    HW217682   2.506   0.280   8.093
 5716SOL     OW17683   2.313   4.112   8.929
 5716SOL    HW117684   2.390   4.055   8.937
 5716SOL    HW217685   2.239   4.055   8.950
 5717SOL     OW17686   3.475   4.170   8.189
 5717SOL    HW117687   3.412   4.196   8.123
 5717SOL    HW217688   3.466   4.235   8.259
 5718SOL     OW17689   3.458   3.849   8.915
 5718SOL    HW117690   3.472   3.930   8.865
 5718SOL    HW217691   3.441   3.878   9.004
 5719SOL     OW17692   1.928   4.380   8.026
 5719SOL    HW117693   1.926   4.286   8.040
 5719SOL    HW217694   2.006   4.410   8.072
 5720SOL     OW17695   1.980   4.479   9.031
 5720SOL    HW117696   2.045   4.499   9.098
 5720SOL    HW217697   1.951   0.064   9.000
 5721SOL     OW17698   2.679   3.727   7.958
 5721SOL    HW117699   2.719   3.811   7.937
 5721SOL    HW217700   2.586   3.746   7.966
 5722SOL     OW17701   2.199   3.973   9.266
 5722SOL    HW117702   2.234   4.060   9.279
 5722SOL    HW217703   2.106   3.980   9.289
 5723SOL     OW17704   3.139   4.077   8.381
 5723SOL    HW117705   3.049   4.044   8.392
 5723SOL    HW217706   3.191   4.024   8.441
 5724SOL     OW17707   2.694   4.300   8.893
 5724SOL    HW117708   2.655   4.304   8.980
 5724SOL    HW217709   2.626   4.263   8.837
 5725SOL     OW17710   3.256   4.200   9.124
 5725SOL    HW117711   3.260   4.245   9.209
 5725SOL    HW217712   3.313   4.123   9.135
 5726SOL     OW17713   2.861   4.153   8.681
 5726SOL    HW117714   2.791   4.178   8.741
 5726SOL    HW217715   2.818   4.096   8.617
 5727SOL     OW17716   2.917   4.412   7.862
 5727SOL    HW117717   2.912   4.459   7.945
 5727SOL    HW217718   2.831   4.369   7.853
 5728SOL     OW17719   2.758   4.066   7.636
 5728SOL    HW117720   2.798   4.130   7.576
 5728SOL    HW217721   2.774   3.981   7.595
 5729SOL     OW17722   3.574   4.300   9.279
 5729SOL    HW117723   3.589   4.386   9.241
 5729SOL    HW217724   3.593   4.239   9.208
 5730SOL     OW17725   2.413   3.902   8.342
 5730SOL    HW117726   2.414   3.931   8.433
 5730SOL    HW217727   2.410   3.983   8.291
 5731SOL     OW17728   3.354   4.468   8.187
 5731SOL    HW117729   3.340   4.412   8.263
 5731SOL    HW217730   3.395   0.047   8.223
 5732SOL     OW17731   2.061   3.999   8.954
 5732SOL    HW117732   1.977   4.045   8.949
 5732SOL    HW217733   2.043   3.920   9.004
 5733SOL     OW17734   3.263   3.829   7.883
 5733SOL    HW117735   3.254   3.805   7.791
 5733SOL    HW217736   3.357   3.839   7.897
 5734SOL     OW17737   2.215   4.390   7.854
 5734SOL    HW117738   2.251   4.312   7.896
 5734SOL    HW217739   2.148   4.421   7.914
 5735SOL     OW17740   3.394   3.950   9.173
 5735SOL    HW117741   3.403   3.970   9.266
 5735SOL    HW217742   3.325   3.883   9.170
 5736SOL     OW17743   2.500   3.845   7.552
 5736SOL    HW117744   2.564   3.775   7.567
 5736SOL    HW217745   2.449   3.814   7.477
 5737SOL     OW17746   2.625   4.002   9.203
 5737SOL    HW117747   2.704   3.948   9.201
 5737SOL    HW217748   2.579   3.974   9.282
 5738SOL     OW17749   3.202   4.313   8.878
 5738SOL    HW117750   3.224   4.276   8.964
 5738SOL    HW217751   3.250   4.396   8.875
 5739SOL     OW17752   2.787   4.234   8.343
 5739SOL    HW117753   2.764   4.217   8.252
 5739SOL    HW217754   2.826   4.152   8.373
 5740SOL     OW17755   2.413   3.788   7.947
 5740SOL    HW117756   2.332   3.787   7.999
 5740SOL    HW217757   2.405   3.865   7.892
 5741SOL     OW17758   2.153   3.772   7.634
 5741SOL    HW117759   2.211   3.836   7.592
 5741SOL    HW217760   2.212   3.709   7.675
 5742SOL     OW17761   2.802   3.974   7.906
 5742SOL    HW117762   2.777   4.011   7.821
 5742SOL    HW217763   2.897   3.988   7.911
 5743SOL     OW17764   2.936   4.394   8.981
 5743SOL    HW117765   2.854   4.364   8.941
 5743SOL    HW217766   3.004   4.361   8.923
 5744SOL     OW17767   2.887   4.262   7.477
 5744SOL    HW117768   2.872   4.350   7.441
 5744SOL    HW217769   2.951   4.276   7.547
 5745SOL     OW17770   1.939   4.281   8.843
 5745SOL    HW117771   2.030   4.272   8.815
 5745SOL    HW217772   1.939   4.354   8.904
 5746SOL     OW17773   2.419   3.950   8.613
 5746SOL    HW117774   2.462   3.877   8.658
 5746SOL    HW217775   2.329   3.947   8.644
 5747SOL     OW17776   2.729   4.189   8.083
 5747SOL    HW117777   2.700   4.249   8.014
 5747SOL    HW217778   2.750   4.108   8.036
 5748SOL     OW17779   2.877   3.778   8.197
 5748SOL    HW117780   2.819   3.770   8.122
 5748SOL    HW217781   2.855   3.702   8.252
 5749SOL     OW17782   3.340   4.308   8.408
 5749SOL    HW117783   3.275   4.241   8.427
 5749SOL    HW217784   3.389   4.319   8.489
 5750SOL     OW17785   3.267   4.296   7.522
 5750SOL    HW117786   3.203   4.267   7.587
 5750SOL    HW217787   3.349   4.255   7.548
 5751SOL     OW17788   2.389   3.988   7.764
 5751SOL    HW117789   2.434   3.940   7.695
 5751SOL    HW217790   2.370   4.074   7.725
 5752SOL     OW17791   2.780   3.820   8.841
 5752SOL    HW117792   2.804   3.800   8.751
 5752SOL    HW217793   2.860   3.858   8.879
 5753SOL     OW17794   2.300   0.010   8.732
 5753SOL    HW117795   2.369   4.498   8.797
 5753SOL    HW217796   2.255   4.425   8.729
 5754SOL     OW17797   3.126   4.099   8.726
 5754SOL    HW117798   3.160   4.176   8.770
 5754SOL    HW217799   3.037   4.122   8.700
 5755SOL     OW17800   2.414   4.249   8.312
 5755SOL    HW117801   2.433   4.286   8.226
 5755SOL    HW217802   2.480   4.288   8.370
 5756SOL     OW17803   3.427   4.335   7.930
 5756SOL    HW117804   3.406   4.400   7.997
 5756SOL    HW217805   3.489   4.379   7.872
 5757SOL     OW17806   2.857   3.852   9.203
 5757SOL    HW117807   2.916   3.925   9.180
 5757SOL    HW217808   2.905   3.774   9.177
 5758SOL     OW17809   2.359   3.762   9.197
 5758SOL    HW117810   2.314   3.709   9.132
 5758SOL    HW217811   2.302   3.838   9.210
 5759SOL     OW17812   3.070   4.252   7.709
 5759SOL    HW117813   3.080   4.173   7.761
 5759SOL    HW217814   3.022   4.313   7.765
 5760SOL     OW17815   2.159   3.921   8.695
 5760SOL    HW117816   2.122   3.953   8.777
 5760SOL    HW217817   2.141   3.827   8.696
 5761SOL     OW17818   2.596   4.361   8.486
 5761SOL    HW117819   2.670   4.322   8.438
 5761SOL    HW217820   2.610   4.455   8.480
 5762SOL     OW17821   3.616   0.131   9.299
 5762SOL    HW117822   3.545   0.148   9.236
 5762SOL    HW217823   3.576   0.148   9.385
 5763SOL     OW17824   2.168   3.787   8.072
 5763SOL    HW117825   2.145   3.878   8.093
 5763SOL    HW217826   2.175   3.743   8.156
 5764SOL     OW17827   3.477   4.091   7.814
 5764SOL    HW117828   3.508   4.030   7.881
 5764SOL    HW217829   3.451   4.169   7.863
 5765SOL     OW17830   3.386   3.999   7.574
 5765SOL    HW117831   3.323   3.931   7.600
 5765SOL    HW217832   3.422   4.031   7.657
 5766SOL     OW17833   2.182   0.012   8.366
 5766SOL    HW117834   2.258   0.069   8.378
 5766SOL    HW217835   2.197   4.439   8.426
 5767SOL     OW17836   2.198   4.241   8.471
 5767SOL    HW117837   2.158   4.156   8.452
 5767SOL    HW217838   2.273   4.246   8.411
 5768SOL     OW17839   2.999   4.090   9.136
 5768SOL    HW117840   2.945   4.150   9.188
 5768SOL    HW217841   3.083   4.136   9.127
 5769SOL     OW17842   3.023   3.924   8.918
 5769SOL    HW117843   3.012   3.985   8.991
 5769SOL    HW217844   3.064   3.976   8.849
 5770SOL     OW17845   1.898   4.275   8.564
 5770SOL    HW117846   1.978   4.263   8.514
 5770SOL    HW217847   1.926   4.275   8.656
 5771SOL     OW17848   2.058   4.245   9.164
 5771SOL    HW117849   2.109   4.195   9.101
 5771SOL    HW217850   2.006   4.305   9.110
 5772SOL     OW17851   2.682   4.276   7.806
 5772SOL    HW117852   2.688   4.205   7.743
 5772SOL    HW217853   2.595   4.315   7.791
 5773SOL     OW17854   3.496   4.315   8.631
 5773SOL    HW117855   3.493   4.258   8.708
 5773SOL    HW217856   3.585   4.304   8.597
 5774SOL     OW17857   2.548   4.183   8.697
 5774SOL    HW117858   2.501   4.106   8.667
 5774SOL    HW217859   2.549   4.242   8.621
 5775SOL     OW17860   2.341   4.224   7.638
 5775SOL    HW117861   2.368   4.311   7.666
 5775SOL    HW217862   2.247   4.232   7.621
 5776SOL     OW17863   3.584   3.873   7.958
 5776SOL    HW117864   3.655   3.858   7.895
 5776SOL    HW217865   3.567   3.787   7.997
 5777SOL     OW17866   3.141   0.135   8.127
 5777SOL    HW117867   3.199   0.061   8.145
 5777SOL    HW217868   3.191   0.190   8.067
 5778SOL     OW17869   3.702   3.895   8.415
 5778SOL    HW117870   3.732   3.808   8.388
 5778SOL    HW217871   3.617   3.905   8.374
 5779SOL     OW17872   2.123   4.040   8.165
 5779SOL    HW117873   2.035   4.069   8.141
 5779SOL    HW217874   2.119   4.030   8.260
 5780SOL     OW17875   2.765   0.088   7.656
 5780SOL    HW117876   2.846   0.126   7.621
 5780SOL    HW217877   2.789   0.058   7.744
 5781SOL     OW17878   2.927   0.293   8.196
 5781SOL    HW117879   2.858   0.288   8.130
 5781SOL    HW217880   2.993   0.230   8.165
 5782SOL     OW17881   2.883   3.964   8.412
 5782SOL    HW117882   2.880   3.915   8.330
 5782SOL    HW217883   2.879   3.897   8.480
 5783SOL     OW17884   3.586   4.114   8.828
 5783SOL    HW117885   3.657   4.178   8.826
 5783SOL    HW217886   3.616   4.043   8.771
 5784SOL     OW17887   2.538   3.918   8.948
 5784SOL    HW117888   2.622   3.898   8.907
 5784SOL    HW217889   2.560   3.952   9.034
 5785SOL     OW17890   1.937   4.037   7.476
 5785SOL    HW117891   1.854   4.034   7.429
 5785SOL    HW217892   1.969   4.126   7.464
 5786SOL     OW17893   1.928   3.879   7.755
 5786SOL    HW117894   1.913   3.957   7.702
 5786SOL    HW217895   2.013   3.846   7.725
 5787SOL     OW17896   2.595   4.281   9.147
 5787SOL    HW117897   2.588   4.325   9.231
 5787SOL    HW217898   2.607   4.188   9.169
 5788SOL     OW17899   3.079   4.041   7.902
 5788SOL    HW117900   3.141   3.969   7.895
 5788SOL    HW217901   3.107   4.090   7.979
 5789SOL     OW17902   3.618   4.093   9.099
 5789SOL    HW117903   3.604   4.104   9.005
 5789SOL    HW217904   3.548   4.034   9.127
 5790SOL     OW17905   2.975   0.224   7.548
 5790SOL    HW117906   2.967   0.268   7.463
 5790SOL    HW217907   3.063   0.187   7.548
 5791SOL     OW17908   3.676   3.906   8.686
 5791SOL    HW117909   3.683   3.811   8.698
 5791SOL    HW217910   3.684   3.918   8.591
 5792SOL     OW17911   2.300   4.161   7.983
 5792SOL    HW117912   2.327   4.090   7.924
 5792SOL    HW217913   2.246   4.117   8.049
 5793SOL     OW17914   2.187   4.264   8.744
 5793SOL    HW117915   2.244   4.209   8.797
 5793SOL    HW217916   2.206   4.238   8.654
 5794SOL     OW17917   3.293   3.950   8.565
 5794SOL    HW117918   3.315   3.868   8.610
 5794SOL    HW217919   3.242   4.000   8.629
 5795SOL     OW17920   2.871   3.742   8.587
 5795SOL    HW117921   2.817   3.675   8.545
 5795SOL    HW217922   2.959   3.704   8.589
 5796SOL     OW17923   3.216   3.777   7.615
 5796SOL    HW117924   3.246   3.709   7.554
 5796SOL    HW217925   3.128   3.749   7.639
 5797SOL     OW17926   3.160   4.174   8.127
 5797SOL    HW117927   3.131   4.264   8.141
 5797SOL    HW217928   3.159   4.135   8.214
 5798SOL     OW17929   3.447   3.923   8.327
 5798SOL    HW117930   3.390   3.947   8.400
 5798SOL    HW217931   3.448   4.000   8.271
 5799SOL     OW17932   2.083   4.281   9.433
 5799SOL    HW117933   2.044   4.360   9.471
 5799SOL    HW217934   2.078   4.295   9.338
 5800SOL     OW17935   2.087   4.000  10.300
 5800SOL    HW117936   2.114   3.967  10.386
 5800SOL    HW217937   1.996   3.970  10.291
 5801SOL     OW17938   1.865   4.100   9.952
 5801SOL    HW117939   1.785   4.132   9.994
 5801SOL    HW217940   1.837   4.023   9.903
 5802SOL     OW17941   3.587   4.335   9.549
 5802SOL    HW117942   3.589   4.325   9.454
 5802SOL    HW217943   3.591   4.245   9.583
 5803SOL     OW17944   2.592   0.277   9.998
 5803SOL    HW117945   2.581   0.212  10.068
 5803SOL    HW217946   2.506   0.280   9.955
 5804SOL     OW17947   2.319   4.115  10.788
 5804SOL    HW117948   2.388   4.049  10.794
 5804SOL    HW217949   2.240   4.068  10.815
 5805SOL     OW17950   3.475   4.169  10.051
 5805SOL    HW117951   3.412   4.196   9.985
 5805SOL    HW217952   3.467   4.236  10.120
 5806SOL     OW17953   3.451   3.842  10.776
 5806SOL    HW117954   3.473   3.922  10.729
 5806SOL    HW217955   3.454   3.867  10.869
 5807SOL     OW17956   1.928   4.380   9.887
 5807SOL    HW117957   1.926   4.286   9.902
 5807SOL    HW217958   2.006   4.410   9.935
 5808SOL     OW17959   1.997   4.461  10.903
 5808SOL    HW117960   2.093   4.463  10.903
 5808SOL    HW217961   1.971   0.053  10.895
 5809SOL     OW17962   2.679   3.726   9.821
 5809SOL    HW117963   2.719   3.811   9.799
 5809SOL    HW217964   2.586   3.746   9.828
 5810SOL     OW17965   2.209   3.976   0.022
 5810SOL    HW117966   2.251   4.061   0.038
 5810SOL    HW217967   2.116   3.992   0.032
 5811SOL     OW17968   3.139   4.078  10.244
 5811SOL    HW117969   3.050   4.044  10.254
 5811SOL    HW217970   3.191   4.024  10.303
 5812SOL     OW17971   2.688   4.299  10.762
 5812SOL    HW117972   2.640   4.312  10.844
 5812SOL    HW217973   2.624   4.260  10.702
 5813SOL     OW17974   2.861   4.153  10.544
 5813SOL    HW117975   2.787   4.176  10.600
 5813SOL    HW217976   2.823   4.097  10.476
 5814SOL     OW17977   2.917   4.412   9.724
 5814SOL    HW117978   2.912   4.459   9.807
 5814SOL    HW217979   2.831   4.369   9.715
 5815SOL     OW17980   2.758   4.066   9.498
 5815SOL    HW117981   2.798   4.130   9.438
 5815SOL    HW217982   2.774   3.981   9.457
 5816SOL     OW17983   2.413   3.902  10.205
 5816SOL    HW117984   2.414   3.931  10.296
 5816SOL    HW217985   2.410   3.983  10.154
 5817SOL     OW17986   3.354   4.468  10.049
 5817SOL    HW117987   3.340   4.412  10.126
 5817SOL    HW217988   3.395   0.047  10.085
 5818SOL     OW17989   2.066   3.999  10.809
 5818SOL    HW117990   1.987   4.053  10.814
 5818SOL    HW217991   2.050   3.927  10.870
 5819SOL     OW17992   3.263   3.829   9.745
 5819SOL    HW117993   3.255   3.805   9.653
 5819SOL    HW217994   3.357   3.839   9.760
 5820SOL     OW17995   2.215   4.390   9.716
 5820SOL    HW117996   2.251   4.312   9.758
 5820SOL    HW217997   2.148   4.422   9.777
 5821SOL     OW17998   2.500   3.844   9.414
 5821SOL    HW117999   2.565   3.775   9.429
 5821SOL    HW218000   2.449   3.814   9.339
 5822SOL     OW18001   2.625   4.008  11.047
 5822SOL    HW118002   2.693   3.949  11.080
 5822SOL    HW218003   2.563   4.017   0.019
 5823SOL     OW18004   3.212   4.311  10.742
 5823SOL    HW118005   3.226   4.295  10.835
 5823SOL    HW218006   3.246   4.399  10.728
 5824SOL     OW18007   2.788   4.234  10.205
 5824SOL    HW118008   2.764   4.218  10.114
 5824SOL    HW218009   2.826   4.151  10.234
 5825SOL     OW18010   2.413   3.788   9.809
 5825SOL    HW118011   2.332   3.787   9.861
 5825SOL    HW218012   2.405   3.865   9.754
 5826SOL     OW18013   2.153   3.772   9.496
 5826SOL    HW118014   2.210   3.836   9.454
 5826SOL    HW218015   2.212   3.709   9.537
 5827SOL     OW18016   2.802   3.973   9.768
 5827SOL    HW118017   2.777   4.011   9.683
 5827SOL    HW218018   2.897   3.988   9.773
 5828SOL     OW18019   2.940   4.363  10.844
 5828SOL    HW118020   2.853   4.358  10.805
 5828SOL    HW218021   3.000   4.352  10.770
 5829SOL     OW18022   2.887   4.262   9.339
 5829SOL    HW118023   2.872   4.350   9.303
 5829SOL    HW218024   2.951   4.276   9.409
 5830SOL     OW18025   1.937   4.278  10.709
 5830SOL    HW118026   2.027   4.270  10.680
 5830SOL    HW218027   1.940   4.340  10.782
 5831SOL     OW18028   2.419   3.950  10.476
 5831SOL    HW118029   2.461   3.877  10.521
 5831SOL    HW218030   2.328   3.948  10.506
 5832SOL     OW18031   2.730   4.189   9.945
 5832SOL    HW118032   2.700   4.249   9.877
 5832SOL    HW218033   2.750   4.108   9.898
 5833SOL     OW18034   2.877   3.778  10.060
 5833SOL    HW118035   2.819   3.771   9.984
 5833SOL    HW218036   2.855   3.702  10.114
 5834SOL     OW18037   3.340   4.308  10.270
 5834SOL    HW118038   3.276   4.240  10.289
 5834SOL    HW218039   3.389   4.319  10.351
 5835SOL     OW18040   3.267   4.296   9.383
 5835SOL    HW118041   3.203   4.267   9.449
 5835SOL    HW218042   3.349   4.255   9.410
 5836SOL     OW18043   2.389   3.988   9.626
 5836SOL    HW118044   2.434   3.940   9.556
 5836SOL    HW218045   2.370   4.074   9.587
 5837SOL     OW18046   2.781   3.823  10.701
 5837SOL    HW118047   2.805   3.802  10.611
 5837SOL    HW218048   2.860   3.863  10.739
 5838SOL     OW18049   2.301   0.007  10.584
 5838SOL    HW118050   2.357   0.003  10.661
 5838SOL    HW218051   2.253   4.424  10.585
 5839SOL     OW18052   3.127   4.098  10.590
 5839SOL    HW118053   3.163   4.175  10.634
 5839SOL    HW218054   3.039   4.124  10.564
 5840SOL     OW18055   2.415   4.248  10.174
 5840SOL    HW118056   2.433   4.287  10.089
 5840SOL    HW218057   2.479   4.288  10.233
 5841SOL     OW18058   3.427   4.335   9.792
 5841SOL    HW118059   3.406   4.400   9.859
 5841SOL    HW218060   3.489   4.379   9.734
 5842SOL     OW18061   2.272   4.462  10.903
 5842SOL    HW118062   2.336   0.032  10.894
 5842SOL    HW218063   2.324   4.383  10.916
 5843SOL     OW18064   3.070   4.252   9.571
 5843SOL    HW118065   3.080   4.173   9.623
 5843SOL    HW218066   3.022   4.313   9.627
 5844SOL     OW18067   2.159   3.922  10.556
 5844SOL    HW118068   2.125   3.955  10.639
 5844SOL    HW218069   2.141   3.828  10.557
 5845SOL     OW18070   2.596   4.361  10.348
 5845SOL    HW118071   2.669   4.323  10.300
 5845SOL    HW218072   2.609   4.456  10.341
 5846SOL     OW18073   2.168   3.787   9.933
 5846SOL    HW118074   2.145   3.878   9.955
 5846SOL    HW218075   2.175   3.743  10.018
 5847SOL     OW18076   3.477   4.091   9.676
 5847SOL    HW118077   3.508   4.030   9.743
 5847SOL    HW218078   3.451   4.169   9.725
 5848SOL     OW18079   3.386   3.999   9.436
 5848SOL    HW118080   3.323   3.931   9.462
 5848SOL    HW218081   3.422   4.031   9.519
 5849SOL     OW18082   2.183   0.012  10.228
 5849SOL    HW118083   2.258   0.069  10.241
 5849SOL    HW218084   2.196   4.440  10.289
 5850SOL     OW18085   2.198   4.240  10.332
 5850SOL    HW118086   2.158   4.155  10.314
 5850SOL    HW218087   2.273   4.245  10.273
 5851SOL     OW18088   3.020   3.929  10.783
 5851SOL    HW118089   3.027   3.989  10.857
 5851SOL    HW218090   3.061   3.975  10.711
 5852SOL     OW18091   1.898   4.278  10.428
 5852SOL    HW118092   1.980   4.264  10.380
 5852SOL    HW218093   1.925   4.277  10.520
 5853SOL     OW18094   3.203   0.205  10.981
 5853SOL    HW118095   3.277   0.253  11.019
 5853SOL    HW218096   3.239   0.158  10.906
 5854SOL     OW18097   2.682   4.276   9.668
 5854SOL    HW118098   2.687   4.205   9.604
 5854SOL    HW218099   2.596   4.316   9.653
 5855SOL     OW18100   3.496   4.315  10.494
 5855SOL    HW118101   3.494   4.256  10.570
 5855SOL    HW218102   3.585   4.306  10.459
 5856SOL     OW18103   2.556   4.181  10.558
 5856SOL    HW118104   2.503   4.105  10.530
 5856SOL    HW218105   2.551   4.242  10.485
 5857SOL     OW18106   2.341   4.224   9.500
 5857SOL    HW118107   2.368   4.311   9.528
 5857SOL    HW218108   2.247   4.232   9.483
 5858SOL     OW18109   3.584   3.873   9.820
 5858SOL    HW118110   3.655   3.858   9.757
 5858SOL    HW218111   3.567   3.787   9.859
 5859SOL     OW18112   3.141   0.135   9.989
 5859SOL    HW118113   3.199   0.061  10.007
 5859SOL    HW218114   3.191   0.190   9.928
 5860SOL     OW18115   3.703   3.895  10.278
 5860SOL    HW118116   3.732   3.808  10.251
 5860SOL    HW218117   3.617   3.905  10.237
 5861SOL     OW18118   2.123   4.040  10.026
 5861SOL    HW118119   2.035   4.069  10.002
 5861SOL    HW218120   2.120   4.030  10.122
 5862SOL     OW18121   2.765   0.088   9.518
 5862SOL    HW118122   2.846   0.126   9.484
 5862SOL    HW218123   2.789   0.058   9.606
 5863SOL     OW18124   2.927   0.293  10.058
 5863SOL    HW118125   2.858   0.289   9.992
 5863SOL    HW218126   2.993   0.230  10.027
 5864SOL     OW18127   2.884   3.965  10.274
 5864SOL    HW118128   2.879   3.916  10.192
 5864SOL    HW218129   2.879   3.897  10.342
 5865SOL     OW18130   3.581   4.115  10.693
 5865SOL    HW118131   3.653   4.178  10.695
 5865SOL    HW218132   3.612   4.045  10.635
 5866SOL     OW18133   2.538   3.915  10.803
 5866SOL    HW118134   2.620   3.895  10.759
 5866SOL    HW218135   2.564   3.956  10.885
 5867SOL     OW18136   1.937   4.037   9.338
 5867SOL    HW118137   1.854   4.035   9.291
 5867SOL    HW218138   1.969   4.126   9.326
 5868SOL     OW18139   1.928   3.879   9.617
 5868SOL    HW118140   1.912   3.957   9.564
 5868SOL    HW218141   2.013   3.846   9.587
 5869SOL     OW18142   2.583   4.300  11.022
 5869SOL    HW118143   2.633   4.342  11.092
 5869SOL    HW218144   2.612   4.208  11.024
 5870SOL     OW18145   3.079   4.041   9.764
 5870SOL    HW118146   3.141   3.969   9.757
 5870SOL    HW218147   3.107   4.090   9.841
 5871SOL     OW18148   3.613   4.053  10.962
 5871SOL    HW118149   3.591   4.083  10.874
 5871SOL    HW218150   3.531   4.060  11.011
 5872SOL     OW18151   2.975   0.224   9.411
 5872SOL    HW118152   2.967   0.268   9.326
 5872SOL    HW218153   3.063   0.187   9.410
 5873SOL     OW18154   3.670   3.906  10.548
 5873SOL    HW118155   3.679   3.811  10.560
 5873SOL    HW218156   3.681   3.920  10.454
 5874SOL     OW18157   2.300   4.161   9.845
 5874SOL    HW118158   2.327   4.090   9.786
 5874SOL    HW218159   2.246   4.117   9.912
 5875SOL     OW18160   2.184   4.264  10.605
 5875SOL    HW118161   2.241   4.210  10.659
 5875SOL    HW218162   2.204   4.237  10.515
 5876SOL     OW18163   3.293   3.949  10.427
 5876SOL    HW118164   3.318   3.868  10.472
 5876SOL    HW218165   3.243   3.998  10.492
 5877SOL     OW18166   2.871   3.742  10.450
 5877SOL    HW118167   2.817   3.676  10.406
 5877SOL    HW218168   2.959   3.704  10.451
 5878SOL     OW18169   3.216   3.777   9.477
 5878SOL    HW118170   3.246   3.709   9.416
 5878SOL    HW218171   3.128   3.749   9.501
 5879SOL     OW18172   3.160   4.174   9.989
 5879SOL    HW118173   3.131   4.264  10.003
 5879SOL    HW218174   3.159   4.135  10.077
 5880SOL     OW18175   3.447   3.923  10.189
 5880SOL    HW118176   3.390   3.947  10.262
 5880SOL    HW218177   3.448   4.000  10.133
 5881SOL     OW18178   3.937   0.606   0.107
 5881SOL    HW118179   3.858   0.618   0.160
 5881SOL    HW218180   3.919   0.654   0.026
 5882SOL     OW18181   3.928   0.307   0.990
 5882SOL    HW118182   3.963   0.275   1.072
 5882SOL    HW218183   3.848   0.256   0.976
 5883SOL     OW18184   3.728   0.389   0.636
 5883SOL    HW118185   3.642   0.407   0.674
 5883SOL    HW218186   3.714   0.315   0.577
 5884SOL     OW18187   4.264   1.238   1.147
 5884SOL    HW118188   4.201   1.306   1.123
 5884SOL    HW218189   4.336   1.286   1.188
 5885SOL     OW18190   0.018   0.774   1.857
 5885SOL    HW118191   0.066   0.814   1.930
 5885SOL    HW218192   0.058   0.810   1.778
 5886SOL     OW18193   4.396   0.985   0.631
 5886SOL    HW118194   4.477   0.992   0.683
 5886SOL    HW218195   4.336   1.046   0.673
 5887SOL     OW18196   4.419   1.159   1.811
 5887SOL    HW118197   4.456   1.239   1.774
 5887SOL    HW218198   4.326   1.165   1.791
 5888SOL     OW18199   4.063   1.431   1.069
 5888SOL    HW118200   3.990   1.386   1.025
 5888SOL    HW218201   4.106   1.480   0.998
 5889SOL     OW18202   4.162   0.395   1.482
 5889SOL    HW118203   4.241   0.341   1.484
 5889SOL    HW218204   4.091   0.333   1.496
 5890SOL     OW18205   3.941   1.714   0.473
 5890SOL    HW118206   3.960   1.791   0.527
 5890SOL    HW218207   4.013   1.709   0.411
 5891SOL     OW18208   3.951   1.442   0.532
 5891SOL    HW118209   3.934   1.536   0.535
 5891SOL    HW218210   3.893   1.405   0.599
 5892SOL     OW18211   3.978   1.088   0.886
 5892SOL    HW118212   3.981   1.003   0.929
 5892SOL    HW218213   3.927   1.143   0.946
 5893SOL     OW18214   4.361   1.796   1.458
 5893SOL    HW118215   4.273   1.765   1.479
 5893SOL    HW218216   4.353   1.892   1.456
 5894SOL     OW18217   4.295   1.010   0.140
 5894SOL    HW118218   4.307   1.081   0.077
 5894SOL    HW218219   4.377   1.007   0.188
 5895SOL     OW18220   3.839   0.653   0.561
 5895SOL    HW118221   3.808   0.566   0.584
 5895SOL    HW218222   3.831   0.704   0.642
 5896SOL     OW18223   3.774   1.599   0.119
 5896SOL    HW118224   3.745   1.511   0.145
 5896SOL    HW218225   3.747   1.656   0.191
 5897SOL     OW18226   3.845   0.746   1.583
 5897SOL    HW118227   3.936   0.775   1.589
 5897SOL    HW218228   3.793   0.826   1.587
 5898SOL     OW18229   4.306   1.389   0.738
 5898SOL    HW118230   4.272   1.299   0.740
 5898SOL    HW218231   4.310   1.411   0.645
 5899SOL     OW18232   0.014   0.003   0.493
 5899SOL    HW118233   0.046   0.071   0.434
 5899SOL    HW218234   4.427   0.034   0.521
 5900SOL     OW18235   3.910   0.962   1.276
 5900SOL    HW118236   3.997   0.924   1.258
 5900SOL    HW218237   3.851   0.913   1.219
 5901SOL     OW18238   4.039   0.250   1.783
 5901SOL    HW118239   4.100   0.317   1.813
 5901SOL    HW218240   3.965   0.256   1.844
 5902SOL     OW18241   4.307   0.712   0.267
 5902SOL    HW118242   4.332   0.792   0.221
 5902SOL    HW218243   4.248   0.741   0.337
 5903SOL     OW18244   3.812   0.823   0.775
 5903SOL    HW118245   3.892   0.814   0.826
 5903SOL    HW218246   3.769   0.901   0.810
 5904SOL     OW18247   3.853   1.857   1.580
 5904SOL    HW118248   3.854   1.835   1.673
 5904SOL    HW218249   3.763   1.836   1.552
 5905SOL     OW18250   4.237   0.206   0.897
 5905SOL    HW118251   4.280   0.220   0.981
 5905SOL    HW218252   4.259   0.284   0.846
 5906SOL     OW18253   4.083   1.816   0.867
 5906SOL    HW118254   4.135   1.735   0.875
 5906SOL    HW218255   4.147   1.886   0.877
 5907SOL     OW18256   4.039   0.963   0.277
 5907SOL    HW118257   4.120   0.986   0.231
 5907SOL    HW218258   4.015   0.877   0.243
 5908SOL     OW18259   4.177   1.250   1.734
 5908SOL    HW118260   4.150   1.264   1.643
 5908SOL    HW218261   4.096   1.260   1.784
 5909SOL     OW18262   3.910   0.269   1.516
 5909SOL    HW118263   3.844   0.337   1.502
 5909SOL    HW218264   3.928   0.272   1.610
 5910SOL     OW18265   4.189   1.730   0.327
 5910SOL    HW118266   4.224   1.794   0.389
 5910SOL    HW218267   4.262   1.713   0.267
 5911SOL     OW18268   3.980   1.793   1.230
 5911SOL    HW118269   4.026   1.720   1.272
 5911SOL    HW218270   3.967   1.764   1.140
 5912SOL     OW18271   4.109   0.692   0.473
 5912SOL    HW118272   4.134   0.601   0.488
 5912SOL    HW218273   4.016   0.696   0.497
 5913SOL     OW18274   4.346   0.128   0.106
 5913SOL    HW118275   4.431   0.099   0.137
 5913SOL    HW218276   4.328   0.073   0.030
 5914SOL     OW18277   0.024   1.417   0.906
 5914SOL    HW118278   0.072   1.478   0.850
 5914SOL    HW218279   4.446   1.394   0.855
 5915SOL     OW18280   4.274   0.112   0.541
 5915SOL    HW118281   4.191   0.079   0.573
 5915SOL    HW218282   4.252   0.159   0.460
 5916SOL     OW18283   4.008   0.052   0.203
 5916SOL    HW118284   4.075   0.106   0.160
 5916SOL    HW218285   4.055   0.006   0.272
 5917SOL     OW18286   0.325   0.675   1.461
 5917SOL    HW118287   0.269   0.605   1.427
 5917SOL    HW218288   0.412   0.634   1.466
 5918SOL     OW18289   4.193   1.144   0.732
 5918SOL    HW118290   4.126   1.124   0.797
 5918SOL    HW218291   4.148   1.133   0.648
 5919SOL     OW18292   3.809   0.548   1.396
 5919SOL    HW118293   3.900   0.553   1.365
 5919SOL    HW218294   3.801   0.620   1.459
 5920SOL     OW18295   4.297   0.239   1.159
 5920SOL    HW118296   4.302   0.147   1.186
 5920SOL    HW218297   4.211   0.268   1.191
 5921SOL     OW18298   4.239   1.396   0.192
 5921SOL    HW118299   4.153   1.385   0.234
 5921SOL    HW218300   4.224   1.373   0.101
 5922SOL     OW18301   4.238   0.265   0.316
 5922SOL    HW118302   4.283   0.213   0.250
 5922SOL    HW218303   4.217   0.348   0.273
 5923SOL     OW18304   4.143   0.816   1.251
 5923SOL    HW118305   4.211   0.824   1.318
 5923SOL    HW218306   4.108   0.727   1.262
 5924SOL     OW18307   3.796   1.574   1.355
 5924SOL    HW118308   3.764   1.644   1.298
 5924SOL    HW218309   3.891   1.577   1.347
 5925SOL     OW18310   4.059   1.125   0.497
 5925SOL    HW118311   4.062   1.198   0.435
 5925SOL    HW218312   4.058   1.047   0.441
 5926SOL     OW18313   4.307   0.535   0.863
 5926SOL    HW118314   4.303   0.602   0.794
 5926SOL    HW218315   4.370   0.569   0.926
 5927SOL     OW18316   4.071   1.537   1.314
 5927SOL    HW118317   4.068   1.493   1.229
 5927SOL    HW218318   4.164   1.537   1.337
 5928SOL     OW18319   4.141   0.738   1.607
 5928SOL    HW118320   4.198   0.784   1.544
 5928SOL    HW218321   4.189   0.659   1.630
 5929SOL     OW18322   4.242   0.073   1.722
 5929SOL    HW118323   4.211   4.485   1.702
 5929SOL    HW218324   4.163   0.124   1.737
 5930SOL     OW18325   4.286   0.896   1.026
 5930SOL    HW118326   4.312   0.987   1.041
 5930SOL    HW218327   4.243   0.870   1.107
 5931SOL     OW18328   4.014   0.237   1.241
 5931SOL    HW118329   3.967   0.248   1.324
 5931SOL    HW218330   4.056   0.151   1.248
 5932SOL     OW18331   3.771   1.311   1.276
 5932SOL    HW118332   3.802   1.255   1.347
 5932SOL    HW218333   3.775   1.400   1.311
 5933SOL     OW18334   4.019   0.054   0.654
 5933SOL    HW118335   4.005   0.149   0.656
 5933SOL    HW218336   4.028   0.029   0.746
 5934SOL     OW18337   4.076   0.915   1.808
 5934SOL    HW118338   4.157   0.929   1.857
 5934SOL    HW218339   4.099   0.850   1.742
 5935SOL     OW18340   4.030   0.809   0.945
 5935SOL    HW118341   4.121   0.839   0.947
 5935SOL    HW218342   4.034   0.718   0.975
 5936SOL     OW18343   4.072   0.534   1.010
 5936SOL    HW118344   4.027   0.452   0.990
 5936SOL    HW218345   4.151   0.532   0.956
 5937SOL     OW18346   3.733   1.326   0.193
 5937SOL    HW118347   3.646   1.339   0.155
 5937SOL    HW218348   3.733   1.237   0.226
 5938SOL     OW18349   3.817   1.785   0.941
 5938SOL    HW118350   3.787   1.707   0.895
 5938SOL    HW218351   3.906   1.798   0.909
 5939SOL     OW18352   4.233   1.586   0.906
 5939SOL    HW118353   4.319   1.611   0.939
 5939SOL    HW218354   4.250   1.518   0.841
 5940SOL     OW18355   3.756   0.545   1.118
 5940SOL    HW118356   3.829   0.518   1.063
 5940SOL    HW218357   3.792   0.547   1.207
 5941SOL     OW18358   3.909   0.521   1.723
 5941SOL    HW118359   3.988   0.505   1.671
 5941SOL    HW218360   3.868   0.597   1.681
 5942SOL     OW18361   0.022   0.536   0.262
 5942SOL    HW118362   0.025   0.501   0.351
 5942SOL    HW218363   4.457   0.607   0.266
 5943SOL     OW18364   3.967   1.553   1.725
 5943SOL    HW118365   3.941   1.617   1.791
 5943SOL    HW218366   3.966   1.469   1.772
 5944SOL     OW18367   4.182   0.487   0.170
 5944SOL    HW118368   4.238   0.558   0.201
 5944SOL    HW218369   4.096   0.529   0.157
 5945SOL     OW18370   3.868   1.141   1.473
 5945SOL    HW118371   3.868   1.091   1.555
 5945SOL    HW218372   3.884   1.075   1.405
 5946SOL     OW18373   3.810   1.270   1.012
 5946SOL    HW118374   3.794   1.281   1.105
 5946SOL    HW218375   3.740   1.213   0.981
 5947SOL     OW18376   4.389   1.652   1.698
 5947SOL    HW118377   4.354   1.734   1.733
 5947SOL    HW218378   4.413   1.672   1.608
 5948SOL     OW18379   3.863   1.796   1.843
 5948SOL    HW118380   3.812   1.731   1.891
 5948SOL    HW218381   3.909   1.845   1.911
 5949SOL     OW18382   3.985   0.323   0.713
 5949SOL    HW118383   3.899   0.356   0.690
 5949SOL    HW218384   3.983   0.315   0.809
 5950SOL     OW18385   4.085   1.309   1.490
 5950SOL    HW118386   4.066   1.384   1.433
 5950SOL    HW218387   4.014   1.248   1.475
 5951SOL     OW18388   4.325   1.491   0.481
 5951SOL    HW118389   4.341   1.435   0.404
 5951SOL    HW218390   4.255   1.550   0.453
 5952SOL     OW18391   3.992   1.340   0.290
 5952SOL    HW118392   3.905   1.340   0.249
 5952SOL    HW218393   3.979   1.380   0.375
 5953SOL     OW18394   3.837   1.028   1.722
 5953SOL    HW118395   3.760   1.002   1.773
 5953SOL    HW218396   3.911   0.987   1.767
 5954SOL     OW18397   4.365   0.205   1.490
 5954SOL    HW118398   4.457   0.228   1.475
 5954SOL    HW218399   4.363   0.167   1.578
 5955SOL     OW18400   3.799   0.335   0.056
 5955SOL    HW118401   3.728   0.312  11.096
 5955SOL    HW218402   3.814   0.428   0.041
 5956SOL     OW18403   3.788   0.186   0.320
 5956SOL    HW118404   3.782   0.249   0.248
 5956SOL    HW218405   3.858   0.126   0.294
 5957SOL     OW18406   4.341   0.840   1.438
 5957SOL    HW118407   4.375   0.928   1.420
 5957SOL    HW218408   4.418   0.791   1.467
 5958SOL     OW18409   4.390   0.562   1.732
 5958SOL    HW118410   4.414   0.635   1.789
 5958SOL    HW218411   4.474   0.524   1.704
 5959SOL     OW18412   4.105   1.740   1.561
 5959SOL    HW118413   4.021   1.783   1.546
 5959SOL    HW218414   4.083   1.659   1.607
 5960SOL     OW18415   4.308   0.726   0.667
 5960SOL    HW118416   4.348   0.812   0.657
 5960SOL    HW218417   4.239   0.724   0.602
 5961SOL     OW18418   3.942   1.306   1.854
 5961SOL    HW118419   3.878   1.241   1.824
 5961SOL    HW218420   3.924   1.317   1.947
 5962SOL     OW18421   3.811   1.230   0.667
 5962SOL    HW118422   3.819   1.183   0.750
 5962SOL    HW218423   3.881   1.195   0.612
 5963SOL     OW18424   4.423   1.386   1.669
 5963SOL    HW118425   4.333   1.357   1.656
 5963SOL    HW218426   4.415   1.481   1.681
 5964SOL     OW18427   4.164   0.433   0.532
 5964SOL    HW118428   4.182   0.363   0.470
 5964SOL    HW218429   4.108   0.393   0.598
 5965SOL     OW18430   4.055   0.559   1.289
 5965SOL    HW118431   4.107   0.500   1.344
 5965SOL    HW218432   4.075   0.532   1.199
 5966SOL     OW18433   0.034   1.604   0.688
 5966SOL    HW118434   0.065   1.669   0.624
 5966SOL    HW218435   4.467   1.555   0.642
 5967SOL     OW18436   3.765   1.069   0.301
 5967SOL    HW118437   3.861   1.064   0.298
 5967SOL    HW218438   3.738   0.981   0.326
 5968SOL     OW18439   3.952   0.626   1.984
 5968SOL    HW118440   3.866   0.618   2.025
 5968SOL    HW218441   3.938   0.596   1.894
 5969SOL     OW18442   3.927   0.308   2.852
 5969SOL    HW118443   3.963   0.275   2.934
 5969SOL    HW218444   3.848   0.256   2.838
 5970SOL     OW18445   3.729   0.390   2.498
 5970SOL    HW118446   3.643   0.407   2.536
 5970SOL    HW218447   3.716   0.317   2.438
 5971SOL     OW18448   4.265   1.238   3.007
 5971SOL    HW118449   4.201   1.306   2.985
 5971SOL    HW218450   4.336   1.286   3.050
 5972SOL     OW18451   0.017   0.774   3.719
 5972SOL    HW118452   0.066   0.814   3.791
 5972SOL    HW218453   0.058   0.809   3.640
 5973SOL     OW18454   4.399   0.987   2.492
 5973SOL    HW118455   4.475   0.983   2.550
 5973SOL    HW218456   4.339   1.047   2.535
 5974SOL     OW18457   4.419   1.159   3.673
 5974SOL    HW118458   4.456   1.239   3.635
 5974SOL    HW218459   4.326   1.165   3.653
 5975SOL     OW18460   4.062   1.431   2.931
 5975SOL    HW118461   3.990   1.385   2.888
 5975SOL    HW218462   4.105   1.479   2.860
 5976SOL     OW18463   4.162   0.395   3.344
 5976SOL    HW118464   4.241   0.341   3.346
 5976SOL    HW218465   4.090   0.333   3.358
 5977SOL     OW18466   3.941   1.715   2.334
 5977SOL    HW118467   3.961   1.791   2.389
 5977SOL    HW218468   4.018   1.707   2.277
 5978SOL     OW18469   3.955   1.443   2.397
 5978SOL    HW118470   3.935   1.536   2.402
 5978SOL    HW218471   3.897   1.402   2.462
 5979SOL     OW18472   3.978   1.088   2.748
 5979SOL    HW118473   3.982   1.003   2.791
 5979SOL    HW218474   3.928   1.143   2.807
 5980SOL     OW18475   4.361   1.796   3.320
 5980SOL    HW118476   4.273   1.765   3.341
 5980SOL    HW218477   4.353   1.892   3.318
 5981SOL     OW18478   4.308   0.986   2.003
 5981SOL    HW118479   4.340   1.036   1.928
 5981SOL    HW218480   4.376   0.998   2.070
 5982SOL     OW18481   3.841   0.654   2.423
 5982SOL    HW118482   3.810   0.566   2.445
 5982SOL    HW218483   3.833   0.704   2.504
 5983SOL     OW18484   3.760   1.593   1.985
 5983SOL    HW118485   3.740   1.501   2.004
 5983SOL    HW218486   3.734   1.640   2.063
 5984SOL     OW18487   3.845   0.746   3.445
 5984SOL    HW118488   3.935   0.775   3.451
 5984SOL    HW218489   3.793   0.826   3.449
 5985SOL     OW18490   4.306   1.389   2.599
 5985SOL    HW118491   4.271   1.300   2.601
 5985SOL    HW218492   4.310   1.411   2.506
 5986SOL     OW18493   0.017   0.013   2.368
 5986SOL    HW118494   0.048   0.077   2.304
 5986SOL    HW218495   4.428   0.042   2.389
 5987SOL     OW18496   3.910   0.962   3.138
 5987SOL    HW118497   3.997   0.924   3.120
 5987SOL    HW218498   3.851   0.914   3.081
 5988SOL     OW18499   4.039   0.249   3.645
 5988SOL    HW118500   4.100   0.317   3.675
 5988SOL    HW218501   3.965   0.256   3.706
 5989SOL     OW18502   4.312   0.726   2.132
 5989SOL    HW118503   4.306   0.806   2.081
 5989SOL    HW218504   4.246   0.736   2.201
 5990SOL     OW18505   3.812   0.822   2.638
 5990SOL    HW118506   3.892   0.814   2.689
 5990SOL    HW218507   3.769   0.901   2.672
 5991SOL     OW18508   3.853   1.857   3.442
 5991SOL    HW118509   3.854   1.835   3.535
 5991SOL    HW218510   3.764   1.836   3.414
 5992SOL     OW18511   4.236   0.204   2.760
 5992SOL    HW118512   4.280   0.221   2.844
 5992SOL    HW218513   4.259   0.278   2.705
 5993SOL     OW18514   4.083   1.816   2.729
 5993SOL    HW118515   4.135   1.735   2.736
 5993SOL    HW218516   4.147   1.886   2.739
 5994SOL     OW18517   4.040   0.960   2.114
 5994SOL    HW118518   4.124   0.979   2.071
 5994SOL    HW218519   4.011   0.877   2.076
 5995SOL     OW18520   4.177   1.250   3.596
 5995SOL    HW118521   4.150   1.264   3.505
 5995SOL    HW218522   4.096   1.260   3.646
 5996SOL     OW18523   3.910   0.269   3.378
 5996SOL    HW118524   3.845   0.337   3.364
 5996SOL    HW218525   3.927   0.272   3.472
 5997SOL     OW18526   4.190   1.734   2.187
 5997SOL    HW118527   4.225   1.795   2.252
 5997SOL    HW218528   4.259   1.728   2.121
 5998SOL     OW18529   3.981   1.793   3.092
 5998SOL    HW118530   4.026   1.720   3.134
 5998SOL    HW218531   3.966   1.764   3.002
 5999SOL     OW18532   4.113   0.692   2.333
 5999SOL    HW118533   4.136   0.601   2.350
 5999SOL    HW218534   4.020   0.698   2.353
 6000SOL     OW18535   4.326   0.118   1.979
 6000SOL    HW118536   4.411   0.075   1.989
 6000SOL    HW218537   4.302   0.102   1.888
 6001SOL     OW18538   0.023   1.417   2.769
 6001SOL    HW118539   0.073   1.476   2.712
 6001SOL    HW218540   4.445   1.395   2.717
 6002SOL     OW18541   4.272   0.112   2.404
 6002SOL    HW118542   4.188   0.073   2.428
 6002SOL    HW218543   4.253   0.162   2.325
 6003SOL     OW18544   4.023   0.068   2.067
 6003SOL    HW118545   4.103   0.118   2.048
 6003SOL    HW218546   4.051   0.000   2.129
 6004SOL     OW18547   0.325   0.675   3.324
 6004SOL    HW118548   0.268   0.606   3.288
 6004SOL    HW218549   0.412   0.634   3.328
 6005SOL     OW18550   4.191   1.144   2.590
 6005SOL    HW118551   4.124   1.125   2.655
 6005SOL    HW218552   4.148   1.129   2.506
 6006SOL     OW18553   3.810   0.548   3.259
 6006SOL    HW118554   3.900   0.553   3.227
 6006SOL    HW218555   3.802   0.620   3.321
 6007SOL     OW18556   4.298   0.240   3.023
 6007SOL    HW118557   4.302   0.147   3.047
 6007SOL    HW218558   4.212   0.268   3.053
 6008SOL     OW18559   4.231   1.385   2.036
 6008SOL    HW118560   4.146   1.371   2.077
 6008SOL    HW218561   4.211   1.398   1.943
 6009SOL     OW18562   4.241   0.271   2.185
 6009SOL    HW118563   4.283   0.216   2.119
 6009SOL    HW218564   4.220   0.352   2.138
 6010SOL     OW18565   4.143   0.816   3.113
 6010SOL    HW118566   4.211   0.823   3.180
 6010SOL    HW218567   4.108   0.727   3.124
 6011SOL     OW18568   3.795   1.574   3.218
 6011SOL    HW118569   3.763   1.644   3.160
 6011SOL    HW218570   3.891   1.577   3.209
 6012SOL     OW18571   4.063   1.114   2.350
 6012SOL    HW118572   4.065   1.186   2.288
 6012SOL    HW218573   4.062   1.035   2.296
 6013SOL     OW18574   4.306   0.537   2.726
 6013SOL    HW118575   4.302   0.603   2.656
 6013SOL    HW218576   4.370   0.571   2.788
 6014SOL     OW18577   4.071   1.538   3.176
 6014SOL    HW118578   4.067   1.493   3.091
 6014SOL    HW218579   4.164   1.537   3.199
 6015SOL     OW18580   4.141   0.738   3.469
 6015SOL    HW118581   4.198   0.784   3.406
 6015SOL    HW218582   4.189   0.659   3.492
 6016SOL     OW18583   4.242   0.072   3.585
 6016SOL    HW118584   4.210   4.485   3.563
 6016SOL    HW218585   4.163   0.124   3.599
 6017SOL     OW18586   4.287   0.897   2.888
 6017SOL    HW118587   4.311   0.988   2.904
 6017SOL    HW218588   4.243   0.869   2.968
 6018SOL     OW18589   4.015   0.237   3.103
 6018SOL    HW118590   3.967   0.247   3.186
 6018SOL    HW218591   4.056   0.151   3.110
 6019SOL     OW18592   3.772   1.311   3.138
 6019SOL    HW118593   3.803   1.255   3.209
 6019SOL    HW218594   3.775   1.400   3.173
 6020SOL     OW18595   4.012   0.050   2.517
 6020SOL    HW118596   4.003   0.145   2.517
 6020SOL    HW218597   4.024   0.026   2.609
 6021SOL     OW18598   4.076   0.915   3.670
 6021SOL    HW118599   4.157   0.929   3.719
 6021SOL    HW218600   4.099   0.850   3.604
 6022SOL     OW18601   4.031   0.809   2.807
 6022SOL    HW118602   4.122   0.838   2.808
 6022SOL    HW218603   4.034   0.718   2.837
 6023SOL     OW18604   4.072   0.535   2.872
 6023SOL    HW118605   4.026   0.453   2.852
 6023SOL    HW218606   4.151   0.532   2.818
 6024SOL     OW18607   3.730   1.319   2.057
 6024SOL    HW118608   3.643   1.334   2.020
 6024SOL    HW218609   3.726   1.230   2.092
 6025SOL     OW18610   3.817   1.785   2.803
 6025SOL    HW118611   3.787   1.707   2.757
 6025SOL    HW218612   3.906   1.798   2.771
 6026SOL     OW18613   4.233   1.586   2.767
 6026SOL    HW118614   4.319   1.610   2.801
 6026SOL    HW218615   4.250   1.518   2.703
 6027SOL     OW18616   3.756   0.545   2.980
 6027SOL    HW118617   3.828   0.517   2.924
 6027SOL    HW218618   3.793   0.547   3.068
 6028SOL     OW18619   3.909   0.521   3.585
 6028SOL    HW118620   3.988   0.505   3.532
 6028SOL    HW218621   3.868   0.596   3.543
 6029SOL     OW18622   0.025   0.546   2.123
 6029SOL    HW118623   0.023   0.500   2.207
 6029SOL    HW218624   4.458   0.614   2.132
 6030SOL     OW18625   3.967   1.553   3.587
 6030SOL    HW118626   3.941   1.617   3.653
 6030SOL    HW218627   3.966   1.469   3.634
 6031SOL     OW18628   4.187   0.494   2.044
 6031SOL    HW118629   4.246   0.566   2.066
 6031SOL    HW218630   4.102   0.536   2.030
 6032SOL     OW18631   3.868   1.141   3.336
 6032SOL    HW118632   3.868   1.091   3.417
 6032SOL    HW218633   3.884   1.075   3.268
 6033SOL     OW18634   3.811   1.270   2.874
 6033SOL    HW118635   3.794   1.281   2.967
 6033SOL    HW218636   3.740   1.213   2.843
 6034SOL     OW18637   4.389   1.652   3.560
 6034SOL    HW118638   4.354   1.734   3.594
 6034SOL    HW218639   4.413   1.672   3.470
 6035SOL     OW18640   3.863   1.796   3.705
 6035SOL    HW118641   3.812   1.731   3.753
 6035SOL    HW218642   3.909   1.845   3.773
 6036SOL     OW18643   3.986   0.321   2.575
 6036SOL    HW118644   3.900   0.356   2.553
 6036SOL    HW218645   3.984   0.314   2.671
 6037SOL     OW18646   4.086   1.309   3.352
 6037SOL    HW118647   4.065   1.384   3.296
 6037SOL    HW218648   4.014   1.248   3.337
 6038SOL     OW18649   4.327   1.490   2.341
 6038SOL    HW118650   4.342   1.431   2.268
 6038SOL    HW218651   4.259   1.550   2.310
 6039SOL     OW18652   3.984   1.347   2.150
 6039SOL    HW118653   3.892   1.343   2.128
 6039SOL    HW218654   3.986   1.385   2.239
 6040SOL     OW18655   3.837   1.028   3.584
 6040SOL    HW118656   3.760   1.002   3.635
 6040SOL    HW218657   3.911   0.987   3.629
 6041SOL     OW18658   4.365   0.205   3.352
 6041SOL    HW118659   4.456   0.228   3.336
 6041SOL    HW218660   4.364   0.168   3.440
 6042SOL     OW18661   3.806   0.333   1.911
 6042SOL    HW118662   3.736   0.278   1.875
 6042SOL    HW218663   3.815   0.404   1.847
 6043SOL     OW18664   3.787   0.187   2.175
 6043SOL    HW118665   3.788   0.254   2.107
 6043SOL    HW218666   3.863   0.131   2.156
 6044SOL     OW18667   4.341   0.840   3.300
 6044SOL    HW118668   4.375   0.928   3.281
 6044SOL    HW218669   4.418   0.791   3.329
 6045SOL     OW18670   4.390   0.561   3.595
 6045SOL    HW118671   4.414   0.635   3.652
 6045SOL    HW218672   4.474   0.525   3.566
 6046SOL     OW18673   4.105   1.739   3.423
 6046SOL    HW118674   4.022   1.783   3.408
 6046SOL    HW218675   4.083   1.659   3.469
 6047SOL     OW18676   4.308   0.728   2.530
 6047SOL    HW118677   4.348   0.814   2.517
 6047SOL    HW218678   4.239   0.723   2.463
 6048SOL     OW18679   3.942   1.306   3.715
 6048SOL    HW118680   3.879   1.241   3.685
 6048SOL    HW218681   3.923   1.317   3.809
 6049SOL     OW18682   3.811   1.232   2.528
 6049SOL    HW118683   3.817   1.185   2.611
 6049SOL    HW218684   3.878   1.191   2.473
 6050SOL     OW18685   4.423   1.386   3.531
 6050SOL    HW118686   4.333   1.357   3.518
 6050SOL    HW218687   4.415   1.481   3.543
 6051SOL     OW18688   4.167   0.435   2.399
 6051SOL    HW118689   4.185   0.369   2.333
 6051SOL    HW218690   4.109   0.392   2.461
 6052SOL     OW18691   4.055   0.559   3.150
 6052SOL    HW118692   4.107   0.500   3.205
 6052SOL    HW218693   4.075   0.532   3.061
 6053SOL     OW18694   0.035   1.606   2.550
 6053SOL    HW118695   0.061   1.671   2.485
 6053SOL    HW218696   4.468   1.553   2.505
 6054SOL     OW18697   3.768   1.068   2.169
 6054SOL    HW118698   3.861   1.059   2.150
 6054SOL    HW218699   3.739   0.980   2.192
 6055SOL     OW18700   3.952   0.625   3.846
 6055SOL    HW118701   3.866   0.618   3.887
 6055SOL    HW218702   3.938   0.596   3.756
 6056SOL     OW18703   3.927   0.308   4.714
 6056SOL    HW118704   3.963   0.275   4.796
 6056SOL    HW218705   3.848   0.256   4.700
 6057SOL     OW18706   3.729   0.390   4.360
 6057SOL    HW118707   3.643   0.407   4.398
 6057SOL    HW218708   3.716   0.317   4.300
 6058SOL     OW18709   4.265   1.238   4.869
 6058SOL    HW118710   4.201   1.305   4.846
 6058SOL    HW218711   4.336   1.287   4.911
 6059SOL     OW18712   0.017   0.775   5.581
 6059SOL    HW118713   0.067   0.814   5.653
 6059SOL    HW218714   0.058   0.809   5.502
 6060SOL     OW18715   4.400   0.987   4.353
 6060SOL    HW118716   4.474   0.981   4.413
 6060SOL    HW218717   4.339   1.047   4.397
 6061SOL     OW18718   4.419   1.159   5.535
 6061SOL    HW118719   4.456   1.239   5.497
 6061SOL    HW218720   4.326   1.165   5.515
 6062SOL     OW18721   4.062   1.430   4.793
 6062SOL    HW118722   3.989   1.385   4.750
 6062SOL    HW218723   4.105   1.479   4.722
 6063SOL     OW18724   4.162   0.395   5.206
 6063SOL    HW118725   4.241   0.341   5.208
 6063SOL    HW218726   4.090   0.333   5.220
 6064SOL     OW18727   3.941   1.715   4.196
 6064SOL    HW118728   3.961   1.791   4.251
 6064SOL    HW218729   4.018   1.707   4.139
 6065SOL     OW18730   3.956   1.443   4.259
 6065SOL    HW118731   3.935   1.536   4.264
 6065SOL    HW218732   3.897   1.402   4.324
 6066SOL     OW18733   3.979   1.088   4.610
 6066SOL    HW118734   3.982   1.003   4.653
 6066SOL    HW218735   3.928   1.143   4.669
 6067SOL     OW18736   4.361   1.796   5.182
 6067SOL    HW118737   4.273   1.765   5.202
 6067SOL    HW218738   4.353   1.892   5.180
 6068SOL     OW18739   4.308   0.986   3.865
 6068SOL    HW118740   4.340   1.036   3.790
 6068SOL    HW218741   4.376   0.998   3.932
 6069SOL     OW18742   3.841   0.654   4.285
 6069SOL    HW118743   3.810   0.566   4.307
 6069SOL    HW218744   3.833   0.704   4.366
 6070SOL     OW18745   3.760   1.593   3.846
 6070SOL    HW118746   3.740   1.501   3.866
 6070SOL    HW218747   3.735   1.640   3.925
 6071SOL     OW18748   3.845   0.745   5.307
 6071SOL    HW118749   3.935   0.775   5.313
 6071SOL    HW218750   3.793   0.826   5.311
 6072SOL     OW18751   4.306   1.389   4.461
 6072SOL    HW118752   4.271   1.300   4.464
 6072SOL    HW218753   4.310   1.411   4.368
 6073SOL     OW18754   0.017   0.013   4.230
 6073SOL    HW118755   0.049   0.077   4.166
 6073SOL    HW218756   4.428   0.042   4.251
 6074SOL     OW18757   3.910   0.962   5.001
 6074SOL    HW118758   3.996   0.924   4.983
 6074SOL    HW218759   3.851   0.914   4.942
 6075SOL     OW18760   4.039   0.249   5.507
 6075SOL    HW118761   4.100   0.317   5.536
 6075SOL    HW218762   3.965   0.256   5.568
 6076SOL     OW18763   4.312   0.726   3.994
 6076SOL    HW118764   4.306   0.806   3.943
 6076SOL    HW218765   4.246   0.736   4.063
 6077SOL     OW18766   3.812   0.822   4.500
 6077SOL    HW118767   3.892   0.814   4.551
 6077SOL    HW218768   3.769   0.900   4.534
 6078SOL     OW18769   3.853   1.857   5.304
 6078SOL    HW118770   3.854   1.834   5.397
 6078SOL    HW218771   3.764   1.838   5.275
 6079SOL     OW18772   4.236   0.203   4.623
 6079SOL    HW118773   4.281   0.221   4.706
 6079SOL    HW218774   4.259   0.278   4.567
 6080SOL     OW18775   4.083   1.815   4.590
 6080SOL    HW118776   4.135   1.735   4.598
 6080SOL    HW218777   4.147   1.886   4.601
 6081SOL     OW18778   4.040   0.960   3.976
 6081SOL    HW118779   4.124   0.979   3.933
 6081SOL    HW218780   4.011   0.877   3.938
 6082SOL     OW18781   4.177   1.250   5.458
 6082SOL    HW118782   4.150   1.264   5.367
 6082SOL    HW218783   4.096   1.261   5.508
 6083SOL     OW18784   3.910   0.269   5.240
 6083SOL    HW118785   3.845   0.338   5.225
 6083SOL    HW218786   3.927   0.272   5.334
 6084SOL     OW18787   4.190   1.735   4.049
 6084SOL    HW118788   4.225   1.796   4.114
 6084SOL    HW218789   4.259   1.728   3.983
 6085SOL     OW18790   3.981   1.793   4.954
 6085SOL    HW118791   4.026   1.719   4.995
 6085SOL    HW218792   3.965   1.764   4.864
 6086SOL     OW18793   4.113   0.692   4.195
 6086SOL    HW118794   4.136   0.601   4.212
 6086SOL    HW218795   4.020   0.697   4.215
 6087SOL     OW18796   4.327   0.118   3.841
 6087SOL    HW118797   4.412   0.075   3.851
 6087SOL    HW218798   4.302   0.102   3.750
 6088SOL     OW18799   0.023   1.418   4.631
 6088SOL    HW118800   0.073   1.476   4.573
 6088SOL    HW218801   4.445   1.395   4.580
 6089SOL     OW18802   4.272   0.111   4.266
 6089SOL    HW118803   4.188   0.073   4.290
 6089SOL    HW218804   4.253   0.162   4.187
 6090SOL     OW18805   4.023   0.067   3.929
 6090SOL    HW118806   4.103   0.117   3.910
 6090SOL    HW218807   4.052   0.000   3.991
 6091SOL     OW18808   0.325   0.674   5.187
 6091SOL    HW118809   0.267   0.607   5.151
 6091SOL    HW218810   0.411   0.633   5.190
 6092SOL     OW18811   4.191   1.144   4.452
 6092SOL    HW118812   4.124   1.125   4.517
 6092SOL    HW218813   4.148   1.129   4.368
 6093SOL     OW18814   3.810   0.548   5.121
 6093SOL    HW118815   3.900   0.553   5.089
 6093SOL    HW218816   3.802   0.620   5.183
 6094SOL     OW18817   4.298   0.240   4.885
 6094SOL    HW118818   4.302   0.147   4.909
 6094SOL    HW218819   4.212   0.269   4.915
 6095SOL     OW18820   4.231   1.386   3.898
 6095SOL    HW118821   4.146   1.371   3.939
 6095SOL    HW218822   4.211   1.398   3.805
 6096SOL     OW18823   4.241   0.271   4.047
 6096SOL    HW118824   4.283   0.215   3.981
 6096SOL    HW218825   4.220   0.352   4.000
 6097SOL     OW18826   4.143   0.816   4.975
 6097SOL    HW118827   4.211   0.823   5.042
 6097SOL    HW218828   4.108   0.727   4.986
 6098SOL     OW18829   3.795   1.574   5.079
 6098SOL    HW118830   3.762   1.643   5.022
 6098SOL    HW218831   3.890   1.578   5.071
 6099SOL     OW18832   4.063   1.114   4.212
 6099SOL    HW118833   4.065   1.186   4.150
 6099SOL    HW218834   4.062   1.035   4.158
 6100SOL     OW18835   4.306   0.538   4.588
 6100SOL    HW118836   4.302   0.603   4.518
 6100SOL    HW218837   4.370   0.572   4.650
 6101SOL     OW18838   4.071   1.537   5.038
 6101SOL    HW118839   4.067   1.493   4.953
 6101SOL    HW218840   4.164   1.537   5.061
 6102SOL     OW18841   4.141   0.738   5.331
 6102SOL    HW118842   4.197   0.784   5.268
 6102SOL    HW218843   4.189   0.659   5.354
 6103SOL     OW18844   4.242   0.072   5.446
 6103SOL    HW118845   4.210   4.485   5.425
 6103SOL    HW218846   4.163   0.124   5.461
 6104SOL     OW18847   4.288   0.896   4.750
 6104SOL    HW118848   4.311   0.988   4.766
 6104SOL    HW218849   4.243   0.869   4.830
 6105SOL     OW18850   4.015   0.237   4.965
 6105SOL    HW118851   3.967   0.247   5.048
 6105SOL    HW218852   4.056   0.151   4.972
 6106SOL     OW18853   3.771   1.311   5.000
 6106SOL    HW118854   3.803   1.256   5.071
 6106SOL    HW218855   3.775   1.400   5.035
 6107SOL     OW18856   4.012   0.050   4.379
 6107SOL    HW118857   4.003   0.145   4.379
 6107SOL    HW218858   4.024   0.027   4.471
 6108SOL     OW18859   4.076   0.915   5.532
 6108SOL    HW118860   4.157   0.929   5.581
 6108SOL    HW218861   4.099   0.850   5.466
 6109SOL     OW18862   4.030   0.809   4.669
 6109SOL    HW118863   4.122   0.838   4.670
 6109SOL    HW218864   4.034   0.718   4.699
 6110SOL     OW18865   4.072   0.534   4.734
 6110SOL    HW118866   4.026   0.453   4.714
 6110SOL    HW218867   4.151   0.532   4.680
 6111SOL     OW18868   3.730   1.319   3.919
 6111SOL    HW118869   3.643   1.334   3.882
 6111SOL    HW218870   3.726   1.230   3.954
 6112SOL     OW18871   3.818   1.784   4.666
 6112SOL    HW118872   3.787   1.706   4.619
 6112SOL    HW218873   3.907   1.798   4.633
 6113SOL     OW18874   4.233   1.586   4.629
 6113SOL    HW118875   4.319   1.610   4.663
 6113SOL    HW218876   4.250   1.518   4.565
 6114SOL     OW18877   3.756   0.544   4.842
 6114SOL    HW118878   3.828   0.517   4.786
 6114SOL    HW218879   3.793   0.547   4.930
 6115SOL     OW18880   3.910   0.521   5.447
 6115SOL    HW118881   3.988   0.505   5.394
 6115SOL    HW218882   3.868   0.596   5.405
 6116SOL     OW18883   0.025   0.546   3.985
 6116SOL    HW118884   0.023   0.500   4.069
 6116SOL    HW218885   4.458   0.614   3.994
 6117SOL     OW18886   3.968   1.553   5.449
 6117SOL    HW118887   3.941   1.617   5.515
 6117SOL    HW218888   3.966   1.469   5.496
 6118SOL     OW18889   4.187   0.494   3.906
 6118SOL    HW118890   4.246   0.567   3.928
 6118SOL    HW218891   4.102   0.536   3.892
 6119SOL     OW18892   3.868   1.141   5.198
 6119SOL    HW118893   3.868   1.091   5.280
 6119SOL    HW218894   3.884   1.075   5.130
 6120SOL     OW18895   3.812   1.269   4.736
 6120SOL    HW118896   3.794   1.281   4.830
 6120SOL    HW218897   3.740   1.213   4.705
 6121SOL     OW18898   4.390   1.652   5.422
 6121SOL    HW118899   4.353   1.734   5.457
 6121SOL    HW218900   4.412   1.673   5.331
 6122SOL     OW18901   3.863   1.795   5.567
 6122SOL    HW118902   3.812   1.730   5.615
 6122SOL    HW218903   3.909   1.845   5.635
 6123SOL     OW18904   3.986   0.321   4.437
 6123SOL    HW118905   3.900   0.356   4.415
 6123SOL    HW218906   3.984   0.314   4.533
 6124SOL     OW18907   4.086   1.309   5.214
 6124SOL    HW118908   4.065   1.384   5.158
 6124SOL    HW218909   4.014   1.248   5.199
 6125SOL     OW18910   4.327   1.490   4.203
 6125SOL    HW118911   4.342   1.431   4.130
 6125SOL    HW218912   4.258   1.549   4.172
 6126SOL     OW18913   3.985   1.347   4.013
 6126SOL    HW118914   3.892   1.343   3.990
 6126SOL    HW218915   3.986   1.385   4.101
 6127SOL     OW18916   3.837   1.028   5.446
 6127SOL    HW118917   3.760   1.002   5.497
 6127SOL    HW218918   3.911   0.987   5.491
 6128SOL     OW18919   4.365   0.205   5.214
 6128SOL    HW118920   4.456   0.228   5.198
 6128SOL    HW218921   4.364   0.167   5.302
 6129SOL     OW18922   3.806   0.333   3.772
 6129SOL    HW118923   3.736   0.278   3.737
 6129SOL    HW218924   3.815   0.404   3.709
 6130SOL     OW18925   3.787   0.187   4.037
 6130SOL    HW118926   3.788   0.254   3.969
 6130SOL    HW218927   3.863   0.131   4.018
 6131SOL     OW18928   4.341   0.840   5.162
 6131SOL    HW118929   4.374   0.928   5.143
 6131SOL    HW218930   4.418   0.791   5.191
 6132SOL     OW18931   4.390   0.561   5.457
 6132SOL    HW118932   4.414   0.635   5.514
 6132SOL    HW218933   4.474   0.525   5.429
 6133SOL     OW18934   4.106   1.739   5.285
 6133SOL    HW118935   4.022   1.783   5.270
 6133SOL    HW218936   4.082   1.659   5.331
 6134SOL     OW18937   4.308   0.728   4.392
 6134SOL    HW118938   4.348   0.814   4.379
 6134SOL    HW218939   4.239   0.723   4.325
 6135SOL     OW18940   3.942   1.306   5.577
 6135SOL    HW118941   3.879   1.241   5.547
 6135SOL    HW218942   3.923   1.316   5.671
 6136SOL     OW18943   3.811   1.232   4.390
 6136SOL    HW118944   3.817   1.185   4.473
 6136SOL    HW218945   3.878   1.191   4.335
 6137SOL     OW18946   4.423   1.386   5.393
 6137SOL    HW118947   4.333   1.357   5.380
 6137SOL    HW218948   4.416   1.481   5.405
 6138SOL     OW18949   4.167   0.435   4.261
 6138SOL    HW118950   4.185   0.369   4.195
 6138SOL    HW218951   4.109   0.392   4.323
 6139SOL     OW18952   4.055   0.559   5.012
 6139SOL    HW118953   4.107   0.500   5.067
 6139SOL    HW218954   4.075   0.532   4.923
 6140SOL     OW18955   0.035   1.606   4.412
 6140SOL    HW118956   0.061   1.671   4.347
 6140SOL    HW218957   4.468   1.553   4.368
 6141SOL     OW18958   3.768   1.068   4.031
 6141SOL    HW118959   3.861   1.059   4.012
 6141SOL    HW218960   3.739   0.980   4.054
 6142SOL     OW18961   3.952   0.626   5.708
 6142SOL    HW118962   3.866   0.617   5.749
 6142SOL    HW218963   3.938   0.596   5.618
 6143SOL     OW18964   3.927   0.308   6.576
 6143SOL    HW118965   3.963   0.275   6.658
 6143SOL    HW218966   3.848   0.256   6.562
 6144SOL     OW18967   3.730   0.390   6.222
 6144SOL    HW118968   3.643   0.407   6.259
 6144SOL    HW218969   3.716   0.317   6.162
 6145SOL     OW18970   4.265   1.238   6.732
 6145SOL    HW118971   4.201   1.306   6.709
 6145SOL    HW218972   4.336   1.286   6.774
 6146SOL     OW18973   0.017   0.775   7.443
 6146SOL    HW118974   0.067   0.814   7.515
 6146SOL    HW218975   0.058   0.809   7.364
 6147SOL     OW18976   4.399   0.987   6.215
 6147SOL    HW118977   4.475   0.982   6.274
 6147SOL    HW218978   4.339   1.047   6.259
 6148SOL     OW18979   4.419   1.159   7.397
 6148SOL    HW118980   4.456   1.239   7.359
 6148SOL    HW218981   4.326   1.165   7.377
 6149SOL     OW18982   4.062   1.431   6.655
 6149SOL    HW118983   3.990   1.385   6.612
 6149SOL    HW218984   4.105   1.479   6.584
 6150SOL     OW18985   4.162   0.395   7.068
 6150SOL    HW118986   4.241   0.341   7.070
 6150SOL    HW218987   4.090   0.333   7.082
 6151SOL     OW18988   3.941   1.715   6.058
 6151SOL    HW118989   3.961   1.791   6.113
 6151SOL    HW218990   4.018   1.707   6.000
 6152SOL     OW18991   3.955   1.443   6.121
 6152SOL    HW118992   3.935   1.536   6.125
 6152SOL    HW218993   3.897   1.403   6.186
 6153SOL     OW18994   3.978   1.088   6.471
 6153SOL    HW118995   3.982   1.003   6.514
 6153SOL    HW218996   3.928   1.143   6.532
 6154SOL     OW18997   4.361   1.796   7.043
 6154SOL    HW118998   4.273   1.765   7.065
 6154SOL    HW218999   4.353   1.892   7.042
 6155SOL     OW19000   4.308   0.986   5.727
 6155SOL    HW119001   4.340   1.036   5.652
 6155SOL    HW219002   4.376   0.998   5.794
 6156SOL     OW19003   3.841   0.654   6.147
 6156SOL    HW119004   3.810   0.566   6.169
 6156SOL    HW219005   3.832   0.704   6.228
 6157SOL     OW19006   3.760   1.593   5.709
 6157SOL    HW119007   3.740   1.501   5.728
 6157SOL    HW219008   3.734   1.640   5.788
 6158SOL     OW19009   3.845   0.745   7.169
 6158SOL    HW119010   3.936   0.775   7.175
 6158SOL    HW219011   3.793   0.826   7.173
 6159SOL     OW19012   4.306   1.389   6.323
 6159SOL    HW119013   4.271   1.300   6.325
 6159SOL    HW219014   4.310   1.411   6.230
 6160SOL     OW19015   0.017   0.013   6.092
 6160SOL    HW119016   0.049   0.077   6.028
 6160SOL    HW219017   4.428   0.042   6.113
 6161SOL     OW19018   3.910   0.962   6.862
 6161SOL    HW119019   3.997   0.924   6.844
 6161SOL    HW219020   3.851   0.913   6.805
 6162SOL     OW19021   4.039   0.249   7.369
 6162SOL    HW119022   4.100   0.317   7.399
 6162SOL    HW219023   3.965   0.256   7.430
 6163SOL     OW19024   4.312   0.726   5.856
 6163SOL    HW119025   4.306   0.806   5.805
 6163SOL    HW219026   4.246   0.736   5.925
 6164SOL     OW19027   3.812   0.822   6.362
 6164SOL    HW119028   3.892   0.814   6.413
 6164SOL    HW219029   3.770   0.901   6.397
 6165SOL     OW19030   3.853   1.857   7.166
 6165SOL    HW119031   3.854   1.835   7.259
 6165SOL    HW219032   3.764   1.836   7.138
 6166SOL     OW19033   4.236   0.204   6.485
 6166SOL    HW119034   4.280   0.221   6.568
 6166SOL    HW219035   4.259   0.278   6.429
 6167SOL     OW19036   4.083   1.816   6.453
 6167SOL    HW119037   4.135   1.735   6.461
 6167SOL    HW219038   4.147   1.886   6.463
 6168SOL     OW19039   4.040   0.960   5.838
 6168SOL    HW119040   4.124   0.979   5.795
 6168SOL    HW219041   4.011   0.877   5.800
 6169SOL     OW19042   4.177   1.251   7.320
 6169SOL    HW119043   4.150   1.264   7.229
 6169SOL    HW219044   4.096   1.261   7.370
 6170SOL     OW19045   3.910   0.269   7.102
 6170SOL    HW119046   3.845   0.337   7.088
 6170SOL    HW219047   3.928   0.272   7.196
 6171SOL     OW19048   4.190   1.734   5.911
 6171SOL    HW119049   4.225   1.796   5.976
 6171SOL    HW219050   4.259   1.728   5.845
 6172SOL     OW19051   3.980   1.793   6.816
 6172SOL    HW119052   4.026   1.720   6.858
 6172SOL    HW219053   3.966   1.764   6.726
 6173SOL     OW19054   4.113   0.692   6.057
 6173SOL    HW119055   4.136   0.601   6.074
 6173SOL    HW219056   4.020   0.697   6.077
 6174SOL     OW19057   4.326   0.118   5.703
 6174SOL    HW119058   4.411   0.075   5.713
 6174SOL    HW219059   4.301   0.102   5.612
 6175SOL     OW19060   0.023   1.417   6.492
 6175SOL    HW119061   0.073   1.476   6.436
 6175SOL    HW219062   4.445   1.395   6.441
 6176SOL     OW19063   4.272   0.112   6.128
 6176SOL    HW119064   4.188   0.073   6.152
 6176SOL    HW219065   4.253   0.162   6.049
 6177SOL     OW19066   4.023   0.068   5.792
 6177SOL    HW119067   4.103   0.117   5.772
 6177SOL    HW219068   4.051   0.000   5.853
 6178SOL     OW19069   0.325   0.675   7.048
 6178SOL    HW119070   0.268   0.606   7.012
 6178SOL    HW219071   0.412   0.634   7.052
 6179SOL     OW19072   4.191   1.144   6.314
 6179SOL    HW119073   4.124   1.125   6.379
 6179SOL    HW219074   4.148   1.129   6.230
 6180SOL     OW19075   3.810   0.548   6.983
 6180SOL    HW119076   3.900   0.553   6.951
 6180SOL    HW219077   3.802   0.620   7.045
 6181SOL     OW19078   4.298   0.240   6.747
 6181SOL    HW119079   4.302   0.147   6.771
 6181SOL    HW219080   4.211   0.268   6.778
 6182SOL     OW19081   4.231   1.385   5.760
 6182SOL    HW119082   4.146   1.371   5.801
 6182SOL    HW219083   4.211   1.398   5.667
 6183SOL     OW19084   4.241   0.271   5.909
 6183SOL    HW119085   4.283   0.216   5.843
 6183SOL    HW219086   4.220   0.352   5.862
 6184SOL     OW19087   4.143   0.816   6.837
 6184SOL    HW119088   4.211   0.823   6.904
 6184SOL    HW219089   4.108   0.727   6.848
 6185SOL     OW19090   3.795   1.574   6.941
 6185SOL    HW119091   3.764   1.644   6.884
 6185SOL    HW219092   3.891   1.577   6.933
 6186SOL     OW19093   4.063   1.114   6.074
 6186SOL    HW119094   4.065   1.186   6.012
 6186SOL    HW219095   4.062   1.035   6.020
 6187SOL     OW19096   4.306   0.538   6.450
 6187SOL    HW119097   4.302   0.603   6.380
 6187SOL    HW219098   4.370   0.571   6.512
 6188SOL     OW19099   4.071   1.537   6.900
 6188SOL    HW119100   4.067   1.493   6.815
 6188SOL    HW219101   4.164   1.537   6.923
 6189SOL     OW19102   4.141   0.738   7.193
 6189SOL    HW119103   4.198   0.784   7.130
 6189SOL    HW219104   4.189   0.659   7.216
 6190SOL     OW19105   4.242   0.073   7.308
 6190SOL    HW119106   4.211   4.485   7.287
 6190SOL    HW219107   4.163   0.124   7.323
 6191SOL     OW19108   4.287   0.897   6.612
 6191SOL    HW119109   4.312   0.988   6.628
 6191SOL    HW219110   4.243   0.869   6.692
 6192SOL     OW19111   4.015   0.237   6.827
 6192SOL    HW119112   3.967   0.247   6.910
 6192SOL    HW219113   4.056   0.151   6.834
 6193SOL     OW19114   3.771   1.311   6.862
 6193SOL    HW119115   3.802   1.255   6.933
 6193SOL    HW219116   3.775   1.400   6.897
 6194SOL     OW19117   4.012   0.049   6.241
 6194SOL    HW119118   4.003   0.145   6.241
 6194SOL    HW219119   4.024   0.026   6.333
 6195SOL     OW19120   4.076   0.915   7.394
 6195SOL    HW119121   4.156   0.929   7.443
 6195SOL    HW219122   4.099   0.850   7.328
 6196SOL     OW19123   4.031   0.809   6.531
 6196SOL    HW119124   4.122   0.838   6.532
 6196SOL    HW219125   4.034   0.718   6.561
 6197SOL     OW19126   4.072   0.535   6.596
 6197SOL    HW119127   4.026   0.453   6.576
 6197SOL    HW219128   4.151   0.532   6.542
 6198SOL     OW19129   3.730   1.319   5.781
 6198SOL    HW119130   3.643   1.334   5.744
 6198SOL    HW219131   3.726   1.230   5.816
 6199SOL     OW19132   3.817   1.785   6.527
 6199SOL    HW119133   3.787   1.707   6.481
 6199SOL    HW219134   3.906   1.798   6.495
 6200SOL     OW19135   4.233   1.586   6.492
 6200SOL    HW119136   4.319   1.610   6.525
 6200SOL    HW219137   4.250   1.518   6.427
 6201SOL     OW19138   3.756   0.545   6.704
 6201SOL    HW119139   3.828   0.516   6.648
 6201SOL    HW219140   3.793   0.547   6.792
 6202SOL     OW19141   3.909   0.521   7.309
 6202SOL    HW119142   3.988   0.505   7.256
 6202SOL    HW219143   3.868   0.596   7.267
 6203SOL     OW19144   0.025   0.546   5.847
 6203SOL    HW119145   0.023   0.500   5.931
 6203SOL    HW219146   4.458   0.614   5.856
 6204SOL     OW19147   3.967   1.552   7.311
 6204SOL    HW119148   3.941   1.617   7.377
 6204SOL    HW219149   3.966   1.469   7.358
 6205SOL     OW19150   4.187   0.494   5.768
 6205SOL    HW119151   4.246   0.567   5.790
 6205SOL    HW219152   4.102   0.536   5.754
 6206SOL     OW19153   3.868   1.141   7.059
 6206SOL    HW119154   3.868   1.091   7.141
 6206SOL    HW219155   3.884   1.075   6.991
 6207SOL     OW19156   3.811   1.270   6.598
 6207SOL    HW119157   3.793   1.281   6.691
 6207SOL    HW219158   3.740   1.213   6.567
 6208SOL     OW19159   4.389   1.652   7.284
 6208SOL    HW119160   4.354   1.734   7.319
 6208SOL    HW219161   4.414   1.672   7.194
 6209SOL     OW19162   3.863   1.796   7.429
 6209SOL    HW119163   3.812   1.731   7.477
 6209SOL    HW219164   3.909   1.845   7.497
 6210SOL     OW19165   3.986   0.321   6.300
 6210SOL    HW119166   3.900   0.356   6.277
 6210SOL    HW219167   3.984   0.314   6.395
 6211SOL     OW19168   4.085   1.309   7.076
 6211SOL    HW119169   4.066   1.384   7.019
 6211SOL    HW219170   4.014   1.248   7.061
 6212SOL     OW19171   4.327   1.490   6.065
 6212SOL    HW119172   4.342   1.431   5.992
 6212SOL    HW219173   4.259   1.550   6.034
 6213SOL     OW19174   3.985   1.347   5.875
 6213SOL    HW119175   3.892   1.343   5.852
 6213SOL    HW219176   3.986   1.385   5.963
 6214SOL     OW19177   3.837   1.028   7.308
 6214SOL    HW119178   3.760   1.002   7.359
 6214SOL    HW219179   3.911   0.987   7.353
 6215SOL     OW19180   4.365   0.205   7.076
 6215SOL    HW119181   4.456   0.228   7.060
 6215SOL    HW219182   4.364   0.167   7.164
 6216SOL     OW19183   3.806   0.333   5.635
 6216SOL    HW119184   3.737   0.278   5.599
 6216SOL    HW219185   3.815   0.404   5.571
 6217SOL     OW19186   3.787   0.187   5.899
 6217SOL    HW119187   3.788   0.254   5.831
 6217SOL    HW219188   3.863   0.132   5.880
 6218SOL     OW19189   4.341   0.840   7.024
 6218SOL    HW119190   4.375   0.928   7.006
 6218SOL    HW219191   4.418   0.790   7.053
 6219SOL     OW19192   4.390   0.562   7.319
 6219SOL    HW119193   4.414   0.635   7.376
 6219SOL    HW219194   4.474   0.525   7.290
 6220SOL     OW19195   4.106   1.739   7.147
 6220SOL    HW119196   4.022   1.783   7.132
 6220SOL    HW219197   4.083   1.659   7.193
 6221SOL     OW19198   4.308   0.728   6.254
 6221SOL    HW119199   4.348   0.814   6.241
 6221SOL    HW219200   4.239   0.723   6.187
 6222SOL     OW19201   3.942   1.306   7.439
 6222SOL    HW119202   3.879   1.240   7.410
 6222SOL    HW219203   3.924   1.316   7.533
 6223SOL     OW19204   3.811   1.231   6.252
 6223SOL    HW119205   3.818   1.185   6.335
 6223SOL    HW219206   3.878   1.192   6.196
 6224SOL     OW19207   4.423   1.386   7.255
 6224SOL    HW119208   4.332   1.356   7.242
 6224SOL    HW219209   4.415   1.481   7.267
 6225SOL     OW19210   4.167   0.435   6.123
 6225SOL    HW119211   4.185   0.369   6.057
 6225SOL    HW219212   4.109   0.392   6.185
 6226SOL     OW19213   4.055   0.559   6.874
 6226SOL    HW119214   4.107   0.500   6.929
 6226SOL    HW219215   4.075   0.532   6.785
 6227SOL     OW19216   0.035   1.606   6.274
 6227SOL    HW119217   0.060   1.671   6.209
 6227SOL    HW219218   4.468   1.553   6.229
 6228SOL     OW19219   3.767   1.068   5.893
 6228SOL    HW119220   3.861   1.059   5.874
 6228SOL    HW219221   3.739   0.980   5.916
 6229SOL     OW19222   3.952   0.626   7.570
 6229SOL    HW119223   3.866   0.617   7.611
 6229SOL    HW219224   3.938   0.596   7.480
 6230SOL     OW19225   3.927   0.308   8.438
 6230SOL    HW119226   3.963   0.275   8.520
 6230SOL    HW219227   3.848   0.256   8.424
 6231SOL     OW19228   3.730   0.390   8.084
 6231SOL    HW119229   3.643   0.407   8.121
 6231SOL    HW219230   3.716   0.317   8.024
 6232SOL     OW19231   4.265   1.238   8.594
 6232SOL    HW119232   4.201   1.306   8.571
 6232SOL    HW219233   4.336   1.286   8.636
 6233SOL     OW19234   0.017   0.775   9.305
 6233SOL    HW119235   0.067   0.814   9.377
 6233SOL    HW219236   0.058   0.809   9.226
 6234SOL     OW19237   4.399   0.987   8.078
 6234SOL    HW119238   4.475   0.983   8.136
 6234SOL    HW219239   4.339   1.047   8.121
 6235SOL     OW19240   4.419   1.159   9.259
 6235SOL    HW119241   4.456   1.239   9.221
 6235SOL    HW219242   4.326   1.165   9.239
 6236SOL     OW19243   4.062   1.431   8.517
 6236SOL    HW119244   3.990   1.385   8.474
 6236SOL    HW219245   4.105   1.479   8.446
 6237SOL     OW19246   4.162   0.395   8.930
 6237SOL    HW119247   4.241   0.341   8.932
 6237SOL    HW219248   4.090   0.333   8.944
 6238SOL     OW19249   3.941   1.715   7.920
 6238SOL    HW119250   3.961   1.791   7.975
 6238SOL    HW219251   4.018   1.706   7.863
 6239SOL     OW19252   3.955   1.443   7.983
 6239SOL    HW119253   3.935   1.536   7.988
 6239SOL    HW219254   3.897   1.402   8.048
 6240SOL     OW19255   3.978   1.088   8.333
 6240SOL    HW119256   3.983   1.003   8.376
 6240SOL    HW219257   3.928   1.143   8.394
 6241SOL     OW19258   4.361   1.797   8.905
 6241SOL    HW119259   4.273   1.765   8.927
 6241SOL    HW219260   4.353   1.892   8.904
 6242SOL     OW19261   4.308   0.986   7.589
 6242SOL    HW119262   4.340   1.036   7.514
 6242SOL    HW219263   4.376   0.998   7.656
 6243SOL     OW19264   3.841   0.654   8.009
 6243SOL    HW119265   3.810   0.566   8.031
 6243SOL    HW219266   3.832   0.704   8.090
 6244SOL     OW19267   3.760   1.593   7.571
 6244SOL    HW119268   3.740   1.501   7.590
 6244SOL    HW219269   3.734   1.640   7.650
 6245SOL     OW19270   3.845   0.745   9.031
 6245SOL    HW119271   3.936   0.775   9.037
 6245SOL    HW219272   3.793   0.826   9.035
 6246SOL     OW19273   4.306   1.389   8.185
 6246SOL    HW119274   4.271   1.300   8.187
 6246SOL    HW219275   4.310   1.411   8.092
 6247SOL     OW19276   0.017   0.013   7.954
 6247SOL    HW119277   0.048   0.077   7.890
 6247SOL    HW219278   4.428   0.042   7.975
 6248SOL     OW19279   3.910   0.962   8.724
 6248SOL    HW119280   3.997   0.924   8.706
 6248SOL    HW219281   3.851   0.913   8.667
 6249SOL     OW19282   4.039   0.249   9.231
 6249SOL    HW119283   4.100   0.317   9.261
 6249SOL    HW219284   3.965   0.256   9.292
 6250SOL     OW19285   4.312   0.726   7.718
 6250SOL    HW119286   4.306   0.806   7.667
 6250SOL    HW219287   4.246   0.736   7.787
 6251SOL     OW19288   3.812   0.822   8.224
 6251SOL    HW119289   3.892   0.814   8.275
 6251SOL    HW219290   3.770   0.901   8.259
 6252SOL     OW19291   3.853   1.857   9.028
 6252SOL    HW119292   3.854   1.835   9.121
 6252SOL    HW219293   3.763   1.836   9.000
 6253SOL     OW19294   4.236   0.204   8.346
 6253SOL    HW119295   4.280   0.221   8.430
 6253SOL    HW219296   4.259   0.278   8.291
 6254SOL     OW19297   4.083   1.815   8.315
 6254SOL    HW119298   4.135   1.735   8.322
 6254SOL    HW219299   4.147   1.886   8.325
 6255SOL     OW19300   4.040   0.960   7.700
 6255SOL    HW119301   4.124   0.979   7.657
 6255SOL    HW219302   4.012   0.877   7.662
 6256SOL     OW19303   4.177   1.251   9.182
 6256SOL    HW119304   4.150   1.264   9.091
 6256SOL    HW219305   4.096   1.261   9.232
 6257SOL     OW19306   3.910   0.269   8.964
 6257SOL    HW119307   3.845   0.337   8.950
 6257SOL    HW219308   3.928   0.272   9.058
 6258SOL     OW19309   4.190   1.734   7.773
 6258SOL    HW119310   4.225   1.795   7.838
 6258SOL    HW219311   4.259   1.727   7.707
 6259SOL     OW19312   3.980   1.793   8.678
 6259SOL    HW119313   4.026   1.720   8.721
 6259SOL    HW219314   3.967   1.763   8.588
 6260SOL     OW19315   4.113   0.692   7.919
 6260SOL    HW119316   4.136   0.601   7.936
 6260SOL    HW219317   4.020   0.698   7.939
 6261SOL     OW19318   4.326   0.118   7.565
 6261SOL    HW119319   4.411   0.075   7.575
 6261SOL    HW219320   4.302   0.102   7.474
 6262SOL     OW19321   0.023   1.417   8.355
 6262SOL    HW119322   0.073   1.476   8.298
 6262SOL    HW219323   4.445   1.395   8.303
 6263SOL     OW19324   4.272   0.112   7.990
 6263SOL    HW119325   4.188   0.073   8.014
 6263SOL    HW219326   4.253   0.162   7.911
 6264SOL     OW19327   4.023   0.068   7.653
 6264SOL    HW119328   4.103   0.117   7.634
 6264SOL    HW219329   4.051   0.000   7.715
 6265SOL     OW19330   0.325   0.675   8.909
 6265SOL    HW119331   0.269   0.606   8.874
 6265SOL    HW219332   0.412   0.635   8.914
 6266SOL     OW19333   4.191   1.144   8.176
 6266SOL    HW119334   4.124   1.125   8.241
 6266SOL    HW219335   4.148   1.129   8.092
 6267SOL     OW19336   3.810   0.548   8.845
 6267SOL    HW119337   3.900   0.553   8.813
 6267SOL    HW219338   3.802   0.620   8.907
 6268SOL     OW19339   4.298   0.240   8.609
 6268SOL    HW119340   4.302   0.147   8.633
 6268SOL    HW219341   4.211   0.268   8.640
 6269SOL     OW19342   4.231   1.386   7.622
 6269SOL    HW119343   4.146   1.371   7.662
 6269SOL    HW219344   4.211   1.398   7.529
 6270SOL     OW19345   4.241   0.271   7.771
 6270SOL    HW119346   4.283   0.215   7.705
 6270SOL    HW219347   4.220   0.352   7.724
 6271SOL     OW19348   4.143   0.816   8.699
 6271SOL    HW119349   4.211   0.824   8.766
 6271SOL    HW219350   4.108   0.727   8.710
 6272SOL     OW19351   3.795   1.574   8.803
 6272SOL    HW119352   3.764   1.644   8.746
 6272SOL    HW219353   3.891   1.577   8.795
 6273SOL     OW19354   4.063   1.114   7.936
 6273SOL    HW119355   4.066   1.186   7.874
 6273SOL    HW219356   4.062   1.035   7.882
 6274SOL     OW19357   4.306   0.537   8.312
 6274SOL    HW119358   4.302   0.603   8.242
 6274SOL    HW219359   4.370   0.571   8.374
 6275SOL     OW19360   4.071   1.537   8.762
 6275SOL    HW119361   4.067   1.493   8.677
 6275SOL    HW219362   4.164   1.537   8.785
 6276SOL     OW19363   4.141   0.738   9.055
 6276SOL    HW119364   4.198   0.784   8.992
 6276SOL    HW219365   4.189   0.659   9.078
 6277SOL     OW19366   4.242   0.073   9.170
 6277SOL    HW119367   4.211   4.485   9.149
 6277SOL    HW219368   4.163   0.124   9.185
 6278SOL     OW19369   4.287   0.897   8.474
 6278SOL    HW119370   4.312   0.988   8.490
 6278SOL    HW219371   4.243   0.870   8.554
 6279SOL     OW19372   4.014   0.237   8.689
 6279SOL    HW119373   3.967   0.247   8.772
 6279SOL    HW219374   4.056   0.151   8.696
 6280SOL     OW19375   3.771   1.311   8.724
 6280SOL    HW119376   3.802   1.255   8.795
 6280SOL    HW219377   3.775   1.400   8.759
 6281SOL     OW19378   4.012   0.049   8.103
 6281SOL    HW119379   4.003   0.145   8.103
 6281SOL    HW219380   4.024   0.026   8.195
 6282SOL     OW19381   4.076   0.915   9.256
 6282SOL    HW119382   4.156   0.929   9.305
 6282SOL    HW219383   4.099   0.850   9.190
 6283SOL     OW19384   4.031   0.809   8.393
 6283SOL    HW119385   4.122   0.838   8.394
 6283SOL    HW219386   4.034   0.718   8.423
 6284SOL     OW19387   4.072   0.535   8.458
 6284SOL    HW119388   4.026   0.453   8.438
 6284SOL    HW219389   4.151   0.532   8.405
 6285SOL     OW19390   3.730   1.319   7.644
 6285SOL    HW119391   3.643   1.334   7.606
 6285SOL    HW219392   3.726   1.230   7.678
 6286SOL     OW19393   3.817   1.785   8.389
 6286SOL    HW119394   3.787   1.707   8.343
 6286SOL    HW219395   3.906   1.798   8.357
 6287SOL     OW19396   4.233   1.586   8.354
 6287SOL    HW119397   4.319   1.610   8.387
 6287SOL    HW219398   4.250   1.518   8.289
 6288SOL     OW19399   3.756   0.545   8.566
 6288SOL    HW119400   3.828   0.517   8.510
 6288SOL    HW219401   3.793   0.547   8.654
 6289SOL     OW19402   3.909   0.521   9.171
 6289SOL    HW119403   3.988   0.505   9.118
 6289SOL    HW219404   3.868   0.596   9.129
 6290SOL     OW19405   0.025   0.546   7.709
 6290SOL    HW119406   0.023   0.500   7.793
 6290SOL    HW219407   4.458   0.614   7.717
 6291SOL     OW19408   3.967   1.552   9.173
 6291SOL    HW119409   3.941   1.617   9.239
 6291SOL    HW219410   3.966   1.469   9.220
 6292SOL     OW19411   4.187   0.494   7.630
 6292SOL    HW119412   4.246   0.566   7.652
 6292SOL    HW219413   4.102   0.536   7.616
 6293SOL     OW19414   3.868   1.141   8.921
 6293SOL    HW119415   3.868   1.091   9.003
 6293SOL    HW219416   3.884   1.075   8.853
 6294SOL     OW19417   3.811   1.270   8.459
 6294SOL    HW119418   3.793   1.281   8.553
 6294SOL    HW219419   3.741   1.213   8.429
 6295SOL     OW19420   4.389   1.652   9.146
 6295SOL    HW119421   4.354   1.734   9.181
 6295SOL    HW219422   4.414   1.672   9.056
 6296SOL     OW19423   3.863   1.796   9.291
 6296SOL    HW119424   3.812   1.731   9.339
 6296SOL    HW219425   3.909   1.845   9.359
 6297SOL     OW19426   3.986   0.321   8.161
 6297SOL    HW119427   3.900   0.356   8.139
 6297SOL    HW219428   3.984   0.314   8.257
 6298SOL     OW19429   4.085   1.309   8.938
 6298SOL    HW119430   4.066   1.384   8.881
 6298SOL    HW219431   4.014   1.248   8.923
 6299SOL     OW19432   4.327   1.490   7.927
 6299SOL    HW119433   4.343   1.431   7.854
 6299SOL    HW219434   4.259   1.550   7.895
 6300SOL     OW19435   3.984   1.347   7.736
 6300SOL    HW119436   3.892   1.343   7.713
 6300SOL    HW219437   3.986   1.385   7.824
 6301SOL     OW19438   3.837   1.028   9.170
 6301SOL    HW119439   3.760   1.002   9.221
 6301SOL    HW219440   3.911   0.987   9.215
 6302SOL     OW19441   4.365   0.205   8.938
 6302SOL    HW119442   4.456   0.228   8.922
 6302SOL    HW219443   4.364   0.168   9.026
 6303SOL     OW19444   3.806   0.333   7.497
 6303SOL    HW119445   3.737   0.278   7.461
 6303SOL    HW219446   3.815   0.404   7.433
 6304SOL     OW19447   3.787   0.187   7.761
 6304SOL    HW119448   3.788   0.254   7.693
 6304SOL    HW219449   3.863   0.132   7.742
 6305SOL     OW19450   4.341   0.840   8.886
 6305SOL    HW119451   4.375   0.928   8.868
 6305SOL    HW219452   4.418   0.790   8.915
 6306SOL     OW19453   4.390   0.562   9.181
 6306SOL    HW119454   4.414   0.635   9.238
 6306SOL    HW219455   4.474   0.525   9.152
 6307SOL     OW19456   4.105   1.740   9.009
 6307SOL    HW119457   4.021   1.783   8.994
 6307SOL    HW219458   4.083   1.659   9.055
 6308SOL     OW19459   4.307   0.728   8.116
 6308SOL    HW119460   4.348   0.814   8.103
 6308SOL    HW219461   4.239   0.723   8.049
 6309SOL     OW19462   3.942   1.306   9.301
 6309SOL    HW119463   3.879   1.240   9.272
 6309SOL    HW219464   3.924   1.316   9.395
 6310SOL     OW19465   3.811   1.232   8.114
 6310SOL    HW119466   3.818   1.185   8.197
 6310SOL    HW219467   3.878   1.191   8.059
 6311SOL     OW19468   4.422   1.386   9.117
 6311SOL    HW119469   4.332   1.356   9.104
 6311SOL    HW219470   4.415   1.481   9.129
 6312SOL     OW19471   4.167   0.436   7.985
 6312SOL    HW119472   4.185   0.369   7.919
 6312SOL    HW219473   4.109   0.392   8.047
 6313SOL     OW19474   4.055   0.559   8.736
 6313SOL    HW119475   4.107   0.500   8.791
 6313SOL    HW219476   4.075   0.532   8.647
 6314SOL     OW19477   0.035   1.606   8.136
 6314SOL    HW119478   0.061   1.672   8.071
 6314SOL    HW219479   4.468   1.553   8.091
 6315SOL     OW19480   3.768   1.068   7.755
 6315SOL    HW119481   3.861   1.059   7.736
 6315SOL    HW219482   3.739   0.980   7.778
 6316SOL     OW19483   3.952   0.626   9.432
 6316SOL    HW119484   3.866   0.618   9.473
 6316SOL    HW219485   3.938   0.596   9.342
 6317SOL     OW19486   3.927   0.308  10.300
 6317SOL    HW119487   3.963   0.275  10.382
 6317SOL    HW219488   3.847   0.257  10.286
 6318SOL     OW19489   3.730   0.390   9.946
 6318SOL    HW119490   3.643   0.407   9.983
 6318SOL    HW219491   3.716   0.317   9.886
 6319SOL     OW19492   4.265   1.238  10.458
 6319SOL    HW119493   4.201   1.306  10.433
 6319SOL    HW219494   4.337   1.287  10.498
 6320SOL     OW19495   0.023   0.812   0.082
 6320SOL    HW119496   0.107   0.841   0.118
 6320SOL    HW219497   0.043   0.790  11.091
 6321SOL     OW19498   4.399   0.987   9.939
 6321SOL    HW119499   4.475   0.981   9.998
 6321SOL    HW219500   4.339   1.047   9.983
 6322SOL     OW19501   4.064   1.430  10.378
 6322SOL    HW119502   3.990   1.386  10.336
 6322SOL    HW219503   4.105   1.479  10.308
 6323SOL     OW19504   4.176   0.397  10.789
 6323SOL    HW119505   4.246   0.332  10.796
 6323SOL    HW219506   4.097   0.351  10.815
 6324SOL     OW19507   3.941   1.715   9.782
 6324SOL    HW119508   3.961   1.791   9.837
 6324SOL    HW219509   4.018   1.706   9.725
 6325SOL     OW19510   3.955   1.442   9.845
 6325SOL    HW119511   3.935   1.536   9.850
 6325SOL    HW219512   3.897   1.402   9.910
 6326SOL     OW19513   3.978   1.088  10.196
 6326SOL    HW119514   3.982   1.003  10.239
 6326SOL    HW219515   3.928   1.143  10.255
 6327SOL     OW19516   4.353   1.805  10.749
 6327SOL    HW119517   4.267   1.775  10.779
 6327SOL    HW219518   4.353   1.899  10.767
 6328SOL     OW19519   4.308   0.986   9.451
 6328SOL    HW119520   4.340   1.036   9.376
 6328SOL    HW219521   4.376   0.998   9.518
 6329SOL     OW19522   3.841   0.654   9.871
 6329SOL    HW119523   3.810   0.566   9.893
 6329SOL    HW219524   3.832   0.704   9.952
 6330SOL     OW19525   3.760   1.593   9.433
 6330SOL    HW119526   3.740   1.501   9.452
 6330SOL    HW219527   3.734   1.640   9.512
 6331SOL     OW19528   3.850   0.726  10.919
 6331SOL    HW119529   3.942   0.749  10.904
 6331SOL    HW219530   3.803   0.809  10.910
 6332SOL     OW19531   4.306   1.389  10.047
 6332SOL    HW119532   4.271   1.300  10.049
 6332SOL    HW219533   4.310   1.411   9.954
 6333SOL     OW19534   0.016   0.012   9.815
 6333SOL    HW119535   0.048   0.076   9.751
 6333SOL    HW219536   4.428   0.042   9.836
 6334SOL     OW19537   3.910   0.960  10.581
 6334SOL    HW119538   3.996   0.922  10.563
 6334SOL    HW219539   3.850   0.910  10.526
 6335SOL     OW19540   4.058   0.280  11.086
 6335SOL    HW119541   4.115   0.340   0.035
 6335SOL    HW219542   3.973   0.286   0.031
 6336SOL     OW19543   4.312   0.726   9.580
 6336SOL    HW119544   4.306   0.806   9.529
 6336SOL    HW219545   4.247   0.736   9.649
 6337SOL     OW19546   3.812   0.822  10.086
 6337SOL    HW119547   3.892   0.814  10.137
 6337SOL    HW219548   3.769   0.901  10.121
 6338SOL     OW19549   3.855   1.852  10.899
 6338SOL    HW119550   3.841   1.810  10.984
 6338SOL    HW219551   3.774   1.837  10.851
 6339SOL     OW19552   4.236   0.205  10.214
 6339SOL    HW119553   4.286   0.225  10.293
 6339SOL    HW219554   4.258   0.276  10.154
 6340SOL     OW19555   4.083   1.816  10.177
 6340SOL    HW119556   4.135   1.735  10.184
 6340SOL    HW219557   4.147   1.886  10.187
 6341SOL     OW19558   4.040   0.960   9.562
 6341SOL    HW119559   4.124   0.979   9.519
 6341SOL    HW219560   4.012   0.877   9.524
 6342SOL     OW19561   4.175   1.263  11.057
 6342SOL    HW119562   4.149   1.280  10.966
 6342SOL    HW219563   4.107   1.204  11.090
 6343SOL     OW19564   3.924   0.271  10.820
 6343SOL    HW119565   3.850   0.332  10.815
 6343SOL    HW219566   3.945   0.266  10.913
 6344SOL     OW19567   4.190   1.734   9.635
 6344SOL    HW119568   4.225   1.795   9.700
 6344SOL    HW219569   4.259   1.727   9.569
 6345SOL     OW19570   3.981   1.793  10.542
 6345SOL    HW119571   4.026   1.720  10.584
 6345SOL    HW219572   3.968   1.763  10.452
 6346SOL     OW19573   4.113   0.692   9.781
 6346SOL    HW119574   4.136   0.601   9.798
 6346SOL    HW219575   4.020   0.698   9.801
 6347SOL     OW19576   4.326   0.118   9.427
 6347SOL    HW119577   4.411   0.075   9.437
 6347SOL    HW219578   4.302   0.102   9.336
 6348SOL     OW19579   0.023   1.417  10.217
 6348SOL    HW119580   0.073   1.476  10.160
 6348SOL    HW219581   4.445   1.395  10.165
 6349SOL     OW19582   4.272   0.112   9.852
 6349SOL    HW119583   4.188   0.073   9.876
 6349SOL    HW219584   4.254   0.163   9.773
 6350SOL     OW19585   4.023   0.068   9.515
 6350SOL    HW119586   4.103   0.117   9.496
 6350SOL    HW219587   4.052   0.000   9.577
 6351SOL     OW19588   0.309   0.679  10.777
 6351SOL    HW119589   0.263   0.597  10.760
 6351SOL    HW219590   0.401   0.653  10.782
 6352SOL     OW19591   4.191   1.144  10.038
 6352SOL    HW119592   4.124   1.125  10.103
 6352SOL    HW219593   4.148   1.129   9.954
 6353SOL     OW19594   3.809   0.546  10.711
 6353SOL    HW119595   3.899   0.553  10.679
 6353SOL    HW219596   3.803   0.610  10.782
 6354SOL     OW19597   4.300   0.236  10.482
 6354SOL    HW119598   4.294   0.141  10.487
 6354SOL    HW219599   4.212   0.267  10.502
 6355SOL     OW19600   4.231   1.386   9.484
 6355SOL    HW119601   4.146   1.371   9.525
 6355SOL    HW219602   4.211   1.398   9.391
 6356SOL     OW19603   4.241   0.271   9.633
 6356SOL    HW119604   4.283   0.215   9.567
 6356SOL    HW219605   4.220   0.352   9.586
 6357SOL     OW19606   4.143   0.815  10.559
 6357SOL    HW119607   4.210   0.823  10.626
 6357SOL    HW219608   4.108   0.726  10.571
 6358SOL     OW19609   3.796   1.577  10.666
 6358SOL    HW119610   3.765   1.645  10.605
 6358SOL    HW219611   3.891   1.577  10.656
 6359SOL     OW19612   4.063   1.114   9.798
 6359SOL    HW119613   4.065   1.186   9.736
 6359SOL    HW219614   4.062   1.035   9.744
 6360SOL     OW19615   4.305   0.537  10.175
 6360SOL    HW119616   4.303   0.604  10.106
 6360SOL    HW219617   4.372   0.568  10.237
 6361SOL     OW19618   4.071   1.536  10.624
 6361SOL    HW119619   4.068   1.491  10.540
 6361SOL    HW219620   4.164   1.537  10.647
 6362SOL     OW19621   4.135   0.733  10.901
 6362SOL    HW119622   4.201   0.776  10.846
 6362SOL    HW219623   4.159   0.640  10.898
 6363SOL     OW19624   4.288   0.897  10.336
 6363SOL    HW119625   4.311   0.989  10.352
 6363SOL    HW219626   4.242   0.870  10.415
 6364SOL     OW19627   4.016   0.236  10.550
 6364SOL    HW119628   3.975   0.250  10.635
 6364SOL    HW219629   4.054   0.149  10.555
 6365SOL     OW19630   3.776   1.314  10.584
 6365SOL    HW119631   3.802   1.256  10.655
 6365SOL    HW219632   3.774   1.401  10.623
 6366SOL     OW19633   4.012   0.049   9.964
 6366SOL    HW119634   4.003   0.144   9.965
 6366SOL    HW219635   4.023   0.026  10.057
 6367SOL     OW19636   4.081   0.914  11.094
 6367SOL    HW119637   4.164   0.933   0.037
 6367SOL    HW219638   4.103   0.848  11.028
 6368SOL     OW19639   4.031   0.809  10.255
 6368SOL    HW119640   4.122   0.838  10.255
 6368SOL    HW219641   4.034   0.718  10.285
 6369SOL     OW19642   4.071   0.535  10.322
 6369SOL    HW119643   4.026   0.453  10.301
 6369SOL    HW219644   4.151   0.533  10.268
 6370SOL     OW19645   3.730   1.319   9.505
 6370SOL    HW119646   3.643   1.334   9.468
 6370SOL    HW219647   3.726   1.230   9.540
 6371SOL     OW19648   3.817   1.785  10.250
 6371SOL    HW119649   3.787   1.707  10.205
 6371SOL    HW219650   3.906   1.798  10.219
 6372SOL     OW19651   4.233   1.586  10.215
 6372SOL    HW119652   4.319   1.610  10.249
 6372SOL    HW219653   4.251   1.518  10.151
 6373SOL     OW19654   3.756   0.545  10.430
 6373SOL    HW119655   3.829   0.517  10.374
 6373SOL    HW219656   3.792   0.547  10.518
 6374SOL     OW19657   0.025   0.546   9.571
 6374SOL    HW119658   0.024   0.500   9.655
 6374SOL    HW219659   4.458   0.614   9.579
 6375SOL     OW19660   3.977   1.567  11.047
 6375SOL    HW119661   3.917   1.592   0.017
 6375SOL    HW219662   3.993   1.473  11.062
 6376SOL     OW19663   4.187   0.494   9.492
 6376SOL    HW119664   4.246   0.566   9.514
 6376SOL    HW219665   4.102   0.536   9.478
 6377SOL     OW19666   3.875   1.138  10.779
 6377SOL    HW119667   3.867   1.085  10.858
 6377SOL    HW219668   3.887   1.074  10.709
 6378SOL     OW19669   3.811   1.271  10.320
 6378SOL    HW119670   3.796   1.283  10.414
 6378SOL    HW219671   3.740   1.213  10.292
 6379SOL     OW19672   4.384   1.666  10.999
 6379SOL    HW119673   4.299   1.705  10.979
 6379SOL    HW219674   4.424   1.650  10.913
 6380SOL     OW19675   3.986   0.321  10.024
 6380SOL    HW119676   3.900   0.356  10.000
 6380SOL    HW219677   3.984   0.314  10.119
 6381SOL     OW19678   4.078   1.315  10.814
 6381SOL    HW119679   4.068   1.384  10.749
 6381SOL    HW219680   4.012   1.250  10.791
 6382SOL     OW19681   4.327   1.490   9.789
 6382SOL    HW119682   4.342   1.431   9.716
 6382SOL    HW219683   4.259   1.550   9.758
 6383SOL     OW19684   3.984   1.347   9.598
 6383SOL    HW119685   3.892   1.343   9.575
 6383SOL    HW219686   3.986   1.385   9.686
 6384SOL     OW19687   3.841   1.015  11.018
 6384SOL    HW119688   3.773   1.004  11.084
 6384SOL    HW219689   3.921   0.981  11.060
 6385SOL     OW19690   4.368   0.190  10.819
 6385SOL    HW119691   4.431   0.208  10.749
 6385SOL    HW219692   4.416   0.213  10.900
 6386SOL     OW19693   3.806   0.333   9.359
 6386SOL    HW119694   3.736   0.278   9.323
 6386SOL    HW219695   3.815   0.404   9.295
 6387SOL     OW19696   3.787   0.187   9.623
 6387SOL    HW119697   3.788   0.254   9.555
 6387SOL    HW219698   3.863   0.132   9.604
 6388SOL     OW19699   4.341   0.839  10.747
 6388SOL    HW119700   4.372   0.928  10.729
 6388SOL    HW219701   4.420   0.790  10.766
 6389SOL     OW19702   4.117   1.735  10.879
 6389SOL    HW119703   4.042   1.793  10.865
 6389SOL    HW219704   4.083   1.663  10.931
 6390SOL     OW19705   4.308   0.728   9.979
 6390SOL    HW119706   4.348   0.814   9.965
 6390SOL    HW219707   4.239   0.723   9.912
 6391SOL     OW19708   3.811   1.231   9.976
 6391SOL    HW119709   3.818   1.185  10.059
 6391SOL    HW219710   3.878   1.191   9.921
 6392SOL     OW19711   4.411   1.389  10.952
 6392SOL    HW119712   4.332   1.343  10.980
 6392SOL    HW219713   4.403   1.476  10.991
 6393SOL     OW19714   4.167   0.435   9.846
 6393SOL    HW119715   4.185   0.369   9.780
 6393SOL    HW219716   4.109   0.392   9.909
 6394SOL     OW19717   4.055   0.558  10.599
 6394SOL    HW119718   4.109   0.498  10.651
 6394SOL    HW219719   4.072   0.533  10.508
 6395SOL     OW19720   0.035   1.606   9.998
 6395SOL    HW119721   0.061   1.672   9.933
 6395SOL    HW219722   4.468   1.553   9.953
 6396SOL     OW19723   3.767   1.068   9.617
 6396SOL    HW119724   3.861   1.059   9.598
 6396SOL    HW219725   3.739   0.980   9.640
 6397SOL     OW19726   3.939   2.473   0.108
 6397SOL    HW119727   3.858   2.479   0.159
 6397SOL    HW219728   3.919   2.517   0.026
 6398SOL     OW19729   3.947   2.150   0.992
 6398SOL    HW119730   3.979   2.113   1.074
 6398SOL    HW219731   3.858   2.116   0.982
 6399SOL     OW19732   3.725   2.246   0.637
 6399SOL    HW119733   3.643   2.271   0.679
 6399SOL    HW219734   3.704   2.167   0.589
 6400SOL     OW19735   4.264   3.100   1.147
 6400SOL    HW119736   4.201   3.168   1.123
 6400SOL    HW219737   4.336   3.148   1.188
 6401SOL     OW19738   0.015   2.639   1.857
 6401SOL    HW119739   0.068   2.674   1.928
 6401SOL    HW219740   0.060   2.668   1.777
 6402SOL     OW19741   4.398   2.848   0.629
 6402SOL    HW119742   4.476   2.847   0.684
 6402SOL    HW219743   4.338   2.908   0.673
 6403SOL     OW19744   4.419   3.021   1.811
 6403SOL    HW119745   4.456   3.101   1.773
 6403SOL    HW219746   4.326   3.027   1.791
 6404SOL     OW19747   4.063   3.293   1.069
 6404SOL    HW119748   3.990   3.248   1.025
 6404SOL    HW219749   4.106   3.342   0.998
 6405SOL     OW19750   4.172   2.261   1.479
 6405SOL    HW119751   4.247   2.201   1.486
 6405SOL    HW219752   4.096   2.205   1.497
 6406SOL     OW19753   3.941   3.576   0.473
 6406SOL    HW119754   3.960   3.653   0.527
 6406SOL    HW219755   4.014   3.570   0.412
 6407SOL     OW19756   3.950   3.304   0.532
 6407SOL    HW119757   3.934   3.398   0.535
 6407SOL    HW219758   3.893   3.268   0.599
 6408SOL     OW19759   3.977   2.950   0.886
 6408SOL    HW119760   3.981   2.865   0.929
 6408SOL    HW219761   3.927   3.005   0.946
 6409SOL     OW19762   4.362   3.658   1.458
 6409SOL    HW119763   4.274   3.628   1.478
 6409SOL    HW219764   4.356   3.754   1.457
 6410SOL     OW19765   4.295   2.872   0.140
 6410SOL    HW119766   4.307   2.943   0.077
 6410SOL    HW219767   4.377   2.869   0.188
 6411SOL     OW19768   3.838   2.514   0.561
 6411SOL    HW119769   3.807   2.427   0.583
 6411SOL    HW219770   3.830   2.564   0.642
 6412SOL     OW19771   3.774   3.461   0.118
 6412SOL    HW119772   3.746   3.373   0.144
 6412SOL    HW219773   3.747   3.518   0.190
 6413SOL     OW19774   3.846   2.605   1.585
 6413SOL    HW119775   3.938   2.633   1.590
 6413SOL    HW219776   3.796   2.686   1.590
 6414SOL     OW19777   4.306   3.251   0.738
 6414SOL    HW119778   4.272   3.161   0.740
 6414SOL    HW219779   4.310   3.273   0.645
 6415SOL     OW19780   0.020   1.873   0.532
 6415SOL    HW119781   0.051   1.927   0.459
 6415SOL    HW219782   4.426   1.885   0.533
 6416SOL     OW19783   3.911   2.824   1.275
 6416SOL    HW119784   3.997   2.786   1.258
 6416SOL    HW219785   3.851   2.774   1.220
 6417SOL     OW19786   4.062   2.111   1.817
 6417SOL    HW119787   4.103   2.196   1.835
 6417SOL    HW219788   3.971   2.122   1.845
 6418SOL     OW19789   4.308   2.575   0.268
 6418SOL    HW119790   4.331   2.655   0.221
 6418SOL    HW219791   4.248   2.604   0.337
 6419SOL     OW19792   3.811   2.685   0.775
 6419SOL    HW119793   3.892   2.676   0.826
 6419SOL    HW219794   3.769   2.763   0.810
 6420SOL     OW19795   3.852   3.721   1.580
 6420SOL    HW119796   3.855   3.698   1.673
 6420SOL    HW219797   3.764   3.697   1.552
 6421SOL     OW19798   4.247   2.050   0.881
 6421SOL    HW119799   4.268   2.057   0.974
 6421SOL    HW219800   4.257   2.139   0.847
 6422SOL     OW19801   4.083   3.677   0.867
 6422SOL    HW119802   4.134   3.597   0.874
 6422SOL    HW219803   4.147   3.748   0.877
 6423SOL     OW19804   4.039   2.825   0.277
 6423SOL    HW119805   4.120   2.847   0.230
 6423SOL    HW219806   4.015   2.739   0.243
 6424SOL     OW19807   4.177   3.113   1.734
 6424SOL    HW119808   4.150   3.126   1.643
 6424SOL    HW219809   4.096   3.123   1.784
 6425SOL     OW19810   3.925   2.140   1.503
 6425SOL    HW119811   3.844   2.191   1.501
 6425SOL    HW219812   3.904   2.063   1.556
 6426SOL     OW19813   4.191   3.591   0.329
 6426SOL    HW119814   4.225   3.656   0.391
 6426SOL    HW219815   4.262   3.580   0.265
 6427SOL     OW19816   3.980   3.655   1.230
 6427SOL    HW119817   4.026   3.582   1.272
 6427SOL    HW219818   3.967   3.626   1.140
 6428SOL     OW19819   4.109   2.555   0.474
 6428SOL    HW119820   4.134   2.464   0.489
 6428SOL    HW219821   4.016   2.558   0.497
 6429SOL     OW19822   4.352   1.992   0.111
 6429SOL    HW119823   4.437   1.951   0.129
 6429SOL    HW219824   4.321   1.946   0.033
 6430SOL     OW19825   0.023   3.279   0.906
 6430SOL    HW119826   0.072   3.339   0.850
 6430SOL    HW219827   4.445   3.256   0.856
 6431SOL     OW19828   4.258   1.928   0.498
 6431SOL    HW119829   4.178   1.931   0.550
 6431SOL    HW219830   4.254   2.006   0.443
 6432SOL     OW19831   4.007   1.911   0.202
 6432SOL    HW119832   4.049   1.966   0.135
 6432SOL    HW219833   4.074   1.848   0.226
 6433SOL     OW19834   0.328   2.532   1.451
 6433SOL    HW119835   0.269   2.461   1.424
 6433SOL    HW219836   0.412   2.488   1.467
 6434SOL     OW19837   4.193   3.005   0.732
 6434SOL    HW119838   4.126   2.986   0.797
 6434SOL    HW219839   4.149   2.995   0.648
 6435SOL     OW19840   3.805   2.416   1.392
 6435SOL    HW119841   3.897   2.415   1.365
 6435SOL    HW219842   3.800   2.485   1.458
 6436SOL     OW19843   4.281   2.071   1.149
 6436SOL    HW119844   4.328   2.011   1.208
 6436SOL    HW219845   4.194   2.080   1.188
 6437SOL     OW19846   4.239   3.258   0.192
 6437SOL    HW119847   4.154   3.247   0.234
 6437SOL    HW219848   4.223   3.235   0.100
 6438SOL     OW19849   4.247   2.133   0.322
 6438SOL    HW119850   4.287   2.078   0.254
 6438SOL    HW219851   4.222   2.213   0.276
 6439SOL     OW19852   4.141   2.676   1.250
 6439SOL    HW119853   4.209   2.685   1.318
 6439SOL    HW219854   4.107   2.588   1.263
 6440SOL     OW19855   3.796   3.436   1.356
 6440SOL    HW119856   3.764   3.506   1.298
 6440SOL    HW219857   3.891   3.439   1.347
 6441SOL     OW19858   4.059   2.987   0.497
 6441SOL    HW119859   4.062   3.060   0.435
 6441SOL    HW219860   4.058   2.908   0.442
 6442SOL     OW19861   4.302   2.398   0.866
 6442SOL    HW119862   4.302   2.465   0.797
 6442SOL    HW219863   4.370   2.428   0.927
 6443SOL     OW19864   4.071   3.399   1.314
 6443SOL    HW119865   4.067   3.355   1.229
 6443SOL    HW219866   4.164   3.399   1.337
 6444SOL     OW19867   4.138   2.604   1.606
 6444SOL    HW119868   4.199   2.646   1.544
 6444SOL    HW219869   4.180   2.520   1.626
 6445SOL     OW19870   4.233   1.913   1.733
 6445SOL    HW119871   4.186   1.854   1.675
 6445SOL    HW219872   4.170   1.982   1.755
 6446SOL     OW19873   4.287   2.758   1.027
 6446SOL    HW119874   4.311   2.850   1.042
 6446SOL    HW219875   4.242   2.731   1.107
 6447SOL     OW19876   4.023   2.061   1.247
 6447SOL    HW119877   3.985   2.093   1.329
 6447SOL    HW219878   4.004   1.967   1.247
 6448SOL     OW19879   3.770   3.173   1.276
 6448SOL    HW119880   3.802   3.117   1.347
 6448SOL    HW219881   3.775   3.262   1.312
 6449SOL     OW19882   4.020   1.927   0.627
 6449SOL    HW119883   4.002   2.018   0.650
 6449SOL    HW219884   4.034   1.883   0.711
 6450SOL     OW19885   4.075   2.776   1.809
 6450SOL    HW119886   4.156   2.791   1.857
 6450SOL    HW219887   4.098   2.712   1.742
 6451SOL     OW19888   4.030   2.670   0.944
 6451SOL    HW119889   4.121   2.699   0.946
 6451SOL    HW219890   4.033   2.579   0.974
 6452SOL     OW19891   4.065   2.392   1.008
 6452SOL    HW119892   4.028   2.305   0.994
 6452SOL    HW219893   4.146   2.393   0.957
 6453SOL     OW19894   3.733   3.189   0.193
 6453SOL    HW119895   3.646   3.201   0.155
 6453SOL    HW219896   3.733   3.099   0.226
 6454SOL     OW19897   3.818   3.647   0.941
 6454SOL    HW119898   3.787   3.569   0.895
 6454SOL    HW219899   3.907   3.660   0.909
 6455SOL     OW19900   4.233   3.448   0.906
 6455SOL    HW119901   4.319   3.473   0.939
 6455SOL    HW219902   4.250   3.380   0.841
 6456SOL     OW19903   3.759   2.408   1.116
 6456SOL    HW119904   3.838   2.394   1.064
 6456SOL    HW219905   3.790   2.410   1.207
 6457SOL     OW19906   3.915   2.383   1.730
 6457SOL    HW119907   3.971   2.342   1.663
 6457SOL    HW219908   3.875   2.457   1.685
 6458SOL     OW19909   0.024   2.400   0.263
 6458SOL    HW119910   0.025   2.363   0.351
 6458SOL    HW219911   4.458   2.469   0.266
 6459SOL     OW19912   3.967   3.414   1.725
 6459SOL    HW119913   3.941   3.479   1.790
 6459SOL    HW219914   3.966   3.331   1.771
 6460SOL     OW19915   4.181   2.350   0.172
 6460SOL    HW119916   4.238   2.421   0.203
 6460SOL    HW219917   4.096   2.392   0.158
 6461SOL     OW19918   3.868   3.003   1.473
 6461SOL    HW119919   3.869   2.953   1.555
 6461SOL    HW219920   3.884   2.937   1.405
 6462SOL     OW19921   3.810   3.132   1.012
 6462SOL    HW119922   3.793   3.143   1.105
 6462SOL    HW219923   3.740   3.075   0.982
 6463SOL     OW19924   4.389   3.514   1.699
 6463SOL    HW119925   4.354   3.596   1.733
 6463SOL    HW219926   4.414   3.534   1.609
 6464SOL     OW19927   3.864   3.657   1.843
 6464SOL    HW119928   3.812   3.592   1.891
 6464SOL    HW219929   3.909   3.707   1.911
 6465SOL     OW19930   3.983   2.182   0.715
 6465SOL    HW119931   3.896   2.214   0.694
 6465SOL    HW219932   3.983   2.172   0.810
 6466SOL     OW19933   4.085   3.171   1.490
 6466SOL    HW119934   4.066   3.246   1.433
 6466SOL    HW219935   4.014   3.110   1.475
 6467SOL     OW19936   4.325   3.353   0.481
 6467SOL    HW119937   4.341   3.297   0.404
 6467SOL    HW219938   4.256   3.414   0.452
 6468SOL     OW19939   3.992   3.202   0.290
 6468SOL    HW119940   3.906   3.202   0.249
 6468SOL    HW219941   3.979   3.242   0.375
 6469SOL     OW19942   3.837   2.890   1.722
 6469SOL    HW119943   3.760   2.864   1.773
 6469SOL    HW219944   3.911   2.849   1.767
 6470SOL     OW19945   4.388   2.068   1.494
 6470SOL    HW119946   4.477   2.072   1.461
 6470SOL    HW219947   4.397   2.055   1.588
 6471SOL     OW19948   3.808   2.199   0.046
 6471SOL    HW119949   3.734   2.173  11.091
 6471SOL    HW219950   3.823   2.291   0.025
 6472SOL     OW19951   3.786   2.020   0.312
 6472SOL    HW119952   3.776   2.099   0.258
 6472SOL    HW219953   3.869   1.982   0.283
 6473SOL     OW19954   4.340   2.701   1.437
 6473SOL    HW119955   4.377   2.787   1.421
 6473SOL    HW219956   4.414   2.647   1.462
 6474SOL     OW19957   4.392   2.419   1.739
 6474SOL    HW119958   4.414   2.495   1.793
 6474SOL    HW219959   4.477   2.389   1.706
 6475SOL     OW19960   4.106   3.602   1.561
 6475SOL    HW119961   4.021   3.645   1.546
 6475SOL    HW219962   4.083   3.521   1.607
 6476SOL     OW19963   4.307   2.589   0.669
 6476SOL    HW119964   4.347   2.675   0.657
 6476SOL    HW219965   4.238   2.585   0.603
 6477SOL     OW19966   3.942   3.168   1.853
 6477SOL    HW119967   3.879   3.102   1.824
 6477SOL    HW219968   3.924   3.178   1.947
 6478SOL     OW19969   3.811   3.092   0.667
 6478SOL    HW119970   3.820   3.045   0.750
 6478SOL    HW219971   3.881   3.057   0.611
 6479SOL     OW19972   4.423   3.248   1.668
 6479SOL    HW119973   4.333   3.218   1.656
 6479SOL    HW219974   4.415   3.343   1.681
 6480SOL     OW19975   4.162   2.296   0.535
 6480SOL    HW119976   4.182   2.228   0.470
 6480SOL    HW219977   4.104   2.253   0.597
 6481SOL     OW19978   4.054   2.418   1.288
 6481SOL    HW119979   4.108   2.362   1.345
 6481SOL    HW219980   4.076   2.390   1.199
 6482SOL     OW19981   0.034   3.467   0.688
 6482SOL    HW119982   0.064   3.531   0.624
 6482SOL    HW219983   4.467   3.417   0.642
 6483SOL     OW19984   3.765   2.931   0.301
 6483SOL    HW119985   3.861   2.926   0.298
 6483SOL    HW219986   3.738   2.842   0.326
 6484SOL     OW19987   3.952   2.486   1.987
 6484SOL    HW119988   3.863   2.483   2.023
 6484SOL    HW219989   3.942   2.461   1.895
 6485SOL     OW19990   3.947   2.150   2.854
 6485SOL    HW119991   3.979   2.113   2.936
 6485SOL    HW219992   3.858   2.116   2.844
 6486SOL     OW19993   3.725   2.246   2.500
 6486SOL    HW119994   3.643   2.272   2.542
 6486SOL    HW219995   3.702   2.166   2.451
 6487SOL     OW19996   4.265   3.100   3.007
 6487SOL    HW119997   4.201   3.168   2.985
 6487SOL    HW219998   4.336   3.148   3.050
 6488SOL     OW19999   0.015   2.638   3.719
 6488SOL    HW120000   0.068   2.674   3.790
 6488SOL    HW220001   0.060   2.668   3.639
 6489SOL     OW20002   4.400   2.849   2.491
 6489SOL    HW120003   4.474   2.842   2.550
 6489SOL    HW220004   4.340   2.909   2.535
 6490SOL     OW20005   4.419   3.021   3.672
 6490SOL    HW120006   4.456   3.101   3.635
 6490SOL    HW220007   4.326   3.027   3.653
 6491SOL     OW20008   4.062   3.293   2.931
 6491SOL    HW120009   3.990   3.248   2.888
 6491SOL    HW220010   4.105   3.341   2.860
 6492SOL     OW20011   4.172   2.261   3.340
 6492SOL    HW120012   4.247   2.201   3.348
 6492SOL    HW220013   4.096   2.206   3.359
 6493SOL     OW20014   3.941   3.577   2.334
 6493SOL    HW120015   3.961   3.653   2.389
 6493SOL    HW220016   4.018   3.568   2.277
 6494SOL     OW20017   3.955   3.305   2.397
 6494SOL    HW120018   3.935   3.398   2.401
 6494SOL    HW220019   3.897   3.265   2.462
 6495SOL     OW20020   3.978   2.950   2.747
 6495SOL    HW120021   3.982   2.865   2.790
 6495SOL    HW220022   3.928   3.005   2.808
 6496SOL     OW20023   4.363   3.658   3.320
 6496SOL    HW120024   4.274   3.628   3.340
 6496SOL    HW220025   4.356   3.753   3.319
 6497SOL     OW20026   4.308   2.849   2.004
 6497SOL    HW120027   4.340   2.897   1.928
 6497SOL    HW220028   4.376   2.861   2.070
 6498SOL     OW20029   3.841   2.515   2.423
 6498SOL    HW120030   3.808   2.427   2.444
 6498SOL    HW220031   3.832   2.564   2.504
 6499SOL     OW20032   3.759   3.455   1.985
 6499SOL    HW120033   3.740   3.363   2.005
 6499SOL    HW220034   3.734   3.503   2.064
 6500SOL     OW20035   3.846   2.605   3.447
 6500SOL    HW120036   3.938   2.633   3.452
 6500SOL    HW220037   3.796   2.686   3.452
 6501SOL     OW20038   4.306   3.251   2.599
 6501SOL    HW120039   4.271   3.162   2.601
 6501SOL    HW220040   4.310   3.273   2.506
 6502SOL     OW20041   0.022   1.871   2.387
 6502SOL    HW120042   0.051   1.930   2.318
 6502SOL    HW220043   4.427   1.884   2.391
 6503SOL     OW20044   3.911   2.824   3.137
 6503SOL    HW120045   3.997   2.786   3.120
 6503SOL    HW220046   3.851   2.774   3.082
 6504SOL     OW20047   4.062   2.111   3.679
 6504SOL    HW120048   4.103   2.196   3.696
 6504SOL    HW220049   3.971   2.122   3.707
 6505SOL     OW20050   4.311   2.588   2.132
 6505SOL    HW120051   4.306   2.668   2.080
 6505SOL    HW220052   4.245   2.600   2.201
 6506SOL     OW20053   3.811   2.684   2.638
 6506SOL    HW120054   3.892   2.676   2.688
 6506SOL    HW220055   3.769   2.763   2.672
 6507SOL     OW20056   3.852   3.720   3.442
 6507SOL    HW120057   3.855   3.697   3.535
 6507SOL    HW220058   3.764   3.697   3.414
 6508SOL     OW20059   4.247   2.049   2.743
 6508SOL    HW120060   4.268   2.057   2.836
 6508SOL    HW220061   4.257   2.138   2.709
 6509SOL     OW20062   4.083   3.677   2.729
 6509SOL    HW120063   4.135   3.597   2.737
 6509SOL    HW220064   4.146   3.748   2.739
 6510SOL     OW20065   4.041   2.823   2.114
 6510SOL    HW120066   4.124   2.841   2.071
 6510SOL    HW220067   4.012   2.740   2.076
 6511SOL     OW20068   4.177   3.113   3.596
 6511SOL    HW120069   4.150   3.126   3.505
 6511SOL    HW220070   4.096   3.123   3.646
 6512SOL     OW20071   3.925   2.140   3.366
 6512SOL    HW120072   3.844   2.190   3.362
 6512SOL    HW220073   3.904   2.063   3.417
 6513SOL     OW20074   4.191   3.597   2.188
 6513SOL    HW120075   4.226   3.657   2.253
 6513SOL    HW220076   4.259   3.592   2.120
 6514SOL     OW20077   3.980   3.655   3.093
 6514SOL    HW120078   4.026   3.582   3.134
 6514SOL    HW220079   3.967   3.626   3.002
 6515SOL     OW20080   4.113   2.553   2.334
 6515SOL    HW120081   4.136   2.462   2.350
 6515SOL    HW220082   4.020   2.558   2.354
 6516SOL     OW20083   4.340   1.968   1.981
 6516SOL    HW120084   4.435   1.955   1.980
 6516SOL    HW220085   4.312   1.946   1.892
 6517SOL     OW20086   0.023   3.280   2.769
 6517SOL    HW120087   0.073   3.338   2.712
 6517SOL    HW220088   4.445   3.257   2.717
 6518SOL     OW20089   4.259   1.928   2.362
 6518SOL    HW120090   4.180   1.932   2.415
 6518SOL    HW220091   4.254   2.006   2.306
 6519SOL     OW20092   4.017   1.911   2.047
 6519SOL    HW120093   4.078   1.973   2.008
 6519SOL    HW220094   4.073   1.847   2.092
 6520SOL     OW20095   0.328   2.532   3.313
 6520SOL    HW120096   0.269   2.462   3.286
 6520SOL    HW220097   0.412   2.488   3.329
 6521SOL     OW20098   4.191   3.006   2.590
 6521SOL    HW120099   4.124   2.987   2.655
 6521SOL    HW220100   4.148   2.991   2.506
 6522SOL     OW20101   3.805   2.415   3.254
 6522SOL    HW120102   3.897   2.415   3.227
 6522SOL    HW220103   3.800   2.485   3.320
 6523SOL     OW20104   4.281   2.071   3.011
 6523SOL    HW120105   4.328   2.011   3.070
 6523SOL    HW220106   4.194   2.080   3.050
 6524SOL     OW20107   4.231   3.248   2.036
 6524SOL    HW120108   4.146   3.233   2.076
 6524SOL    HW220109   4.211   3.260   1.943
 6525SOL     OW20110   4.243   2.128   2.182
 6525SOL    HW120111   4.285   2.073   2.116
 6525SOL    HW220112   4.222   2.210   2.136
 6526SOL     OW20113   4.141   2.676   3.112
 6526SOL    HW120114   4.209   2.685   3.180
 6526SOL    HW220115   4.107   2.588   3.125
 6527SOL     OW20116   3.796   3.436   3.218
 6527SOL    HW120117   3.764   3.506   3.160
 6527SOL    HW220118   3.891   3.439   3.209
 6528SOL     OW20119   4.063   2.976   2.351
 6528SOL    HW120120   4.066   3.048   2.288
 6528SOL    HW220121   4.062   2.897   2.296
 6529SOL     OW20122   4.302   2.399   2.728
 6529SOL    HW120123   4.301   2.465   2.659
 6529SOL    HW220124   4.370   2.428   2.789
 6530SOL     OW20125   4.071   3.399   3.176
 6530SOL    HW120126   4.067   3.355   3.091
 6530SOL    HW220127   4.164   3.399   3.199
 6531SOL     OW20128   4.138   2.604   3.468
 6531SOL    HW120129   4.199   2.646   3.406
 6531SOL    HW220130   4.180   2.520   3.488
 6532SOL     OW20131   4.233   1.913   3.595
 6532SOL    HW120132   4.186   1.854   3.537
 6532SOL    HW220133   4.170   1.982   3.617
 6533SOL     OW20134   4.287   2.758   2.889
 6533SOL    HW120135   4.311   2.850   2.904
 6533SOL    HW220136   4.242   2.731   2.969
 6534SOL     OW20137   4.023   2.061   3.109
 6534SOL    HW120138   3.985   2.093   3.191
 6534SOL    HW220139   4.004   1.967   3.109
 6535SOL     OW20140   3.770   3.173   3.138
 6535SOL    HW120141   3.802   3.117   3.209
 6535SOL    HW220142   3.775   3.262   3.173
 6536SOL     OW20143   4.019   1.927   2.489
 6536SOL    HW120144   4.002   2.018   2.511
 6536SOL    HW220145   4.033   1.883   2.573
 6537SOL     OW20146   4.075   2.776   3.671
 6537SOL    HW120147   4.156   2.791   3.719
 6537SOL    HW220148   4.098   2.712   3.604
 6538SOL     OW20149   4.030   2.670   2.807
 6538SOL    HW120150   4.122   2.699   2.808
 6538SOL    HW220151   4.033   2.579   2.836
 6539SOL     OW20152   4.065   2.392   2.871
 6539SOL    HW120153   4.028   2.305   2.855
 6539SOL    HW220154   4.146   2.393   2.819
 6540SOL     OW20155   3.730   3.181   2.058
 6540SOL    HW120156   3.643   3.196   2.020
 6540SOL    HW220157   3.726   3.092   2.092
 6541SOL     OW20158   3.817   3.647   2.803
 6541SOL    HW120159   3.787   3.568   2.757
 6541SOL    HW220160   3.906   3.660   2.771
 6542SOL     OW20161   4.233   3.448   2.768
 6542SOL    HW120162   4.319   3.472   2.802
 6542SOL    HW220163   4.250   3.380   2.703
 6543SOL     OW20164   3.759   2.408   2.978
 6543SOL    HW120165   3.838   2.394   2.926
 6543SOL    HW220166   3.790   2.410   3.069
 6544SOL     OW20167   3.915   2.383   3.592
 6544SOL    HW120168   3.970   2.342   3.525
 6544SOL    HW220169   3.875   2.457   3.547
 6545SOL     OW20170   0.028   2.413   2.123
 6545SOL    HW120171   0.023   2.362   2.203
 6545SOL    HW220172   4.459   2.480   2.133
 6546SOL     OW20173   3.967   3.414   3.587
 6546SOL    HW120174   3.941   3.479   3.652
 6546SOL    HW220175   3.966   3.331   3.634
 6547SOL     OW20176   4.186   2.354   2.048
 6547SOL    HW120177   4.246   2.426   2.068
 6547SOL    HW220178   4.102   2.397   2.033
 6548SOL     OW20179   3.868   3.003   3.335
 6548SOL    HW120180   3.869   2.953   3.417
 6548SOL    HW220181   3.884   2.937   3.267
 6549SOL     OW20182   3.811   3.132   2.874
 6549SOL    HW120183   3.793   3.143   2.967
 6549SOL    HW220184   3.740   3.074   2.843
 6550SOL     OW20185   4.389   3.514   3.561
 6550SOL    HW120186   4.354   3.596   3.595
 6550SOL    HW220187   4.414   3.535   3.471
 6551SOL     OW20188   3.864   3.657   3.705
 6551SOL    HW120189   3.812   3.592   3.753
 6551SOL    HW220190   3.909   3.707   3.773
 6552SOL     OW20191   3.983   2.181   2.576
 6552SOL    HW120192   3.895   2.214   2.555
 6552SOL    HW220193   3.983   2.172   2.672
 6553SOL     OW20194   4.086   3.171   3.352
 6553SOL    HW120195   4.065   3.246   3.296
 6553SOL    HW220196   4.014   3.110   3.337
 6554SOL     OW20197   4.327   3.352   2.341
 6554SOL    HW120198   4.342   3.293   2.268
 6554SOL    HW220199   4.259   3.412   2.309
 6555SOL     OW20200   3.985   3.209   2.150
 6555SOL    HW120201   3.892   3.205   2.127
 6555SOL    HW220202   3.986   3.247   2.238
 6556SOL     OW20203   3.837   2.890   3.584
 6556SOL    HW120204   3.760   2.864   3.635
 6556SOL    HW220205   3.911   2.849   3.629
 6557SOL     OW20206   4.388   2.068   3.356
 6557SOL    HW120207   4.477   2.071   3.323
 6557SOL    HW220208   4.397   2.055   3.450
 6558SOL     OW20209   3.804   2.192   1.896
 6558SOL    HW120210   3.716   2.174   1.862
 6558SOL    HW220211   3.834   2.268   1.845
 6559SOL     OW20212   3.790   2.017   2.168
 6559SOL    HW120213   3.776   2.097   2.117
 6559SOL    HW220214   3.875   1.985   2.139
 6560SOL     OW20215   4.340   2.701   3.299
 6560SOL    HW120216   4.378   2.787   3.283
 6560SOL    HW220217   4.414   2.646   3.324
 6561SOL     OW20218   4.392   2.419   3.602
 6561SOL    HW120219   4.414   2.495   3.656
 6561SOL    HW220220   4.477   2.389   3.568
 6562SOL     OW20221   4.106   3.602   3.423
 6562SOL    HW120222   4.022   3.645   3.408
 6562SOL    HW220223   4.083   3.521   3.469
 6563SOL     OW20224   4.307   2.590   2.532
 6563SOL    HW120225   4.348   2.675   2.518
 6563SOL    HW220226   4.239   2.585   2.464
 6564SOL     OW20227   3.942   3.168   3.715
 6564SOL    HW120228   3.879   3.102   3.686
 6564SOL    HW220229   3.924   3.178   3.809
 6565SOL     OW20230   3.811   3.093   2.528
 6565SOL    HW120231   3.818   3.047   2.611
 6565SOL    HW220232   3.878   3.054   2.472
 6566SOL     OW20233   4.423   3.248   3.530
 6566SOL    HW120234   4.333   3.218   3.518
 6566SOL    HW220235   4.415   3.343   3.543
 6567SOL     OW20236   4.166   2.294   2.398
 6567SOL    HW120237   4.181   2.228   2.330
 6567SOL    HW220238   4.106   2.253   2.459
 6568SOL     OW20239   4.054   2.418   3.150
 6568SOL    HW120240   4.108   2.362   3.206
 6568SOL    HW220241   4.076   2.390   3.061
 6569SOL     OW20242   0.035   3.468   2.550
 6569SOL    HW120243   0.060   3.534   2.485
 6569SOL    HW220244   4.468   3.415   2.505
 6570SOL     OW20245   3.767   2.930   2.169
 6570SOL    HW120246   3.861   2.921   2.151
 6570SOL    HW220247   3.739   2.842   2.191
 6571SOL     OW20248   3.952   2.486   3.849
 6571SOL    HW120249   3.863   2.483   3.885
 6571SOL    HW220250   3.942   2.461   3.757
 6572SOL     OW20251   3.948   2.150   4.716
 6572SOL    HW120252   3.979   2.113   4.799
 6572SOL    HW220253   3.859   2.116   4.706
 6573SOL     OW20254   3.725   2.246   4.362
 6573SOL    HW120255   3.643   2.272   4.404
 6573SOL    HW220256   3.702   2.166   4.313
 6574SOL     OW20257   4.266   3.101   4.868
 6574SOL    HW120258   4.201   3.167   4.846
 6574SOL    HW220259   4.336   3.149   4.912
 6575SOL     OW20260   0.016   2.638   5.581
 6575SOL    HW120261   0.066   2.675   5.653
 6575SOL    HW220262   0.060   2.670   5.502
 6576SOL     OW20263   4.400   2.849   4.353
 6576SOL    HW120264   4.474   2.841   4.413
 6576SOL    HW220265   4.340   2.909   4.397
 6577SOL     OW20266   4.419   3.021   5.534
 6577SOL    HW120267   4.456   3.101   5.497
 6577SOL    HW220268   4.326   3.026   5.515
 6578SOL     OW20269   4.062   3.292   4.793
 6578SOL    HW120270   3.990   3.247   4.750
 6578SOL    HW220271   4.105   3.341   4.722
 6579SOL     OW20272   4.172   2.260   5.202
 6579SOL    HW120273   4.246   2.200   5.210
 6579SOL    HW220274   4.096   2.206   5.220
 6580SOL     OW20275   3.941   3.577   4.196
 6580SOL    HW120276   3.961   3.653   4.251
 6580SOL    HW220277   4.018   3.568   4.139
 6581SOL     OW20278   3.955   3.304   4.259
 6581SOL    HW120279   3.935   3.398   4.263
 6581SOL    HW220280   3.897   3.264   4.324
 6582SOL     OW20281   3.979   2.950   4.610
 6582SOL    HW120282   3.982   2.865   4.653
 6582SOL    HW220283   3.927   3.005   4.669
 6583SOL     OW20284   4.362   3.658   5.182
 6583SOL    HW120285   4.274   3.628   5.202
 6583SOL    HW220286   4.356   3.753   5.181
 6584SOL     OW20287   4.308   2.849   3.866
 6584SOL    HW120288   4.340   2.897   3.790
 6584SOL    HW220289   4.376   2.861   3.932
 6585SOL     OW20290   3.841   2.515   4.285
 6585SOL    HW120291   3.808   2.427   4.306
 6585SOL    HW220292   3.832   2.564   4.366
 6586SOL     OW20293   3.759   3.455   3.847
 6586SOL    HW120294   3.740   3.363   3.867
 6586SOL    HW220295   3.734   3.503   3.926
 6587SOL     OW20296   3.845   2.605   5.310
 6587SOL    HW120297   3.936   2.634   5.315
 6587SOL    HW220298   3.794   2.685   5.313
 6588SOL     OW20299   4.306   3.251   4.461
 6588SOL    HW120300   4.271   3.162   4.464
 6588SOL    HW220301   4.310   3.273   4.368
 6589SOL     OW20302   0.022   1.871   4.249
 6589SOL    HW120303   0.052   1.930   4.179
 6589SOL    HW220304   4.428   1.885   4.253
 6590SOL     OW20305   3.911   2.825   4.999
 6590SOL    HW120306   3.996   2.786   4.981
 6590SOL    HW220307   3.850   2.774   4.945
 6591SOL     OW20308   4.062   2.111   5.542
 6591SOL    HW120309   4.102   2.196   5.558
 6591SOL    HW220310   3.971   2.122   5.568
 6592SOL     OW20311   4.311   2.588   3.995
 6592SOL    HW120312   4.306   2.668   3.942
 6592SOL    HW220313   4.245   2.599   4.063
 6593SOL     OW20314   3.811   2.685   4.499
 6593SOL    HW120315   3.892   2.676   4.550
 6593SOL    HW220316   3.769   2.763   4.534
 6594SOL     OW20317   3.852   3.721   5.304
 6594SOL    HW120318   3.855   3.698   5.397
 6594SOL    HW220319   3.765   3.696   5.275
 6595SOL     OW20320   4.248   2.049   4.605
 6595SOL    HW120321   4.268   2.057   4.698
 6595SOL    HW220322   4.257   2.138   4.571
 6596SOL     OW20323   4.083   3.677   4.591
 6596SOL    HW120324   4.134   3.597   4.599
 6596SOL    HW220325   4.146   3.748   4.601
 6597SOL     OW20326   4.041   2.823   3.976
 6597SOL    HW120327   4.124   2.841   3.933
 6597SOL    HW220328   4.012   2.740   3.938
 6598SOL     OW20329   4.177   3.113   5.458
 6598SOL    HW120330   4.150   3.126   5.367
 6598SOL    HW220331   4.096   3.122   5.508
 6599SOL     OW20332   3.925   2.142   5.228
 6599SOL    HW120333   3.843   2.191   5.222
 6599SOL    HW220334   3.903   2.064   5.279
 6600SOL     OW20335   4.191   3.597   4.050
 6600SOL    HW120336   4.226   3.657   4.115
 6600SOL    HW220337   4.259   3.593   3.982
 6601SOL     OW20338   3.980   3.655   4.954
 6601SOL    HW120339   4.026   3.582   4.996
 6601SOL    HW220340   3.966   3.626   4.864
 6602SOL     OW20341   4.113   2.553   4.196
 6602SOL    HW120342   4.136   2.462   4.212
 6602SOL    HW220343   4.020   2.558   4.216
 6603SOL     OW20344   4.340   1.968   3.843
 6603SOL    HW120345   4.435   1.954   3.841
 6603SOL    HW220346   4.311   1.946   3.754
 6604SOL     OW20347   0.023   3.280   4.630
 6604SOL    HW120348   0.073   3.338   4.573
 6604SOL    HW220349   4.445   3.257   4.580
 6605SOL     OW20350   4.259   1.928   4.224
 6605SOL    HW120351   4.180   1.931   4.277
 6605SOL    HW220352   4.254   2.006   4.168
 6606SOL     OW20353   4.017   1.911   3.909
 6606SOL    HW120354   4.078   1.973   3.870
 6606SOL    HW220355   4.073   1.847   3.954
 6607SOL     OW20356   0.331   2.530   5.177
 6607SOL    HW120357   0.264   2.466   5.152
 6607SOL    HW220358   0.411   2.479   5.188
 6608SOL     OW20359   4.191   3.006   4.452
 6608SOL    HW120360   4.124   2.987   4.517
 6608SOL    HW220361   4.148   2.991   4.368
 6609SOL     OW20362   3.806   2.416   5.116
 6609SOL    HW120363   3.897   2.416   5.088
 6609SOL    HW220364   3.800   2.485   5.181
 6610SOL     OW20365   4.282   2.071   4.873
 6610SOL    HW120366   4.327   2.010   4.932
 6610SOL    HW220367   4.195   2.081   4.911
 6611SOL     OW20368   4.231   3.247   3.898
 6611SOL    HW120369   4.146   3.233   3.939
 6611SOL    HW220370   4.211   3.260   3.805
 6612SOL     OW20371   4.243   2.128   4.044
 6612SOL    HW120372   4.285   2.073   3.978
 6612SOL    HW220373   4.222   2.210   3.998
 6613SOL     OW20374   4.142   2.676   4.974
 6613SOL    HW120375   4.209   2.685   5.042
 6613SOL    HW220376   4.107   2.588   4.986
 6614SOL     OW20377   3.795   3.436   5.080
 6614SOL    HW120378   3.763   3.506   5.022
 6614SOL    HW220379   3.891   3.439   5.071
 6615SOL     OW20380   4.063   2.976   4.213
 6615SOL    HW120381   4.065   3.048   4.150
 6615SOL    HW220382   4.062   2.897   4.158
 6616SOL     OW20383   4.302   2.399   4.589
 6616SOL    HW120384   4.301   2.465   4.521
 6616SOL    HW220385   4.369   2.429   4.651
 6617SOL     OW20386   4.071   3.400   5.038
 6617SOL    HW120387   4.067   3.355   4.953
 6617SOL    HW220388   4.164   3.399   5.061
 6618SOL     OW20389   4.138   2.604   5.330
 6618SOL    HW120390   4.199   2.646   5.268
 6618SOL    HW220391   4.179   2.520   5.350
 6619SOL     OW20392   4.233   1.914   5.457
 6619SOL    HW120393   4.186   1.854   5.399
 6619SOL    HW220394   4.170   1.982   5.479
 6620SOL     OW20395   4.288   2.758   4.751
 6620SOL    HW120396   4.310   2.850   4.766
 6620SOL    HW220397   4.242   2.731   4.831
 6621SOL     OW20398   4.024   2.061   4.972
 6621SOL    HW120399   3.984   2.094   5.053
 6621SOL    HW220400   4.004   1.968   4.971
 6622SOL     OW20401   3.773   3.173   4.999
 6622SOL    HW120402   3.803   3.117   5.071
 6622SOL    HW220403   3.776   3.262   5.036
 6623SOL     OW20404   4.019   1.927   4.351
 6623SOL    HW120405   4.002   2.018   4.373
 6623SOL    HW220406   4.033   1.883   4.435
 6624SOL     OW20407   4.075   2.776   5.534
 6624SOL    HW120408   4.157   2.790   5.582
 6624SOL    HW220409   4.098   2.712   5.466
 6625SOL     OW20410   4.030   2.670   4.668
 6625SOL    HW120411   4.122   2.699   4.670
 6625SOL    HW220412   4.033   2.579   4.699
 6626SOL     OW20413   4.065   2.392   4.733
 6626SOL    HW120414   4.028   2.305   4.718
 6626SOL    HW220415   4.146   2.393   4.680
 6627SOL     OW20416   3.730   3.181   3.920
 6627SOL    HW120417   3.643   3.196   3.882
 6627SOL    HW220418   3.726   3.092   3.954
 6628SOL     OW20419   3.817   3.646   4.665
 6628SOL    HW120420   3.787   3.568   4.619
 6628SOL    HW220421   3.906   3.660   4.633
 6629SOL     OW20422   4.232   3.448   4.630
 6629SOL    HW120423   4.319   3.472   4.664
 6629SOL    HW220424   4.250   3.380   4.565
 6630SOL     OW20425   3.758   2.405   4.841
 6630SOL    HW120426   3.838   2.392   4.790
 6630SOL    HW220427   3.788   2.409   4.932
 6631SOL     OW20428   3.915   2.383   5.454
 6631SOL    HW120429   3.969   2.340   5.387
 6631SOL    HW220430   3.875   2.457   5.409
 6632SOL     OW20431   0.028   2.414   3.985
 6632SOL    HW120432   0.022   2.361   4.065
 6632SOL    HW220433   4.460   2.480   3.996
 6633SOL     OW20434   3.968   3.414   5.449
 6633SOL    HW120435   3.941   3.479   5.515
 6633SOL    HW220436   3.966   3.331   5.495
 6634SOL     OW20437   4.186   2.354   3.910
 6634SOL    HW120438   4.246   2.427   3.930
 6634SOL    HW220439   4.102   2.396   3.895
 6635SOL     OW20440   3.869   3.003   5.197
 6635SOL    HW120441   3.869   2.953   5.279
 6635SOL    HW220442   3.884   2.937   5.129
 6636SOL     OW20443   3.811   3.132   4.735
 6636SOL    HW120444   3.794   3.143   4.829
 6636SOL    HW220445   3.740   3.075   4.705
 6637SOL     OW20446   4.389   3.514   5.422
 6637SOL    HW120447   4.353   3.595   5.457
 6637SOL    HW220448   4.413   3.535   5.332
 6638SOL     OW20449   3.864   3.657   5.567
 6638SOL    HW120450   3.813   3.592   5.615
 6638SOL    HW220451   3.909   3.707   5.635
 6639SOL     OW20452   3.983   2.181   4.438
 6639SOL    HW120453   3.895   2.214   4.417
 6639SOL    HW220454   3.982   2.172   4.534
 6640SOL     OW20455   4.086   3.171   5.213
 6640SOL    HW120456   4.065   3.246   5.158
 6640SOL    HW220457   4.014   3.109   5.199
 6641SOL     OW20458   4.327   3.352   4.203
 6641SOL    HW120459   4.342   3.293   4.130
 6641SOL    HW220460   4.259   3.413   4.171
 6642SOL     OW20461   3.985   3.209   4.012
 6642SOL    HW120462   3.892   3.205   3.990
 6642SOL    HW220463   3.986   3.247   4.101
 6643SOL     OW20464   3.837   2.892   5.447
 6643SOL    HW120465   3.760   2.865   5.497
 6643SOL    HW220466   3.911   2.849   5.491
 6644SOL     OW20467   4.387   2.068   5.218
 6644SOL    HW120468   4.477   2.071   5.185
 6644SOL    HW220469   4.396   2.056   5.312
 6645SOL     OW20470   3.804   2.192   3.758
 6645SOL    HW120471   3.716   2.174   3.725
 6645SOL    HW220472   3.834   2.268   3.707
 6646SOL     OW20473   3.790   2.017   4.030
 6646SOL    HW120474   3.776   2.097   3.980
 6646SOL    HW220475   3.875   1.985   4.001
 6647SOL     OW20476   4.340   2.701   5.161
 6647SOL    HW120477   4.377   2.788   5.145
 6647SOL    HW220478   4.415   2.647   5.187
 6648SOL     OW20479   4.393   2.419   5.463
 6648SOL    HW120480   4.414   2.495   5.517
 6648SOL    HW220481   4.477   2.388   5.430
 6649SOL     OW20482   4.106   3.602   5.285
 6649SOL    HW120483   4.022   3.645   5.270
 6649SOL    HW220484   4.083   3.521   5.331
 6650SOL     OW20485   4.307   2.590   4.393
 6650SOL    HW120486   4.348   2.676   4.380
 6650SOL    HW220487   4.239   2.585   4.326
 6651SOL     OW20488   3.942   3.168   5.577
 6651SOL    HW120489   3.880   3.102   5.547
 6651SOL    HW220490   3.922   3.178   5.670
 6652SOL     OW20491   3.811   3.093   4.390
 6652SOL    HW120492   3.817   3.047   4.473
 6652SOL    HW220493   3.878   3.053   4.335
 6653SOL     OW20494   4.423   3.248   5.393
 6653SOL    HW120495   4.333   3.219   5.380
 6653SOL    HW220496   4.415   3.343   5.405
 6654SOL     OW20497   4.166   2.294   4.260
 6654SOL    HW120498   4.181   2.228   4.193
 6654SOL    HW220499   4.105   2.253   4.321
 6655SOL     OW20500   4.055   2.418   5.013
 6655SOL    HW120501   4.109   2.362   5.068
 6655SOL    HW220502   4.076   2.390   4.923
 6656SOL     OW20503   0.035   3.468   4.412
 6656SOL    HW120504   0.060   3.534   4.347
 6656SOL    HW220505   4.468   3.415   4.367
 6657SOL     OW20506   3.767   2.930   4.031
 6657SOL    HW120507   3.861   2.921   4.013
 6657SOL    HW220508   3.739   2.842   4.053
 6658SOL     OW20509   3.952   2.486   5.712
 6658SOL    HW120510   3.863   2.483   5.747
 6658SOL    HW220511   3.942   2.461   5.620
 6659SOL     OW20512   3.947   2.150   6.578
 6659SOL    HW120513   3.978   2.113   6.660
 6659SOL    HW220514   3.858   2.116   6.568
 6660SOL     OW20515   3.728   2.245   6.221
 6660SOL    HW120516   3.647   2.273   6.264
 6660SOL    HW220517   3.704   2.165   6.174
 6661SOL     OW20518   4.265   3.100   6.731
 6661SOL    HW120519   4.201   3.168   6.708
 6661SOL    HW220520   4.336   3.148   6.774
 6662SOL     OW20521   0.015   2.639   7.443
 6662SOL    HW120522   0.068   2.674   7.514
 6662SOL    HW220523   0.060   2.668   7.363
 6663SOL     OW20524   4.400   2.849   6.215
 6663SOL    HW120525   4.474   2.841   6.275
 6663SOL    HW220526   4.340   2.909   6.259
 6664SOL     OW20527   4.419   3.021   7.397
 6664SOL    HW120528   4.456   3.101   7.359
 6664SOL    HW220529   4.326   3.027   7.377
 6665SOL     OW20530   4.062   3.293   6.655
 6665SOL    HW120531   3.990   3.247   6.612
 6665SOL    HW220532   4.105   3.341   6.584
 6666SOL     OW20533   4.172   2.261   7.065
 6666SOL    HW120534   4.247   2.201   7.072
 6666SOL    HW220535   4.096   2.206   7.082
 6667SOL     OW20536   3.941   3.577   6.058
 6667SOL    HW120537   3.961   3.653   6.113
 6667SOL    HW220538   4.018   3.568   6.001
 6668SOL     OW20539   3.956   3.305   6.121
 6668SOL    HW120540   3.935   3.398   6.126
 6668SOL    HW220541   3.898   3.264   6.186
 6669SOL     OW20542   3.979   2.950   6.472
 6669SOL    HW120543   3.982   2.865   6.515
 6669SOL    HW220544   3.928   3.005   6.531
 6670SOL     OW20545   4.363   3.658   7.044
 6670SOL    HW120546   4.274   3.628   7.064
 6670SOL    HW220547   4.356   3.753   7.043
 6671SOL     OW20548   4.308   2.849   5.727
 6671SOL    HW120549   4.340   2.898   5.652
 6671SOL    HW220550   4.376   2.861   5.794
 6672SOL     OW20551   3.841   2.514   6.146
 6672SOL    HW120552   3.809   2.427   6.167
 6672SOL    HW220553   3.833   2.563   6.228
 6673SOL     OW20554   3.760   3.455   5.709
 6673SOL    HW120555   3.740   3.363   5.728
 6673SOL    HW220556   3.734   3.502   5.788
 6674SOL     OW20557   3.846   2.605   7.172
 6674SOL    HW120558   3.938   2.633   7.176
 6674SOL    HW220559   3.796   2.686   7.176
 6675SOL     OW20560   4.306   3.251   6.323
 6675SOL    HW120561   4.271   3.162   6.325
 6675SOL    HW220562   4.310   3.273   6.230
 6676SOL     OW20563   0.022   1.870   6.111
 6676SOL    HW120564   0.052   1.930   6.042
 6676SOL    HW220565   4.427   1.884   6.115
 6677SOL     OW20566   3.911   2.824   6.862
 6677SOL    HW120567   3.996   2.786   6.844
 6677SOL    HW220568   3.851   2.775   6.805
 6678SOL     OW20569   4.062   2.111   7.403
 6678SOL    HW120570   4.103   2.196   7.420
 6678SOL    HW220571   3.971   2.122   7.431
 6679SOL     OW20572   4.311   2.588   5.857
 6679SOL    HW120573   4.305   2.668   5.804
 6679SOL    HW220574   4.245   2.599   5.925
 6680SOL     OW20575   3.813   2.682   6.362
 6680SOL    HW120576   3.894   2.675   6.414
 6680SOL    HW220577   3.770   2.761   6.395
 6681SOL     OW20578   3.852   3.721   7.166
 6681SOL    HW120579   3.855   3.698   7.259
 6681SOL    HW220580   3.764   3.696   7.138
 6682SOL     OW20581   4.248   2.049   6.467
 6682SOL    HW120582   4.268   2.057   6.560
 6682SOL    HW220583   4.257   2.138   6.433
 6683SOL     OW20584   4.083   3.677   6.453
 6683SOL    HW120585   4.134   3.597   6.460
 6683SOL    HW220586   4.146   3.748   6.463
 6684SOL     OW20587   4.041   2.822   5.838
 6684SOL    HW120588   4.124   2.841   5.795
 6684SOL    HW220589   4.012   2.740   5.800
 6685SOL     OW20590   4.177   3.113   7.320
 6685SOL    HW120591   4.150   3.126   7.229
 6685SOL    HW220592   4.096   3.123   7.370
 6686SOL     OW20593   3.926   2.140   7.089
 6686SOL    HW120594   3.845   2.191   7.086
 6686SOL    HW220595   3.904   2.063   7.142
 6687SOL     OW20596   4.191   3.597   5.912
 6687SOL    HW120597   4.226   3.657   5.977
 6687SOL    HW220598   4.259   3.592   5.844
 6688SOL     OW20599   3.980   3.655   6.817
 6688SOL    HW120600   4.026   3.582   6.858
 6688SOL    HW220601   3.966   3.626   6.726
 6689SOL     OW20602   4.113   2.553   6.058
 6689SOL    HW120603   4.136   2.462   6.074
 6689SOL    HW220604   4.020   2.558   6.078
 6690SOL     OW20605   4.340   1.968   5.705
 6690SOL    HW120606   4.435   1.954   5.703
 6690SOL    HW220607   4.311   1.946   5.616
 6691SOL     OW20608   0.023   3.280   6.492
 6691SOL    HW120609   0.073   3.338   6.435
 6691SOL    HW220610   4.445   3.257   6.441
 6692SOL     OW20611   4.259   1.928   6.086
 6692SOL    HW120612   4.180   1.932   6.139
 6692SOL    HW220613   4.254   2.006   6.030
 6693SOL     OW20614   4.016   1.911   5.771
 6693SOL    HW120615   4.077   1.973   5.731
 6693SOL    HW220616   4.073   1.847   5.816
 6694SOL     OW20617   0.328   2.532   7.037
 6694SOL    HW120618   0.269   2.462   7.011
 6694SOL    HW220619   0.412   2.488   7.053
 6695SOL     OW20620   4.192   3.006   6.314
 6695SOL    HW120621   4.125   2.987   6.379
 6695SOL    HW220622   4.148   2.991   6.230
 6696SOL     OW20623   3.805   2.415   6.979
 6696SOL    HW120624   3.897   2.415   6.951
 6696SOL    HW220625   3.800   2.485   7.044
 6697SOL     OW20626   4.281   2.071   6.735
 6697SOL    HW120627   4.328   2.011   6.795
 6697SOL    HW220628   4.194   2.080   6.774
 6698SOL     OW20629   4.231   3.247   5.760
 6698SOL    HW120630   4.146   3.233   5.801
 6698SOL    HW220631   4.211   3.260   5.667
 6699SOL     OW20632   4.243   2.128   5.906
 6699SOL    HW120633   4.285   2.073   5.840
 6699SOL    HW220634   4.222   2.210   5.860
 6700SOL     OW20635   4.142   2.676   6.836
 6700SOL    HW120636   4.209   2.685   6.904
 6700SOL    HW220637   4.107   2.588   6.849
 6701SOL     OW20638   3.796   3.436   6.942
 6701SOL    HW120639   3.764   3.505   6.884
 6701SOL    HW220640   3.891   3.439   6.933
 6702SOL     OW20641   4.063   2.976   6.074
 6702SOL    HW120642   4.065   3.048   6.012
 6702SOL    HW220643   4.063   2.897   6.020
 6703SOL     OW20644   4.302   2.399   6.452
 6703SOL    HW120645   4.301   2.466   6.383
 6703SOL    HW220646   4.370   2.428   6.513
 6704SOL     OW20647   4.071   3.399   6.900
 6704SOL    HW120648   4.067   3.355   6.815
 6704SOL    HW220649   4.164   3.399   6.923
 6705SOL     OW20650   4.138   2.604   7.192
 6705SOL    HW120651   4.199   2.646   7.130
 6705SOL    HW220652   4.180   2.520   7.212
 6706SOL     OW20653   4.233   1.913   7.319
 6706SOL    HW120654   4.186   1.854   7.261
 6706SOL    HW220655   4.170   1.981   7.341
 6707SOL     OW20656   4.288   2.758   6.613
 6707SOL    HW120657   4.310   2.850   6.628
 6707SOL    HW220658   4.242   2.731   6.693
 6708SOL     OW20659   4.023   2.061   6.833
 6708SOL    HW120660   3.985   2.093   6.915
 6708SOL    HW220661   4.004   1.967   6.833
 6709SOL     OW20662   3.771   3.173   6.862
 6709SOL    HW120663   3.802   3.117   6.933
 6709SOL    HW220664   3.775   3.262   6.898
 6710SOL     OW20665   4.019   1.926   6.213
 6710SOL    HW120666   4.002   2.018   6.235
 6710SOL    HW220667   4.033   1.883   6.297
 6711SOL     OW20668   4.075   2.776   7.396
 6711SOL    HW120669   4.156   2.791   7.443
 6711SOL    HW220670   4.098   2.712   7.328
 6712SOL     OW20671   4.031   2.670   6.532
 6712SOL    HW120672   4.122   2.699   6.533
 6712SOL    HW220673   4.034   2.579   6.561
 6713SOL     OW20674   4.065   2.392   6.595
 6713SOL    HW120675   4.028   2.305   6.579
 6713SOL    HW220676   4.146   2.393   6.543
 6714SOL     OW20677   3.730   3.181   5.781
 6714SOL    HW120678   3.643   3.196   5.744
 6714SOL    HW220679   3.726   3.092   5.815
 6715SOL     OW20680   3.817   3.647   6.527
 6715SOL    HW120681   3.787   3.568   6.481
 6715SOL    HW220682   3.906   3.660   6.495
 6716SOL     OW20683   4.233   3.448   6.491
 6716SOL    HW120684   4.319   3.472   6.526
 6716SOL    HW220685   4.250   3.380   6.427
 6717SOL     OW20686   3.759   2.407   6.702
 6717SOL    HW120687   3.838   2.394   6.650
 6717SOL    HW220688   3.791   2.410   6.793
 6718SOL     OW20689   3.915   2.383   7.316
 6718SOL    HW120690   3.971   2.342   7.250
 6718SOL    HW220691   3.875   2.458   7.271
 6719SOL     OW20692   0.028   2.414   5.847
 6719SOL    HW120693   0.022   2.361   5.927
 6719SOL    HW220694   4.459   2.480   5.857
 6720SOL     OW20695   3.967   3.415   7.311
 6720SOL    HW120696   3.941   3.479   7.376
 6720SOL    HW220697   3.966   3.331   7.358
 6721SOL     OW20698   4.186   2.355   5.772
 6721SOL    HW120699   4.246   2.427   5.792
 6721SOL    HW220700   4.101   2.396   5.758
 6722SOL     OW20701   3.868   3.003   7.059
 6722SOL    HW120702   3.869   2.953   7.141
 6722SOL    HW220703   3.884   2.937   6.991
 6723SOL     OW20704   3.811   3.132   6.597
 6723SOL    HW120705   3.793   3.143   6.691
 6723SOL    HW220706   3.741   3.074   6.566
 6724SOL     OW20707   4.389   3.514   7.285
 6724SOL    HW120708   4.354   3.596   7.319
 6724SOL    HW220709   4.414   3.534   7.195
 6725SOL     OW20710   3.864   3.657   7.429
 6725SOL    HW120711   3.812   3.592   7.477
 6725SOL    HW220712   3.909   3.707   7.497
 6726SOL     OW20713   3.984   2.181   6.300
 6726SOL    HW120714   3.897   2.213   6.278
 6726SOL    HW220715   3.983   2.172   6.396
 6727SOL     OW20716   4.086   3.171   7.076
 6727SOL    HW120717   4.065   3.246   7.019
 6727SOL    HW220718   4.014   3.110   7.061
 6728SOL     OW20719   4.327   3.353   6.065
 6728SOL    HW120720   4.341   3.292   5.992
 6728SOL    HW220721   4.259   3.412   6.034
 6729SOL     OW20722   3.985   3.209   5.875
 6729SOL    HW120723   3.892   3.205   5.852
 6729SOL    HW220724   3.986   3.247   5.963
 6730SOL     OW20725   3.837   2.890   7.308
 6730SOL    HW120726   3.760   2.864   7.359
 6730SOL    HW220727   3.911   2.849   7.353
 6731SOL     OW20728   4.388   2.068   7.080
 6731SOL    HW120729   4.478   2.072   7.047
 6731SOL    HW220730   4.397   2.056   7.174
 6732SOL     OW20731   3.804   2.192   5.619
 6732SOL    HW120732   3.717   2.173   5.583
 6732SOL    HW220733   3.834   2.268   5.570
 6733SOL     OW20734   3.790   2.017   5.892
 6733SOL    HW120735   3.775   2.097   5.841
 6733SOL    HW220736   3.875   1.985   5.862
 6734SOL     OW20737   4.340   2.701   7.023
 6734SOL    HW120738   4.377   2.787   7.007
 6734SOL    HW220739   4.414   2.647   7.048
 6735SOL     OW20740   4.392   2.419   7.326
 6735SOL    HW120741   4.414   2.495   7.380
 6735SOL    HW220742   4.477   2.389   7.292
 6736SOL     OW20743   4.106   3.602   7.147
 6736SOL    HW120744   4.022   3.645   7.132
 6736SOL    HW220745   4.083   3.521   7.193
 6737SOL     OW20746   4.307   2.590   6.256
 6737SOL    HW120747   4.348   2.676   6.242
 6737SOL    HW220748   4.239   2.585   6.189
 6738SOL     OW20749   3.942   3.168   7.439
 6738SOL    HW120750   3.879   3.102   7.410
 6738SOL    HW220751   3.924   3.178   7.533
 6739SOL     OW20752   3.811   3.094   6.252
 6739SOL    HW120753   3.815   3.047   6.335
 6739SOL    HW220754   3.878   3.053   6.197
 6740SOL     OW20755   4.423   3.248   7.254
 6740SOL    HW120756   4.332   3.218   7.242
 6740SOL    HW220757   4.415   3.343   7.267
 6741SOL     OW20758   4.167   2.294   6.122
 6741SOL    HW120759   4.181   2.228   6.054
 6741SOL    HW220760   4.106   2.253   6.184
 6742SOL     OW20761   4.054   2.418   6.874
 6742SOL    HW120762   4.108   2.362   6.930
 6742SOL    HW220763   4.075   2.390   6.785
 6743SOL     OW20764   0.035   3.468   6.274
 6743SOL    HW120765   0.060   3.534   6.209
 6743SOL    HW220766   4.469   3.415   6.229
 6744SOL     OW20767   3.768   2.930   5.893
 6744SOL    HW120768   3.861   2.921   5.875
 6744SOL    HW220769   3.739   2.842   5.916
 6745SOL     OW20770   3.952   2.486   7.573
 6745SOL    HW120771   3.863   2.483   7.608
 6745SOL    HW220772   3.942   2.461   7.481
 6746SOL     OW20773   3.947   2.150   8.440
 6746SOL    HW120774   3.979   2.113   8.522
 6746SOL    HW220775   3.858   2.116   8.430
 6747SOL     OW20776   3.725   2.246   8.086
 6747SOL    HW120777   3.643   2.272   8.128
 6747SOL    HW220778   3.703   2.166   8.037
 6748SOL     OW20779   4.265   3.100   8.593
 6748SOL    HW120780   4.201   3.168   8.571
 6748SOL    HW220781   4.336   3.148   8.636
 6749SOL     OW20782   0.015   2.639   9.305
 6749SOL    HW120783   0.068   2.674   9.376
 6749SOL    HW220784   0.060   2.668   9.225
 6750SOL     OW20785   4.399   2.849   8.077
 6750SOL    HW120786   4.474   2.842   8.136
 6750SOL    HW220787   4.339   2.909   8.121
 6751SOL     OW20788   4.419   3.021   9.259
 6751SOL    HW120789   4.456   3.101   9.221
 6751SOL    HW220790   4.326   3.027   9.239
 6752SOL     OW20791   4.062   3.293   8.517
 6752SOL    HW120792   3.990   3.248   8.474
 6752SOL    HW220793   4.105   3.341   8.446
 6753SOL     OW20794   4.172   2.261   8.926
 6753SOL    HW120795   4.247   2.201   8.934
 6753SOL    HW220796   4.096   2.205   8.945
 6754SOL     OW20797   3.941   3.577   7.920
 6754SOL    HW120798   3.961   3.653   7.975
 6754SOL    HW220799   4.018   3.568   7.863
 6755SOL     OW20800   3.955   3.305   7.983
 6755SOL    HW120801   3.935   3.398   7.987
 6755SOL    HW220802   3.897   3.265   8.048
 6756SOL     OW20803   3.978   2.950   8.333
 6756SOL    HW120804   3.982   2.865   8.376
 6756SOL    HW220805   3.928   3.005   8.394
 6757SOL     OW20806   4.363   3.658   8.906
 6757SOL    HW120807   4.274   3.628   8.926
 6757SOL    HW220808   4.356   3.753   8.905
 6758SOL     OW20809   4.308   2.849   7.590
 6758SOL    HW120810   4.340   2.897   7.514
 6758SOL    HW220811   4.376   2.861   7.656
 6759SOL     OW20812   3.840   2.515   8.009
 6759SOL    HW120813   3.808   2.427   8.030
 6759SOL    HW220814   3.832   2.564   8.090
 6760SOL     OW20815   3.759   3.455   7.571
 6760SOL    HW120816   3.740   3.363   7.591
 6760SOL    HW220817   3.734   3.503   7.650
 6761SOL     OW20818   3.846   2.605   9.033
 6761SOL    HW120819   3.938   2.633   9.038
 6761SOL    HW220820   3.796   2.686   9.038
 6762SOL     OW20821   4.306   3.251   8.185
 6762SOL    HW120822   4.271   3.162   8.187
 6762SOL    HW220823   4.310   3.273   8.092
 6763SOL     OW20824   0.022   1.870   7.973
 6763SOL    HW120825   0.051   1.930   7.904
 6763SOL    HW220826   4.427   1.884   7.977
 6764SOL     OW20827   3.911   2.824   8.723
 6764SOL    HW120828   3.997   2.786   8.706
 6764SOL    HW220829   3.851   2.774   8.668
 6765SOL     OW20830   4.062   2.111   9.265
 6765SOL    HW120831   4.103   2.196   9.283
 6765SOL    HW220832   3.971   2.122   9.293
 6766SOL     OW20833   4.311   2.588   7.718
 6766SOL    HW120834   4.306   2.668   7.666
 6766SOL    HW220835   4.245   2.600   7.787
 6767SOL     OW20836   3.811   2.684   8.224
 6767SOL    HW120837   3.892   2.676   8.274
 6767SOL    HW220838   3.769   2.763   8.258
 6768SOL     OW20839   3.852   3.720   9.028
 6768SOL    HW120840   3.855   3.697   9.121
 6768SOL    HW220841   3.764   3.697   9.000
 6769SOL     OW20842   4.247   2.049   8.329
 6769SOL    HW120843   4.268   2.056   8.422
 6769SOL    HW220844   4.258   2.138   8.295
 6770SOL     OW20845   4.083   3.677   8.315
 6770SOL    HW120846   4.135   3.597   8.323
 6770SOL    HW220847   4.146   3.748   8.325
 6771SOL     OW20848   4.041   2.823   7.700
 6771SOL    HW120849   4.124   2.842   7.657
 6771SOL    HW220850   4.012   2.740   7.661
 6772SOL     OW20851   4.177   3.113   9.182
 6772SOL    HW120852   4.150   3.126   9.091
 6772SOL    HW220853   4.096   3.123   9.232
 6773SOL     OW20854   3.925   2.140   8.951
 6773SOL    HW120855   3.844   2.191   8.949
 6773SOL    HW220856   3.904   2.063   9.004
 6774SOL     OW20857   4.191   3.597   7.774
 6774SOL    HW120858   4.226   3.657   7.839
 6774SOL    HW220859   4.259   3.592   7.706
 6775SOL     OW20860   3.980   3.654   8.679
 6775SOL    HW120861   4.026   3.582   8.721
 6775SOL    HW220862   3.967   3.626   8.588
 6776SOL     OW20863   4.113   2.554   7.920
 6776SOL    HW120864   4.136   2.462   7.936
 6776SOL    HW220865   4.020   2.559   7.940
 6777SOL     OW20866   4.340   1.968   7.567
 6777SOL    HW120867   4.435   1.955   7.566
 6777SOL    HW220868   4.312   1.946   7.478
 6778SOL     OW20869   0.023   3.280   8.355
 6778SOL    HW120870   0.073   3.338   8.298
 6778SOL    HW220871   4.445   3.257   8.303
 6779SOL     OW20872   4.259   1.928   7.948
 6779SOL    HW120873   4.180   1.932   8.001
 6779SOL    HW220874   4.254   2.006   7.892
 6780SOL     OW20875   4.017   1.911   7.633
 6780SOL    HW120876   4.078   1.973   7.594
 6780SOL    HW220877   4.073   1.847   7.678
 6781SOL     OW20878   0.328   2.532   8.899
 6781SOL    HW120879   0.270   2.461   8.872
 6781SOL    HW220880   0.412   2.489   8.915
 6782SOL     OW20881   4.191   3.006   8.176
 6782SOL    HW120882   4.124   2.987   8.241
 6782SOL    HW220883   4.148   2.991   8.092
 6783SOL     OW20884   3.805   2.415   8.841
 6783SOL    HW120885   3.897   2.415   8.813
 6783SOL    HW220886   3.800   2.486   8.906
 6784SOL     OW20887   4.281   2.070   8.597
 6784SOL    HW120888   4.328   2.012   8.657
 6784SOL    HW220889   4.194   2.080   8.636
 6785SOL     OW20890   4.231   3.247   7.622
 6785SOL    HW120891   4.146   3.233   7.663
 6785SOL    HW220892   4.211   3.260   7.529
 6786SOL     OW20893   4.243   2.128   7.768
 6786SOL    HW120894   4.285   2.073   7.702
 6786SOL    HW220895   4.222   2.210   7.722
 6787SOL     OW20896   4.141   2.676   8.699
 6787SOL    HW120897   4.209   2.685   8.766
 6787SOL    HW220898   4.107   2.588   8.711
 6788SOL     OW20899   3.796   3.436   8.804
 6788SOL    HW120900   3.764   3.506   8.746
 6788SOL    HW220901   3.891   3.439   8.795
 6789SOL     OW20902   4.062   2.976   7.937
 6789SOL    HW120903   4.066   3.048   7.874
 6789SOL    HW220904   4.062   2.897   7.882
 6790SOL     OW20905   4.302   2.399   8.314
 6790SOL    HW120906   4.301   2.465   8.246
 6790SOL    HW220907   4.370   2.428   8.375
 6791SOL     OW20908   4.071   3.399   8.762
 6791SOL    HW120909   4.068   3.355   8.677
 6791SOL    HW220910   4.164   3.399   8.785
 6792SOL     OW20911   4.138   2.603   9.053
 6792SOL    HW120912   4.199   2.646   8.992
 6792SOL    HW220913   4.180   2.520   9.074
 6793SOL     OW20914   4.234   1.914   9.181
 6793SOL    HW120915   4.186   1.854   9.123
 6793SOL    HW220916   4.170   1.982   9.203
 6794SOL     OW20917   4.287   2.759   8.475
 6794SOL    HW120918   4.311   2.850   8.490
 6794SOL    HW220919   4.242   2.731   8.555
 6795SOL     OW20920   4.023   2.061   8.695
 6795SOL    HW120921   3.985   2.093   8.777
 6795SOL    HW220922   4.004   1.967   8.695
 6796SOL     OW20923   3.770   3.173   8.724
 6796SOL    HW120924   3.802   3.117   8.795
 6796SOL    HW220925   3.775   3.262   8.759
 6797SOL     OW20926   4.019   1.926   8.075
 6797SOL    HW120927   4.002   2.018   8.097
 6797SOL    HW220928   4.033   1.883   8.159
 6798SOL     OW20929   4.075   2.776   9.257
 6798SOL    HW120930   4.156   2.791   9.305
 6798SOL    HW220931   4.098   2.712   9.190
 6799SOL     OW20932   4.030   2.670   8.393
 6799SOL    HW120933   4.121   2.699   8.394
 6799SOL    HW220934   4.033   2.579   8.422
 6800SOL     OW20935   4.065   2.392   8.456
 6800SOL    HW120936   4.028   2.305   8.441
 6800SOL    HW220937   4.146   2.393   8.405
 6801SOL     OW20938   3.730   3.181   7.644
 6801SOL    HW120939   3.643   3.196   7.606
 6801SOL    HW220940   3.726   3.092   7.678
 6802SOL     OW20941   3.817   3.647   8.389
 6802SOL    HW120942   3.787   3.568   8.343
 6802SOL    HW220943   3.906   3.660   8.357
 6803SOL     OW20944   4.233   3.448   8.354
 6803SOL    HW120945   4.319   3.472   8.388
 6803SOL    HW220946   4.250   3.380   8.289
 6804SOL     OW20947   3.759   2.408   8.564
 6804SOL    HW120948   3.838   2.394   8.512
 6804SOL    HW220949   3.790   2.410   8.655
 6805SOL     OW20950   3.915   2.383   9.178
 6805SOL    HW120951   3.971   2.342   9.112
 6805SOL    HW220952   3.875   2.457   9.133
 6806SOL     OW20953   0.027   2.413   7.709
 6806SOL    HW120954   0.023   2.362   7.790
 6806SOL    HW220955   4.459   2.480   7.719
 6807SOL     OW20956   3.967   3.414   9.173
 6807SOL    HW120957   3.941   3.479   9.238
 6807SOL    HW220958   3.966   3.331   9.220
 6808SOL     OW20959   4.186   2.354   7.634
 6808SOL    HW120960   4.246   2.426   7.654
 6808SOL    HW220961   4.102   2.397   7.619
 6809SOL     OW20962   3.868   3.003   8.921
 6809SOL    HW120963   3.869   2.953   9.003
 6809SOL    HW220964   3.884   2.937   8.853
 6810SOL     OW20965   3.811   3.132   8.460
 6810SOL    HW120966   3.793   3.143   8.553
 6810SOL    HW220967   3.740   3.075   8.429
 6811SOL     OW20968   4.389   3.514   9.147
 6811SOL    HW120969   4.354   3.596   9.181
 6811SOL    HW220970   4.415   3.534   9.057
 6812SOL     OW20971   3.864   3.657   9.291
 6812SOL    HW120972   3.812   3.592   9.339
 6812SOL    HW220973   3.909   3.707   9.359
 6813SOL     OW20974   3.983   2.181   8.162
 6813SOL    HW120975   3.896   2.214   8.141
 6813SOL    HW220976   3.983   2.172   8.258
 6814SOL     OW20977   4.085   3.171   8.938
 6814SOL    HW120978   4.066   3.246   8.882
 6814SOL    HW220979   4.014   3.110   8.923
 6815SOL     OW20980   4.327   3.352   7.927
 6815SOL    HW120981   4.342   3.293   7.854
 6815SOL    HW220982   4.259   3.413   7.895
 6816SOL     OW20983   3.985   3.209   7.736
 6816SOL    HW120984   3.892   3.205   7.713
 6816SOL    HW220985   3.986   3.247   7.825
 6817SOL     OW20986   3.837   2.890   9.170
 6817SOL    HW120987   3.760   2.864   9.221
 6817SOL    HW220988   3.911   2.849   9.215
 6818SOL     OW20989   4.388   2.068   8.942
 6818SOL    HW120990   4.478   2.072   8.909
 6818SOL    HW220991   4.397   2.056   9.036
 6819SOL     OW20992   3.804   2.192   7.482
 6819SOL    HW120993   3.716   2.174   7.447
 6819SOL    HW220994   3.834   2.268   7.432
 6820SOL     OW20995   3.790   2.017   7.754
 6820SOL    HW120996   3.776   2.097   7.703
 6820SOL    HW220997   3.875   1.985   7.725
 6821SOL     OW20998   4.340   2.701   8.885
 6821SOL    HW120999   4.378   2.787   8.869
 6821SOL    HW221000   4.414   2.646   8.910
 6822SOL     OW21001   4.392   2.419   9.187
 6822SOL    HW121002   4.414   2.495   9.241
 6822SOL    HW221003   4.476   2.389   9.154
 6823SOL     OW21004   4.106   3.602   9.009
 6823SOL    HW121005   4.021   3.645   8.994
 6823SOL    HW221006   4.083   3.521   9.054
 6824SOL     OW21007   4.307   2.590   8.118
 6824SOL    HW121008   4.348   2.675   8.104
 6824SOL    HW221009   4.239   2.585   8.050
 6825SOL     OW21010   3.942   3.168   9.301
 6825SOL    HW121011   3.879   3.103   9.272
 6825SOL    HW221012   3.924   3.178   9.395
 6826SOL     OW21013   3.811   3.093   8.114
 6826SOL    HW121014   3.819   3.047   8.197
 6826SOL    HW221015   3.878   3.054   8.058
 6827SOL     OW21016   4.422   3.248   9.116
 6827SOL    HW121017   4.332   3.218   9.104
 6827SOL    HW221018   4.415   3.343   9.129
 6828SOL     OW21019   4.166   2.294   7.984
 6828SOL    HW121020   4.181   2.228   7.916
 6828SOL    HW221021   4.106   2.252   8.045
 6829SOL     OW21022   4.054   2.418   8.736
 6829SOL    HW121023   4.108   2.362   8.792
 6829SOL    HW221024   4.076   2.390   8.647
 6830SOL     OW21025   0.035   3.468   8.136
 6830SOL    HW121026   0.060   3.534   8.071
 6830SOL    HW221027   4.468   3.415   8.091
 6831SOL     OW21028   3.767   2.930   7.755
 6831SOL    HW121029   3.861   2.922   7.737
 6831SOL    HW221030   3.739   2.842   7.777
 6832SOL     OW21031   3.952   2.486   9.435
 6832SOL    HW121032   3.863   2.483   9.471
 6832SOL    HW221033   3.942   2.461   9.343
 6833SOL     OW21034   3.947   2.150  10.302
 6833SOL    HW121035   3.979   2.113  10.384
 6833SOL    HW221036   3.858   2.116  10.292
 6834SOL     OW21037   3.725   2.246   9.948
 6834SOL    HW121038   3.643   2.272   9.990
 6834SOL    HW221039   3.703   2.166   9.899
 6835SOL     OW21040   4.265   3.100  10.457
 6835SOL    HW121041   4.201   3.167  10.432
 6835SOL    HW221042   4.336   3.149  10.498
 6836SOL     OW21043   0.024   2.675   0.080
 6836SOL    HW121044   0.107   2.703   0.118
 6836SOL    HW221045   0.045   2.652  11.090
 6837SOL     OW21046   4.400   2.849   9.939
 6837SOL    HW121047   4.474   2.841   9.999
 6837SOL    HW221048   4.340   2.909   9.983
 6838SOL     OW21049   4.064   3.292  10.378
 6838SOL    HW121050   3.990   3.248  10.336
 6838SOL    HW221051   4.106   3.341  10.308
 6839SOL     OW21052   4.178   2.265  10.793
 6839SOL    HW121053   4.248   2.199  10.798
 6839SOL    HW221054   4.098   2.216  10.815
 6840SOL     OW21055   3.941   3.577   9.782
 6840SOL    HW121056   3.961   3.653   9.837
 6840SOL    HW221057   4.018   3.568   9.725
 6841SOL     OW21058   3.955   3.304   9.845
 6841SOL    HW121059   3.935   3.398   9.849
 6841SOL    HW221060   3.897   3.265   9.910
 6842SOL     OW21061   3.978   2.950  10.196
 6842SOL    HW121062   3.982   2.865  10.239
 6842SOL    HW221063   3.928   3.005  10.255
 6843SOL     OW21064   4.354   3.667  10.750
 6843SOL    HW121065   4.268   3.637  10.779
 6843SOL    HW221066   4.354   3.761  10.768
 6844SOL     OW21067   4.308   2.849   9.452
 6844SOL    HW121068   4.340   2.897   9.376
 6844SOL    HW221069   4.376   2.861   9.518
 6845SOL     OW21070   3.840   2.515   9.871
 6845SOL    HW121071   3.808   2.427   9.892
 6845SOL    HW221072   3.832   2.564   9.952
 6846SOL     OW21073   3.759   3.455   9.433
 6846SOL    HW121074   3.740   3.363   9.453
 6846SOL    HW221075   3.734   3.503   9.512
 6847SOL     OW21076   3.850   2.588  10.919
 6847SOL    HW121077   3.942   2.609  10.904
 6847SOL    HW221078   3.804   2.671  10.910
 6848SOL     OW21079   4.306   3.251  10.047
 6848SOL    HW121080   4.271   3.162  10.049
 6848SOL    HW221081   4.310   3.273   9.954
 6849SOL     OW21082   0.022   1.870   9.835
 6849SOL    HW121083   0.051   1.930   9.766
 6849SOL    HW221084   4.427   1.884   9.839
 6850SOL     OW21085   3.911   2.822  10.581
 6850SOL    HW121086   3.996   2.783  10.563
 6850SOL    HW221087   3.850   2.771  10.528
 6851SOL     OW21088   4.071   2.118   0.022
 6851SOL    HW121089   4.118   2.194   0.055
 6851SOL    HW221090   3.978   2.141   0.032
 6852SOL     OW21091   4.311   2.588   9.580
 6852SOL    HW121092   4.306   2.668   9.528
 6852SOL    HW221093   4.245   2.599   9.649
 6853SOL     OW21094   3.811   2.684  10.086
 6853SOL    HW121095   3.892   2.676  10.136
 6853SOL    HW221096   3.769   2.763  10.120
 6854SOL     OW21097   3.856   3.713  10.899
 6854SOL    HW121098   3.841   3.673  10.985
 6854SOL    HW221099   3.774   3.701  10.852
 6855SOL     OW21100   4.247   2.050  10.191
 6855SOL    HW121101   4.269   2.057  10.284
 6855SOL    HW221102   4.257   2.139  10.157
 6856SOL     OW21103   4.083   3.677  10.177
 6856SOL    HW121104   4.134   3.597  10.184
 6856SOL    HW221105   4.146   3.748  10.187
 6857SOL     OW21106   4.041   2.823   9.562
 6857SOL    HW121107   4.124   2.841   9.519
 6857SOL    HW221108   4.012   2.740   9.524
 6858SOL     OW21109   4.176   3.125  11.056
 6858SOL    HW121110   4.150   3.142  10.966
 6858SOL    HW221111   4.108   3.066  11.090
 6859SOL     OW21112   3.929   2.139  10.807
 6859SOL    HW121113   3.848   2.190  10.807
 6859SOL    HW221114   3.912   2.067  10.868
 6860SOL     OW21115   4.191   3.597   9.636
 6860SOL    HW121116   4.226   3.657   9.701
 6860SOL    HW221117   4.259   3.593   9.568
 6861SOL     OW21118   3.981   3.655  10.541
 6861SOL    HW121119   4.026   3.582  10.585
 6861SOL    HW221120   3.968   3.625  10.452
 6862SOL     OW21121   4.113   2.554   9.782
 6862SOL    HW121122   4.136   2.462   9.798
 6862SOL    HW221123   4.020   2.559   9.802
 6863SOL     OW21124   4.340   1.968   9.429
 6863SOL    HW121125   4.435   1.955   9.428
 6863SOL    HW221126   4.312   1.946   9.340
 6864SOL     OW21127   0.023   3.280  10.216
 6864SOL    HW121128   0.073   3.338  10.159
 6864SOL    HW221129   4.445   3.257  10.166
 6865SOL     OW21130   4.259   1.928   9.810
 6865SOL    HW121131   4.180   1.932   9.863
 6865SOL    HW221132   4.254   2.006   9.754
 6866SOL     OW21133   4.017   1.911   9.495
 6866SOL    HW121134   4.078   1.973   9.456
 6866SOL    HW221135   4.073   1.847   9.540
 6867SOL     OW21136   0.312   2.535  10.767
 6867SOL    HW121137   0.264   2.453  10.760
 6867SOL    HW221138   0.403   2.508  10.782
 6868SOL     OW21139   4.191   3.006  10.038
 6868SOL    HW121140   4.124   2.987  10.103
 6868SOL    HW221141   4.148   2.991   9.954
 6869SOL     OW21142   3.804   2.413  10.707
 6869SOL    HW121143   3.896   2.414  10.679
 6869SOL    HW221144   3.801   2.474  10.781
 6870SOL     OW21145   4.283   2.070  10.460
 6870SOL    HW121146   4.325   2.004  10.515
 6870SOL    HW221147   4.195   2.079  10.498
 6871SOL     OW21148   4.231   3.247   9.484
 6871SOL    HW121149   4.146   3.233   9.525
 6871SOL    HW221150   4.211   3.260   9.391
 6872SOL     OW21151   4.243   2.128   9.630
 6872SOL    HW121152   4.285   2.073   9.564
 6872SOL    HW221153   4.222   2.210   9.584
 6873SOL     OW21154   4.142   2.675  10.559
 6873SOL    HW121155   4.209   2.684  10.627
 6873SOL    HW221156   4.107   2.587  10.572
 6874SOL     OW21157   3.796   3.439  10.666
 6874SOL    HW121158   3.765   3.508  10.606
 6874SOL    HW221159   3.891   3.439  10.656
 6875SOL     OW21160   4.063   2.976   9.799
 6875SOL    HW121161   4.066   3.048   9.736
 6875SOL    HW221162   4.062   2.897   9.744
 6876SOL     OW21163   4.302   2.398  10.176
 6876SOL    HW121164   4.302   2.466  10.109
 6876SOL    HW221165   4.370   2.426  10.237
 6877SOL     OW21166   4.071   3.398  10.624
 6877SOL    HW121167   4.068   3.353  10.540
 6877SOL    HW221168   4.164   3.399  10.648
 6878SOL     OW21169   4.135   2.594  10.901
 6878SOL    HW121170   4.201   2.636  10.847
 6878SOL    HW221171   4.157   2.501  10.897
 6879SOL     OW21172   4.288   2.759  10.337
 6879SOL    HW121173   4.310   2.851  10.352
 6879SOL    HW221174   4.242   2.731  10.416
 6880SOL     OW21175   4.024   2.061  10.556
 6880SOL    HW121176   3.989   2.094  10.639
 6880SOL    HW221177   4.004   1.968  10.556
 6881SOL     OW21178   3.776   3.176  10.584
 6881SOL    HW121179   3.802   3.118  10.655
 6881SOL    HW221180   3.774   3.263  10.623
 6882SOL     OW21181   4.019   1.926   9.937
 6882SOL    HW121182   4.002   2.018   9.959
 6882SOL    HW221183   4.033   1.883  10.021
 6883SOL     OW21184   4.081   2.777  11.093
 6883SOL    HW121185   4.164   2.795   0.037
 6883SOL    HW221186   4.103   2.710  11.028
 6884SOL     OW21187   4.030   2.670  10.255
 6884SOL    HW121188   4.122   2.699  10.255
 6884SOL    HW221189   4.034   2.579  10.284
 6885SOL     OW21190   4.065   2.392  10.319
 6885SOL    HW121191   4.028   2.305  10.304
 6885SOL    HW221192   4.146   2.393  10.268
 6886SOL     OW21193   3.730   3.181   9.506
 6886SOL    HW121194   3.643   3.196   9.468
 6886SOL    HW221195   3.726   3.092   9.540
 6887SOL     OW21196   3.817   3.647  10.250
 6887SOL    HW121197   3.787   3.568  10.205
 6887SOL    HW221198   3.906   3.660  10.219
 6888SOL     OW21199   4.233   3.448  10.215
 6888SOL    HW121200   4.319   3.472  10.249
 6888SOL    HW221201   4.250   3.380  10.151
 6889SOL     OW21202   3.760   2.409  10.428
 6889SOL    HW121203   3.839   2.394  10.376
 6889SOL    HW221204   3.790   2.410  10.518
 6890SOL     OW21205   0.028   2.413   9.571
 6890SOL    HW121206   0.024   2.362   9.652
 6890SOL    HW221207   4.459   2.480   9.581
 6891SOL     OW21208   3.978   3.428  11.048
 6891SOL    HW121209   3.918   3.454   0.018
 6891SOL    HW221210   3.992   3.335  11.062
 6892SOL     OW21211   4.186   2.354   9.496
 6892SOL    HW121212   4.246   2.426   9.516
 6892SOL    HW221213   4.102   2.397   9.481
 6893SOL     OW21214   3.875   3.000  10.779
 6893SOL    HW121215   3.867   2.947  10.858
 6893SOL    HW221216   3.888   2.936  10.709
 6894SOL     OW21217   3.811   3.133  10.321
 6894SOL    HW121218   3.796   3.145  10.414
 6894SOL    HW221219   3.740   3.075  10.292
 6895SOL     OW21220   4.387   3.528  10.998
 6895SOL    HW121221   4.300   3.567  10.982
 6895SOL    HW221222   4.422   3.513  10.911
 6896SOL     OW21223   3.983   2.181  10.024
 6896SOL    HW121224   3.896   2.214  10.003
 6896SOL    HW221225   3.983   2.172  10.120
 6897SOL     OW21226   4.079   3.177  10.814
 6897SOL    HW121227   4.067   3.246  10.749
 6897SOL    HW221228   4.012   3.112  10.791
 6898SOL     OW21229   4.327   3.352   9.789
 6898SOL    HW121230   4.342   3.293   9.716
 6898SOL    HW221231   4.259   3.413   9.757
 6899SOL     OW21232   3.984   3.209   9.598
 6899SOL    HW121233   3.892   3.205   9.575
 6899SOL    HW221234   3.986   3.247   9.686
 6900SOL     OW21235   3.841   2.877  11.017
 6900SOL    HW121236   3.773   2.866  11.084
 6900SOL    HW221237   3.921   2.843  11.059
 6901SOL     OW21238   4.396   2.069  10.810
 6901SOL    HW121239   4.473   2.081  10.755
 6901SOL    HW221240   4.429   2.080  10.900
 6902SOL     OW21241   3.804   2.192   9.344
 6902SOL    HW121242   3.716   2.174   9.310
 6902SOL    HW221243   3.834   2.268   9.293
 6903SOL     OW21244   3.790   2.017   9.616
 6903SOL    HW121245   3.776   2.097   9.565
 6903SOL    HW221246   3.875   1.985   9.587
 6904SOL     OW21247   4.339   2.701  10.746
 6904SOL    HW121248   4.375   2.788  10.730
 6904SOL    HW221249   4.416   2.646  10.760
 6905SOL     OW21250   4.118   3.597  10.879
 6905SOL    HW121251   4.042   3.654  10.865
 6905SOL    HW221252   4.084   3.524  10.931
 6906SOL     OW21253   4.307   2.590   9.980
 6906SOL    HW121254   4.348   2.676   9.966
 6906SOL    HW221255   4.239   2.585   9.913
 6907SOL     OW21256   3.811   3.093   9.976
 6907SOL    HW121257   3.818   3.047  10.059
 6907SOL    HW221258   3.878   3.053   9.920
 6908SOL     OW21259   4.411   3.251  10.951
 6908SOL    HW121260   4.332   3.205  10.980
 6908SOL    HW221261   4.404   3.338  10.990
 6909SOL     OW21262   4.166   2.294   9.846
 6909SOL    HW121263   4.181   2.228   9.778
 6909SOL    HW221264   4.106   2.253   9.907
 6910SOL     OW21265   4.055   2.417  10.600
 6910SOL    HW121266   4.109   2.360  10.654
 6910SOL    HW221267   4.074   2.390  10.510
 6911SOL     OW21268   0.035   3.468   9.998
 6911SOL    HW121269   0.060   3.534   9.933
 6911SOL    HW221270   4.469   3.415   9.953
 6912SOL     OW21271   3.767   2.930   9.617
 6912SOL    HW121272   3.861   2.922   9.599
 6912SOL    HW221273   3.739   2.842   9.639
 6913SOL     OW21274   3.920   4.299   0.088
 6913SOL    HW121275   3.902   4.360   0.160
 6913SOL    HW221276   3.932   4.356   0.011
 6914SOL     OW21277   3.946   4.009   0.991
 6914SOL    HW121278   3.977   3.972   1.074
 6914SOL    HW221279   3.857   3.975   0.982
 6915SOL     OW21280   3.726   4.101   0.643
 6915SOL    HW121281   3.645   4.131   0.684
 6915SOL    HW221282   3.700   4.025   0.592
 6916SOL     OW21283   0.062   0.004   1.858
 6916SOL    HW121284   0.120   0.065   1.905
 6916SOL    HW221285   0.077   0.023   1.766
 6917SOL     OW21286   4.174   4.114   1.475
 6917SOL    HW121287   4.250   4.057   1.485
 6917SOL    HW221288   4.099   4.060   1.499
 6918SOL     OW21289   3.805   4.372   0.562
 6918SOL    HW121290   3.793   4.281   0.589
 6918SOL    HW221291   3.871   4.407   0.622
 6919SOL     OW21292   3.840   4.479   1.582
 6919SOL    HW121293   3.903   0.001   1.651
 6919SOL    HW221294   3.810   0.064   1.550
 6920SOL     OW21295   0.021   3.736   0.533
 6920SOL    HW121296   0.052   3.790   0.460
 6920SOL    HW221297   4.426   3.747   0.532
 6921SOL     OW21298   4.062   3.974   1.814
 6921SOL    HW121299   4.100   4.058   1.839
 6921SOL    HW221300   3.970   3.981   1.841
 6922SOL     OW21301   4.247   3.910   0.881
 6922SOL    HW121302   4.268   3.916   0.974
 6922SOL    HW221303   4.257   3.999   0.848
 6923SOL     OW21304   3.923   4.001   1.507
 6923SOL    HW121305   3.838   4.044   1.500
 6923SOL    HW221306   3.906   3.922   1.558
 6924SOL     OW21307   4.091   4.387   0.407
 6924SOL    HW121308   4.129   4.314   0.456
 6924SOL    HW221309   4.022   4.421   0.464
 6925SOL     OW21310   4.344   3.839   0.120
 6925SOL    HW121311   4.435   3.810   0.123
 6925SOL    HW221312   4.314   3.815   0.032
 6926SOL     OW21313   4.259   3.790   0.498
 6926SOL    HW121314   4.179   3.792   0.551
 6926SOL    HW221315   4.254   3.868   0.443
 6927SOL     OW21316   4.009   3.773   0.203
 6927SOL    HW121317   4.050   3.827   0.136
 6927SOL    HW221318   4.076   3.708   0.226
 6928SOL     OW21319   0.371   4.388   1.529
 6928SOL    HW121320   0.325   4.369   1.447
 6928SOL    HW221321   0.436   4.318   1.537
 6929SOL     OW21322   3.802   4.280   1.395
 6929SOL    HW121323   3.892   4.272   1.366
 6929SOL    HW221324   3.802   4.354   1.455
 6930SOL     OW21325   4.281   3.931   1.149
 6930SOL    HW121326   4.329   3.875   1.210
 6930SOL    HW221327   4.194   3.942   1.188
 6931SOL     OW21328   4.248   3.995   0.323
 6931SOL    HW121329   4.282   3.935   0.257
 6931SOL    HW221330   4.224   4.074   0.274
 6932SOL     OW21331   4.158   0.012   1.278
 6932SOL    HW121332   4.221   0.005   1.350
 6932SOL    HW221333   4.116   4.426   1.276
 6933SOL     OW21334   4.310   4.262   0.876
 6933SOL    HW121335   4.318   4.335   0.815
 6933SOL    HW221336   4.378   4.277   0.942
 6934SOL     OW21337   4.233   3.776   1.734
 6934SOL    HW121338   4.186   3.717   1.675
 6934SOL    HW221339   4.170   3.845   1.754
 6935SOL     OW21340   4.022   3.923   1.248
 6935SOL    HW121341   3.984   3.955   1.330
 6935SOL    HW221342   4.004   3.829   1.247
 6936SOL     OW21343   4.020   3.789   0.627
 6936SOL    HW121344   4.002   3.880   0.650
 6936SOL    HW221345   4.034   3.746   0.711
 6937SOL     OW21346   4.039   0.012   0.919
 6937SOL    HW121347   4.113   0.073   0.925
 6937SOL    HW221348   4.063   4.439   0.976
 6938SOL     OW21349   4.075   4.243   1.018
 6938SOL    HW121350   4.033   4.160   0.998
 6938SOL    HW221351   4.154   4.245   0.964
 6939SOL     OW21352   3.759   4.275   1.115
 6939SOL    HW121353   3.837   4.258   1.064
 6939SOL    HW221354   3.789   4.275   1.206
 6940SOL     OW21355   3.918   4.247   1.719
 6940SOL    HW121356   3.967   4.191   1.659
 6940SOL    HW221357   3.866   4.304   1.662
 6941SOL     OW21358   0.004   4.296   0.288
 6941SOL    HW121359   0.022   4.217   0.339
 6941SOL    HW221360   4.497   4.366   0.354
 6942SOL     OW21361   4.191   4.213   0.171
 6942SOL    HW121362   4.244   4.280   0.214
 6942SOL    HW221363   4.103   4.251   0.170
 6943SOL     OW21364   3.984   4.045   0.716
 6943SOL    HW121365   3.895   4.072   0.694
 6943SOL    HW221366   3.982   4.032   0.811
 6944SOL     OW21367   4.390   3.928   1.494
 6944SOL    HW121368   4.479   3.940   1.463
 6944SOL    HW221369   4.399   3.921   1.589
 6945SOL     OW21370   3.806   4.049   0.060
 6945SOL    HW121371   3.740   4.048  11.091
 6945SOL    HW221372   3.834   4.141   0.065
 6946SOL     OW21373   3.786   3.881   0.309
 6946SOL    HW121374   3.772   3.953   0.248
 6946SOL    HW221375   3.870   3.844   0.284
 6947SOL     OW21376   4.406   4.272   1.753
 6947SOL    HW121377   4.426   4.353   1.799
 6947SOL    HW221378   4.490   4.242   1.720
 6948SOL     OW21379   4.173   4.157   0.543
 6948SOL    HW121380   4.190   4.090   0.477
 6948SOL    HW221381   4.110   4.117   0.603
 6949SOL     OW21382   4.048   4.265   1.290
 6949SOL    HW121383   4.103   4.208   1.345
 6949SOL    HW221384   4.069   4.241   1.200
 6950SOL     OW21385   3.948   4.289   1.987
 6950SOL    HW121386   3.897   4.362   2.022
 6950SOL    HW221387   3.937   4.296   1.892
 6951SOL     OW21388   3.947   4.008   2.853
 6951SOL    HW121389   3.977   3.972   2.936
 6951SOL    HW221390   3.857   3.975   2.844
 6952SOL     OW21391   3.726   4.099   2.505
 6952SOL    HW121392   3.646   4.132   2.546
 6952SOL    HW221393   3.698   4.022   2.456
 6953SOL     OW21394   0.063   0.004   3.721
 6953SOL    HW121395   0.120   0.065   3.767
 6953SOL    HW221396   0.077   0.023   3.628
 6954SOL     OW21397   4.174   4.114   3.337
 6954SOL    HW121398   4.249   4.056   3.347
 6954SOL    HW221399   4.099   4.060   3.361
 6955SOL     OW21400   3.788   4.381   2.438
 6955SOL    HW121401   3.791   4.286   2.454
 6955SOL    HW221402   3.867   4.414   2.481
 6956SOL     OW21403   3.840   4.479   3.444
 6956SOL    HW121404   3.903   0.001   3.513
 6956SOL    HW221405   3.810   0.064   3.412
 6957SOL     OW21406   0.022   3.733   2.387
 6957SOL    HW121407   0.052   3.792   2.317
 6957SOL    HW221408   4.427   3.746   2.391
 6958SOL     OW21409   4.062   3.974   3.676
 6958SOL    HW121410   4.100   4.058   3.701
 6958SOL    HW221411   3.970   3.981   3.703
 6959SOL     OW21412   4.247   3.909   2.743
 6959SOL    HW121413   4.267   3.916   2.836
 6959SOL    HW221414   4.258   3.998   2.709
 6960SOL     OW21415   3.923   4.002   3.369
 6960SOL    HW121416   3.838   4.045   3.361
 6960SOL    HW221417   3.905   3.923   3.420
 6961SOL     OW21418   4.089   4.394   2.273
 6961SOL    HW121419   4.127   4.317   2.316
 6961SOL    HW221420   4.026   4.428   2.337
 6962SOL     OW21421   4.338   3.824   1.983
 6962SOL    HW121422   4.433   3.820   1.979
 6962SOL    HW221423   4.309   3.806   1.894
 6963SOL     OW21424   4.260   3.790   2.364
 6963SOL    HW121425   4.180   3.793   2.417
 6963SOL    HW221426   4.254   3.866   2.307
 6964SOL     OW21427   4.017   3.772   2.048
 6964SOL    HW121428   4.078   3.835   2.010
 6964SOL    HW221429   4.073   3.708   2.092
 6965SOL     OW21430   0.371   4.388   3.391
 6965SOL    HW121431   0.325   4.369   3.309
 6965SOL    HW221432   0.436   4.318   3.399
 6966SOL     OW21433   3.802   4.280   3.257
 6966SOL    HW121434   3.892   4.272   3.228
 6966SOL    HW221435   3.802   4.354   3.317
 6967SOL     OW21436   4.281   3.930   3.010
 6967SOL    HW121437   4.328   3.875   3.073
 6967SOL    HW221438   4.194   3.942   3.050
 6968SOL     OW21439   4.244   3.988   2.184
 6968SOL    HW121440   4.285   3.931   2.118
 6968SOL    HW221441   4.228   4.070   2.138
 6969SOL     OW21442   4.158   0.012   3.139
 6969SOL    HW121443   4.221   0.006   3.211
 6969SOL    HW221444   4.116   4.426   3.138
 6970SOL     OW21445   4.309   4.262   2.738
 6970SOL    HW121446   4.316   4.334   2.676
 6970SOL    HW221447   4.377   4.278   2.803
 6971SOL     OW21448   4.233   3.776   3.596
 6971SOL    HW121449   4.186   3.717   3.537
 6971SOL    HW221450   4.170   3.844   3.616
 6972SOL     OW21451   4.022   3.923   3.110
 6972SOL    HW121452   3.984   3.955   3.191
 6972SOL    HW221453   4.003   3.829   3.109
 6973SOL     OW21454   4.019   3.789   2.489
 6973SOL    HW121455   4.002   3.880   2.511
 6973SOL    HW221456   4.033   3.745   2.573
 6974SOL     OW21457   4.039   0.012   2.782
 6974SOL    HW121458   4.112   0.073   2.788
 6974SOL    HW221459   4.064   4.440   2.840
 6975SOL     OW21460   4.075   4.243   2.881
 6975SOL    HW121461   4.033   4.159   2.860
 6975SOL    HW221462   4.153   4.245   2.827
 6976SOL     OW21463   3.758   4.274   2.978
 6976SOL    HW121464   3.837   4.259   2.925
 6976SOL    HW221465   3.790   4.274   3.068
 6977SOL     OW21466   3.918   4.248   3.581
 6977SOL    HW121467   3.967   4.192   3.521
 6977SOL    HW221468   3.866   4.304   3.524
 6978SOL     OW21469   0.006   4.297   2.144
 6978SOL    HW121470   0.020   4.214   2.188
 6978SOL    HW221471   4.488   4.359   2.215
 6979SOL     OW21472   4.202   4.210   2.046
 6979SOL    HW121473   4.254   4.289   2.065
 6979SOL    HW221474   4.112   4.243   2.038
 6980SOL     OW21475   3.984   4.044   2.577
 6980SOL    HW121476   3.895   4.071   2.555
 6980SOL    HW221477   3.983   4.032   2.672
 6981SOL     OW21478   4.390   3.928   3.356
 6981SOL    HW121479   4.480   3.940   3.324
 6981SOL    HW221480   4.399   3.922   3.451
 6982SOL     OW21481   3.800   4.039   1.890
 6982SOL    HW121482   3.715   4.033   1.846
 6982SOL    HW221483   3.832   4.127   1.871
 6983SOL     OW21484   3.790   3.878   2.169
 6983SOL    HW121485   3.775   3.957   2.116
 6983SOL    HW221486   3.875   3.846   2.139
 6984SOL     OW21487   4.406   4.271   3.615
 6984SOL    HW121488   4.426   4.353   3.661
 6984SOL    HW221489   4.491   4.241   3.582
 6985SOL     OW21490   4.175   4.156   2.406
 6985SOL    HW121491   4.187   4.092   2.336
 6985SOL    HW221492   4.111   4.116   2.465
 6986SOL     OW21493   4.048   4.265   3.153
 6986SOL    HW121494   4.103   4.208   3.207
 6986SOL    HW221495   4.069   4.241   3.063
 6987SOL     OW21496   3.948   4.289   3.849
 6987SOL    HW121497   3.898   4.362   3.884
 6987SOL    HW221498   3.937   4.296   3.754
 6988SOL     OW21499   3.947   4.008   4.715
 6988SOL    HW121500   3.977   3.972   4.798
 6988SOL    HW221501   3.857   3.975   4.705
 6989SOL     OW21502   3.726   4.099   4.367
 6989SOL    HW121503   3.646   4.132   4.408
 6989SOL    HW221504   3.698   4.022   4.318
 6990SOL     OW21505   0.062   0.004   5.583
 6990SOL    HW121506   0.120   0.065   5.629
 6990SOL    HW221507   0.077   0.022   5.490
 6991SOL     OW21508   4.174   4.114   5.199
 6991SOL    HW121509   4.249   4.056   5.209
 6991SOL    HW221510   4.099   4.060   5.223
 6992SOL     OW21511   3.789   4.381   4.300
 6992SOL    HW121512   3.791   4.286   4.316
 6992SOL    HW221513   3.867   4.414   4.343
 6993SOL     OW21514   3.840   4.479   5.306
 6993SOL    HW121515   3.903   0.001   5.375
 6993SOL    HW221516   3.810   0.064   5.273
 6994SOL     OW21517   0.022   3.733   4.249
 6994SOL    HW121518   0.052   3.792   4.179
 6994SOL    HW221519   4.428   3.745   4.253
 6995SOL     OW21520   4.062   3.974   5.539
 6995SOL    HW121521   4.100   4.058   5.563
 6995SOL    HW221522   3.970   3.981   5.565
 6996SOL     OW21523   4.247   3.909   4.605
 6996SOL    HW121524   4.267   3.916   4.698
 6996SOL    HW221525   4.258   3.998   4.571
 6997SOL     OW21526   3.923   4.001   5.231
 6997SOL    HW121527   3.838   4.044   5.223
 6997SOL    HW221528   3.905   3.922   5.281
 6998SOL     OW21529   4.089   4.394   4.135
 6998SOL    HW121530   4.127   4.317   4.178
 6998SOL    HW221531   4.025   4.427   4.199
 6999SOL     OW21532   4.338   3.824   3.845
 6999SOL    HW121533   4.433   3.820   3.841
 6999SOL    HW221534   4.309   3.805   3.756
 7000SOL     OW21535   4.260   3.790   4.226
 7000SOL    HW121536   4.180   3.793   4.279
 7000SOL    HW221537   4.254   3.866   4.169
 7001SOL     OW21538   4.017   3.772   3.910
 7001SOL    HW121539   4.078   3.835   3.872
 7001SOL    HW221540   4.073   3.708   3.954
 7002SOL     OW21541   0.371   4.388   5.253
 7002SOL    HW121542   0.324   4.369   5.171
 7002SOL    HW221543   0.435   4.318   5.260
 7003SOL     OW21544   3.802   4.280   5.119
 7003SOL    HW121545   3.892   4.272   5.090
 7003SOL    HW221546   3.802   4.354   5.179
 7004SOL     OW21547   4.281   3.930   4.873
 7004SOL    HW121548   4.328   3.875   4.935
 7004SOL    HW221549   4.194   3.942   4.912
 7005SOL     OW21550   4.245   3.988   4.046
 7005SOL    HW121551   4.285   3.931   3.980
 7005SOL    HW221552   4.228   4.070   4.000
 7006SOL     OW21553   4.159   0.012   5.001
 7006SOL    HW121554   4.221   0.006   5.073
 7006SOL    HW221555   4.116   4.426   5.000
 7007SOL     OW21556   4.309   4.262   4.600
 7007SOL    HW121557   4.316   4.334   4.538
 7007SOL    HW221558   4.377   4.278   4.665
 7008SOL     OW21559   4.233   3.776   5.458
 7008SOL    HW121560   4.186   3.717   5.399
 7008SOL    HW221561   4.170   3.844   5.479
 7009SOL     OW21562   4.022   3.923   4.972
 7009SOL    HW121563   3.984   3.955   5.053
 7009SOL    HW221564   4.004   3.829   4.971
 7010SOL     OW21565   4.019   3.789   4.351
 7010SOL    HW121566   4.001   3.880   4.373
 7010SOL    HW221567   4.033   3.745   4.435
 7011SOL     OW21568   4.039   0.012   4.645
 7011SOL    HW121569   4.112   0.073   4.650
 7011SOL    HW221570   4.064   4.439   4.702
 7012SOL     OW21571   4.075   4.243   4.743
 7012SOL    HW121572   4.033   4.159   4.722
 7012SOL    HW221573   4.153   4.244   4.689
 7013SOL     OW21574   3.758   4.274   4.840
 7013SOL    HW121575   3.837   4.259   4.787
 7013SOL    HW221576   3.789   4.274   4.930
 7014SOL     OW21577   3.918   4.247   5.443
 7014SOL    HW121578   3.967   4.191   5.383
 7014SOL    HW221579   3.866   4.304   5.386
 7015SOL     OW21580   0.006   4.297   4.006
 7015SOL    HW121581   0.020   4.213   4.051
 7015SOL    HW221582   4.488   4.359   4.077
 7016SOL     OW21583   4.202   4.210   3.908
 7016SOL    HW121584   4.254   4.289   3.926
 7016SOL    HW221585   4.112   4.243   3.900
 7017SOL     OW21586   3.984   4.044   4.439
 7017SOL    HW121587   3.895   4.071   4.417
 7017SOL    HW221588   3.983   4.032   4.534
 7018SOL     OW21589   4.390   3.928   5.218
 7018SOL    HW121590   4.480   3.940   5.187
 7018SOL    HW221591   4.398   3.922   5.313
 7019SOL     OW21592   3.800   4.039   3.752
 7019SOL    HW121593   3.715   4.034   3.708
 7019SOL    HW221594   3.832   4.127   3.733
 7020SOL     OW21595   3.790   3.878   4.031
 7020SOL    HW121596   3.775   3.957   3.979
 7020SOL    HW221597   3.875   3.846   4.001
 7021SOL     OW21598   4.406   4.272   5.477
 7021SOL    HW121599   4.426   4.353   5.523
 7021SOL    HW221600   4.491   4.242   5.444
 7022SOL     OW21601   4.176   4.156   4.268
 7022SOL    HW121602   4.187   4.092   4.198
 7022SOL    HW221603   4.112   4.116   4.327
 7023SOL     OW21604   4.048   4.265   5.015
 7023SOL    HW121605   4.103   4.208   5.069
 7023SOL    HW221606   4.069   4.241   4.925
 7024SOL     OW21607   3.948   4.289   5.711
 7024SOL    HW121608   3.897   4.362   5.746
 7024SOL    HW221609   3.938   4.296   5.616
 7025SOL     OW21610   3.947   4.008   6.577
 7025SOL    HW121611   3.977   3.972   6.660
 7025SOL    HW221612   3.857   3.975   6.567
 7026SOL     OW21613   3.726   4.099   6.229
 7026SOL    HW121614   3.646   4.132   6.270
 7026SOL    HW221615   3.698   4.022   6.180
 7027SOL     OW21616   0.062   0.004   7.445
 7027SOL    HW121617   0.120   0.065   7.491
 7027SOL    HW221618   0.077   0.023   7.352
 7028SOL     OW21619   4.174   4.114   7.061
 7028SOL    HW121620   4.249   4.056   7.071
 7028SOL    HW221621   4.099   4.060   7.085
 7029SOL     OW21622   3.788   4.381   6.162
 7029SOL    HW121623   3.790   4.286   6.178
 7029SOL    HW221624   3.867   4.414   6.205
 7030SOL     OW21625   3.840   4.479   7.168
 7030SOL    HW121626   3.903   0.001   7.237
 7030SOL    HW221627   3.810   0.064   7.136
 7031SOL     OW21628   0.022   3.733   6.111
 7031SOL    HW121629   0.052   3.792   6.041
 7031SOL    HW221630   4.428   3.745   6.115
 7032SOL     OW21631   4.062   3.974   7.400
 7032SOL    HW121632   4.100   4.058   7.425
 7032SOL    HW221633   3.970   3.981   7.427
 7033SOL     OW21634   4.247   3.909   6.467
 7033SOL    HW121635   4.267   3.916   6.560
 7033SOL    HW221636   4.258   3.998   6.433
 7034SOL     OW21637   3.923   4.002   7.093
 7034SOL    HW121638   3.838   4.045   7.085
 7034SOL    HW221639   3.905   3.922   7.143
 7035SOL     OW21640   4.089   4.394   5.997
 7035SOL    HW121641   4.127   4.317   6.040
 7035SOL    HW221642   4.026   4.427   6.061
 7036SOL     OW21643   4.338   3.824   5.707
 7036SOL    HW121644   4.433   3.820   5.703
 7036SOL    HW221645   4.309   3.806   5.618
 7037SOL     OW21646   4.260   3.790   6.088
 7037SOL    HW121647   4.180   3.792   6.141
 7037SOL    HW221648   4.254   3.866   6.031
 7038SOL     OW21649   4.017   3.772   5.772
 7038SOL    HW121650   4.078   3.835   5.734
 7038SOL    HW221651   4.073   3.708   5.816
 7039SOL     OW21652   0.371   4.388   7.115
 7039SOL    HW121653   0.325   4.369   7.033
 7039SOL    HW221654   0.436   4.318   7.123
 7040SOL     OW21655   3.802   4.280   6.981
 7040SOL    HW121656   3.892   4.272   6.952
 7040SOL    HW221657   3.802   4.354   7.041
 7041SOL     OW21658   4.281   3.930   6.734
 7041SOL    HW121659   4.328   3.875   6.796
 7041SOL    HW221660   4.194   3.942   6.774
 7042SOL     OW21661   4.245   3.988   5.908
 7042SOL    HW121662   4.285   3.931   5.842
 7042SOL    HW221663   4.228   4.070   5.862
 7043SOL     OW21664   4.158   0.012   6.864
 7043SOL    HW121665   4.222   0.006   6.935
 7043SOL    HW221666   4.116   4.426   6.862
 7044SOL     OW21667   4.309   4.262   6.462
 7044SOL    HW121668   4.316   4.334   6.400
 7044SOL    HW221669   4.377   4.278   6.527
 7045SOL     OW21670   4.233   3.776   7.320
 7045SOL    HW121671   4.186   3.717   7.261
 7045SOL    HW221672   4.170   3.844   7.340
 7046SOL     OW21673   4.022   3.923   6.834
 7046SOL    HW121674   3.984   3.955   6.915
 7046SOL    HW221675   4.004   3.829   6.833
 7047SOL     OW21676   4.019   3.789   6.213
 7047SOL    HW121677   4.002   3.880   6.235
 7047SOL    HW221678   4.033   3.745   6.297
 7048SOL     OW21679   4.038   0.012   6.507
 7048SOL    HW121680   4.112   0.073   6.512
 7048SOL    HW221681   4.063   4.439   6.564
 7049SOL     OW21682   4.075   4.243   6.605
 7049SOL    HW121683   4.033   4.159   6.584
 7049SOL    HW221684   4.153   4.245   6.551
 7050SOL     OW21685   3.758   4.274   6.702
 7050SOL    HW121686   3.837   4.259   6.649
 7050SOL    HW221687   3.790   4.274   6.792
 7051SOL     OW21688   3.918   4.247   7.305
 7051SOL    HW121689   3.967   4.192   7.245
 7051SOL    HW221690   3.866   4.304   7.248
 7052SOL     OW21691   0.006   4.297   5.868
 7052SOL    HW121692   0.020   4.213   5.913
 7052SOL    HW221693   4.488   4.359   5.939
 7053SOL     OW21694   4.202   4.211   5.771
 7053SOL    HW121695   4.254   4.289   5.789
 7053SOL    HW221696   4.112   4.243   5.762
 7054SOL     OW21697   3.984   4.044   6.302
 7054SOL    HW121698   3.895   4.071   6.279
 7054SOL    HW221699   3.983   4.032   6.396
 7055SOL     OW21700   4.390   3.928   7.080
 7055SOL    HW121701   4.480   3.940   7.049
 7055SOL    HW221702   4.399   3.922   7.175
 7056SOL     OW21703   3.800   4.039   5.614
 7056SOL    HW121704   3.715   4.033   5.570
 7056SOL    HW221705   3.832   4.127   5.594
 7057SOL     OW21706   3.790   3.879   5.893
 7057SOL    HW121707   3.775   3.957   5.840
 7057SOL    HW221708   3.875   3.846   5.863
 7058SOL     OW21709   4.406   4.272   7.339
 7058SOL    HW121710   4.426   4.353   7.385
 7058SOL    HW221711   4.491   4.242   7.306
 7059SOL     OW21712   4.175   4.156   6.130
 7059SOL    HW121713   4.187   4.092   6.060
 7059SOL    HW221714   4.111   4.116   6.189
 7060SOL     OW21715   4.048   4.265   6.877
 7060SOL    HW121716   4.103   4.208   6.931
 7060SOL    HW221717   4.069   4.241   6.787
 7061SOL     OW21718   3.948   4.289   7.573
 7061SOL    HW121719   3.897   4.362   7.608
 7061SOL    HW221720   3.938   4.296   7.478
 7062SOL     OW21721   3.947   4.008   8.439
 7062SOL    HW121722   3.977   3.972   8.522
 7062SOL    HW221723   3.857   3.975   8.430
 7063SOL     OW21724   3.726   4.099   8.091
 7063SOL    HW121725   3.646   4.132   8.132
 7063SOL    HW221726   3.698   4.022   8.042
 7064SOL     OW21727   0.063   0.004   9.306
 7064SOL    HW121728   0.120   0.065   9.353
 7064SOL    HW221729   0.077   0.023   9.214
 7065SOL     OW21730   4.174   4.114   8.923
 7065SOL    HW121731   4.249   4.056   8.933
 7065SOL    HW221732   4.099   4.060   8.947
 7066SOL     OW21733   3.788   4.381   8.025
 7066SOL    HW121734   3.790   4.287   8.040
 7066SOL    HW221735   3.867   4.415   8.067
 7067SOL     OW21736   3.840   4.479   9.030
 7067SOL    HW121737   3.903   0.001   9.099
 7067SOL    HW221738   3.810   0.064   8.997
 7068SOL     OW21739   0.022   3.732   7.973
 7068SOL    HW121740   0.052   3.792   7.904
 7068SOL    HW221741   4.427   3.746   7.977
 7069SOL     OW21742   4.062   3.974   9.262
 7069SOL    HW121743   4.101   4.058   9.287
 7069SOL    HW221744   3.970   3.981   9.289
 7070SOL     OW21745   4.247   3.909   8.329
 7070SOL    HW121746   4.267   3.916   8.422
 7070SOL    HW221747   4.258   3.998   8.295
 7071SOL     OW21748   3.923   4.002   8.955
 7071SOL    HW121749   3.838   4.045   8.947
 7071SOL    HW221750   3.906   3.923   9.006
 7072SOL     OW21751   4.089   4.394   7.859
 7072SOL    HW121752   4.127   4.317   7.902
 7072SOL    HW221753   4.026   4.428   7.923
 7073SOL     OW21754   4.338   3.824   7.569
 7073SOL    HW121755   4.433   3.820   7.565
 7073SOL    HW221756   4.309   3.805   7.480
 7074SOL     OW21757   4.260   3.790   7.950
 7074SOL    HW121758   4.180   3.793   8.003
 7074SOL    HW221759   4.254   3.866   7.893
 7075SOL     OW21760   4.017   3.772   7.634
 7075SOL    HW121761   4.078   3.835   7.596
 7075SOL    HW221762   4.073   3.708   7.678
 7076SOL     OW21763   0.371   4.388   8.977
 7076SOL    HW121764   0.325   4.369   8.895
 7076SOL    HW221765   0.436   4.318   8.985
 7077SOL     OW21766   3.802   4.280   8.843
 7077SOL    HW121767   3.892   4.272   8.814
 7077SOL    HW221768   3.802   4.354   8.903
 7078SOL     OW21769   4.281   3.930   8.596
 7078SOL    HW121770   4.329   3.876   8.659
 7078SOL    HW221771   4.194   3.942   8.636
 7079SOL     OW21772   4.244   3.988   7.770
 7079SOL    HW121773   4.285   3.931   7.704
 7079SOL    HW221774   4.228   4.070   7.724
 7080SOL     OW21775   4.158   0.012   8.726
 7080SOL    HW121776   4.222   0.006   8.797
 7080SOL    HW221777   4.116   4.426   8.724
 7081SOL     OW21778   4.309   4.262   8.324
 7081SOL    HW121779   4.317   4.334   8.262
 7081SOL    HW221780   4.377   4.278   8.389
 7082SOL     OW21781   4.233   3.776   9.182
 7082SOL    HW121782   4.186   3.717   9.123
 7082SOL    HW221783   4.170   3.844   9.202
 7083SOL     OW21784   4.022   3.923   8.696
 7083SOL    HW121785   3.984   3.955   8.778
 7083SOL    HW221786   4.003   3.829   8.695
 7084SOL     OW21787   4.019   3.788   8.075
 7084SOL    HW121788   4.002   3.880   8.097
 7084SOL    HW221789   4.033   3.745   8.159
 7085SOL     OW21790   4.038   0.012   8.368
 7085SOL    HW121791   4.112   0.073   8.374
 7085SOL    HW221792   4.063   4.439   8.426
 7086SOL     OW21793   4.075   4.243   8.467
 7086SOL    HW121794   4.033   4.159   8.446
 7086SOL    HW221795   4.153   4.245   8.413
 7087SOL     OW21796   3.758   4.274   8.564
 7087SOL    HW121797   3.837   4.259   8.511
 7087SOL    HW221798   3.790   4.274   8.654
 7088SOL     OW21799   3.918   4.248   9.167
 7088SOL    HW121800   3.968   4.192   9.107
 7088SOL    HW221801   3.866   4.304   9.110
 7089SOL     OW21802   0.006   4.297   7.730
 7089SOL    HW121803   0.020   4.214   7.774
 7089SOL    HW221804   4.488   4.359   7.801
 7090SOL     OW21805   4.202   4.210   7.632
 7090SOL    HW121806   4.254   4.289   7.650
 7090SOL    HW221807   4.112   4.243   7.624
 7091SOL     OW21808   3.984   4.044   8.163
 7091SOL    HW121809   3.895   4.071   8.141
 7091SOL    HW221810   3.983   4.032   8.258
 7092SOL     OW21811   4.390   3.928   8.942
 7092SOL    HW121812   4.480   3.940   8.911
 7092SOL    HW221813   4.399   3.922   9.037
 7093SOL     OW21814   3.800   4.039   7.476
 7093SOL    HW121815   3.715   4.033   7.432
 7093SOL    HW221816   3.832   4.127   7.457
 7094SOL     OW21817   3.790   3.879   7.755
 7094SOL    HW121818   3.775   3.957   7.702
 7094SOL    HW221819   3.875   3.846   7.725
 7095SOL     OW21820   4.406   4.272   9.201
 7095SOL    HW121821   4.426   4.353   9.247
 7095SOL    HW221822   4.491   4.241   9.168
 7096SOL     OW21823   4.175   4.156   7.992
 7096SOL    HW121824   4.187   4.092   7.922
 7096SOL    HW221825   4.111   4.116   8.051
 7097SOL     OW21826   4.048   4.265   8.739
 7097SOL    HW121827   4.103   4.208   8.793
 7097SOL    HW221828   4.069   4.241   8.649
 7098SOL     OW21829   3.948   4.289   9.435
 7098SOL    HW121830   3.898   4.363   9.470
 7098SOL    HW221831   3.937   4.296   9.340
 7099SOL     OW21832   3.947   4.008  10.301
 7099SOL    HW121833   3.977   3.972  10.384
 7099SOL    HW221834   3.857   3.975  10.292
 7100SOL     OW21835   3.726   4.099   9.953
 7100SOL    HW121836   3.646   4.132   9.994
 7100SOL    HW221837   3.698   4.022   9.904
 7101SOL     OW21838   4.181   4.121  10.794
 7101SOL    HW121839   4.250   4.054  10.799
 7101SOL    HW221840   4.101   4.076  10.818
 7102SOL     OW21841   3.787   4.381   9.887
 7102SOL    HW121842   3.790   4.287   9.902
 7102SOL    HW221843   3.867   4.415   9.929
 7103SOL     OW21844   3.854   4.461  10.904
 7103SOL    HW121845   3.950   4.465  10.907
 7103SOL    HW221846   3.827   0.052  10.898
 7104SOL     OW21847   0.022   3.732   9.835
 7104SOL    HW121848   0.052   3.791   9.766
 7104SOL    HW221849   4.427   3.745   9.839
 7105SOL     OW21850   4.070   3.978   0.019
 7105SOL    HW121851   4.113   4.059   0.048
 7105SOL    HW221852   3.977   3.994   0.031
 7106SOL     OW21853   4.247   3.909  10.192
 7106SOL    HW121854   4.268   3.917  10.285
 7106SOL    HW221855   4.258   3.998  10.157
 7107SOL     OW21856   3.930   4.002  10.809
 7107SOL    HW121857   3.849   4.054  10.812
 7107SOL    HW221858   3.915   3.931  10.872
 7108SOL     OW21859   4.089   4.394   9.722
 7108SOL    HW121860   4.127   4.317   9.764
 7108SOL    HW221861   4.027   4.428   9.786
 7109SOL     OW21862   4.338   3.824   9.431
 7109SOL    HW121863   4.433   3.820   9.427
 7109SOL    HW221864   4.309   3.805   9.342
 7110SOL     OW21865   4.260   3.790   9.812
 7110SOL    HW121866   4.180   3.792   9.864
 7110SOL    HW221867   4.254   3.866   9.755
 7111SOL     OW21868   4.017   3.772   9.496
 7111SOL    HW121869   4.078   3.835   9.458
 7111SOL    HW221870   4.073   3.708   9.540
 7112SOL     OW21871   0.333   4.384  10.816
 7112SOL    HW121872   0.243   4.354  10.808
 7112SOL    HW221873   0.386   4.308  10.789
 7113SOL     OW21874   3.800   4.277  10.708
 7113SOL    HW121875   3.891   4.270  10.679
 7113SOL    HW221876   3.803   4.339  10.781
 7114SOL     OW21877   4.282   3.932  10.461
 7114SOL    HW121878   4.324   3.864  10.515
 7114SOL    HW221879   4.195   3.941  10.498
 7115SOL     OW21880   4.244   3.988   9.632
 7115SOL    HW121881   4.284   3.931   9.566
 7115SOL    HW221882   4.228   4.070   9.586
 7116SOL     OW21883   4.158   0.008  10.578
 7116SOL    HW121884   4.222   4.500  10.649
 7116SOL    HW221885   4.110   4.425  10.580
 7117SOL     OW21886   4.309   4.261  10.186
 7117SOL    HW121887   4.318   4.334  10.125
 7117SOL    HW221888   4.378   4.275  10.251
 7118SOL     OW21889   4.127   4.460  10.910
 7118SOL    HW121890   4.193   0.027  10.891
 7118SOL    HW221891   4.174   4.377  10.902
 7119SOL     OW21892   4.024   3.923  10.556
 7119SOL    HW121893   3.987   3.955  10.639
 7119SOL    HW221894   4.004   3.829  10.557
 7120SOL     OW21895   4.019   3.788   9.937
 7120SOL    HW121896   4.001   3.880   9.959
 7120SOL    HW221897   4.033   3.745  10.021
 7121SOL     OW21898   4.039   0.012  10.230
 7121SOL    HW121899   4.112   0.074  10.237
 7121SOL    HW221900   4.063   4.440  10.288
 7122SOL     OW21901   4.075   4.243  10.329
 7122SOL    HW121902   4.033   4.159  10.308
 7122SOL    HW221903   4.153   4.245  10.275
 7123SOL     OW21904   3.759   4.277  10.428
 7123SOL    HW121905   3.838   4.260  10.376
 7123SOL    HW221906   3.788   4.275  10.519
 7124SOL     OW21907   0.005   4.297   9.593
 7124SOL    HW121908   0.020   4.214   9.637
 7124SOL    HW221909   4.489   4.360   9.663
 7125SOL     OW21910   4.202   4.210   9.494
 7125SOL    HW121911   4.254   4.288   9.513
 7125SOL    HW221912   4.112   4.243   9.486
 7126SOL     OW21913   3.984   4.044  10.026
 7126SOL    HW121914   3.895   4.071  10.003
 7126SOL    HW221915   3.983   4.032  10.121
 7127SOL     OW21916   4.397   3.932  10.812
 7127SOL    HW121917   4.474   3.943  10.756
 7127SOL    HW221918   4.431   3.944  10.901
 7128SOL     OW21919   3.800   4.039   9.338
 7128SOL    HW121920   3.715   4.034   9.294
 7128SOL    HW221921   3.832   4.127   9.319
 7129SOL     OW21922   3.790   3.878   9.617
 7129SOL    HW121923   3.775   3.957   9.564
 7129SOL    HW221924   3.875   3.846   9.587
 7130SOL     OW21925   4.175   4.156   9.854
 7130SOL    HW121926   4.187   4.092   9.784
 7130SOL    HW221927   4.111   4.116   9.913
 7131SOL     OW21928   4.047   4.262  10.601
 7131SOL    HW121929   4.103   4.206  10.655
 7131SOL    HW221930   4.068   4.238  10.511
   4.50000   4.50000  11.10000
